<event>
 4    1 -0.6963162E-004  0.1736539E+03  0.7818608E-02  0.1174090E+00
          5   -1    0    0  501    0  0.00000000000E+00  0.00000000000E+00  0.40526747477E+03  0.40529472746E+03  0.47000000000E+01 0. -1.
         -5   -1    0    0    0  501 -0.00000000000E+00 -0.00000000000E+00 -0.19307835566E+03  0.19313555195E+03  0.47000000000E+01 0.  1.
          6    1    1    2  502    0  0.18968038129E+02 -0.14556143426E+02  0.34069534667E+03  0.38239898931E+03  0.17200000000E+03 0. -1.
         -6    1    1    2    0  502 -0.18968038129E+02  0.14556143426E+02 -0.12850622756E+03  0.21603129010E+03  0.17200000000E+03 0.  1.
</event>
<event>
 4    1 -0.6963162E-004  0.1936211E+03  0.7818608E-02  0.1155235E+00
         -5   -1    0    0    0  501 -0.00000000000E+00  0.00000000000E+00  0.11846428544E+03  0.11855748363E+03  0.47000000000E+01 0.  1.
          5   -1    0    0  501    0  0.00000000000E+00 -0.00000000000E+00 -0.31930471582E+03  0.31933930473E+03  0.47000000000E+01 0. -1.
          6    1    1    2  502    0 -0.88121333386E+02  0.11821522732E+02 -0.78918747834E+02  0.20908679192E+03  0.17200000000E+03 0.  1.
         -6    1    1    2    0  502  0.88121333386E+02 -0.11821522732E+02 -0.12192168254E+03  0.22880999644E+03  0.17200000000E+03 0. -1.
</event>
<event>
 4    1 -0.6963162E-004  0.2038563E+03  0.7818608E-02  0.1146526E+00
         -5   -1    0    0    0  501 -0.00000000000E+00  0.00000000000E+00  0.13154909174E+03  0.13163302602E+03  0.47000000000E+01 0.  1.
          5   -1    0    0  501    0  0.00000000000E+00 -0.00000000000E+00 -0.47804614272E+03  0.47806924663E+03  0.47000000000E+01 0. -1.
          6    1    1    2  502    0 -0.10857923005E+03 -0.13562791583E+02 -0.35087795300E+03  0.40579888666E+03  0.17200000000E+03 0.  1.
         -6    1    1    2    0  502  0.10857923005E+03  0.13562791583E+02  0.43809020196E+01  0.20390338599E+03  0.17200000000E+03 0.  1.
</event>
<event>
 4    1 -0.6963162E-004  0.1976521E+03  0.7818608E-02  0.1151735E+00
          5   -1    0    0  501    0  0.00000000000E+00  0.00000000000E+00  0.52560576148E+03  0.52562677491E+03  0.47000000000E+01 0. -1.
         -5   -1    0    0    0  501 -0.00000000000E+00 -0.00000000000E+00 -0.76623544640E+02  0.76767555603E+02  0.47000000000E+01 0.  1.
          6    1    1    2  502    0 -0.65777915856E+02 -0.71802679908E+02  0.27767247639E+03  0.34083480339E+03  0.17200000000E+03 0. -1.
         -6    1    1    2    0  502  0.65777915856E+02  0.71802679908E+02  0.17130974045E+03  0.26155952713E+03  0.17200000000E+03 0.  1.
</event>
<event>
 4    1 -0.6963162E-004  0.1917557E+03  0.7818608E-02  0.1156887E+00
          5   -1    0    0  501    0  0.00000000000E+00  0.00000000000E+00  0.44856165572E+03  0.44858627819E+03  0.47000000000E+01 0. -1.
         -5   -1    0    0    0  501 -0.00000000000E+00 -0.00000000000E+00 -0.19717537468E+03  0.19723138285E+03  0.47000000000E+01 0.  1.
          6    1    1    2  502    0 -0.84420107114E+02 -0.77128979051E+01  0.37254051349E+03  0.41899484182E+03  0.17200000000E+03 0. -1.
         -6    1    1    2    0  502  0.84420107114E+02  0.77128979051E+01 -0.12115423245E+03  0.22682281922E+03  0.17200000000E+03 0.  1.
</event>
<event>
 4    1 -0.6963162E-004  0.1950413E+03  0.7818608E-02  0.1153991E+00
          5   -1    0    0  501    0  0.00000000000E+00  0.00000000000E+00  0.19876372773E+03  0.19881928846E+03  0.47000000000E+01 0. -1.
         -5   -1    0    0    0  501 -0.00000000000E+00 -0.00000000000E+00 -0.43466196002E+03  0.43468736983E+03  0.47000000000E+01 0.  1.
          6    1    1    2  502    0  0.89995897282E+02 -0.18916980436E+02  0.11904814608E+03  0.22850289881E+03  0.17200000000E+03 0. -1.
         -6    1    1    2    0  502 -0.89995897282E+02  0.18916980436E+02 -0.35494637837E+03  0.40500375948E+03  0.17200000000E+03 0.  1.
</event>
<event>
 4    1 -0.6963162E-004  0.1826177E+03  0.7818608E-02  0.1165293E+00
          5   -1    0    0  501    0  0.00000000000E+00  0.00000000000E+00  0.17208869911E+04  0.17208934093E+04  0.47000000000E+01 0. -1.
         -5   -1    0    0    0  501 -0.00000000000E+00 -0.00000000000E+00 -0.65326513384E+02  0.65495368927E+02  0.47000000000E+01 0.  1.
          6    1    1    2  502    0 -0.60317199676E+02 -0.11272724457E+02  0.15770860588E+04  0.15876239088E+04  0.17200000000E+03 0. -1.
         -6    1    1    2    0  502  0.60317199676E+02  0.11272724457E+02  0.78474418911E+02  0.19876486942E+03  0.17200000000E+03 0.  1.
</event>
<event>
 4    1 -0.6963162E-004  0.2697460E+03  0.7818608E-02  0.1101425E+00
         -5   -1    0    0    0  501 -0.00000000000E+00  0.00000000000E+00  0.21259201644E+03  0.21264396406E+03  0.47000000000E+01 0.  1.
          5   -1    0    0  501    0  0.00000000000E+00 -0.00000000000E+00 -0.44853572999E+03  0.44856035388E+03  0.47000000000E+01 0. -1.
          6    1    1    2  502    0  0.15966276834E+03 -0.13299128892E+03 -0.27896181656E+03  0.38804971024E+03  0.17200000000E+03 0. -1.
         -6    1    1    2    0  502 -0.15966276834E+03  0.13299128892E+03  0.43018103015E+02  0.27315460770E+03  0.17200000000E+03 0.  1.
</event>
<event>
 4    1 -0.6963162E-004  0.2575034E+03  0.7818608E-02  0.1108653E+00
          5   -1    0    0  501    0  0.00000000000E+00  0.00000000000E+00  0.90026054377E+03  0.90027281235E+03  0.47000000000E+01 0. -1.
         -5   -1    0    0    0  501 -0.00000000000E+00 -0.00000000000E+00 -0.95496539849E+02  0.95612128536E+02  0.47000000000E+01 0.  1.
          6    1    1    2  502    0  0.14850831149E+02  0.19105882967E+03  0.64082001000E+03  0.69062168283E+03  0.17200000000E+03 0. -1.
         -6    1    1    2    0  502 -0.14850831149E+02 -0.19105882967E+03  0.16394399392E+03  0.30526325806E+03  0.17200000000E+03 0.  1.
</event>
<event>
 4    1 -0.6963162E-004  0.2627500E+03  0.7818608E-02  0.1105502E+00
         -5   -1    0    0    0  501 -0.00000000000E+00  0.00000000000E+00  0.12363951829E+04  0.12364041161E+04  0.47000000000E+01 0.  1.
          5   -1    0    0  501    0  0.00000000000E+00 -0.00000000000E+00 -0.48073220586E+03  0.48075518068E+03  0.47000000000E+01 0. -1.
          6    1    1    2  502    0 -0.19104823522E+02 -0.19770831199E+03 -0.42934928602E+03  0.50336704334E+03  0.17200000000E+03 0. -1.
         -6    1    1    2    0  502  0.19104823522E+02  0.19770831199E+03  0.11850122630E+04  0.12137922534E+04  0.17200000000E+03 0.  1.
</event>
<event>
 4    1 -0.6963162E-004  0.2897952E+03  0.7818608E-02  0.1090456E+00
          5   -1    0    0  501    0  0.00000000000E+00  0.00000000000E+00  0.21792195965E+04  0.21792246648E+04  0.47000000000E+01 0. -1.
         -5   -1    0    0    0  501 -0.00000000000E+00 -0.00000000000E+00 -0.76803704503E+02  0.76947378288E+02  0.47000000000E+01 0.  1.
          6    1    1    2  502    0 -0.88065241991E+02 -0.21596706863E+03  0.18478785697E+04  0.18704642392E+04  0.17200000000E+03 0. -1.
         -6    1    1    2    0  502  0.88065241991E+02  0.21596706863E+03  0.25453732223E+03  0.38570780390E+03  0.17200000000E+03 0.  1.
</event>
<event>
 4    1 -0.6963162E-004  0.2203896E+03  0.7818608E-02  0.1133593E+00
          5   -1    0    0  501    0  0.00000000000E+00  0.00000000000E+00  0.58325249278E+02  0.58514311953E+02  0.47000000000E+01 0. -1.
         -5   -1    0    0    0  501 -0.00000000000E+00 -0.00000000000E+00 -0.87037919097E+03  0.87039188075E+03  0.47000000000E+01 0.  1.
          6    1    1    2  502    0  0.12138594440E+03  0.65215391258E+02 -0.30753306699E+03  0.37834928577E+03  0.17200000000E+03 0. -1.
         -6    1    1    2    0  502 -0.12138594440E+03 -0.65215391258E+02 -0.50452087470E+03  0.55055690693E+03  0.17200000000E+03 0. -1.
</event>
<event>
 4    1 -0.6963162E-004  0.2272191E+03  0.7818608E-02  0.1128613E+00
         -5   -1    0    0    0  501 -0.00000000000E+00  0.00000000000E+00  0.31519947830E+03  0.31523451766E+03  0.47000000000E+01 0.  1.
          5   -1    0    0  501    0  0.00000000000E+00 -0.00000000000E+00 -0.84366723896E+03  0.84368033051E+03  0.47000000000E+01 0. -1.
          6    1    1    2  502    0 -0.86742739359E+02 -0.12049991127E+03 -0.78441506622E+03  0.81666120733E+03  0.17200000000E+03 0. -1.
         -6    1    1    2    0  502  0.86742739359E+02  0.12049991127E+03  0.25594730556E+03  0.34225364084E+03  0.17200000000E+03 0.  1.
</event>
<event>
 4    1 -0.6963162E-004  0.1950978E+03  0.7818608E-02  0.1153942E+00
          5   -1    0    0  501    0  0.00000000000E+00  0.00000000000E+00  0.14434435270E+04  0.14434511788E+04  0.47000000000E+01 0. -1.
         -5   -1    0    0    0  501 -0.00000000000E+00 -0.00000000000E+00 -0.12519488284E+03  0.12528307423E+03  0.47000000000E+01 0.  1.
          6    1    1    2  502    0 -0.86091612862E+02 -0.32671042445E+02  0.13560460662E+04  0.13700087943E+04  0.17200000000E+03 0. -1.
         -6    1    1    2    0  502  0.86091612862E+02  0.32671042445E+02 -0.37797422089E+02  0.19872545870E+03  0.17200000000E+03 0.  1.
</event>
<event>
 4    1 -0.6963162E-004  0.1807569E+03  0.7818608E-02  0.1167073E+00
         -5   -1    0    0    0  501 -0.00000000000E+00  0.00000000000E+00  0.19412542263E+03  0.19418231050E+03  0.47000000000E+01 0.  1.
          5   -1    0    0  501    0  0.00000000000E+00 -0.00000000000E+00 -0.22053156101E+03  0.22058163886E+03  0.47000000000E+01 0. -1.
          6    1    1    2  502    0  0.28703956856E+02  0.47593464715E+02 -0.11420433662E+03  0.21381226701E+03  0.17200000000E+03 0. -1.
         -6    1    1    2    0  502 -0.28703956856E+02 -0.47593464715E+02  0.87798198238E+02  0.20095168234E+03  0.17200000000E+03 0.  1.
</event>
<event>
 4    1 -0.6963162E-004  0.1726690E+03  0.7818608E-02  0.1175093E+00
         -5   -1    0    0    0  501 -0.00000000000E+00  0.00000000000E+00  0.69328325674E+02  0.69487457435E+02  0.47000000000E+01 0.  1.
          5   -1    0    0  501    0  0.00000000000E+00 -0.00000000000E+00 -0.48072930934E+03  0.48075228430E+03  0.47000000000E+01 0. -1.
          6    1    1    2  502    0 -0.53256253639E+01  0.14220691635E+02 -0.29559607241E+03  0.34233262827E+03  0.17200000000E+03 0. -1.
         -6    1    1    2    0  502  0.53256253639E+01 -0.14220691635E+02 -0.11580491125E+03  0.20790711346E+03  0.17200000000E+03 0.  1.
</event>
<event>
 4    1 -0.6963162E-004  0.1794298E+03  0.7818608E-02  0.1168356E+00
         -5   -1    0    0    0  501 -0.00000000000E+00  0.00000000000E+00  0.17560190938E+03  0.17566479607E+03  0.47000000000E+01 0.  1.
          5   -1    0    0  501    0  0.00000000000E+00 -0.00000000000E+00 -0.18551075509E+03  0.18557028387E+03  0.47000000000E+01 0. -1.
          6    1    1    2  502    0 -0.50789872033E+02  0.56075035955E+01 -0.25039187469E+02  0.18116847437E+03  0.17200000000E+03 0. -1.
         -6    1    1    2    0  502  0.50789872033E+02 -0.56075035955E+01  0.15130341756E+02  0.18006660556E+03  0.17200000000E+03 0. -1.
</event>
<event>
 4    1 -0.6963162E-004  0.1832642E+03  0.7818608E-02  0.1164681E+00
          5   -1    0    0  501    0  0.00000000000E+00  0.00000000000E+00  0.50234564901E+03  0.50236763539E+03  0.47000000000E+01 0. -1.
         -5   -1    0    0    0  501 -0.00000000000E+00 -0.00000000000E+00 -0.66766701948E+02  0.66931924289E+02  0.47000000000E+01 0.  1.
          6    1    1    2  502    0  0.38931885527E+01 -0.63139501161E+02  0.21353943735E+03  0.28139801852E+03  0.17200000000E+03 0. -1.
         -6    1    1    2    0  502 -0.38931885527E+01  0.63139501161E+02  0.22203950972E+03  0.28790154116E+03  0.17200000000E+03 0. -1.
</event>
<event>
 4    1 -0.6963162E-004  0.2006662E+03  0.7818608E-02  0.1149178E+00
         -5   -1    0    0    0  501 -0.00000000000E+00  0.00000000000E+00  0.70559912682E+03  0.70561478001E+03  0.47000000000E+01 0.  1.
          5   -1    0    0  501    0  0.00000000000E+00 -0.00000000000E+00 -0.57166314710E+02  0.57359197497E+02  0.47000000000E+01 0. -1.
          6    1    1    2  502    0  0.81867356392E+02  0.63092599427E+02  0.30104522433E+03  0.36179437148E+03  0.17200000000E+03 0. -1.
         -6    1    1    2    0  502 -0.81867356392E+02 -0.63092599427E+02  0.34738758778E+03  0.40117960602E+03  0.17200000000E+03 0.  1.
</event>
<event>
 4    1 -0.6963162E-004  0.2207563E+03  0.7818608E-02  0.1133320E+00
          5   -1    0    0  501    0  0.00000000000E+00  0.00000000000E+00  0.21520551281E+03  0.21525682972E+03  0.47000000000E+01 0. -1.
         -5   -1    0    0    0  501 -0.00000000000E+00 -0.00000000000E+00 -0.60439382078E+03  0.60441209501E+03  0.47000000000E+01 0.  1.
          6    1    1    2  502    0 -0.12548357225E+03  0.58337087802E+02  0.12951437995E+03  0.25594397303E+03  0.17200000000E+03 0. -1.
         -6    1    1    2    0  502  0.12548357225E+03 -0.58337087802E+02 -0.51870268792E+03  0.56372495170E+03  0.17200000000E+03 0.  1.
</event>
<event>
 4    1 -0.6963162E-004  0.1818657E+03  0.7818608E-02  0.1166010E+00
          5   -1    0    0  501    0  0.00000000000E+00  0.00000000000E+00  0.13111088779E+03  0.13119510241E+03  0.47000000000E+01 0. -1.
         -5   -1    0    0    0  501 -0.00000000000E+00 -0.00000000000E+00 -0.61642077250E+03  0.61643869020E+03  0.47000000000E+01 0.  1.
          6    1    1    2  502    0  0.62283656685E+01  0.58756470917E+02  0.44709456407E+02  0.18728067414E+03  0.17200000000E+03 0. -1.
         -6    1    1    2    0  502 -0.62283656685E+01 -0.58756470917E+02 -0.53001934112E+03  0.56035311847E+03  0.17200000000E+03 0.  1.
</event>
<event>
 4    1 -0.6963162E-004  0.2395358E+03  0.7818608E-02  0.1120102E+00
          5   -1    0    0  501    0  0.00000000000E+00  0.00000000000E+00  0.10037181858E+04  0.10037291898E+04  0.47000000000E+01 0. -1.
         -5   -1    0    0    0  501 -0.00000000000E+00 -0.00000000000E+00 -0.78912590458E+02  0.79052431542E+02  0.47000000000E+01 0.  1.
          6    1    1    2  502    0 -0.15080156378E+02  0.16603004406E+03  0.74700089750E+03  0.78446652415E+03  0.17200000000E+03 0. -1.
         -6    1    1    2    0  502  0.15080156378E+02 -0.16603004406E+03  0.17780469782E+03  0.29831509720E+03  0.17200000000E+03 0.  1.
</event>
<event>
 4    1 -0.6963162E-004  0.1745101E+03  0.7818608E-02  0.1173225E+00
          5   -1    0    0  501    0  0.00000000000E+00  0.00000000000E+00  0.55835069154E+03  0.55837047267E+03  0.47000000000E+01 0. -1.
         -5   -1    0    0    0  501 -0.00000000000E+00 -0.00000000000E+00 -0.10578412302E+03  0.10588848229E+03  0.47000000000E+01 0.  1.
          6    1    1    2  502    0 -0.82858042712E+00 -0.29480288110E+02  0.45752718955E+03  0.48967836700E+03  0.17200000000E+03 0. -1.
         -6    1    1    2    0  502  0.82858042712E+00  0.29480288110E+02 -0.49606210214E+01  0.17458058796E+03  0.17200000000E+03 0.  1.
</event>
<event>
 4    1 -0.6963162E-004  0.1925604E+03  0.7818608E-02  0.1156172E+00
          5   -1    0    0  501    0  0.00000000000E+00  0.00000000000E+00  0.11630859129E+03  0.11640351544E+03  0.47000000000E+01 0. -1.
         -5   -1    0    0    0  501 -0.00000000000E+00 -0.00000000000E+00 -0.67918344119E+03  0.67919970317E+03  0.47000000000E+01 0.  1.
          6    1    1    2  502    0 -0.81860088268E+02  0.28185864784E+02  0.84044396514E+01  0.19274374602E+03  0.17200000000E+03 0. -1.
         -6    1    1    2    0  502  0.81860088268E+02 -0.28185864784E+02 -0.57127928955E+03  0.60285947260E+03  0.17200000000E+03 0.  1.
</event>
<event>
 4    1 -0.6963162E-004  0.1986073E+03  0.7818608E-02  0.1150919E+00
         -5   -1    0    0    0  501 -0.00000000000E+00  0.00000000000E+00  0.33633447197E+03  0.33636730970E+03  0.47000000000E+01 0.  1.
          5   -1    0    0  501    0  0.00000000000E+00 -0.00000000000E+00 -0.72959073832E+03  0.72960587678E+03  0.47000000000E+01 0. -1.
          6    1    1    2  502    0  0.49596408361E+02  0.86029361926E+02 -0.68490638026E+03  0.71312103079E+03  0.17200000000E+03 0. -1.
         -6    1    1    2    0  502 -0.49596408361E+02 -0.86029361926E+02  0.29165011391E+03  0.35285215570E+03  0.17200000000E+03 0.  1.
</event>
<event>
 4    1 -0.6963162E-004  0.1985736E+03  0.7818608E-02  0.1150948E+00
         -5   -1    0    0    0  501 -0.00000000000E+00  0.00000000000E+00  0.51024027685E+03  0.51026192306E+03  0.47000000000E+01 0.  1.
          5   -1    0    0  501    0  0.00000000000E+00 -0.00000000000E+00 -0.18374100165E+03  0.18380110361E+03  0.47000000000E+01 0. -1.
          6    1    1    2  502    0  0.82356624015E+02  0.55361177022E+02 -0.10093551396E+03  0.22275423996E+03  0.17200000000E+03 0. -1.
         -6    1    1    2    0  502 -0.82356624015E+02 -0.55361177022E+02  0.42743478916E+03  0.47130878671E+03  0.17200000000E+03 0.  1.
</event>
<event>
 4    1 -0.6963162E-004  0.2325435E+03  0.7818608E-02  0.1124862E+00
         -5   -1    0    0    0  501 -0.00000000000E+00  0.00000000000E+00  0.16641963943E+03  0.16648599457E+03  0.47000000000E+01 0.  1.
          5   -1    0    0  501    0  0.00000000000E+00 -0.00000000000E+00 -0.34444506622E+03  0.34447713080E+03  0.47000000000E+01 0. -1.
          6    1    1    2  502    0  0.10991365510E+03 -0.11140679869E+03 -0.15002925805E+03  0.27674042827E+03  0.17200000000E+03 0. -1.
         -6    1    1    2    0  502 -0.10991365510E+03  0.11140679869E+03 -0.27996168737E+02  0.23422269710E+03  0.17200000000E+03 0.  1.
</event>
<event>
 4    1 -0.6963162E-004  0.1745246E+03  0.7818608E-02  0.1173210E+00
          5   -1    0    0  501    0  0.00000000000E+00  0.00000000000E+00  0.12496324045E+03  0.12505159521E+03  0.47000000000E+01 0. -1.
         -5   -1    0    0    0  501 -0.00000000000E+00 -0.00000000000E+00 -0.33189396651E+03  0.33192724355E+03  0.47000000000E+01 0.  1.
          6    1    1    2  502    0  0.13355465105E+02 -0.26390715695E+02  0.14399161307E+02  0.17511760097E+03  0.17200000000E+03 0. -1.
         -6    1    1    2    0  502 -0.13355465105E+02  0.26390715695E+02 -0.22132988737E+03  0.28186123778E+03  0.17200000000E+03 0.  1.
</event>
<event>
 4    1 -0.6963162E-004  0.2317833E+03  0.7818608E-02  0.1125391E+00
          5   -1    0    0  501    0  0.00000000000E+00  0.00000000000E+00  0.64742814797E+03  0.64744520755E+03  0.47000000000E+01 0. -1.
         -5   -1    0    0    0  501 -0.00000000000E+00 -0.00000000000E+00 -0.91382950912E+02  0.91503736084E+02  0.47000000000E+01 0.  1.
          6    1    1    2  502    0 -0.13951218062E+03 -0.68380091316E+02  0.39053701801E+03  0.45413945861E+03  0.17200000000E+03 0. -1.
         -6    1    1    2    0  502  0.13951218062E+03  0.68380091316E+02  0.16550817905E+03  0.28480948503E+03  0.17200000000E+03 0.  1.
</event>
<event>
 4    1 -0.6963162E-004  0.2017062E+03  0.7818608E-02  0.1148307E+00
          5   -1    0    0  501    0  0.00000000000E+00  0.00000000000E+00  0.11682310047E+04  0.11682404592E+04  0.47000000000E+01 0. -1.
         -5   -1    0    0    0  501 -0.00000000000E+00 -0.00000000000E+00 -0.43222933042E+02  0.43477717750E+02  0.47000000000E+01 0.  1.
          6    1    1    2  502    0  0.23764168016E+02  0.10264821885E+03  0.83127960042E+03  0.85540117290E+03  0.17200000000E+03 0. -1.
         -6    1    1    2    0  502 -0.23764168016E+02 -0.10264821885E+03  0.29372847126E+03  0.35631700401E+03  0.17200000000E+03 0.  1.
</event>
<event>
 4    1 -0.6963162E-004  0.2110770E+03  0.7818608E-02  0.1140716E+00
          5   -1    0    0  501    0  0.00000000000E+00  0.00000000000E+00  0.16583826429E+03  0.16590485196E+03  0.47000000000E+01 0. -1.
         -5   -1    0    0    0  501 -0.00000000000E+00 -0.00000000000E+00 -0.44224627802E+03  0.44227125209E+03  0.47000000000E+01 0.  1.
          6    1    1    2  502    0  0.89592927795E+02 -0.83322192785E+02  0.52367154056E+02  0.21747597418E+03  0.17200000000E+03 0. -1.
         -6    1    1    2    0  502 -0.89592927795E+02  0.83322192785E+02 -0.32877516779E+03  0.39070012986E+03  0.17200000000E+03 0.  1.
</event>
<event>
 4    1 -0.6963162E-004  0.3387512E+03  0.7818608E-02  0.1067329E+00
         -5   -1    0    0    0  501 -0.00000000000E+00  0.00000000000E+00  0.20805353230E+03  0.20810661282E+03  0.47000000000E+01 0.  1.
          5   -1    0    0  501    0  0.00000000000E+00 -0.00000000000E+00 -0.17682039967E+04  0.17682102431E+04  0.47000000000E+01 0. -1.
          6    1    1    2  502    0 -0.24097695108E+03  0.16461624706E+03 -0.15997833121E+04  0.16352550399E+04  0.17200000000E+03 0. -1.
         -6    1    1    2    0  502  0.24097695108E+03 -0.16461624706E+03  0.39632847740E+02  0.34106181605E+03  0.17200000000E+03 0.  1.
</event>
<event>
 4    1 -0.6963162E-004  0.1742045E+03  0.7818608E-02  0.1173533E+00
         -5   -1    0    0    0  501 -0.00000000000E+00  0.00000000000E+00  0.12162657363E+03  0.12171735050E+03  0.47000000000E+01 0.  1.
          5   -1    0    0  501    0  0.00000000000E+00 -0.00000000000E+00 -0.51182579390E+03  0.51184737306E+03  0.47000000000E+01 0. -1.
          6    1    1    2  502    0  0.12035416272E+02 -0.24866760128E+02 -0.42194450982E+03  0.45649137601E+03  0.17200000000E+03 0. -1.
         -6    1    1    2    0  502 -0.12035416272E+02  0.24866760128E+02  0.31745289550E+02  0.17707334755E+03  0.17200000000E+03 0.  1.
</event>
<event>
 4    1 -0.6963162E-004  0.3047683E+03  0.7818608E-02  0.1082881E+00
         -5   -1    0    0    0  501 -0.00000000000E+00  0.00000000000E+00  0.16975077578E+03  0.16981582929E+03  0.47000000000E+01 0.  1.
          5   -1    0    0  501    0  0.00000000000E+00 -0.00000000000E+00 -0.13993312175E+04  0.13993391105E+04  0.47000000000E+01 0. -1.
          6    1    1    2  502    0  0.15477666927E+03 -0.19835297694E+03 -0.12270958507E+04  0.12643765055E+04  0.17200000000E+03 0. -1.
         -6    1    1    2    0  502 -0.15477666927E+03  0.19835297694E+03 -0.24845909630E+01  0.30477843428E+03  0.17200000000E+03 0.  1.
</event>
<event>
 4    1 -0.6963162E-004  0.3101714E+03  0.7818608E-02  0.1080264E+00
          5   -1    0    0  501    0  0.00000000000E+00  0.00000000000E+00  0.14933884917E+03  0.14941279019E+03  0.47000000000E+01 0. -1.
         -5   -1    0    0    0  501 -0.00000000000E+00 -0.00000000000E+00 -0.64647900514E+03  0.64649608977E+03  0.47000000000E+01 0.  1.
          6    1    1    2  502    0  0.40033821653E+02 -0.25498941679E+03 -0.22379453453E+03  0.38247915399E+03  0.17200000000E+03 0.  1.
         -6    1    1    2    0  502 -0.40033821653E+02  0.25498941679E+03 -0.27334562144E+03  0.41342972597E+03  0.17200000000E+03 0.  1.
</event>
<event>
 4    1 -0.6963162E-004  0.1797910E+03  0.7818608E-02  0.1168005E+00
         -5   -1    0    0    0  501 -0.00000000000E+00  0.00000000000E+00  0.19529370185E+03  0.19535024951E+03  0.47000000000E+01 0.  1.
          5   -1    0    0  501    0  0.00000000000E+00 -0.00000000000E+00 -0.66196491041E+03  0.66198159538E+03  0.47000000000E+01 0. -1.
          6    1    1    2  502    0 -0.44046231135E+02  0.28297261399E+02 -0.60457584659E+03  0.63074302197E+03  0.17200000000E+03 0. -1.
         -6    1    1    2    0  502  0.44046231135E+02 -0.28297261399E+02  0.13790463803E+03  0.22658882291E+03  0.17200000000E+03 0.  1.
</event>
<event>
 4    1 -0.6963162E-004  0.2275040E+03  0.7818608E-02  0.1128409E+00
         -5   -1    0    0    0  501 -0.00000000000E+00  0.00000000000E+00  0.12120359021E+03  0.12129468364E+03  0.47000000000E+01 0.  1.
          5   -1    0    0  501    0  0.00000000000E+00 -0.00000000000E+00 -0.98244919475E+03  0.98246043700E+03  0.47000000000E+01 0. -1.
          6    1    1    2  502    0 -0.85024953433E+02  0.12224907974E+03 -0.84564909253E+03  0.87571711637E+03  0.17200000000E+03 0. -1.
         -6    1    1    2    0  502  0.85024953433E+02 -0.12224907974E+03 -0.15596512013E+02  0.22803800427E+03  0.17200000000E+03 0.  1.
</event>
<event>
 4    1 -0.6963162E-004  0.1735978E+03  0.7818608E-02  0.1174147E+00
          5   -1    0    0  501    0  0.00000000000E+00  0.00000000000E+00  0.30476844044E+03  0.30480467891E+03  0.47000000000E+01 0. -1.
         -5   -1    0    0    0  501 -0.00000000000E+00 -0.00000000000E+00 -0.29115329448E+03  0.29119122735E+03  0.47000000000E+01 0.  1.
          6    1    1    2  502    0  0.32289160379E+01 -0.23276135254E+02  0.24898692895E+03  0.30353038589E+03  0.17200000000E+03 0. -1.
         -6    1    1    2    0  502 -0.32289160379E+01  0.23276135254E+02 -0.23537178300E+03  0.29246552036E+03  0.17200000000E+03 0.  1.
</event>
<event>
 4    1 -0.6963162E-004  0.2172162E+03  0.7818608E-02  0.1135976E+00
         -5   -1    0    0    0  501 -0.00000000000E+00  0.00000000000E+00  0.81388220413E+02  0.81523815060E+02  0.47000000000E+01 0.  1.
          5   -1    0    0  501    0  0.00000000000E+00 -0.00000000000E+00 -0.58209551580E+03  0.58211449004E+03  0.47000000000E+01 0. -1.
          6    1    1    2  502    0 -0.12661770575E+03 -0.39583115706E+02 -0.27416057294E+03  0.34978119762E+03  0.17200000000E+03 0. -1.
         -6    1    1    2    0  502  0.12661770575E+03  0.39583115706E+02 -0.22654672245E+03  0.31385710747E+03  0.17200000000E+03 0.  1.
</event>
<event>
 4    1 -0.6963162E-004  0.2051525E+03  0.7818608E-02  0.1145463E+00
         -5   -1    0    0    0  501 -0.00000000000E+00  0.00000000000E+00  0.28970988484E+02  0.29349755940E+02  0.47000000000E+01 0.  1.
          5   -1    0    0  501    0  0.00000000000E+00 -0.00000000000E+00 -0.18512943782E+04  0.18513003443E+04  0.47000000000E+01 0. -1.
          6    1    1    2  502    0  0.99275317542E+02  0.51458215998E+02 -0.13527513597E+04  0.13682191995E+04  0.17200000000E+03 0. -1.
         -6    1    1    2    0  502 -0.99275317542E+02 -0.51458215998E+02 -0.46957203008E+03  0.51243090081E+03  0.17200000000E+03 0. -1.
</event>
<event>
 4    1 -0.6963162E-004  0.2280803E+03  0.7818608E-02  0.1127998E+00
         -5   -1    0    0    0  501 -0.00000000000E+00  0.00000000000E+00  0.15900037525E+03  0.15906982533E+03  0.47000000000E+01 0.  1.
          5   -1    0    0  501    0  0.00000000000E+00 -0.00000000000E+00 -0.11080787155E+04  0.11080886832E+04  0.47000000000E+01 0. -1.
          6    1    1    2  502    0  0.58391586705E+01 -0.14967481512E+03 -0.10064525161E+04  0.10319725351E+04  0.17200000000E+03 0. -1.
         -6    1    1    2    0  502 -0.58391586705E+01  0.14967481512E+03  0.57374175797E+02  0.23518597344E+03  0.17200000000E+03 0.  1.
</event>
<event>
 4    1 -0.6963162E-004  0.2087888E+03  0.7818608E-02  0.1142529E+00
          5   -1    0    0  501    0  0.00000000000E+00  0.00000000000E+00  0.43697358301E+03  0.43699885841E+03  0.47000000000E+01 0. -1.
         -5   -1    0    0    0  501 -0.00000000000E+00 -0.00000000000E+00 -0.17657483042E+04  0.17657545593E+04  0.47000000000E+01 0.  1.
          6    1    1    2  502    0  0.18203404451E+02  0.11695042955E+03  0.40542586919E+03  0.45602949720E+03  0.17200000000E+03 0. -1.
         -6    1    1    2    0  502 -0.18203404451E+02 -0.11695042955E+03 -0.17342005904E+04  0.17467239205E+04  0.17200000000E+03 0.  1.
</event>
<event>
 4    1 -0.6963162E-004  0.1801065E+03  0.7818608E-02  0.1167700E+00
          5   -1    0    0  501    0  0.00000000000E+00  0.00000000000E+00  0.10133361874E+03  0.10144255659E+03  0.47000000000E+01 0. -1.
         -5   -1    0    0    0  501 -0.00000000000E+00 -0.00000000000E+00 -0.32950938631E+03  0.32954290414E+03  0.47000000000E+01 0.  1.
          6    1    1    2  502    0  0.35557443594E+02  0.39875111376E+02 -0.77136024155E+02  0.19592938147E+03  0.17200000000E+03 0.  1.
         -6    1    1    2    0  502 -0.35557443594E+02 -0.39875111376E+02 -0.15103974342E+03  0.23505607925E+03  0.17200000000E+03 0. -1.
</event>
<event>
 4    1 -0.6963162E-004  0.1722171E+03  0.7818608E-02  0.1175555E+00
          5   -1    0    0  501    0  0.00000000000E+00  0.00000000000E+00  0.11813899003E+03  0.11823244464E+03  0.47000000000E+01 0. -1.
         -5   -1    0    0    0  501 -0.00000000000E+00 -0.00000000000E+00 -0.42900336942E+03  0.42902911437E+03  0.47000000000E+01 0.  1.
          6    1    1    2  502    0 -0.11316606635E+01 -0.85697033464E+01  0.20881229463E+02  0.17347837391E+03  0.17200000000E+03 0. -1.
         -6    1    1    2    0  502  0.11316606635E+01  0.85697033464E+01 -0.33174560885E+03  0.37378318510E+03  0.17200000000E+03 0.  1.
</event>
<event>
 4    1 -0.6963162E-004  0.1831863E+03  0.7818608E-02  0.1164754E+00
         -5   -1    0    0    0  501 -0.00000000000E+00  0.00000000000E+00  0.19949416853E+03  0.19954952587E+03  0.47000000000E+01 0.  1.
          5   -1    0    0  501    0  0.00000000000E+00 -0.00000000000E+00 -0.31006807426E+03  0.31010369342E+03  0.47000000000E+01 0. -1.
          6    1    1    2  502    0  0.23197851926E+02  0.58609625484E+02 -0.22768697043E+03  0.29223036296E+03  0.17200000000E+03 0. -1.
         -6    1    1    2    0  502 -0.23197851926E+02 -0.58609625484E+02  0.11711306470E+03  0.21742285633E+03  0.17200000000E+03 0.  1.
</event>
<event>
 4    1 -0.6963162E-004  0.1726858E+03  0.7818608E-02  0.1175076E+00
          5   -1    0    0  501    0  0.00000000000E+00  0.00000000000E+00  0.37765867255E+03  0.37768791740E+03  0.47000000000E+01 0. -1.
         -5   -1    0    0    0  501 -0.00000000000E+00 -0.00000000000E+00 -0.58790883914E+03  0.58792762577E+03  0.47000000000E+01 0.  1.
          6    1    1    2  502    0  0.14956493911E+02 -0.35626939704E+01  0.34409516037E+03  0.38499593360E+03  0.17200000000E+03 0. -1.
         -6    1    1    2    0  502 -0.14956493911E+02  0.35626939704E+01 -0.55434532696E+03  0.58061960957E+03  0.17200000000E+03 0.  1.
</event>
<event>
 4    1 -0.6963162E-004  0.2245054E+03  0.7818608E-02  0.1130568E+00
         -5   -1    0    0    0  501 -0.00000000000E+00  0.00000000000E+00  0.28550565302E+03  0.28554433615E+03  0.47000000000E+01 0.  1.
          5   -1    0    0  501    0  0.00000000000E+00 -0.00000000000E+00 -0.10382396630E+04  0.10382503011E+04  0.47000000000E+01 0. -1.
          6    1    1    2  502    0 -0.67475733783E+02 -0.12753704980E+03 -0.97937783264E+03  0.10047803804E+04  0.17200000000E+03 0. -1.
         -6    1    1    2    0  502  0.67475733783E+02  0.12753704980E+03  0.22664382271E+03  0.31901425688E+03  0.17200000000E+03 0.  1.
</event>
<event>
 4    1 -0.6963162E-004  0.2276646E+03  0.7818608E-02  0.1128294E+00
          5   -1    0    0  501    0  0.00000000000E+00  0.00000000000E+00  0.14229985673E+04  0.14230063290E+04  0.47000000000E+01 0. -1.
         -5   -1    0    0    0  501 -0.00000000000E+00 -0.00000000000E+00 -0.86933954578E+02  0.87060912347E+02  0.47000000000E+01 0.  1.
          6    1    1    2  502    0 -0.14197119928E+03 -0.45731070466E+02  0.12437228735E+04  0.12643882862E+04  0.17200000000E+03 0. -1.
         -6    1    1    2    0  502  0.14197119928E+03  0.45731070466E+02  0.92341739247E+02  0.24567895522E+03  0.17200000000E+03 0.  1.
</event>
<event>
 4    1 -0.6963162E-004  0.1833848E+03  0.7818608E-02  0.1164567E+00
         -5   -1    0    0    0  501 -0.00000000000E+00  0.00000000000E+00  0.24100951706E+03  0.24105534077E+03  0.47000000000E+01 0.  1.
          5   -1    0    0  501    0  0.00000000000E+00 -0.00000000000E+00 -0.43179024808E+03  0.43181582687E+03  0.47000000000E+01 0. -1.
          6    1    1    2  502    0 -0.46469092979E+02  0.43435063095E+02 -0.37219182674E+03  0.41491774751E+03  0.17200000000E+03 0. -1.
         -6    1    1    2    0  502  0.46469092979E+02 -0.43435063095E+02  0.18141109572E+03  0.25795342013E+03  0.17200000000E+03 0.  1.
</event>
<event>
 4    1 -0.6963162E-004  0.1819364E+03  0.7818608E-02  0.1165942E+00
          5   -1    0    0  501    0  0.00000000000E+00  0.00000000000E+00  0.28071820545E+03  0.28075754820E+03  0.47000000000E+01 0. -1.
         -5   -1    0    0    0  501 -0.00000000000E+00 -0.00000000000E+00 -0.36379309922E+03  0.36382345862E+03  0.47000000000E+01 0.  1.
          6    1    1    2  502    0  0.49937540150E+02 -0.31985986291E+02  0.22343650648E+03  0.28814012852E+03  0.17200000000E+03 0. -1.
         -6    1    1    2    0  502 -0.49937540150E+02  0.31985986291E+02 -0.30651140025E+03  0.35644087829E+03  0.17200000000E+03 0.  1.
</event>
<event>
 4    1 -0.6963162E-004  0.1771059E+03  0.7818608E-02  0.1170634E+00
          5   -1    0    0  501    0  0.00000000000E+00  0.00000000000E+00  0.90221327843E+03  0.90222552047E+03  0.47000000000E+01 0. -1.
         -5   -1    0    0    0  501 -0.00000000000E+00 -0.00000000000E+00 -0.51733866222E+02  0.51946924012E+02  0.47000000000E+01 0.  1.
          6    1    1    2  502    0 -0.40914469861E+02  0.10416042132E+02  0.69910737627E+03  0.72119179927E+03  0.17200000000E+03 0. -1.
         -6    1    1    2    0  502  0.40914469861E+02 -0.10416042132E+02  0.15137203595E+03  0.23298064521E+03  0.17200000000E+03 0.  1.
</event>
<event>
 4    1 -0.6963162E-004  0.1865601E+03  0.7818608E-02  0.1161601E+00
         -5   -1    0    0    0  501 -0.00000000000E+00  0.00000000000E+00  0.90600946967E+03  0.90602166041E+03  0.47000000000E+01 0.  1.
          5   -1    0    0  501    0  0.00000000000E+00 -0.00000000000E+00 -0.81996998410E+02  0.82131588005E+02  0.47000000000E+01 0. -1.
          6    1    1    2  502    0  0.20804832612E+02  0.69194253001E+02  0.51648668957E+02  0.19357755736E+03  0.17200000000E+03 0. -1.
         -6    1    1    2    0  502 -0.20804832612E+02 -0.69194253001E+02  0.77236380230E+03  0.79457569105E+03  0.17200000000E+03 0.  1.
</event>
<event>
 4    1 -0.6963162E-004  0.1884666E+03  0.7818608E-02  0.1159852E+00
          5   -1    0    0  501    0  0.00000000000E+00  0.00000000000E+00  0.19789964553E+03  0.19795544878E+03  0.47000000000E+01 0. -1.
         -5   -1    0    0    0  501 -0.00000000000E+00 -0.00000000000E+00 -0.21071933283E+03  0.21077174201E+03  0.47000000000E+01 0.  1.
          6    1    1    2  502    0  0.34953935201E+02  0.68657667229E+02 -0.85212439757E+02  0.20683523091E+03  0.17200000000E+03 0.  1.
         -6    1    1    2    0  502 -0.34953935201E+02 -0.68657667229E+02  0.72392752451E+02  0.20189195988E+03  0.17200000000E+03 0. -1.
</event>
<event>
 4    1 -0.6963162E-004  0.2098659E+03  0.7818608E-02  0.1141672E+00
          5   -1    0    0  501    0  0.00000000000E+00  0.00000000000E+00  0.56856746671E+03  0.56858689239E+03  0.47000000000E+01 0. -1.
         -5   -1    0    0    0  501 -0.00000000000E+00 -0.00000000000E+00 -0.16165912580E+03  0.16172743414E+03  0.47000000000E+01 0.  1.
          6    1    1    2  502    0  0.54689134353E+02 -0.10709250858E+03  0.46702169151E+03  0.51200875690E+03  0.17200000000E+03 0. -1.
         -6    1    1    2    0  502 -0.54689134353E+02  0.10709250858E+03 -0.60113350595E+02  0.21830556963E+03  0.17200000000E+03 0.  1.
</event>
<event>
 4    1 -0.6963162E-004  0.1757971E+03  0.7818608E-02  0.1171934E+00
          5   -1    0    0  501    0  0.00000000000E+00  0.00000000000E+00  0.23632188281E+03  0.23636861530E+03  0.47000000000E+01 0. -1.
         -5   -1    0    0    0  501 -0.00000000000E+00 -0.00000000000E+00 -0.24083856889E+03  0.24088442512E+03  0.47000000000E+01 0.  1.
          6    1    1    2  502    0  0.32842527908E+02  0.15556424411E+02  0.15909596871E+03  0.23709947541E+03  0.17200000000E+03 0. -1.
         -6    1    1    2    0  502 -0.32842527908E+02 -0.15556424411E+02 -0.16361265479E+03  0.24015356501E+03  0.17200000000E+03 0.  1.
</event>
<event>
 4    1 -0.6963162E-004  0.1904298E+03  0.7818608E-02  0.1158074E+00
         -5   -1    0    0    0  501 -0.00000000000E+00  0.00000000000E+00  0.32277806010E+03  0.32281227685E+03  0.47000000000E+01 0.  1.
          5   -1    0    0  501    0  0.00000000000E+00 -0.00000000000E+00 -0.14516644651E+03  0.14524251166E+03  0.47000000000E+01 0. -1.
          6    1    1    2  502    0 -0.81648662676E+02  0.36058221529E+01 -0.22572504430E+02  0.19176293705E+03  0.17200000000E+03 0. -1.
         -6    1    1    2    0  502  0.81648662676E+02 -0.36058221529E+01  0.20018411802E+03  0.27629185145E+03  0.17200000000E+03 0.  1.
</event>
<event>
 4    1 -0.6963162E-004  0.1955451E+03  0.7818608E-02  0.1153553E+00
         -5   -1    0    0    0  501 -0.00000000000E+00  0.00000000000E+00  0.52468480584E+02  0.52678567319E+02  0.47000000000E+01 0.  1.
          5   -1    0    0  501    0  0.00000000000E+00 -0.00000000000E+00 -0.10824283070E+04  0.10824385108E+04  0.47000000000E+01 0. -1.
          6    1    1    2  502    0  0.15222130230E+02  0.91772437176E+02 -0.84012599264E+03  0.86258308410E+03  0.17200000000E+03 0.  1.
         -6    1    1    2    0  502 -0.15222130230E+02 -0.91772437176E+02 -0.18983383374E+03  0.27253399404E+03  0.17200000000E+03 0.  1.
</event>
<event>
 4    1 -0.6963162E-004  0.2560740E+03  0.7818608E-02  0.1109525E+00
         -5   -1    0    0    0  501 -0.00000000000E+00  0.00000000000E+00  0.20636994920E+03  0.20642346265E+03  0.47000000000E+01 0.  1.
          5   -1    0    0  501    0  0.00000000000E+00 -0.00000000000E+00 -0.62924557002E+03  0.62926312254E+03  0.47000000000E+01 0. -1.
          6    1    1    2  502    0 -0.17831037785E+03  0.64771093830E+02 -0.50546025328E+03  0.56662505512E+03  0.17200000000E+03 0. -1.
         -6    1    1    2    0  502  0.17831037785E+03 -0.64771093830E+02  0.82584632457E+02  0.26906153007E+03  0.17200000000E+03 0.  1.
</event>
<event>
 4    1 -0.6963162E-004  0.2382635E+03  0.7818608E-02  0.1120955E+00
         -5   -1    0    0    0  501 -0.00000000000E+00  0.00000000000E+00  0.59758479489E+03  0.59760327733E+03  0.47000000000E+01 0.  1.
          5   -1    0    0  501    0  0.00000000000E+00 -0.00000000000E+00 -0.51270042940E+03  0.51272197174E+03  0.47000000000E+01 0. -1.
          6    1    1    2  502    0  0.18418624366E+02  0.16384826465E+03 -0.45865889924E+03  0.51685344674E+03  0.17200000000E+03 0. -1.
         -6    1    1    2    0  502 -0.18418624366E+02 -0.16384826465E+03  0.54354326472E+03  0.59347180234E+03  0.17200000000E+03 0.  1.
</event>
<event>
 4    1 -0.6963162E-004  0.1925520E+03  0.7818608E-02  0.1156179E+00
         -5   -1    0    0    0  501 -0.00000000000E+00  0.00000000000E+00  0.19303749581E+03  0.19309470420E+03  0.47000000000E+01 0.  1.
          5   -1    0    0  501    0  0.00000000000E+00 -0.00000000000E+00 -0.19807794879E+03  0.19813370182E+03  0.47000000000E+01 0. -1.
          6    1    1    2  502    0 -0.69209513626E+02  0.51983959643E+02 -0.36907321727E+02  0.19605723459E+03  0.17200000000E+03 0. -1.
         -6    1    1    2    0  502  0.69209513626E+02 -0.51983959643E+02  0.31866868746E+02  0.19517117144E+03  0.17200000000E+03 0.  1.
</event>
<event>
 4    1 -0.6963162E-004  0.1777361E+03  0.7818608E-02  0.1170012E+00
         -5   -1    0    0    0  501 -0.00000000000E+00  0.00000000000E+00  0.99825720649E+02  0.99936302228E+02  0.47000000000E+01 0.  1.
          5   -1    0    0  501    0  0.00000000000E+00 -0.00000000000E+00 -0.10453111791E+04  0.10453217453E+04  0.47000000000E+01 0. -1.
          6    1    1    2  502    0 -0.18105207910E+02  0.40967384887E+02 -0.95097047586E+03  0.96743732156E+03  0.17200000000E+03 0. -1.
         -6    1    1    2    0  502  0.18105207910E+02 -0.40967384887E+02  0.54850173666E+01  0.17782072600E+03  0.17200000000E+03 0.  1.
</event>
<event>
 4    1 -0.6963162E-004  0.2257518E+03  0.7818608E-02  0.1129666E+00
         -5   -1    0    0    0  501 -0.00000000000E+00  0.00000000000E+00  0.11665599634E+04  0.11665694314E+04  0.47000000000E+01 0.  1.
          5   -1    0    0  501    0  0.00000000000E+00 -0.00000000000E+00 -0.34736048251E+03  0.34739227800E+03  0.47000000000E+01 0. -1.
          6    1    1    2  502    0 -0.12234057774E+03 -0.80079069038E+02 -0.29818355321E+03  0.37400174553E+03  0.17200000000E+03 0. -1.
         -6    1    1    2    0  502  0.12234057774E+03  0.80079069038E+02  0.11173830341E+04  0.11399599639E+04  0.17200000000E+03 0.  1.
</event>
<event>
 4    1 -0.6963162E-004  0.2322988E+03  0.7818608E-02  0.1125032E+00
          5   -1    0    0  501    0  0.00000000000E+00  0.00000000000E+00  0.23921698246E+03  0.23926314948E+03  0.47000000000E+01 0. -1.
         -5   -1    0    0    0  501 -0.00000000000E+00 -0.00000000000E+00 -0.49590956089E+03  0.49593183260E+03  0.47000000000E+01 0.  1.
          6    1    1    2  502    0 -0.12590243320E+03  0.92343382252E+02  0.14308253020E+03  0.27282839548E+03  0.17200000000E+03 0. -1.
         -6    1    1    2    0  502  0.12590243320E+03 -0.92343382252E+02 -0.39977510863E+03  0.46236658660E+03  0.17200000000E+03 0.  1.
</event>
<event>
 4    1 -0.6963162E-004  0.2563798E+03  0.7818608E-02  0.1109338E+00
          5   -1    0    0  501    0  0.00000000000E+00  0.00000000000E+00  0.15912965474E+03  0.15919904842E+03  0.47000000000E+01 0. -1.
         -5   -1    0    0    0  501 -0.00000000000E+00 -0.00000000000E+00 -0.19502006771E+04  0.19502063406E+04  0.47000000000E+01 0.  1.
          6    1    1    2  502    0  0.14657665103E+03 -0.12108624808E+03  0.40865015599E+02  0.25961614665E+03  0.17200000000E+03 0. -1.
         -6    1    1    2    0  502 -0.14657665103E+03  0.12108624808E+03 -0.18319360379E+04  0.18497892424E+04  0.17200000000E+03 0.  1.
</event>
<event>
 4    1 -0.6963162E-004  0.1784384E+03  0.7818608E-02  0.1169323E+00
          5   -1    0    0  501    0  0.00000000000E+00  0.00000000000E+00  0.12412145716E+03  0.12421041071E+03  0.47000000000E+01 0. -1.
         -5   -1    0    0    0  501 -0.00000000000E+00 -0.00000000000E+00 -0.57294854546E+03  0.57296782260E+03  0.47000000000E+01 0.  1.
          6    1    1    2  502    0 -0.68958958819E+01 -0.46996827940E+02  0.34696193692E+02  0.18178030992E+03  0.17200000000E+03 0. -1.
         -6    1    1    2    0  502  0.68958958819E+01  0.46996827940E+02 -0.48352328199E+03  0.51539792339E+03  0.17200000000E+03 0.  1.
</event>
<event>
 4    1 -0.6963162E-004  0.2062369E+03  0.7818608E-02  0.1144581E+00
         -5   -1    0    0    0  501 -0.00000000000E+00  0.00000000000E+00  0.12003614528E+04  0.12003706542E+04  0.47000000000E+01 0.  1.
          5   -1    0    0  501    0  0.00000000000E+00 -0.00000000000E+00 -0.14850257632E+03  0.14857693352E+03  0.47000000000E+01 0. -1.
          6    1    1    2  502    0  0.11215725660E+03  0.19246371386E+02 -0.62630164792E+02  0.21553702829E+03  0.17200000000E+03 0. -1.
         -6    1    1    2    0  502 -0.11215725660E+03 -0.19246371386E+02  0.11144890413E+04  0.11334105594E+04  0.17200000000E+03 0.  1.
</event>
<event>
 4    1 -0.6963162E-004  0.1886255E+03  0.7818608E-02  0.1159707E+00
          5   -1    0    0  501    0  0.00000000000E+00  0.00000000000E+00  0.14061854487E+03  0.14069706877E+03  0.47000000000E+01 0. -1.
         -5   -1    0    0    0  501 -0.00000000000E+00 -0.00000000000E+00 -0.92612603452E+03  0.92613796047E+03  0.47000000000E+01 0.  1.
          6    1    1    2  502    0 -0.37118025331E+02 -0.67954621881E+02  0.62028566135E+02  0.19856263862E+03  0.17200000000E+03 0. -1.
         -6    1    1    2    0  502  0.37118025331E+02  0.67954621881E+02 -0.84753605579E+03  0.86827239062E+03  0.17200000000E+03 0.  1.
</event>
<event>
 4    1 -0.6963162E-004  0.1772289E+03  0.7818608E-02  0.1170512E+00
         -5   -1    0    0    0  501 -0.00000000000E+00  0.00000000000E+00  0.49335031798E+03  0.49337270522E+03  0.47000000000E+01 0.  1.
          5   -1    0    0  501    0  0.00000000000E+00 -0.00000000000E+00 -0.73495051094E+02  0.73645179987E+02  0.47000000000E+01 0. -1.
          6    1    1    2  502    0 -0.37904790083E+02 -0.19731158052E+02  0.31405377402E+03  0.36061040568E+03  0.17200000000E+03 0.  1.
         -6    1    1    2    0  502  0.37904790083E+02  0.19731158052E+02  0.10580149286E+03  0.20640747952E+03  0.17200000000E+03 0. -1.
</event>
<event>
 4    1 -0.6963162E-004  0.3309887E+03  0.7818608E-02  0.1070700E+00
         -5   -1    0    0    0  501 -0.00000000000E+00  0.00000000000E+00  0.53861787676E+03  0.53863838256E+03  0.47000000000E+01 0.  1.
          5   -1    0    0  501    0  0.00000000000E+00 -0.00000000000E+00 -0.21317740049E+03  0.21322920550E+03  0.47000000000E+01 0. -1.
          6    1    1    2  502    0  0.32256347654E+00  0.28278865637E+03  0.82001505925E+02  0.34099527151E+03  0.17200000000E+03 0. -1.
         -6    1    1    2    0  502 -0.32256347654E+00 -0.28278865637E+03  0.24343897035E+03  0.41087231655E+03  0.17200000000E+03 0.  1.
</event>
<event>
 4    1 -0.6963162E-004  0.2574039E+03  0.7818608E-02  0.1108713E+00
         -5   -1    0    0    0  501 -0.00000000000E+00  0.00000000000E+00  0.14322816640E+03  0.14330526038E+03  0.47000000000E+01 0.  1.
          5   -1    0    0  501    0  0.00000000000E+00 -0.00000000000E+00 -0.46922354086E+03  0.46924707916E+03  0.47000000000E+01 0. -1.
          6    1    1    2  502    0  0.91476754072E+02  0.16824016357E+03 -0.19997574180E+03  0.32595558974E+03  0.17200000000E+03 0. -1.
         -6    1    1    2    0  502 -0.91476754072E+02 -0.16824016357E+03 -0.12601963266E+03  0.28659674979E+03  0.17200000000E+03 0. -1.
</event>
<event>
 4    1 -0.6963162E-004  0.1820784E+03  0.7818608E-02  0.1165807E+00
         -5   -1    0    0    0  501 -0.00000000000E+00  0.00000000000E+00  0.39805293804E+03  0.39808068464E+03  0.47000000000E+01 0.  1.
          5   -1    0    0  501    0  0.00000000000E+00 -0.00000000000E+00 -0.98222185984E+02  0.98334570826E+02  0.47000000000E+01 0. -1.
          6    1    1    2  502    0  0.40324391845E+02  0.44073644170E+02  0.52888400915E+02  0.18960412875E+03  0.17200000000E+03 0. -1.
         -6    1    1    2    0  502 -0.40324391845E+02 -0.44073644170E+02  0.24694235114E+03  0.30681112672E+03  0.17200000000E+03 0.  1.
</event>
<event>
 4    1 -0.6963162E-004  0.3197674E+03  0.7818608E-02  0.1075756E+00
         -5   -1    0    0    0  501 -0.00000000000E+00  0.00000000000E+00  0.33309327759E+03  0.33312643482E+03  0.47000000000E+01 0.  1.
          5   -1    0    0  501    0  0.00000000000E+00 -0.00000000000E+00 -0.30697082485E+03  0.30700680336E+03  0.47000000000E+01 0. -1.
          6    1    1    2  502    0  0.24436071974E+03  0.11382003707E+03  0.84876428074E+01  0.31987998104E+03  0.17200000000E+03 0. -1.
         -6    1    1    2    0  502 -0.24436071974E+03 -0.11382003707E+03  0.17634809939E+02  0.32025325714E+03  0.17200000000E+03 0. -1.
</event>
<event>
 4    1 -0.6963162E-004  0.4410293E+03  0.7818608E-02  0.1030431E+00
         -5   -1    0    0    0  501 -0.00000000000E+00  0.00000000000E+00  0.19368959659E+04  0.19369016683E+04  0.47000000000E+01 0.  1.
          5   -1    0    0  501    0  0.00000000000E+00 -0.00000000000E+00 -0.63111466524E+03  0.63113216578E+03  0.47000000000E+01 0. -1.
          6    1    1    2  502    0  0.30117763851E+03 -0.27242403505E+03 -0.52455042894E+03  0.68531742815E+03  0.17200000000E+03 0. -1.
         -6    1    1    2    0  502 -0.30117763851E+03  0.27242403505E+03  0.18303317296E+04  0.18827164060E+04  0.17200000000E+03 0.  1.
</event>
<event>
 4    1 -0.6963162E-004  0.1836031E+03  0.7818608E-02  0.1164361E+00
         -5   -1    0    0    0  501 -0.00000000000E+00  0.00000000000E+00  0.20746743613E+04  0.20746796850E+04  0.47000000000E+01 0.  1.
          5   -1    0    0  501    0  0.00000000000E+00 -0.00000000000E+00 -0.12773791248E+03  0.12782434935E+03  0.47000000000E+01 0. -1.
          6    1    1    2  502    0 -0.48392065032E+02  0.42241181066E+02 -0.55390885944E+02  0.19177658768E+03  0.17200000000E+03 0. -1.
         -6    1    1    2    0  502  0.48392065032E+02 -0.42241181066E+02  0.20023273347E+04  0.20107274466E+04  0.17200000000E+03 0.  1.
</event>
<event>
 4    1 -0.6963162E-004  0.4012002E+03  0.7818608E-02  0.1043365E+00
          5   -1    0    0  501    0  0.00000000000E+00  0.00000000000E+00  0.42651583744E+03  0.42654173253E+03  0.47000000000E+01 0. -1.
         -5   -1    0    0    0  501 -0.00000000000E+00 -0.00000000000E+00 -0.72704992305E+03  0.72706511442E+03  0.47000000000E+01 0.  1.
          6    1    1    2  502    0  0.32932312326E+03  0.15140641501E+03  0.24975901549E+03  0.47258987276E+03  0.17200000000E+03 0. -1.
         -6    1    1    2    0  502 -0.32932312326E+03 -0.15140641501E+03 -0.55029310109E+03  0.68101697418E+03  0.17200000000E+03 0.  1.
</event>
<event>
 4    1 -0.6963162E-004  0.2081825E+03  0.7818608E-02  0.1143013E+00
         -5   -1    0    0    0  501 -0.00000000000E+00  0.00000000000E+00  0.11610124756E+04  0.11610219888E+04  0.47000000000E+01 0.  1.
          5   -1    0    0  501    0  0.00000000000E+00 -0.00000000000E+00 -0.25956061197E+03  0.25960316116E+03  0.47000000000E+01 0. -1.
          6    1    1    2  502    0 -0.10522844169E+03 -0.51797170196E+02 -0.20653383768E+03  0.29325108335E+03  0.17200000000E+03 0. -1.
         -6    1    1    2    0  502  0.10522844169E+03  0.51797170196E+02  0.11079857013E+04  0.11273740666E+04  0.17200000000E+03 0.  1.
</event>
<event>
 4    1 -0.6963162E-004  0.1781240E+03  0.7818608E-02  0.1169631E+00
         -5   -1    0    0    0  501 -0.00000000000E+00  0.00000000000E+00  0.27259226282E+03  0.27263277820E+03  0.47000000000E+01 0.  1.
          5   -1    0    0  501    0  0.00000000000E+00 -0.00000000000E+00 -0.14652904507E+03  0.14660440324E+03  0.47000000000E+01 0. -1.
          6    1    1    2  502    0 -0.25088748952E+02 -0.38919178353E+02 -0.32140950338E+02  0.18100052060E+03  0.17200000000E+03 0. -1.
         -6    1    1    2    0  502  0.25088748952E+02  0.38919178353E+02  0.15820416809E+03  0.23823666084E+03  0.17200000000E+03 0.  1.
</event>
<event>
 4    1 -0.6963162E-004  0.2789418E+03  0.7818608E-02  0.1096268E+00
          5   -1    0    0  501    0  0.00000000000E+00  0.00000000000E+00  0.45347891539E+03  0.45350327089E+03  0.47000000000E+01 0. -1.
         -5   -1    0    0    0  501 -0.00000000000E+00 -0.00000000000E+00 -0.65149729871E+03  0.65151425175E+03  0.47000000000E+01 0.  1.
          6    1    1    2  502    0 -0.16464223527E+03 -0.14531856697E+03  0.37520158655E+03  0.46753051461E+03  0.17200000000E+03 0. -1.
         -6    1    1    2    0  502  0.16464223527E+03  0.14531856697E+03 -0.57321996987E+03  0.63748700802E+03  0.17200000000E+03 0.  1.
</event>
<event>
 4    1 -0.6963162E-004  0.1841131E+03  0.7818608E-02  0.1163881E+00
          5   -1    0    0  501    0  0.00000000000E+00  0.00000000000E+00  0.49753864036E+03  0.49756083914E+03  0.47000000000E+01 0. -1.
         -5   -1    0    0    0  501 -0.00000000000E+00 -0.00000000000E+00 -0.11293572203E+03  0.11303347871E+03  0.47000000000E+01 0.  1.
          6    1    1    2  502    0 -0.24926221104E+02 -0.60764439971E+02  0.38469283412E+03  0.42648119570E+03  0.17200000000E+03 0. -1.
         -6    1    1    2    0  502  0.24926221104E+02  0.60764439971E+02 -0.89915790134E-01  0.18411312215E+03  0.17200000000E+03 0.  1.
</event>
<event>
 4    1 -0.6963162E-004  0.1735901E+03  0.7818608E-02  0.1174155E+00
          5   -1    0    0  501    0  0.00000000000E+00  0.00000000000E+00  0.19346294611E+03  0.19352002873E+03  0.47000000000E+01 0. -1.
         -5   -1    0    0    0  501 -0.00000000000E+00 -0.00000000000E+00 -0.27634564458E+03  0.27638560975E+03  0.47000000000E+01 0.  1.
          6    1    1    2  502    0  0.22930265267E+02  0.48712554475E+01  0.11380597487E+03  0.20757005109E+03  0.17200000000E+03 0. -1.
         -6    1    1    2    0  502 -0.22930265267E+02 -0.48712554475E+01 -0.19668867333E+03  0.26233558739E+03  0.17200000000E+03 0.  1.
</event>
<event>
 4    1 -0.6963162E-004  0.2343454E+03  0.7818608E-02  0.1123618E+00
          5   -1    0    0  501    0  0.00000000000E+00  0.00000000000E+00  0.33943133440E+03  0.33946387256E+03  0.47000000000E+01 0. -1.
         -5   -1    0    0    0  501 -0.00000000000E+00 -0.00000000000E+00 -0.27952723888E+03  0.27956674923E+03  0.47000000000E+01 0.  1.
          6    1    1    2  502    0 -0.11632822699E+03  0.10863475868E+03  0.23085704160E+03  0.32895705015E+03  0.17200000000E+03 0. -1.
         -6    1    1    2    0  502  0.11632822699E+03 -0.10863475868E+03 -0.17095294608E+03  0.29007357164E+03  0.17200000000E+03 0.  1.
</event>
<event>
 4    1 -0.6963162E-004  0.2055124E+03  0.7818608E-02  0.1145170E+00
         -5   -1    0    0    0  501 -0.00000000000E+00  0.00000000000E+00  0.68024386220E+03  0.68026009883E+03  0.47000000000E+01 0.  1.
          5   -1    0    0  501    0  0.00000000000E+00 -0.00000000000E+00 -0.22671329375E+03  0.22676200643E+03  0.47000000000E+01 0. -1.
          6    1    1    2  502    0  0.89999713408E+02 -0.67464093500E+02 -0.15970186330E+03  0.26026916350E+03  0.17200000000E+03 0. -1.
         -6    1    1    2    0  502 -0.89999713408E+02  0.67464093500E+02  0.61323243175E+03  0.64675294176E+03  0.17200000000E+03 0.  1.
</event>
<event>
 4    1 -0.6963162E-004  0.2467820E+03  0.7818608E-02  0.1115356E+00
          5   -1    0    0  501    0  0.00000000000E+00  0.00000000000E+00  0.58024527873E+02  0.58214567205E+02  0.47000000000E+01 0. -1.
         -5   -1    0    0    0  501 -0.00000000000E+00 -0.00000000000E+00 -0.11559006725E+04  0.11559102278E+04  0.47000000000E+01 0.  1.
          6    1    1    2  502    0  0.17695238550E+03 -0.22869676031E+01 -0.36319463842E+03  0.43910331624E+03  0.17200000000E+03 0. -1.
         -6    1    1    2    0  502 -0.17695238550E+03  0.22869676031E+01 -0.73468150621E+03  0.77502147874E+03  0.17200000000E+03 0.  1.
</event>
<event>
 4    1 -0.6963162E-004  0.1726616E+03  0.7818608E-02  0.1175100E+00
         -5   -1    0    0    0  501 -0.00000000000E+00  0.00000000000E+00  0.56582600554E+03  0.56584552534E+03  0.47000000000E+01 0.  1.
          5   -1    0    0  501    0  0.00000000000E+00 -0.00000000000E+00 -0.51947529527E+03  0.51949655668E+03  0.47000000000E+01 0. -1.
          6    1    1    2  502    0  0.14656906253E+02 -0.36334541621E+01 -0.49124214170E+03  0.52070228411E+03  0.17200000000E+03 0. -1.
         -6    1    1    2    0  502 -0.14656906253E+02  0.36334541621E+01  0.53759285197E+03  0.56463979791E+03  0.17200000000E+03 0.  1.
</event>
<event>
 4    1 -0.6963162E-004  0.1801860E+03  0.7818608E-02  0.1167623E+00
         -5   -1    0    0    0  501 -0.00000000000E+00  0.00000000000E+00  0.36785296571E+03  0.36788299007E+03  0.47000000000E+01 0.  1.
          5   -1    0    0  501    0  0.00000000000E+00 -0.00000000000E+00 -0.12611230215E+03  0.12619985243E+03  0.47000000000E+01 0. -1.
          6    1    1    2  502    0  0.41683613022E+02 -0.33845055771E+02 -0.14570291169E+02  0.18077418173E+03  0.17200000000E+03 0. -1.
         -6    1    1    2    0  502 -0.41683613022E+02  0.33845055771E+02  0.25631095473E+03  0.31330866077E+03  0.17200000000E+03 0.  1.
</event>
<event>
 4    1 -0.6963162E-004  0.2920270E+03  0.7818608E-02  0.1089296E+00
         -5   -1    0    0    0  501 -0.00000000000E+00  0.00000000000E+00  0.60009813781E+03  0.60011654285E+03  0.47000000000E+01 0.  1.
          5   -1    0    0  501    0  0.00000000000E+00 -0.00000000000E+00 -0.68370431263E+03  0.68372046708E+03  0.47000000000E+01 0. -1.
          6    1    1    2  502    0  0.91179990586E+02  0.21767402276E+03 -0.61313170895E+03  0.67912463023E+03  0.17200000000E+03 0. -1.
         -6    1    1    2    0  502 -0.91179990586E+02 -0.21767402276E+03  0.52952553413E+03  0.60471237970E+03  0.17200000000E+03 0.  1.
</event>
<event>
 4    1 -0.6963162E-004  0.2310663E+03  0.7818608E-02  0.1125891E+00
         -5   -1    0    0    0  501 -0.00000000000E+00  0.00000000000E+00  0.58699040560E+03  0.58700922162E+03  0.47000000000E+01 0.  1.
          5   -1    0    0  501    0  0.00000000000E+00 -0.00000000000E+00 -0.29487688762E+03  0.29491434155E+03  0.47000000000E+01 0. -1.
          6    1    1    2  502    0 -0.12237915759E+02  0.15381120167E+03 -0.22065333765E+03  0.31949890103E+03  0.17200000000E+03 0. -1.
         -6    1    1    2    0  502  0.12237915759E+02 -0.15381120167E+03  0.51276685564E+03  0.56242466214E+03  0.17200000000E+03 0.  1.
</event>
<event>
 4    1 -0.6963162E-004  0.2139949E+03  0.7818608E-02  0.1138441E+00
          5   -1    0    0  501    0  0.00000000000E+00  0.00000000000E+00  0.18971250325E+03  0.18977071399E+03  0.47000000000E+01 0. -1.
         -5   -1    0    0    0  501 -0.00000000000E+00 -0.00000000000E+00 -0.76106952284E+03  0.76108403517E+03  0.47000000000E+01 0.  1.
          6    1    1    2  502    0  0.11427349596E+03  0.56137214473E+02  0.10720690721E+03  0.23934732019E+03  0.17200000000E+03 0. -1.
         -6    1    1    2    0  502 -0.11427349596E+03 -0.56137214473E+02 -0.67856392680E+03  0.71150742897E+03  0.17200000000E+03 0.  1.
</event>
<event>
 4    1 -0.6963162E-004  0.1869317E+03  0.7818608E-02  0.1161258E+00
          5   -1    0    0  501    0  0.00000000000E+00  0.00000000000E+00  0.17709510822E+03  0.17715746486E+03  0.47000000000E+01 0. -1.
         -5   -1    0    0    0  501 -0.00000000000E+00 -0.00000000000E+00 -0.23216775660E+03  0.23221532509E+03  0.47000000000E+01 0.  1.
          6    1    1    2  502    0 -0.14563010707E+02  0.71745230899E+02  0.51892843898E+02  0.19400084197E+03  0.17200000000E+03 0. -1.
         -6    1    1    2    0  502  0.14563010707E+02 -0.71745230899E+02 -0.10696549228E+03  0.21537194798E+03  0.17200000000E+03 0.  1.
</event>
<event>
 4    1 -0.6963162E-004  0.3135229E+03  0.7818608E-02  0.1078669E+00
          5   -1    0    0  501    0  0.00000000000E+00  0.00000000000E+00  0.39346097846E+03  0.39348904885E+03  0.47000000000E+01 0. -1.
         -5   -1    0    0    0  501 -0.00000000000E+00 -0.00000000000E+00 -0.83593372536E+03  0.83594693802E+03  0.47000000000E+01 0.  1.
          6    1    1    2  502    0 -0.12420351441E+02 -0.26183647086E+03  0.29350139443E+03  0.42946440031E+03  0.17200000000E+03 0. -1.
         -6    1    1    2    0  502  0.12420351441E+02  0.26183647086E+03 -0.73597414133E+03  0.79997158656E+03  0.17200000000E+03 0.  1.
</event>
<event>
 4    1 -0.6963162E-004  0.1740778E+03  0.7818608E-02  0.1173661E+00
         -5   -1    0    0    0  501 -0.00000000000E+00  0.00000000000E+00  0.16628862034E+04  0.16628928455E+04  0.47000000000E+01 0.  1.
          5   -1    0    0  501    0  0.00000000000E+00 -0.00000000000E+00 -0.17986780550E+02  0.18590703983E+02  0.47000000000E+01 0. -1.
          6    1    1    2  502    0  0.25593988216E+02 -0.80022027756E+01  0.87527737438E+03  0.89242006341E+03  0.17200000000E+03 0.  1.
         -6    1    1    2    0  502 -0.25593988216E+02  0.80022027756E+01  0.76962204848E+03  0.78906348603E+03  0.17200000000E+03 0.  1.
</event>
<event>
 4    1 -0.6963162E-004  0.2064513E+03  0.7818608E-02  0.1144407E+00
          5   -1    0    0  501    0  0.00000000000E+00  0.00000000000E+00  0.10849927030E+03  0.10860102051E+03  0.47000000000E+01 0. -1.
         -5   -1    0    0    0  501 -0.00000000000E+00 -0.00000000000E+00 -0.19400538756E+04  0.19400595688E+04  0.47000000000E+01 0.  1.
          6    1    1    2  502    0  0.30654171104E+02  0.10999297695E+03 -0.95227417695E+00  0.20645348147E+03  0.17200000000E+03 0. -1.
         -6    1    1    2    0  502 -0.30654171104E+02 -0.10999297695E+03 -0.18306023312E+04  0.18422071078E+04  0.17200000000E+03 0.  1.
</event>
<event>
 4    1 -0.6963162E-004  0.1774066E+03  0.7818608E-02  0.1170337E+00
          5   -1    0    0  501    0  0.00000000000E+00  0.00000000000E+00  0.14271335505E+04  0.14271412897E+04  0.47000000000E+01 0. -1.
         -5   -1    0    0    0  501 -0.00000000000E+00 -0.00000000000E+00 -0.55615918058E+02  0.55814158969E+02  0.47000000000E+01 0.  1.
          6    1    1    2  502    0 -0.24693417865E+01  0.43393595007E+02  0.12621268229E+04  0.12745341184E+04  0.17200000000E+03 0. -1.
         -6    1    1    2    0  502  0.24693417865E+01 -0.43393595007E+02  0.10939080946E+03  0.20842133032E+03  0.17200000000E+03 0.  1.
</event>
<event>
 4    1 -0.6963162E-004  0.3724122E+03  0.7818608E-02  0.1053774E+00
          5   -1    0    0  501    0  0.00000000000E+00  0.00000000000E+00  0.14662821762E+04  0.14662897088E+04  0.47000000000E+01 0. -1.
         -5   -1    0    0    0  501 -0.00000000000E+00 -0.00000000000E+00 -0.18737970067E+03  0.18743863589E+03  0.47000000000E+01 0.  1.
          6    1    1    2  502    0 -0.26015292795E+03 -0.20353704394E+03  0.12213864617E+04  0.12769008430E+04  0.17200000000E+03 0. -1.
         -6    1    1    2    0  502  0.26015292795E+03  0.20353704394E+03  0.57516013838E+02  0.37682750168E+03  0.17200000000E+03 0.  1.
</event>
<event>
 4    1 -0.6963162E-004  0.2602360E+03  0.7818608E-02  0.1107002E+00
         -5   -1    0    0    0  501 -0.00000000000E+00  0.00000000000E+00  0.29621814770E+03  0.29625543206E+03  0.47000000000E+01 0.  1.
          5   -1    0    0  501    0  0.00000000000E+00 -0.00000000000E+00 -0.27205314649E+03  0.27209374214E+03  0.47000000000E+01 0. -1.
          6    1    1    2  502    0 -0.12289632856E+03  0.15177365583E+03 -0.10153878658E+03  0.27934365100E+03  0.17200000000E+03 0. -1.
         -6    1    1    2    0  502  0.12289632856E+03 -0.15177365583E+03  0.12570378778E+03  0.28900552320E+03  0.17200000000E+03 0.  1.
</event>
<event>
 4    1 -0.6963162E-004  0.1767468E+03  0.7818608E-02  0.1170989E+00
          5   -1    0    0  501    0  0.00000000000E+00  0.00000000000E+00  0.57607727715E+03  0.57609644960E+03  0.47000000000E+01 0. -1.
         -5   -1    0    0    0  501 -0.00000000000E+00 -0.00000000000E+00 -0.97301324692E+02  0.97414771913E+02  0.47000000000E+01 0.  1.
          6    1    1    2  502    0  0.38754429267E+02  0.12391117753E+02  0.46355814185E+03  0.49611046800E+03  0.17200000000E+03 0. -1.
         -6    1    1    2    0  502 -0.38754429267E+02 -0.12391117753E+02  0.15217810605E+02  0.17740075351E+03  0.17200000000E+03 0.  1.
</event>
<event>
 4    1 -0.6963162E-004  0.2397126E+03  0.7818608E-02  0.1119984E+00
         -5   -1    0    0    0  501 -0.00000000000E+00  0.00000000000E+00  0.13713713874E+03  0.13721765492E+03  0.47000000000E+01 0.  1.
          5   -1    0    0  501    0  0.00000000000E+00 -0.00000000000E+00 -0.21572667113E+04  0.21572718312E+04  0.47000000000E+01 0. -1.
          6    1    1    2  502    0 -0.16074475750E+03  0.45158059813E+02 -0.20399248570E+04  0.20539609416E+04  0.17200000000E+03 0. -1.
         -6    1    1    2    0  502  0.16074475750E+03 -0.45158059813E+02  0.19795284460E+02  0.24052854449E+03  0.17200000000E+03 0.  1.
</event>
<event>
 4    1 -0.6963162E-004  0.1922072E+03  0.7818608E-02  0.1156486E+00
         -5   -1    0    0    0  501 -0.00000000000E+00  0.00000000000E+00  0.26047103801E+02  0.26467746719E+02  0.47000000000E+01 0.  1.
          5   -1    0    0  501    0  0.00000000000E+00 -0.00000000000E+00 -0.17142161633E+04  0.17142226065E+04  0.47000000000E+01 0. -1.
          6    1    1    2  502    0  0.72603241831E+02  0.45698847640E+02 -0.12127582037E+04  0.12278949776E+04  0.17200000000E+03 0. -1.
         -6    1    1    2    0  502 -0.72603241831E+02 -0.45698847640E+02 -0.47541085581E+03  0.51279537559E+03  0.17200000000E+03 0.  1.
</event>
<event>
 4    1 -0.6963162E-004  0.2290352E+03  0.7818608E-02  0.1127321E+00
          5   -1    0    0  501    0  0.00000000000E+00  0.00000000000E+00  0.40298739713E+03  0.40301480400E+03  0.47000000000E+01 0. -1.
         -5   -1    0    0    0  501 -0.00000000000E+00 -0.00000000000E+00 -0.22190777659E+03  0.22195754394E+03  0.47000000000E+01 0.  1.
          6    1    1    2  502    0 -0.14977067727E+03 -0.21020426299E+02  0.29149547955E+03  0.37071111218E+03  0.17200000000E+03 0. -1.
         -6    1    1    2    0  502  0.14977067727E+03  0.21020426299E+02 -0.11041585902E+03  0.25426123577E+03  0.17200000000E+03 0.  1.
</event>
<event>
 4    1 -0.6963162E-004  0.2623165E+03  0.7818608E-02  0.1105759E+00
          5   -1    0    0  501    0  0.00000000000E+00  0.00000000000E+00  0.51880293995E+03  0.51882422890E+03  0.47000000000E+01 0. -1.
         -5   -1    0    0    0  501 -0.00000000000E+00 -0.00000000000E+00 -0.15289925395E+03  0.15297147400E+03  0.47000000000E+01 0.  1.
          6    1    1    2  502    0  0.14093606509E+03  0.13915084720E+03  0.30540286873E+03  0.40259265387E+03  0.17200000000E+03 0. -1.
         -6    1    1    2    0  502 -0.14093606509E+03 -0.13915084720E+03  0.60500817263E+02  0.26920304904E+03  0.17200000000E+03 0.  1.
</event>
<event>
 4    1 -0.6963162E-004  0.1760123E+03  0.7818608E-02  0.1171719E+00
         -5   -1    0    0    0  501 -0.00000000000E+00  0.00000000000E+00  0.72163827922E+02  0.72316720475E+02  0.47000000000E+01 0.  1.
          5   -1    0    0  501    0  0.00000000000E+00 -0.00000000000E+00 -0.45585796675E+03  0.45588219514E+03  0.47000000000E+01 0. -1.
          6    1    1    2  502    0  0.32529186373E+02 -0.18390155151E+02 -0.12738098353E+03  0.21727001804E+03  0.17200000000E+03 0.  1.
         -6    1    1    2    0  502 -0.32529186373E+02  0.18390155151E+02 -0.25631315529E+03  0.31092889758E+03  0.17200000000E+03 0. -1.
</event>
<event>
 4    1 -0.6963162E-004  0.2305057E+03  0.7818608E-02  0.1126284E+00
         -5   -1    0    0    0  501 -0.00000000000E+00  0.00000000000E+00  0.43245533753E+03  0.43248087698E+03  0.47000000000E+01 0.  1.
          5   -1    0    0  501    0  0.00000000000E+00 -0.00000000000E+00 -0.83857790741E+03  0.83859107841E+03  0.47000000000E+01 0. -1.
          6    1    1    2  502    0  0.10657185478E+03 -0.11041437135E+03 -0.79020024489E+03  0.82313384128E+03  0.17200000000E+03 0. -1.
         -6    1    1    2    0  502 -0.10657185478E+03  0.11041437135E+03  0.38407767501E+03  0.44793811411E+03  0.17200000000E+03 0.  1.
</event>
<event>
 4    1 -0.6963162E-004  0.2135743E+03  0.7818608E-02  0.1138766E+00
         -5   -1    0    0    0  501 -0.00000000000E+00  0.00000000000E+00  0.58062383282E+02  0.58252299117E+02  0.47000000000E+01 0.  1.
          5   -1    0    0  501    0  0.00000000000E+00 -0.00000000000E+00 -0.12970311424E+04  0.12970396579E+04  0.47000000000E+01 0. -1.
          6    1    1    2  502    0  0.63979394421E+02 -0.10925480267E+03 -0.10455864988E+04  0.10671762279E+04  0.17200000000E+03 0. -1.
         -6    1    1    2    0  502 -0.63979394421E+02  0.10925480267E+03 -0.19338226025E+03  0.28811572917E+03  0.17200000000E+03 0.  1.
</event>
<event>
 4    1 -0.6963162E-004  0.1723055E+03  0.7818608E-02  0.1175465E+00
          5   -1    0    0  501    0  0.00000000000E+00  0.00000000000E+00  0.83968989478E+03  0.83970304835E+03  0.47000000000E+01 0. -1.
         -5   -1    0    0    0  501 -0.00000000000E+00 -0.00000000000E+00 -0.89088561450E+02  0.89212453062E+02  0.47000000000E+01 0.  1.
          6    1    1    2  502    0  0.74264258028E+01  0.70726505131E+01  0.73610368765E+03  0.75600119918E+03  0.17200000000E+03 0. -1.
         -6    1    1    2    0  502 -0.74264258028E+01 -0.70726505131E+01  0.14497645683E+02  0.17291430223E+03  0.17200000000E+03 0.  1.
</event>
<event>
 4    1 -0.6963162E-004  0.2025273E+03  0.7818608E-02  0.1147624E+00
         -5   -1    0    0    0  501 -0.00000000000E+00  0.00000000000E+00  0.41180793192E+03  0.41183475181E+03  0.47000000000E+01 0.  1.
          5   -1    0    0  501    0  0.00000000000E+00 -0.00000000000E+00 -0.26803274280E+03  0.26807394728E+03  0.47000000000E+01 0. -1.
          6    1    1    2  502    0 -0.38186517100E+02 -0.99875503095E+02 -0.19761496833E+03  0.28296466549E+03  0.17200000000E+03 0. -1.
         -6    1    1    2    0  502  0.38186517100E+02  0.99875503095E+02  0.34139015745E+03  0.39694403360E+03  0.17200000000E+03 0.  1.
</event>
<event>
 4    1 -0.6963162E-004  0.1769370E+03  0.7818608E-02  0.1170801E+00
         -5   -1    0    0    0  501 -0.00000000000E+00  0.00000000000E+00  0.37424135400E+03  0.37427086587E+03  0.47000000000E+01 0.  1.
          5   -1    0    0  501    0  0.00000000000E+00 -0.00000000000E+00 -0.36633508043E+03  0.36636522918E+03  0.47000000000E+01 0. -1.
          6    1    1    2  502    0 -0.29549000375E+02 -0.29147283138E+02 -0.32135468793E+03  0.36684539385E+03  0.17200000000E+03 0. -1.
         -6    1    1    2    0  502  0.29549000375E+02  0.29147283138E+02  0.32926096150E+03  0.37379070120E+03  0.17200000000E+03 0.  1.
</event>
<event>
 4    1 -0.6963162E-004  0.1817432E+03  0.7818608E-02  0.1166127E+00
          5   -1    0    0  501    0  0.00000000000E+00  0.00000000000E+00  0.46920908686E+02  0.47155717277E+02  0.47000000000E+01 0. -1.
         -5   -1    0    0    0  501 -0.00000000000E+00 -0.00000000000E+00 -0.96019525639E+03  0.96020675919E+03  0.47000000000E+01 0.  1.
          6    1    1    2  502    0  0.58437912885E+02  0.56219707822E+01 -0.19546637787E+03  0.26690391735E+03  0.17200000000E+03 0.  1.
         -6    1    1    2    0  502 -0.58437912885E+02 -0.56219707822E+01 -0.71780796983E+03  0.74045855912E+03  0.17200000000E+03 0.  1.
</event>
<event>
 4    1 -0.6963162E-004  0.2594595E+03  0.7818608E-02  0.1107468E+00
          5   -1    0    0  501    0  0.00000000000E+00  0.00000000000E+00  0.51441248671E+03  0.51443395736E+03  0.47000000000E+01 0. -1.
         -5   -1    0    0    0  501 -0.00000000000E+00 -0.00000000000E+00 -0.19785651158E+03  0.19791232699E+03  0.47000000000E+01 0.  1.
          6    1    1    2  502    0  0.56975830962E+02  0.18571217177E+03  0.36558135022E+03  0.44829563871E+03  0.17200000000E+03 0. -1.
         -6    1    1    2    0  502 -0.56975830962E+02 -0.18571217177E+03 -0.49025375089E+02  0.26405064563E+03  0.17200000000E+03 0.  1.
</event>
<event>
 4    1 -0.6963162E-004  0.1996203E+03  0.7818608E-02  0.1150060E+00
          5   -1    0    0  501    0  0.00000000000E+00  0.00000000000E+00  0.68656055086E+03  0.68657663811E+03  0.47000000000E+01 0. -1.
         -5   -1    0    0    0  501 -0.00000000000E+00 -0.00000000000E+00 -0.86672832490E+02  0.86800172187E+02  0.47000000000E+01 0.  1.
          6    1    1    2  502    0 -0.99021135391E+02  0.21426584153E+02  0.52240688816E+03  0.55924703000E+03  0.17200000000E+03 0. -1.
         -6    1    1    2    0  502  0.99021135391E+02 -0.21426584153E+02  0.77480830214E+02  0.21412978030E+03  0.17200000000E+03 0.  1.
</event>
<event>
 4    1 -0.6963162E-004  0.1994554E+03  0.7818608E-02  0.1150199E+00
         -5   -1    0    0    0  501 -0.00000000000E+00  0.00000000000E+00  0.42430766771E+03  0.42433369756E+03  0.47000000000E+01 0.  1.
          5   -1    0    0  501    0  0.00000000000E+00 -0.00000000000E+00 -0.10706801209E+03  0.10717112117E+03  0.47000000000E+01 0. -1.
          6    1    1    2  502    0 -0.98238737307E+02 -0.23401149785E+02  0.64673584787E+02  0.20967864910E+03  0.17200000000E+03 0. -1.
         -6    1    1    2    0  502  0.98238737307E+02  0.23401149785E+02  0.25256607084E+03  0.32182616963E+03  0.17200000000E+03 0.  1.
</event>
<event>
 4    1 -0.6963162E-004  0.1877492E+03  0.7818608E-02  0.1160507E+00
         -5   -1    0    0    0  501 -0.00000000000E+00  0.00000000000E+00  0.28974006248E+03  0.28977818035E+03  0.47000000000E+01 0.  1.
          5   -1    0    0  501    0  0.00000000000E+00 -0.00000000000E+00 -0.28611499840E+03  0.28615359916E+03  0.47000000000E+01 0. -1.
          6    1    1    2  502    0 -0.66226649794E+02 -0.35774062838E+02 -0.21652941166E+03  0.28659158890E+03  0.17200000000E+03 0. -1.
         -6    1    1    2    0  502  0.66226649794E+02  0.35774062838E+02  0.22015447573E+03  0.28934019061E+03  0.17200000000E+03 0.  1.
</event>
<event>
 4    1 -0.6963162E-004  0.1959235E+03  0.7818608E-02  0.1153225E+00
          5   -1    0    0  501    0  0.00000000000E+00  0.00000000000E+00  0.57815651051E+03  0.57817561402E+03  0.47000000000E+01 0. -1.
         -5   -1    0    0    0  501 -0.00000000000E+00 -0.00000000000E+00 -0.48609364320E+03  0.48611636463E+03  0.47000000000E+01 0.  1.
          6    1    1    2  502    0 -0.24923506547E+01 -0.93785981612E+02  0.54050483290E+03  0.57491868690E+03  0.17200000000E+03 0. -1.
         -6    1    1    2    0  502  0.24923506547E+01  0.93785981612E+02 -0.44844196560E+03  0.48937329174E+03  0.17200000000E+03 0.  1.
</event>
<event>
 4    1 -0.6963162E-004  0.2763651E+03  0.7818608E-02  0.1097691E+00
         -5   -1    0    0    0  501 -0.00000000000E+00  0.00000000000E+00  0.21051510684E+03  0.21056756685E+03  0.47000000000E+01 0.  1.
          5   -1    0    0  501    0  0.00000000000E+00 -0.00000000000E+00 -0.67058550368E+03  0.67060197415E+03  0.47000000000E+01 0. -1.
          6    1    1    2  502    0 -0.21512525395E+03 -0.22689358950E+02 -0.52855431100E+03  0.59644558978E+03  0.17200000000E+03 0. -1.
         -6    1    1    2    0  502  0.21512525395E+03  0.22689358950E+02  0.68483914162E+02  0.28472395122E+03  0.17200000000E+03 0.  1.
</event>
<event>
 4    1 -0.6963162E-004  0.3740286E+03  0.7818608E-02  0.1053163E+00
         -5   -1    0    0    0  501 -0.00000000000E+00  0.00000000000E+00  0.11267723878E+04  0.11267821901E+04  0.47000000000E+01 0.  1.
          5   -1    0    0  501    0  0.00000000000E+00 -0.00000000000E+00 -0.31281753799E+03  0.31285284412E+03  0.47000000000E+01 0. -1.
          6    1    1    2  502    0  0.26068806705E+03 -0.20580359993E+03 -0.15204577946E+03  0.40375154377E+03  0.17200000000E+03 0. -1.
         -6    1    1    2    0  502 -0.26068806705E+03  0.20580359993E+03  0.96600062929E+03  0.10358834905E+04  0.17200000000E+03 0.  1.
</event>
<event>
 4    1 -0.6963162E-004  0.1768768E+03  0.7818608E-02  0.1170860E+00
         -5   -1    0    0    0  501 -0.00000000000E+00  0.00000000000E+00  0.21073894222E+03  0.21079134652E+03  0.47000000000E+01 0.  1.
          5   -1    0    0  501    0  0.00000000000E+00 -0.00000000000E+00 -0.39097110647E+03  0.39099935562E+03  0.47000000000E+01 0. -1.
          6    1    1    2  502    0 -0.38698601176E+02 -0.14276625160E+02 -0.32711803247E+03  0.37187580040E+03  0.17200000000E+03 0. -1.
         -6    1    1    2    0  502  0.38698601176E+02  0.14276625160E+02  0.14688586822E+03  0.22991490174E+03  0.17200000000E+03 0.  1.
</event>
<event>
 4    1 -0.6963162E-004  0.1806146E+03  0.7818608E-02  0.1167210E+00
         -5   -1    0    0    0  501 -0.00000000000E+00  0.00000000000E+00  0.29014966777E+03  0.29018773184E+03  0.47000000000E+01 0.  1.
          5   -1    0    0  501    0  0.00000000000E+00 -0.00000000000E+00 -0.19901912947E+03  0.19907461891E+03  0.47000000000E+01 0. -1.
          6    1    1    2  502    0  0.53311525784E+02  0.13982552564E+02 -0.11583596303E+03  0.21456840608E+03  0.17200000000E+03 0. -1.
         -6    1    1    2    0  502 -0.53311525784E+02 -0.13982552564E+02  0.20696650134E+03  0.27469394466E+03  0.17200000000E+03 0.  1.
</event>
<event>
 4    1 -0.6963162E-004  0.2052416E+03  0.7818608E-02  0.1145391E+00
          5   -1    0    0  501    0  0.00000000000E+00  0.00000000000E+00  0.15115006253E+03  0.15122311795E+03  0.47000000000E+01 0. -1.
         -5   -1    0    0    0  501 -0.00000000000E+00 -0.00000000000E+00 -0.44895253295E+03  0.44897713399E+03  0.47000000000E+01 0.  1.
          6    1    1    2  502    0  0.11039478513E+03  0.18790946791E+02  0.35973710153E+02  0.20837038198E+03  0.17200000000E+03 0. -1.
         -6    1    1    2    0  502 -0.11039478513E+03 -0.18790946791E+02 -0.33377618058E+03  0.39182986995E+03  0.17200000000E+03 0.  1.
</event>
<event>
 4    1 -0.6963162E-004  0.1809003E+03  0.7818608E-02  0.1166935E+00
         -5   -1    0    0    0  501 -0.00000000000E+00  0.00000000000E+00  0.41736495120E+03  0.41739141402E+03  0.47000000000E+01 0.  1.
          5   -1    0    0  501    0  0.00000000000E+00 -0.00000000000E+00 -0.78386033813E+02  0.78526812599E+02  0.47000000000E+01 0. -1.
          6    1    1    2  502    0 -0.26655731229E+02 -0.49298940067E+02  0.17725541599E+03  0.25326743967E+03  0.17200000000E+03 0.  1.
         -6    1    1    2    0  502  0.26655731229E+02  0.49298940067E+02  0.16172350140E+03  0.24265078694E+03  0.17200000000E+03 0.  1.
</event>
<event>
 4    1 -0.6963162E-004  0.1976420E+03  0.7818608E-02  0.1151744E+00
         -5   -1    0    0    0  501 -0.00000000000E+00  0.00000000000E+00  0.66175192680E+03  0.66176861714E+03  0.47000000000E+01 0.  1.
          5   -1    0    0  501    0  0.00000000000E+00 -0.00000000000E+00 -0.20611546577E+03  0.20616904528E+03  0.47000000000E+01 0. -1.
          6    1    1    2  502    0  0.66384090173E+02  0.71214680587E+02 -0.13879613258E+03  0.24150930537E+03  0.17200000000E+03 0. -1.
         -6    1    1    2    0  502 -0.66384090173E+02 -0.71214680587E+02  0.59443259361E+03  0.62642835704E+03  0.17200000000E+03 0.  1.
</event>
<event>
 4    1 -0.6963162E-004  0.2005776E+03  0.7818608E-02  0.1149253E+00
          5   -1    0    0  501    0  0.00000000000E+00  0.00000000000E+00  0.61902422175E+03  0.61904206409E+03  0.47000000000E+01 0. -1.
         -5   -1    0    0    0  501 -0.00000000000E+00 -0.00000000000E+00 -0.10157923929E+03  0.10168791400E+03  0.47000000000E+01 0.  1.
          6    1    1    2  502    0  0.92064377925E+02 -0.46599651613E+02  0.47513708915E+03  0.51573891719E+03  0.17200000000E+03 0. -1.
         -6    1    1    2    0  502 -0.92064377925E+02  0.46599651613E+02  0.42307893308E+02  0.20499106090E+03  0.17200000000E+03 0.  1.
</event>
<event>
 4    1 -0.6963162E-004  0.1739045E+03  0.7818608E-02  0.1173836E+00
          5   -1    0    0  501    0  0.00000000000E+00  0.00000000000E+00  0.10399556905E+04  0.10399663111E+04  0.47000000000E+01 0. -1.
         -5   -1    0    0    0  501 -0.00000000000E+00 -0.00000000000E+00 -0.79565066458E+02  0.79703762775E+02  0.47000000000E+01 0.  1.
          6    1    1    2  502    0  0.61090743485E+01  0.24928850010E+02  0.92626527235E+03  0.94244900293E+03  0.17200000000E+03 0. -1.
         -6    1    1    2    0  502 -0.61090743485E+01 -0.24928850010E+02  0.34125351674E+02  0.17722107092E+03  0.17200000000E+03 0.  1.
</event>
<event>
 4    1 -0.6963162E-004  0.1721217E+03  0.7818608E-02  0.1175653E+00
          5   -1    0    0  501    0  0.00000000000E+00  0.00000000000E+00  0.52242508870E+03  0.52244623006E+03  0.47000000000E+01 0. -1.
         -5   -1    0    0    0  501 -0.00000000000E+00 -0.00000000000E+00 -0.85560262039E+02  0.85689255104E+02  0.47000000000E+01 0.  1.
          6    1    1    2  502    0 -0.60052966224E+01  0.24120923077E+01  0.39518114764E+03  0.43103830598E+03  0.17200000000E+03 0. -1.
         -6    1    1    2    0  502  0.60052966224E+01 -0.24120923077E+01  0.41683679025E+02  0.17709717918E+03  0.17200000000E+03 0.  1.
</event>
<event>
 4    1 -0.6963162E-004  0.1815879E+03  0.7818608E-02  0.1166275E+00
          5   -1    0    0  501    0  0.00000000000E+00  0.00000000000E+00  0.19697953772E+03  0.19703560155E+03  0.47000000000E+01 0. -1.
         -5   -1    0    0    0  501 -0.00000000000E+00 -0.00000000000E+00 -0.16940497206E+03  0.16947015832E+03  0.47000000000E+01 0.  1.
          6    1    1    2  502    0 -0.45098724433E+02  0.36827498454E+02 -0.67004018080E+01  0.18171146076E+03  0.17200000000E+03 0.  1.
         -6    1    1    2    0  502  0.45098724433E+02 -0.36827498454E+02  0.34274967462E+02  0.18479429911E+03  0.17200000000E+03 0.  1.
</event>
<event>
 4    1 -0.6963162E-004  0.1898213E+03  0.7818608E-02  0.1158623E+00
         -5   -1    0    0    0  501 -0.00000000000E+00  0.00000000000E+00  0.21519320208E+03  0.21524452193E+03  0.47000000000E+01 0.  1.
          5   -1    0    0  501    0  0.00000000000E+00 -0.00000000000E+00 -0.18695995486E+03  0.18701902235E+03  0.47000000000E+01 0. -1.
          6    1    1    2  502    0  0.79299668306E+02 -0.12636857441E+02  0.79258674887E+02  0.20570382861E+03  0.17200000000E+03 0.  1.
         -6    1    1    2    0  502 -0.79299668306E+02  0.12636857441E+02 -0.51025427665E+02  0.19655971568E+03  0.17200000000E+03 0. -1.
</event>
<event>
 4    1 -0.6963162E-004  0.1772168E+03  0.7818608E-02  0.1170524E+00
          5   -1    0    0  501    0  0.00000000000E+00  0.00000000000E+00  0.18148549364E+03  0.18154634230E+03  0.47000000000E+01 0. -1.
         -5   -1    0    0    0  501 -0.00000000000E+00 -0.00000000000E+00 -0.31032064525E+03  0.31035623543E+03  0.47000000000E+01 0.  1.
          6    1    1    2  502    0 -0.36241366276E+02 -0.22547175660E+02  0.99207555794E+02  0.20309591548E+03  0.17200000000E+03 0. -1.
         -6    1    1    2    0  502  0.36241366276E+02  0.22547175660E+02 -0.22804270740E+03  0.28880666225E+03  0.17200000000E+03 0.  1.
</event>
<event>
 4    1 -0.6963162E-004  0.1898791E+03  0.7818608E-02  0.1158570E+00
         -5   -1    0    0    0  501 -0.00000000000E+00  0.00000000000E+00  0.47653624471E+03  0.47655942182E+03  0.47000000000E+01 0.  1.
          5   -1    0    0  501    0  0.00000000000E+00 -0.00000000000E+00 -0.10648179457E+04  0.10648283183E+04  0.47000000000E+01 0. -1.
          6    1    1    2  502    0 -0.75369964187E+02 -0.28096961165E+02 -0.10369516288E+04  0.10541929384E+04  0.17200000000E+03 0. -1.
         -6    1    1    2    0  502  0.75369964187E+02  0.28096961165E+02  0.44866992784E+03  0.48719480178E+03  0.17200000000E+03 0.  1.
</event>
<event>
 4    1 -0.6963162E-004  0.1770531E+03  0.7818608E-02  0.1170686E+00
         -5   -1    0    0    0  501 -0.00000000000E+00  0.00000000000E+00  0.42352964271E+03  0.42355572036E+03  0.47000000000E+01 0.  1.
          5   -1    0    0  501    0  0.00000000000E+00 -0.00000000000E+00 -0.15432304287E+03  0.15439459693E+03  0.47000000000E+01 0. -1.
          6    1    1    2  502    0 -0.26748277751E+02 -0.32377714833E+02 -0.73898321286E+02  0.19185606237E+03  0.17200000000E+03 0. -1.
         -6    1    1    2    0  502  0.26748277751E+02  0.32377714833E+02  0.34310492113E+03  0.38609425492E+03  0.17200000000E+03 0.  1.
</event>
<event>
 4    1 -0.6963162E-004  0.1959932E+03  0.7818608E-02  0.1153164E+00
          5   -1    0    0  501    0  0.00000000000E+00  0.00000000000E+00  0.11863209167E+04  0.11863302269E+04  0.47000000000E+01 0. -1.
         -5   -1    0    0    0  501 -0.00000000000E+00 -0.00000000000E+00 -0.25919999313E+03  0.25924260151E+03  0.47000000000E+01 0.  1.
          6    1    1    2  502    0  0.64436277244E+02  0.68390735560E+02  0.11397006201E+04  0.11564302098E+04  0.17200000000E+03 0. -1.
         -6    1    1    2    0  502 -0.64436277244E+02 -0.68390735560E+02 -0.21257969659E+03  0.28914261868E+03  0.17200000000E+03 0.  1.
</event>
<event>
 4    1 -0.6963162E-004  0.1723890E+03  0.7818608E-02  0.1175379E+00
         -5   -1    0    0    0  501 -0.00000000000E+00  0.00000000000E+00  0.23652201743E+03  0.23656871038E+03  0.47000000000E+01 0.  1.
          5   -1    0    0  501    0  0.00000000000E+00 -0.00000000000E+00 -0.37467918263E+03  0.37470866002E+03  0.47000000000E+01 0. -1.
          6    1    1    2  502    0  0.54422166786E+01  0.10215676934E+02 -0.31827177237E+03  0.36195980283E+03  0.17200000000E+03 0. -1.
         -6    1    1    2    0  502 -0.54422166786E+01 -0.10215676934E+02  0.18011460718E+03  0.24931756756E+03  0.17200000000E+03 0.  1.
</event>
<event>
 4    1 -0.6963162E-004  0.2141139E+03  0.7818608E-02  0.1138349E+00
          5   -1    0    0  501    0  0.00000000000E+00  0.00000000000E+00  0.26503123143E+03  0.26507290249E+03  0.47000000000E+01 0. -1.
         -5   -1    0    0    0  501 -0.00000000000E+00 -0.00000000000E+00 -0.59866195014E+03  0.59868039933E+03  0.47000000000E+01 0.  1.
          6    1    1    2  502    0 -0.84610553962E+02  0.95403461436E+02  0.19737345100E+03  0.29120619062E+03  0.17200000000E+03 0. -1.
         -6    1    1    2    0  502  0.84610553962E+02 -0.95403461436E+02 -0.53100416971E+03  0.57254711120E+03  0.17200000000E+03 0.  1.
</event>
<event>
 4    1 -0.6963162E-004  0.1728552E+03  0.7818608E-02  0.1174903E+00
          5   -1    0    0  501    0  0.00000000000E+00  0.00000000000E+00  0.52464187409E+03  0.52466292612E+03  0.47000000000E+01 0. -1.
         -5   -1    0    0    0  501 -0.00000000000E+00 -0.00000000000E+00 -0.81874675663E+02  0.82009466008E+02  0.47000000000E+01 0.  1.
          6    1    1    2  502    0 -0.49691283464E+01 -0.16438156069E+02  0.38895494768E+03  0.42563465147E+03  0.17200000000E+03 0. -1.
         -6    1    1    2    0  502  0.49691283464E+01  0.16438156069E+02  0.53812250747E+02  0.18103774066E+03  0.17200000000E+03 0.  1.
</event>
<event>
 4    1 -0.6963162E-004  0.1736276E+03  0.7818608E-02  0.1174117E+00
          5   -1    0    0  501    0  0.00000000000E+00  0.00000000000E+00  0.17789842502E+03  0.17796050018E+03  0.47000000000E+01 0. -1.
         -5   -1    0    0    0  501 -0.00000000000E+00 -0.00000000000E+00 -0.43726292432E+03  0.43728818299E+03  0.47000000000E+01 0.  1.
          6    1    1    2  502    0 -0.21738624085E+02 -0.94859019729E+01  0.11108920224E+03  0.20612462484E+03  0.17200000000E+03 0. -1.
         -6    1    1    2    0  502  0.21738624085E+02  0.94859019729E+01 -0.37045370154E+03  0.40912405833E+03  0.17200000000E+03 0.  1.
</event>
<event>
 4    1 -0.6963162E-004  0.1794447E+03  0.7818608E-02  0.1168342E+00
         -5   -1    0    0    0  501 -0.00000000000E+00  0.00000000000E+00  0.54423591801E+02  0.54626159891E+02  0.47000000000E+01 0.  1.
          5   -1    0    0  501    0  0.00000000000E+00 -0.00000000000E+00 -0.26142539772E+04  0.26142582021E+04  0.47000000000E+01 0. -1.
          6    1    1    2  502    0  0.21268750520E+02  0.46519218297E+02 -0.24540092390E+04  0.24605612657E+04  0.17200000000E+03 0. -1.
         -6    1    1    2    0  502 -0.21268750520E+02 -0.46519218297E+02 -0.10582114646E+03  0.20832309632E+03  0.17200000000E+03 0.  1.
</event>
<event>
 4    1 -0.6963162E-004  0.3116703E+03  0.7818608E-02  0.1079548E+00
         -5   -1    0    0    0  501 -0.00000000000E+00  0.00000000000E+00  0.17612268685E+04  0.17612331397E+04  0.47000000000E+01 0.  1.
          5   -1    0    0  501    0  0.00000000000E+00 -0.00000000000E+00 -0.20527237981E+03  0.20532617932E+03  0.47000000000E+01 0. -1.
          6    1    1    2  502    0  0.19134023308E+03 -0.17590697975E+03 -0.62918307600E+02  0.31795764459E+03  0.17200000000E+03 0. -1.
         -6    1    1    2    0  502 -0.19134023308E+03  0.17590697975E+03  0.16188727963E+04  0.16486016744E+04  0.17200000000E+03 0.  1.
</event>
<event>
 4    1 -0.6963162E-004  0.1919264E+03  0.7818608E-02  0.1156735E+00
          5   -1    0    0  501    0  0.00000000000E+00  0.00000000000E+00  0.44768852603E+03  0.44771319652E+03  0.47000000000E+01 0. -1.
         -5   -1    0    0    0  501 -0.00000000000E+00 -0.00000000000E+00 -0.14966580831E+03  0.14973958787E+03  0.47000000000E+01 0.  1.
          6    1    1    2  502    0  0.60392644572E+02  0.60037236253E+02  0.34951086702E+03  0.39873999977E+03  0.17200000000E+03 0. -1.
         -6    1    1    2    0  502 -0.60392644572E+02 -0.60037236253E+02 -0.51488149296E+02  0.19871278462E+03  0.17200000000E+03 0.  1.
</event>
<event>
 4    1 -0.6963162E-004  0.1982723E+03  0.7818608E-02  0.1151205E+00
          5   -1    0    0  501    0  0.00000000000E+00  0.00000000000E+00  0.75812321514E+03  0.75813778388E+03  0.47000000000E+01 0. -1.
         -5   -1    0    0    0  501 -0.00000000000E+00 -0.00000000000E+00 -0.73755466717E+02  0.73905066610E+02  0.47000000000E+01 0.  1.
          6    1    1    2  502    0  0.50624628764E+02 -0.84646672085E+02  0.56921161944E+03  0.60275515745E+03  0.17200000000E+03 0. -1.
         -6    1    1    2    0  502 -0.50624628764E+02  0.84646672085E+02  0.11515612899E+03  0.22928769303E+03  0.17200000000E+03 0.  1.
</event>
<event>
 4    1 -0.6963162E-004  0.1991556E+03  0.7818608E-02  0.1150453E+00
         -5   -1    0    0    0  501 -0.00000000000E+00  0.00000000000E+00  0.23685716152E+03  0.23690378841E+03  0.47000000000E+01 0.  1.
          5   -1    0    0  501    0  0.00000000000E+00 -0.00000000000E+00 -0.19965516937E+03  0.19971048209E+03  0.47000000000E+01 0. -1.
          6    1    1    2  502    0  0.28111423954E+02  0.96377932800E+02 -0.69177067035E+02  0.21082795045E+03  0.17200000000E+03 0. -1.
         -6    1    1    2    0  502 -0.28111423954E+02 -0.96377932800E+02  0.10637905918E+03  0.22578632005E+03  0.17200000000E+03 0.  1.
</event>
<event>
 4    1 -0.6963162E-004  0.2054137E+03  0.7818608E-02  0.1145250E+00
          5   -1    0    0  501    0  0.00000000000E+00  0.00000000000E+00  0.51035076810E+03  0.51037240962E+03  0.47000000000E+01 0. -1.
         -5   -1    0    0    0  501 -0.00000000000E+00 -0.00000000000E+00 -0.24985720623E+03  0.24990140757E+03  0.47000000000E+01 0.  1.
          6    1    1    2  502    0 -0.11190625347E+03 -0.93693606878E+01  0.44120802586E+03  0.48668194600E+03  0.17200000000E+03 0. -1.
         -6    1    1    2    0  502  0.11190625347E+03  0.93693606878E+01 -0.18071446399E+03  0.27359187119E+03  0.17200000000E+03 0.  1.
</event>
<event>
 4    1 -0.6963162E-004  0.1871038E+03  0.7818608E-02  0.1161100E+00
          5   -1    0    0  501    0  0.00000000000E+00  0.00000000000E+00  0.96600053646E+03  0.96601197013E+03  0.47000000000E+01 0. -1.
         -5   -1    0    0    0  501 -0.00000000000E+00 -0.00000000000E+00 -0.14952536190E+03  0.14959921073E+03  0.47000000000E+01 0.  1.
          6    1    1    2  502    0 -0.72579161612E+02 -0.12493255113E+02  0.89378906925E+03  0.91316302840E+03  0.17200000000E+03 0. -1.
         -6    1    1    2    0  502  0.72579161612E+02  0.12493255113E+02 -0.77313894689E+02  0.20244815246E+03  0.17200000000E+03 0.  1.
</event>
<event>
 4    1 -0.6963162E-004  0.2627400E+03  0.7818608E-02  0.1105508E+00
         -5   -1    0    0    0  501 -0.00000000000E+00  0.00000000000E+00  0.15806476956E+03  0.15813463054E+03  0.47000000000E+01 0.  1.
          5   -1    0    0  501    0  0.00000000000E+00 -0.00000000000E+00 -0.66842713165E+03  0.66844365531E+03  0.47000000000E+01 0. -1.
          6    1    1    2  502    0  0.13808127484E+03 -0.14276511894E+03 -0.49858164880E+03  0.56357428806E+03  0.17200000000E+03 0. -1.
         -6    1    1    2    0  502 -0.13808127484E+03  0.14276511894E+03 -0.11780713298E+02  0.26300399779E+03  0.17200000000E+03 0.  1.
</event>
<event>
 4    1 -0.6963162E-004  0.1795226E+03  0.7818608E-02  0.1168266E+00
         -5   -1    0    0    0  501 -0.00000000000E+00  0.00000000000E+00  0.53343649333E+02  0.53550302746E+02  0.47000000000E+01 0.  1.
          5   -1    0    0  501    0  0.00000000000E+00 -0.00000000000E+00 -0.14297866016E+04  0.14297943265E+04  0.47000000000E+01 0. -1.
          6    1    1    2  502    0 -0.40345327830E+02 -0.31884309842E+02 -0.12522451458E+04  0.12650479279E+04  0.17200000000E+03 0. -1.
         -6    1    1    2    0  502  0.40345327830E+02  0.31884309842E+02 -0.12419780646E+03  0.21829670135E+03  0.17200000000E+03 0.  1.
</event>
<event>
 4    1 -0.6963162E-004  0.2070231E+03  0.7818608E-02  0.1143945E+00
          5   -1    0    0  501    0  0.00000000000E+00  0.00000000000E+00  0.38732369591E+03  0.38735221106E+03  0.47000000000E+01 0. -1.
         -5   -1    0    0    0  501 -0.00000000000E+00 -0.00000000000E+00 -0.27744914880E+03  0.27748895505E+03  0.47000000000E+01 0.  1.
          6    1    1    2  502    0 -0.86089380832E+02  0.76571344001E+02  0.31269967830E+03  0.37501952085E+03  0.17200000000E+03 0. -1.
         -6    1    1    2    0  502  0.86089380832E+02 -0.76571344001E+02 -0.20282513119E+03  0.28982164525E+03  0.17200000000E+03 0.  1.
</event>
<event>
 4    1 -0.6963162E-004  0.1909850E+03  0.7818608E-02  0.1157576E+00
          5   -1    0    0  501    0  0.00000000000E+00  0.00000000000E+00  0.63032987654E+03  0.63034739887E+03  0.47000000000E+01 0. -1.
         -5   -1    0    0    0  501 -0.00000000000E+00 -0.00000000000E+00 -0.59720840256E+02  0.59905498586E+02  0.47000000000E+01 0.  1.
          6    1    1    2  502    0 -0.66630824666E+02  0.49513479169E+02  0.34784342504E+03  0.39682527611E+03  0.17200000000E+03 0. -1.
         -6    1    1    2    0  502  0.66630824666E+02 -0.49513479169E+02  0.22276561125E+03  0.29342762135E+03  0.17200000000E+03 0.  1.
</event>
<event>
 4    1 -0.6963162E-004  0.2464195E+03  0.7818608E-02  0.1115589E+00
          5   -1    0    0  501    0  0.00000000000E+00  0.00000000000E+00  0.34475313818E+03  0.34478517410E+03  0.47000000000E+01 0. -1.
         -5   -1    0    0    0  501 -0.00000000000E+00 -0.00000000000E+00 -0.31427671029E+03  0.31431185251E+03  0.47000000000E+01 0.  1.
          6    1    1    2  502    0 -0.11391668716E+03  0.13476491488E+03  0.23375484750E+03  0.33965264996E+03  0.17200000000E+03 0. -1.
         -6    1    1    2    0  502  0.11391668716E+03 -0.13476491488E+03 -0.20327841961E+03  0.31944437665E+03  0.17200000000E+03 0.  1.
</event>
<event>
 4    1 -0.6963162E-004  0.1863600E+03  0.7818608E-02  0.1161786E+00
         -5   -1    0    0    0  501 -0.00000000000E+00  0.00000000000E+00  0.34752464546E+03  0.34755642592E+03  0.47000000000E+01 0.  1.
          5   -1    0    0  501    0  0.00000000000E+00 -0.00000000000E+00 -0.12542208334E+03  0.12551011509E+03  0.47000000000E+01 0. -1.
          6    1    1    2  502    0  0.51077840935E+02  0.50369665539E+02  0.42900649546E+01  0.18640937127E+03  0.17200000000E+03 0. -1.
         -6    1    1    2    0  502 -0.51077840935E+02 -0.50369665539E+02  0.21781249716E+03  0.28665716974E+03  0.17200000000E+03 0.  1.
</event>
<event>
 4    1 -0.6963162E-004  0.1816907E+03  0.7818608E-02  0.1166177E+00
          5   -1    0    0  501    0  0.00000000000E+00  0.00000000000E+00  0.31008852182E+03  0.31012413864E+03  0.47000000000E+01 0. -1.
         -5   -1    0    0    0  501 -0.00000000000E+00 -0.00000000000E+00 -0.31970751877E+03  0.31974206410E+03  0.47000000000E+01 0.  1.
          6    1    1    2  502    0 -0.46830921123E+01 -0.58357219667E+02  0.25241348109E+03  0.31100492259E+03  0.17200000000E+03 0. -1.
         -6    1    1    2    0  502  0.46830921123E+01  0.58357219667E+02 -0.26203247803E+03  0.31886128016E+03  0.17200000000E+03 0.  1.
</event>
<event>
 4    1 -0.6963162E-004  0.1790453E+03  0.7818608E-02  0.1168730E+00
          5   -1    0    0  501    0  0.00000000000E+00  0.00000000000E+00  0.48586312639E+03  0.48588585860E+03  0.47000000000E+01 0. -1.
         -5   -1    0    0    0  501 -0.00000000000E+00 -0.00000000000E+00 -0.66438235786E+02  0.66604272943E+02  0.47000000000E+01 0.  1.
          6    1    1    2  502    0  0.36176748691E+02 -0.34124226613E+02  0.23518026065E+03  0.29557905031E+03  0.17200000000E+03 0. -1.
         -6    1    1    2    0  502 -0.36176748691E+02  0.34124226613E+02  0.18424462996E+03  0.25691108122E+03  0.17200000000E+03 0.  1.
</event>
<event>
 4    1 -0.6963162E-004  0.1870975E+03  0.7818608E-02  0.1161106E+00
         -5   -1    0    0    0  501 -0.00000000000E+00  0.00000000000E+00  0.43900861454E+03  0.43903377278E+03  0.47000000000E+01 0.  1.
          5   -1    0    0  501    0  0.00000000000E+00 -0.00000000000E+00 -0.29765803453E+03  0.29769513856E+03  0.47000000000E+01 0. -1.
          6    1    1    2  502    0 -0.73331809535E+02  0.66270254675E+01 -0.24452156938E+03  0.30789002850E+03  0.17200000000E+03 0. -1.
         -6    1    1    2    0  502  0.73331809535E+02 -0.66270254675E+01  0.38587214940E+03  0.42883888284E+03  0.17200000000E+03 0.  1.
</event>
<event>
 4    1 -0.6963162E-004  0.1906764E+03  0.7818608E-02  0.1157853E+00
          5   -1    0    0  501    0  0.00000000000E+00  0.00000000000E+00  0.19115287114E+04  0.19115344895E+04  0.47000000000E+01 0. -1.
         -5   -1    0    0    0  501 -0.00000000000E+00 -0.00000000000E+00 -0.10267369183E+03  0.10278120935E+03  0.47000000000E+01 0.  1.
          6    1    1    2  502    0 -0.44606046450E+02  0.69164996947E+02  0.18135845273E+04  0.18235806354E+04  0.17200000000E+03 0. -1.
         -6    1    1    2    0  502  0.44606046450E+02 -0.69164996947E+02 -0.47295077165E+01  0.19073506344E+03  0.17200000000E+03 0.  1.
</event>
<event>
 4    1 -0.6963162E-004  0.5970525E+03  0.7818608E-02  0.9911540E-01
          5   -1    0    0  501    0  0.00000000000E+00  0.00000000000E+00  0.30219172779E+03  0.30222827523E+03  0.47000000000E+01 0. -1.
         -5   -1    0    0    0  501 -0.00000000000E+00 -0.00000000000E+00 -0.23388723415E+04  0.23388770639E+04  0.47000000000E+01 0.  1.
          6    1    1    2  502    0 -0.17903413337E+03 -0.54298659837E+03 -0.88607119972E+02  0.60359165719E+03  0.17200000000E+03 0. -1.
         -6    1    1    2    0  502  0.17903413337E+03  0.54298659837E+03 -0.19480734938E+04  0.20375136819E+04  0.17200000000E+03 0.  1.
</event>
<event>
 4    1 -0.6963162E-004  0.2358395E+03  0.7818608E-02  0.1122596E+00
         -5   -1    0    0    0  501 -0.00000000000E+00  0.00000000000E+00  0.11648245702E+04  0.11648340523E+04  0.47000000000E+01 0.  1.
          5   -1    0    0  501    0  0.00000000000E+00 -0.00000000000E+00 -0.90956797982E+02  0.91078148308E+02  0.47000000000E+01 0. -1.
          6    1    1    2  502    0 -0.51102036810E+02  0.15305181057E+03  0.10394771674E+03  0.25773126062E+03  0.17200000000E+03 0. -1.
         -6    1    1    2    0  502  0.51102036810E+02 -0.15305181057E+03  0.96992005545E+03  0.99818093994E+03  0.17200000000E+03 0.  1.
</event>
<event>
 4    1 -0.6963162E-004  0.2275924E+03  0.7818608E-02  0.1128346E+00
          5   -1    0    0  501    0  0.00000000000E+00  0.00000000000E+00  0.20718988909E+03  0.20724319082E+03  0.47000000000E+01 0. -1.
         -5   -1    0    0    0  501 -0.00000000000E+00 -0.00000000000E+00 -0.72087026601E+03  0.72088558761E+03  0.47000000000E+01 0.  1.
          6    1    1    2  502    0  0.25978995529E+02  0.14676304836E+03  0.11823907289E+03  0.25647373926E+03  0.17200000000E+03 0. -1.
         -6    1    1    2    0  502 -0.25978995529E+02 -0.14676304836E+03 -0.63191944981E+03  0.67165503916E+03  0.17200000000E+03 0.  1.
</event>
<event>
 4    1 -0.6963162E-004  0.2776208E+03  0.7818608E-02  0.1096996E+00
          5   -1    0    0  501    0  0.00000000000E+00  0.00000000000E+00  0.39783684187E+03  0.39786460354E+03  0.47000000000E+01 0. -1.
         -5   -1    0    0    0  501 -0.00000000000E+00 -0.00000000000E+00 -0.19426484207E+03  0.19432168912E+03  0.47000000000E+01 0.  1.
          6    1    1    2  502    0  0.59273135499E+02  0.20970452500E+03  0.85375872121E+02  0.29045194428E+03  0.17200000000E+03 0. -1.
         -6    1    1    2    0  502 -0.59273135499E+02 -0.20970452500E+03  0.11819612768E+03  0.30173434838E+03  0.17200000000E+03 0.  1.
</event>
<event>
 4    1 -0.6963162E-004  0.1959062E+03  0.7818608E-02  0.1153240E+00
         -5   -1    0    0    0  501 -0.00000000000E+00  0.00000000000E+00  0.19517274011E+03  0.19522932281E+03  0.47000000000E+01 0.  1.
          5   -1    0    0  501    0  0.00000000000E+00 -0.00000000000E+00 -0.97660947928E+03  0.97662078875E+03  0.47000000000E+01 0. -1.
          6    1    1    2  502    0  0.75626386977E+02  0.55460674141E+02 -0.91435637513E+03  0.93510791758E+03  0.17200000000E+03 0. -1.
         -6    1    1    2    0  502 -0.75626386977E+02 -0.55460674141E+02  0.13291963596E+03  0.23674219398E+03  0.17200000000E+03 0.  1.
</event>
<event>
 4    1 -0.6963162E-004  0.2167983E+03  0.7818608E-02  0.1136293E+00
         -5   -1    0    0    0  501 -0.00000000000E+00  0.00000000000E+00  0.22638074952E+03  0.22642953375E+03  0.47000000000E+01 0.  1.
          5   -1    0    0  501    0  0.00000000000E+00 -0.00000000000E+00 -0.21624722536E+03  0.21629829513E+03  0.47000000000E+01 0. -1.
          6    1    1    2  502    0  0.13167384480E+03  0.89155565903E+01  0.49517376623E+02  0.22238133721E+03  0.17200000000E+03 0. -1.
         -6    1    1    2    0  502 -0.13167384480E+03 -0.89155565903E+01 -0.39383852467E+02  0.22034649166E+03  0.17200000000E+03 0. -1.
</event>
<event>
 4    1 -0.6963162E-004  0.2093940E+03  0.7818608E-02  0.1142047E+00
         -5   -1    0    0    0  501 -0.00000000000E+00  0.00000000000E+00  0.53002961629E+02  0.53210938174E+02  0.47000000000E+01 0.  1.
          5   -1    0    0  501    0  0.00000000000E+00 -0.00000000000E+00 -0.16849120611E+04  0.16849186164E+04  0.47000000000E+01 0. -1.
          6    1    1    2  502    0  0.11878010906E+03  0.12375321800E+02 -0.14366256111E+04  0.14518054310E+04  0.17200000000E+03 0. -1.
         -6    1    1    2    0  502 -0.11878010906E+03 -0.12375321800E+02 -0.19528348841E+03  0.28632412358E+03  0.17200000000E+03 0.  1.
</event>
<event>
 4    1 -0.6963162E-004  0.1905050E+03  0.7818608E-02  0.1158007E+00
         -5   -1    0    0    0  501 -0.00000000000E+00  0.00000000000E+00  0.70677933399E+03  0.70679496104E+03  0.47000000000E+01 0.  1.
          5   -1    0    0  501    0  0.00000000000E+00 -0.00000000000E+00 -0.58075475633E+02  0.58265348793E+02  0.47000000000E+01 0. -1.
          6    1    1    2  502    0  0.76115032539E+02  0.30243078091E+02  0.19321635926E+03  0.27133872454E+03  0.17200000000E+03 0. -1.
         -6    1    1    2    0  502 -0.76115032539E+02 -0.30243078091E+02  0.45548749910E+03  0.49372158529E+03  0.17200000000E+03 0.  1.
</event>
<event>
 4    1 -0.6963162E-004  0.1923426E+03  0.7818608E-02  0.1156365E+00
         -5   -1    0    0    0  501 -0.00000000000E+00  0.00000000000E+00  0.72556233064E+02  0.72708300464E+02  0.47000000000E+01 0.  1.
          5   -1    0    0  501    0  0.00000000000E+00 -0.00000000000E+00 -0.55478416052E+03  0.55480406880E+03  0.47000000000E+01 0. -1.
          6    1    1    2  502    0  0.44751686468E+02  0.73545723641E+02 -0.33104346277E+03  0.38286480793E+03  0.17200000000E+03 0. -1.
         -6    1    1    2    0  502 -0.44751686468E+02 -0.73545723641E+02 -0.15118446468E+03  0.24464756134E+03  0.17200000000E+03 0.  1.
</event>
<event>
 4    1 -0.6963162E-004  0.1832630E+03  0.7818608E-02  0.1164682E+00
         -5   -1    0    0    0  501 -0.00000000000E+00  0.00000000000E+00  0.15131465303E+04  0.15131538297E+04  0.47000000000E+01 0.  1.
          5   -1    0    0  501    0  0.00000000000E+00 -0.00000000000E+00 -0.44675243679E+02  0.44921792015E+02  0.47000000000E+01 0. -1.
          6    1    1    2  502    0 -0.36840563755E+02 -0.51420910786E+02  0.18083034042E+03  0.25745863594E+03  0.17200000000E+03 0. -1.
         -6    1    1    2    0  502  0.36840563755E+02  0.51420910786E+02  0.12876409462E+04  0.13006169857E+04  0.17200000000E+03 0.  1.
</event>
<event>
 4    1 -0.6963162E-004  0.2211701E+03  0.7818608E-02  0.1133014E+00
         -5   -1    0    0    0  501 -0.00000000000E+00  0.00000000000E+00  0.18237170627E+03  0.18243225934E+03  0.47000000000E+01 0.  1.
          5   -1    0    0  501    0  0.00000000000E+00 -0.00000000000E+00 -0.54136560040E+03  0.54138600212E+03  0.47000000000E+01 0. -1.
          6    1    1    2  502    0  0.10706559446E+03  0.88708231027E+02 -0.43660317100E+03  0.48942672658E+03  0.17200000000E+03 0. -1.
         -6    1    1    2    0  502 -0.10706559446E+03 -0.88708231027E+02  0.77609276868E+02  0.23439153488E+03  0.17200000000E+03 0.  1.
</event>
<event>
 4    1 -0.6963162E-004  0.2527261E+03  0.7818608E-02  0.1111594E+00
         -5   -1    0    0    0  501 -0.00000000000E+00  0.00000000000E+00  0.85664012265E+03  0.85665301595E+03  0.47000000000E+01 0.  1.
          5   -1    0    0  501    0  0.00000000000E+00 -0.00000000000E+00 -0.38123877592E+03  0.38126774616E+03  0.47000000000E+01 0. -1.
          6    1    1    2  502    0  0.17506427118E+03  0.60323943296E+02 -0.31745000045E+03  0.40576468546E+03  0.17200000000E+03 0. -1.
         -6    1    1    2    0  502 -0.17506427118E+03 -0.60323943296E+02  0.79285134719E+03  0.83215607666E+03  0.17200000000E+03 0.  1.
</event>
<event>
 4    1 -0.6963162E-004  0.2150694E+03  0.7818608E-02  0.1137613E+00
         -5   -1    0    0    0  501 -0.00000000000E+00  0.00000000000E+00  0.28569845500E+03  0.28573711203E+03  0.47000000000E+01 0.  1.
          5   -1    0    0  501    0  0.00000000000E+00 -0.00000000000E+00 -0.57723035072E+03  0.57724948488E+03  0.47000000000E+01 0. -1.
          6    1    1    2  502    0 -0.86870124709E+02 -0.95521837391E+02 -0.51178916254E+03  0.55514231228E+03  0.17200000000E+03 0. -1.
         -6    1    1    2    0  502  0.86870124709E+02  0.95521837391E+02  0.22025726682E+03  0.30784428462E+03  0.17200000000E+03 0.  1.
</event>
<event>
 4    1 -0.6963162E-004  0.2036184E+03  0.7818608E-02  0.1146722E+00
          5   -1    0    0  501    0  0.00000000000E+00  0.00000000000E+00  0.38638587997E+03  0.38641446433E+03  0.47000000000E+01 0. -1.
         -5   -1    0    0    0  501 -0.00000000000E+00 -0.00000000000E+00 -0.11644164706E+04  0.11644259560E+04  0.47000000000E+01 0.  1.
          6    1    1    2  502    0 -0.68467897515E+02  0.84785722904E+02  0.34981575417E+03  0.40476108220E+03  0.17200000000E+03 0. -1.
         -6    1    1    2    0  502  0.68467897515E+02 -0.84785722904E+02 -0.11278463448E+04  0.11460793381E+04  0.17200000000E+03 0.  1.
</event>
<event>
 4    1 -0.6963162E-004  0.2208912E+03  0.7818608E-02  0.1133220E+00
         -5   -1    0    0    0  501 -0.00000000000E+00  0.00000000000E+00  0.11653327373E+03  0.11662801501E+03  0.47000000000E+01 0.  1.
          5   -1    0    0  501    0  0.00000000000E+00 -0.00000000000E+00 -0.13298957842E+04  0.13299040894E+04  0.47000000000E+01 0. -1.
          6    1    1    2  502    0  0.48394969984E+02  0.12987244410E+03 -0.12054266377E+04  0.12254983899E+04  0.17200000000E+03 0. -1.
         -6    1    1    2    0  502 -0.48394969984E+02 -0.12987244410E+03 -0.79358728291E+01  0.22103371447E+03  0.17200000000E+03 0.  1.
</event>
<event>
 4    1 -0.6963162E-004  0.2223675E+03  0.7818608E-02  0.1132130E+00
         -5   -1    0    0    0  501 -0.00000000000E+00  0.00000000000E+00  0.22506908151E+03  0.22511814998E+03  0.47000000000E+01 0.  1.
          5   -1    0    0  501    0  0.00000000000E+00 -0.00000000000E+00 -0.22957136958E+03  0.22961947594E+03  0.47000000000E+01 0. -1.
          6    1    1    2  502    0  0.14075613384E+03 -0.71429312511E+01 -0.49626441270E+02  0.22783786857E+03  0.17200000000E+03 0. -1.
         -6    1    1    2    0  502 -0.14075613384E+03  0.71429312511E+01  0.45124153197E+02  0.22689975735E+03  0.17200000000E+03 0.  1.
</event>
<event>
 4    1 -0.6963162E-004  0.2211176E+03  0.7818608E-02  0.1133053E+00
          5   -1    0    0  501    0  0.00000000000E+00  0.00000000000E+00  0.24298545857E+03  0.24303090972E+03  0.47000000000E+01 0. -1.
         -5   -1    0    0    0  501 -0.00000000000E+00 -0.00000000000E+00 -0.16522944971E+04  0.16523011817E+04  0.47000000000E+01 0.  1.
          6    1    1    2  502    0 -0.12174832525E+03  0.66980230778E+02  0.18344263210E+03  0.28730507355E+03  0.17200000000E+03 0. -1.
         -6    1    1    2    0  502  0.12174832525E+03 -0.66980230778E+02 -0.15927516706E+04  0.16080270179E+04  0.17200000000E+03 0.  1.
</event>
<event>
 4    1 -0.6963162E-004  0.2685512E+03  0.7818608E-02  0.1102112E+00
          5   -1    0    0  501    0  0.00000000000E+00  0.00000000000E+00  0.34865255170E+03  0.34868422937E+03  0.47000000000E+01 0. -1.
         -5   -1    0    0    0  501 -0.00000000000E+00 -0.00000000000E+00 -0.53960525926E+03  0.53962572753E+03  0.47000000000E+01 0.  1.
          6    1    1    2  502    0 -0.19978657285E+03 -0.51196208476E+02  0.25332146117E+03  0.36917677221E+03  0.17200000000E+03 0.  1.
         -6    1    1    2    0  502  0.19978657285E+03  0.51196208476E+02 -0.44427416872E+03  0.51913318469E+03  0.17200000000E+03 0.  1.
</event>
<event>
 4    1 -0.6963162E-004  0.1765775E+03  0.7818608E-02  0.1171157E+00
         -5   -1    0    0    0  501 -0.00000000000E+00  0.00000000000E+00  0.27459269885E+03  0.27463291911E+03  0.47000000000E+01 0.  1.
          5   -1    0    0  501    0  0.00000000000E+00 -0.00000000000E+00 -0.18657124644E+03  0.18663043696E+03  0.47000000000E+01 0. -1.
          6    1    1    2  502    0  0.33191549872E+02 -0.22224430031E+02 -0.10032588155E+03  0.20308837185E+03  0.17200000000E+03 0. -1.
         -6    1    1    2    0  502 -0.33191549872E+02  0.22224430031E+02  0.18834733395E+03  0.25817498422E+03  0.17200000000E+03 0.  1.
</event>
<event>
 4    1 -0.6963162E-004  0.1740354E+03  0.7818608E-02  0.1173704E+00
         -5   -1    0    0    0  501 -0.00000000000E+00  0.00000000000E+00  0.49340514616E+03  0.49342753091E+03  0.47000000000E+01 0.  1.
          5   -1    0    0  501    0  0.00000000000E+00 -0.00000000000E+00 -0.80758603318E+02  0.80895253321E+02  0.47000000000E+01 0. -1.
          6    1    1    2  502    0  0.31493959117E+01  0.26351831407E+02  0.65424247532E+02  0.18592651742E+03  0.17200000000E+03 0. -1.
         -6    1    1    2    0  502 -0.31493959117E+01 -0.26351831407E+02  0.34722229531E+03  0.38839626681E+03  0.17200000000E+03 0.  1.
</event>
<event>
 4    1 -0.6963162E-004  0.1720390E+03  0.7818608E-02  0.1175738E+00
         -5   -1    0    0    0  501 -0.00000000000E+00  0.00000000000E+00  0.11667107668E+04  0.11667202335E+04  0.47000000000E+01 0.  1.
          5   -1    0    0  501    0  0.00000000000E+00 -0.00000000000E+00 -0.43040018645E+03  0.43042584785E+03  0.47000000000E+01 0. -1.
          6    1    1    2  502    0  0.15478746176E+01 -0.33212765665E+01 -0.40652731716E+03  0.44143163275E+03  0.17200000000E+03 0. -1.
         -6    1    1    2    0  502 -0.15478746176E+01  0.33212765665E+01  0.11428378975E+04  0.11557144486E+04  0.17200000000E+03 0.  1.
</event>
<event>
 4    1 -0.6963162E-004  0.1907683E+03  0.7818608E-02  0.1157770E+00
          5   -1    0    0  501    0  0.00000000000E+00  0.00000000000E+00  0.13641424667E+04  0.13641505634E+04  0.47000000000E+01 0. -1.
         -5   -1    0    0    0  501 -0.00000000000E+00 -0.00000000000E+00 -0.58413312264E+02  0.58602090830E+02  0.47000000000E+01 0.  1.
          6    1    1    2  502    0 -0.26444162332E+02  0.78161715800E+02  0.11775936434E+04  0.11929456553E+04  0.17200000000E+03 0. -1.
         -6    1    1    2    0  502  0.26444162332E+02 -0.78161715800E+02  0.12813551104E+03  0.22980699886E+03  0.17200000000E+03 0.  1.
</event>
<event>
 4    1 -0.6963162E-004  0.2044001E+03  0.7818608E-02  0.1146079E+00
          5   -1    0    0  501    0  0.00000000000E+00  0.00000000000E+00  0.60849425510E+03  0.60851240619E+03  0.47000000000E+01 0. -1.
         -5   -1    0    0    0  501 -0.00000000000E+00 -0.00000000000E+00 -0.93829271812E+02  0.93946911864E+02  0.47000000000E+01 0.  1.
          6    1    1    2  502    0 -0.23587462108E+02  0.10788441014E+03  0.43944858757E+03  0.48465913324E+03  0.17200000000E+03 0. -1.
         -6    1    1    2    0  502  0.23587462108E+02 -0.10788441014E+03  0.75216395723E+02  0.21780018482E+03  0.17200000000E+03 0.  1.
</event>
<event>
 4    1 -0.6963162E-004  0.2210296E+03  0.7818608E-02  0.1133118E+00
         -5   -1    0    0    0  501 -0.00000000000E+00  0.00000000000E+00  0.87432025059E+03  0.87433288317E+03  0.47000000000E+01 0.  1.
          5   -1    0    0  501    0  0.00000000000E+00 -0.00000000000E+00 -0.57533422922E+02  0.57725079065E+02  0.47000000000E+01 0. -1.
          6    1    1    2  502    0 -0.52465984259E+02  0.12852008632E+03  0.32683028130E+03  0.39455306977E+03  0.17200000000E+03 0. -1.
         -6    1    1    2    0  502  0.52465984259E+02 -0.12852008632E+03  0.48995654637E+03  0.53750489246E+03  0.17200000000E+03 0. -1.
</event>
<event>
 4    1 -0.6963162E-004  0.2975759E+03  0.7818608E-02  0.1086459E+00
          5   -1    0    0  501    0  0.00000000000E+00  0.00000000000E+00  0.10865635761E+04  0.10865737411E+04  0.47000000000E+01 0. -1.
         -5   -1    0    0    0  501 -0.00000000000E+00 -0.00000000000E+00 -0.71116024203E+03  0.71117577282E+03  0.47000000000E+01 0.  1.
          6    1    1    2  502    0 -0.14784942178E+03 -0.19263421980E+03  0.10335072521E+04  0.10754945998E+04  0.17200000000E+03 0. -1.
         -6    1    1    2    0  502  0.14784942178E+03  0.19263421980E+03 -0.65810391798E+03  0.72225491415E+03  0.17200000000E+03 0.  1.
</event>
<event>
 4    1 -0.6963162E-004  0.2022657E+03  0.7818608E-02  0.1147841E+00
          5   -1    0    0  501    0  0.00000000000E+00  0.00000000000E+00  0.93514210454E+03  0.93515391550E+03  0.47000000000E+01 0. -1.
         -5   -1    0    0    0  501 -0.00000000000E+00 -0.00000000000E+00 -0.21611156960E+03  0.21616267142E+03  0.47000000000E+01 0.  1.
          6    1    1    2  502    0 -0.13098374633E+02 -0.10562128195E+03  0.87362669707E+03  0.89673576289E+03  0.17200000000E+03 0. -1.
         -6    1    1    2    0  502  0.13098374633E+02  0.10562128195E+03 -0.15459616212E+03  0.25458082403E+03  0.17200000000E+03 0.  1.
</event>
<event>
 4    1 -0.6963162E-004  0.2207738E+03  0.7818608E-02  0.1133307E+00
         -5   -1    0    0    0  501 -0.00000000000E+00  0.00000000000E+00  0.10667973430E+03  0.10678321830E+03  0.47000000000E+01 0.  1.
          5   -1    0    0  501    0  0.00000000000E+00 -0.00000000000E+00 -0.15038243089E+04  0.15038316535E+04  0.47000000000E+01 0. -1.
          6    1    1    2  502    0 -0.13757914741E+03 -0.15134500066E+02 -0.13705814981E+04  0.13882487954E+04  0.17200000000E+03 0. -1.
         -6    1    1    2    0  502  0.13757914741E+03  0.15134500066E+02 -0.26563076445E+02  0.22236607638E+03  0.17200000000E+03 0.  1.
</event>
<event>
 4    1 -0.6963162E-004  0.1981127E+03  0.7818608E-02  0.1151341E+00
          5   -1    0    0  501    0  0.00000000000E+00  0.00000000000E+00  0.70323829028E+02  0.70480713172E+02  0.47000000000E+01 0. -1.
         -5   -1    0    0    0  501 -0.00000000000E+00 -0.00000000000E+00 -0.23166564051E+04  0.23166611727E+04  0.47000000000E+01 0.  1.
          6    1    1    2  502    0 -0.30126330147E+02 -0.93579182300E+02 -0.83065449811E+02  0.21482208471E+03  0.17200000000E+03 0. -1.
         -6    1    1    2    0  502  0.30126330147E+02  0.93579182300E+02 -0.21632671262E+04  0.21723198012E+04  0.17200000000E+03 0.  1.
</event>
<event>
 4    1 -0.6963162E-004  0.3716001E+03  0.7818608E-02  0.1054083E+00
          5   -1    0    0  501    0  0.00000000000E+00  0.00000000000E+00  0.14230141162E+04  0.14230218779E+04  0.47000000000E+01 0. -1.
         -5   -1    0    0    0  501 -0.00000000000E+00 -0.00000000000E+00 -0.29890924567E+03  0.29894619440E+03  0.47000000000E+01 0.  1.
          6    1    1    2  502    0 -0.99012529294E+02  0.31416422264E+03  0.12696265776E+04  0.13228901263E+04  0.17200000000E+03 0. -1.
         -6    1    1    2    0  502  0.99012529294E+02 -0.31416422264E+03 -0.14552170705E+03  0.39907794598E+03  0.17200000000E+03 0.  1.
</event>
<event>
 4    1 -0.6963162E-004  0.1777833E+03  0.7818608E-02  0.1169966E+00
          5   -1    0    0  501    0  0.00000000000E+00  0.00000000000E+00  0.14568585843E+04  0.14568661657E+04  0.47000000000E+01 0. -1.
         -5   -1    0    0    0  501 -0.00000000000E+00 -0.00000000000E+00 -0.30745837754E+02  0.31102998878E+02  0.47000000000E+01 0.  1.
          6    1    1    2  502    0  0.11373140643E+02  0.43514803076E+02  0.11196132010E+04  0.11336404219E+04  0.17200000000E+03 0. -1.
         -6    1    1    2    0  502 -0.11373140643E+02 -0.43514803076E+02  0.30649954561E+03  0.35432874266E+03  0.17200000000E+03 0.  1.
</event>
<event>
 4    1 -0.6963162E-004  0.1990748E+03  0.7818608E-02  0.1150522E+00
          5   -1    0    0  501    0  0.00000000000E+00  0.00000000000E+00  0.36467889558E+03  0.36470918124E+03  0.47000000000E+01 0. -1.
         -5   -1    0    0    0  501 -0.00000000000E+00 -0.00000000000E+00 -0.26862682200E+03  0.26866793538E+03  0.47000000000E+01 0.  1.
          6    1    1    2  502    0  0.80830105335E+02  0.59272768060E+02  0.29241915469E+03  0.35375094204E+03  0.17200000000E+03 0. -1.
         -6    1    1    2    0  502 -0.80830105335E+02 -0.59272768060E+02 -0.19636708112E+03  0.27962617458E+03  0.17200000000E+03 0.  1.
</event>
<event>
 4    1 -0.6963162E-004  0.1840108E+03  0.7818608E-02  0.1163977E+00
          5   -1    0    0  501    0  0.00000000000E+00  0.00000000000E+00  0.54625600489E+03  0.54627622398E+03  0.47000000000E+01 0. -1.
         -5   -1    0    0    0  501 -0.00000000000E+00 -0.00000000000E+00 -0.21696926614E+03  0.21702016600E+03  0.47000000000E+01 0.  1.
          6    1    1    2  502    0 -0.61036884554E+02  0.23462330544E+02  0.48721562552E+03  0.52080615202E+03  0.17200000000E+03 0. -1.
         -6    1    1    2    0  502  0.61036884554E+02 -0.23462330544E+02 -0.15792888677E+03  0.24249023796E+03  0.17200000000E+03 0.  1.
</event>
<event>
 4    1 -0.6963162E-004  0.2085233E+03  0.7818608E-02  0.1142741E+00
         -5   -1    0    0    0  501 -0.00000000000E+00  0.00000000000E+00  0.74071988202E+03  0.74073479304E+03  0.47000000000E+01 0.  1.
          5   -1    0    0  501    0  0.00000000000E+00 -0.00000000000E+00 -0.71507984736E+02  0.71662276555E+02  0.47000000000E+01 0. -1.
          6    1    1    2  502    0  0.10750838387E+03  0.48372779213E+02  0.16220164246E+03  0.26418052764E+03  0.17200000000E+03 0.  1.
         -6    1    1    2    0  502 -0.10750838387E+03 -0.48372779213E+02  0.50701025482E+03  0.54821654195E+03  0.17200000000E+03 0.  1.
</event>
<event>
 4    1 -0.6963162E-004  0.2235136E+03  0.7818608E-02  0.1131290E+00
         -5   -1    0    0    0  501 -0.00000000000E+00  0.00000000000E+00  0.23286587235E+03  0.23291329826E+03  0.47000000000E+01 0.  1.
          5   -1    0    0  501    0  0.00000000000E+00 -0.00000000000E+00 -0.37818213865E+03  0.37821134303E+03  0.47000000000E+01 0. -1.
          6    1    1    2  502    0 -0.13478809103E+03  0.46973417774E+02 -0.27369540467E+03  0.35336596610E+03  0.17200000000E+03 0. -1.
         -6    1    1    2    0  502  0.13478809103E+03 -0.46973417774E+02  0.12837913837E+03  0.25775867518E+03  0.17200000000E+03 0.  1.
</event>
<event>
 4    1 -0.6963162E-004  0.2138254E+03  0.7818608E-02  0.1138572E+00
         -5   -1    0    0    0  501 -0.00000000000E+00  0.00000000000E+00  0.43650748375E+03  0.43653278614E+03  0.47000000000E+01 0.  1.
          5   -1    0    0  501    0  0.00000000000E+00 -0.00000000000E+00 -0.33812614329E+03  0.33815880704E+03  0.47000000000E+01 0. -1.
          6    1    1    2  502    0  0.67310339785E+02 -0.10773394037E+03 -0.27262608544E+03  0.34647693460E+03  0.17200000000E+03 0. -1.
         -6    1    1    2    0  502 -0.67310339785E+02  0.10773394037E+03  0.37100742590E+03  0.42821465858E+03  0.17200000000E+03 0.  1.
</event>
<event>
 4    1 -0.6963162E-004  0.2171167E+03  0.7818608E-02  0.1136051E+00
          5   -1    0    0  501    0  0.00000000000E+00  0.00000000000E+00  0.88876352595E+02  0.89000539608E+02  0.47000000000E+01 0. -1.
         -5   -1    0    0    0  501 -0.00000000000E+00 -0.00000000000E+00 -0.67091466825E+03  0.67093113065E+03  0.47000000000E+01 0.  1.
          6    1    1    2  502    0 -0.65373545330E+02 -0.11524736677E+03 -0.11683419710E+03  0.24655604959E+03  0.17200000000E+03 0. -1.
         -6    1    1    2    0  502  0.65373545330E+02  0.11524736677E+03 -0.46520411856E+03  0.51337562067E+03  0.17200000000E+03 0.  1.
</event>
<event>
 4    1 -0.6963162E-004  0.1904759E+03  0.7818608E-02  0.1158033E+00
         -5   -1    0    0    0  501 -0.00000000000E+00  0.00000000000E+00  0.25759780132E+04  0.25759823009E+04  0.47000000000E+01 0.  1.
          5   -1    0    0  501    0  0.00000000000E+00 -0.00000000000E+00 -0.53500255612E+02  0.53706306432E+02  0.47000000000E+01 0. -1.
          6    1    1    2  502    0 -0.81835661869E+02  0.28141145087E-01  0.13225620513E+03  0.23188958610E+03  0.17200000000E+03 0. -1.
         -6    1    1    2    0  502  0.81835661869E+02 -0.28141145087E-01  0.23902215524E+04  0.23977990212E+04  0.17200000000E+03 0.  1.
</event>
<event>
 4    1 -0.6963162E-004  0.2304147E+03  0.7818608E-02  0.1126348E+00
          5   -1    0    0  501    0  0.00000000000E+00  0.00000000000E+00  0.29708361618E+03  0.29712079194E+03  0.47000000000E+01 0. -1.
         -5   -1    0    0    0  501 -0.00000000000E+00 -0.00000000000E+00 -0.18069110362E+03  0.18075221971E+03  0.47000000000E+01 0.  1.
          6    1    1    2  502    0 -0.40856288655E+02 -0.14777584694E+03  0.83722033311E+02  0.24515365819E+03  0.17200000000E+03 0. -1.
         -6    1    1    2    0  502  0.40856288655E+02  0.14777584694E+03  0.32670479245E+02  0.23271935346E+03  0.17200000000E+03 0.  1.
</event>
<event>
 4    1 -0.6963162E-004  0.1832027E+03  0.7818608E-02  0.1164739E+00
         -5   -1    0    0    0  501 -0.00000000000E+00  0.00000000000E+00  0.91991452922E+03  0.91992653569E+03  0.47000000000E+01 0.  1.
          5   -1    0    0  501    0  0.00000000000E+00 -0.00000000000E+00 -0.65095694263E+03  0.65097390974E+03  0.47000000000E+01 0. -1.
          6    1    1    2  502    0  0.47793800812E+02 -0.41169960862E+02 -0.62864325895E+03  0.65479428838E+03  0.17200000000E+03 0. -1.
         -6    1    1    2    0  502 -0.47793800812E+02  0.41169960862E+02  0.89760084553E+03  0.91610615704E+03  0.17200000000E+03 0.  1.
</event>
<event>
 4    1 -0.6963162E-004  0.2229616E+03  0.7818608E-02  0.1131694E+00
         -5   -1    0    0    0  501 -0.00000000000E+00  0.00000000000E+00  0.87371028501E+03  0.87372292640E+03  0.47000000000E+01 0.  1.
          5   -1    0    0  501    0  0.00000000000E+00 -0.00000000000E+00 -0.69659425145E+03  0.69661010698E+03  0.47000000000E+01 0. -1.
          6    1    1    2  502    0 -0.36891545456E+02  0.13699223472E+03 -0.66386078368E+03  0.70030207668E+03  0.17200000000E+03 0. -1.
         -6    1    1    2    0  502  0.36891545456E+02 -0.13699223472E+03  0.84097681724E+03  0.87003095671E+03  0.17200000000E+03 0.  1.
</event>
<event>
 4    1 -0.6963162E-004  0.2035342E+03  0.7818608E-02  0.1146791E+00
          5   -1    0    0  501    0  0.00000000000E+00  0.00000000000E+00  0.15812706427E+03  0.15819689775E+03  0.47000000000E+01 0. -1.
         -5   -1    0    0    0  501 -0.00000000000E+00 -0.00000000000E+00 -0.26572527843E+03  0.26576684066E+03  0.47000000000E+01 0.  1.
          6    1    1    2  502    0 -0.94749298168E+02 -0.53523221915E+02 -0.28143724024E+02  0.20547076188E+03  0.17200000000E+03 0.  1.
         -6    1    1    2    0  502  0.94749298168E+02  0.53523221915E+02 -0.79454490126E+02  0.21849297652E+03  0.17200000000E+03 0. -1.
</event>
<event>
 4    1 -0.6963162E-004  0.2474487E+03  0.7818608E-02  0.1114928E+00
         -5   -1    0    0    0  501 -0.00000000000E+00  0.00000000000E+00  0.32593846923E+03  0.32597235424E+03  0.47000000000E+01 0.  1.
          5   -1    0    0  501    0  0.00000000000E+00 -0.00000000000E+00 -0.28966782200E+03  0.28970594937E+03  0.47000000000E+01 0. -1.
          6    1    1    2  502    0  0.17629194378E+03  0.23833395552E+02 -0.16440457892E+03  0.29708541828E+03  0.17200000000E+03 0. -1.
         -6    1    1    2    0  502 -0.17629194378E+03 -0.23833395552E+02  0.20067522616E+03  0.31859288532E+03  0.17200000000E+03 0.  1.
</event>
<event>
 4    1 -0.6963162E-004  0.1859740E+03  0.7818608E-02  0.1162143E+00
          5   -1    0    0  501    0  0.00000000000E+00  0.00000000000E+00  0.35984798122E+02  0.36290435323E+02  0.47000000000E+01 0. -1.
         -5   -1    0    0    0  501 -0.00000000000E+00 -0.00000000000E+00 -0.13043415657E+04  0.13043500335E+04  0.47000000000E+01 0.  1.
          6    1    1    2  502    0 -0.68961753680E+02 -0.15703616633E+02 -0.28818987232E+03  0.34298648596E+03  0.17200000000E+03 0. -1.
         -6    1    1    2    0  502  0.68961753680E+02  0.15703616633E+02 -0.98016689526E+03  0.99765398291E+03  0.17200000000E+03 0.  1.
</event>
<event>
 4    1 -0.6963162E-004  0.1834464E+03  0.7818608E-02  0.1164509E+00
          5   -1    0    0  501    0  0.00000000000E+00  0.00000000000E+00  0.70944099519E+03  0.70945656362E+03  0.47000000000E+01 0. -1.
         -5   -1    0    0    0  501 -0.00000000000E+00 -0.00000000000E+00 -0.66306809002E+02  0.66473174439E+02  0.47000000000E+01 0.  1.
          6    1    1    2  502    0  0.35586899076E+01 -0.63686214740E+02  0.52893041991E+03  0.55983925133E+03  0.17200000000E+03 0. -1.
         -6    1    1    2    0  502 -0.35586899076E+01  0.63686214740E+02  0.11420376628E+03  0.21609048673E+03  0.17200000000E+03 0.  1.
</event>
<event>
 4    1 -0.6963162E-004  0.1952287E+03  0.7818608E-02  0.1153828E+00
          5   -1    0    0  501    0  0.00000000000E+00  0.00000000000E+00  0.24199296176E+03  0.24203859928E+03  0.47000000000E+01 0. -1.
         -5   -1    0    0    0  501 -0.00000000000E+00 -0.00000000000E+00 -0.27962977051E+03  0.27966926637E+03  0.47000000000E+01 0.  1.
          6    1    1    2  502    0  0.81211537874E+02  0.43987962675E+02  0.15360873931E+03  0.24841477318E+03  0.17200000000E+03 0. -1.
         -6    1    1    2    0  502 -0.81211537874E+02 -0.43987962675E+02 -0.19124554805E+03  0.27329309247E+03  0.17200000000E+03 0.  1.
</event>
<event>
 4    1 -0.6963162E-004  0.2184147E+03  0.7818608E-02  0.1135070E+00
         -5   -1    0    0    0  501 -0.00000000000E+00  0.00000000000E+00  0.12128325298E+04  0.12128416366E+04  0.47000000000E+01 0.  1.
          5   -1    0    0  501    0  0.00000000000E+00 -0.00000000000E+00 -0.64418026959E+03  0.64419741519E+03  0.47000000000E+01 0. -1.
          6    1    1    2  502    0 -0.10272205593E+03 -0.87001014103E+02 -0.61540022128E+03  0.65301028291E+03  0.17200000000E+03 0. -1.
         -6    1    1    2    0  502  0.10272205593E+03  0.87001014103E+02  0.11840524815E+04  0.12040287688E+04  0.17200000000E+03 0.  1.
</event>
<event>
 4    1 -0.6963162E-004  0.1813357E+03  0.7818608E-02  0.1166517E+00
          5   -1    0    0  501    0  0.00000000000E+00  0.00000000000E+00  0.99105099306E+03  0.99106213773E+03  0.47000000000E+01 0. -1.
         -5   -1    0    0    0  501 -0.00000000000E+00 -0.00000000000E+00 -0.36303528918E+03  0.36306571194E+03  0.47000000000E+01 0.  1.
          6    1    1    2  502    0  0.44221609800E+02  0.36647998111E+02  0.95939302434E+03  0.97637984498E+03  0.17200000000E+03 0. -1.
         -6    1    1    2    0  502 -0.44221609800E+02 -0.36647998111E+02 -0.33137732045E+03  0.37774800469E+03  0.17200000000E+03 0.  1.
</event>
<event>
 4    1 -0.6963162E-004  0.1936257E+03  0.7818608E-02  0.1155231E+00
         -5   -1    0    0    0  501 -0.00000000000E+00  0.00000000000E+00  0.53364496853E+02  0.53571069846E+02  0.47000000000E+01 0.  1.
          5   -1    0    0  501    0  0.00000000000E+00 -0.00000000000E+00 -0.24814774304E+04  0.24814818814E+04  0.47000000000E+01 0. -1.
          6    1    1    2  502    0  0.79527537011E+02  0.39777961179E+02 -0.22876861188E+04  0.22958655652E+04  0.17200000000E+03 0. -1.
         -6    1    1    2    0  502 -0.79527537011E+02 -0.39777961179E+02 -0.14042681480E+03  0.23918738607E+03  0.17200000000E+03 0.  1.
</event>
<event>
 4    1 -0.6963162E-004  0.1780277E+03  0.7818608E-02  0.1169726E+00
         -5   -1    0    0    0  501 -0.00000000000E+00  0.00000000000E+00  0.10774772685E+04  0.10774875192E+04  0.47000000000E+01 0.  1.
          5   -1    0    0  501    0  0.00000000000E+00 -0.00000000000E+00 -0.77972284783E+02  0.78113809242E+02  0.47000000000E+01 0. -1.
          6    1    1    2  502    0  0.29849292781E+02  0.34912450448E+02  0.43639152175E+02  0.18329821352E+03  0.17200000000E+03 0. -1.
         -6    1    1    2    0  502 -0.29849292781E+02 -0.34912450448E+02  0.95586583151E+03  0.97230311494E+03  0.17200000000E+03 0.  1.
</event>
<event>
 4    1 -0.6963162E-004  0.1850535E+03  0.7818608E-02  0.1163000E+00
         -5   -1    0    0    0  501 -0.00000000000E+00  0.00000000000E+00  0.44039906559E+03  0.44042414440E+03  0.47000000000E+01 0.  1.
          5   -1    0    0  501    0  0.00000000000E+00 -0.00000000000E+00 -0.18015620403E+03  0.18021750151E+03  0.47000000000E+01 0. -1.
          6    1    1    2  502    0 -0.62694983387E+02  0.27021132633E+02 -0.10386299009E+03  0.21220820733E+03  0.17200000000E+03 0. -1.
         -6    1    1    2    0  502  0.62694983387E+02 -0.27021132633E+02  0.36410585164E+03  0.40843343858E+03  0.17200000000E+03 0.  1.
</event>
<event>
 4    1 -0.6963162E-004  0.1942684E+03  0.7818608E-02  0.1154667E+00
         -5   -1    0    0    0  501 -0.00000000000E+00  0.00000000000E+00  0.82982991858E+03  0.82984322842E+03  0.47000000000E+01 0.  1.
          5   -1    0    0  501    0  0.00000000000E+00 -0.00000000000E+00 -0.17151358792E+03  0.17157797306E+03  0.47000000000E+01 0. -1.
          6    1    1    2  502    0  0.70229358071E+01  0.90038267184E+02 -0.10008463710E+03  0.21853408377E+03  0.17200000000E+03 0. -1.
         -6    1    1    2    0  502 -0.70229358071E+01 -0.90038267184E+02  0.75840096776E+03  0.78288711772E+03  0.17200000000E+03 0.  1.
</event>
<event>
 4    1 -0.6963162E-004  0.2864526E+03  0.7818608E-02  0.1092216E+00
         -5   -1    0    0    0  501 -0.00000000000E+00  0.00000000000E+00  0.15138212365E+03  0.15145506714E+03  0.47000000000E+01 0.  1.
          5   -1    0    0  501    0  0.00000000000E+00 -0.00000000000E+00 -0.11408267885E+04  0.11408364700E+04  0.47000000000E+01 0. -1.
          6    1    1    2  502    0 -0.21527436896E+03  0.78281821413E+02 -0.96290750526E+03  0.10046123437E+04  0.17200000000E+03 0. -1.
         -6    1    1    2    0  502  0.21527436896E+03 -0.78281821413E+02 -0.26537159577E+02  0.28767919343E+03  0.17200000000E+03 0.  1.
</event>
<event>
 4    1 -0.6963162E-004  0.3684399E+03  0.7818608E-02  0.1055291E+00
         -5   -1    0    0    0  501 -0.00000000000E+00  0.00000000000E+00  0.19732453203E+03  0.19738049787E+03  0.47000000000E+01 0.  1.
          5   -1    0    0  501    0  0.00000000000E+00 -0.00000000000E+00 -0.85399906198E+03  0.85401199515E+03  0.47000000000E+01 0. -1.
          6    1    1    2  502    0  0.31560013984E+03  0.80996805896E+02 -0.56025151264E+03  0.67054432236E+03  0.17200000000E+03 0. -1.
         -6    1    1    2    0  502 -0.31560013984E+03 -0.80996805896E+02 -0.96423017313E+02  0.38084817067E+03  0.17200000000E+03 0.  1.
</event>
<event>
 4    1 -0.6963162E-004  0.1952913E+03  0.7818608E-02  0.1153774E+00
          5   -1    0    0  501    0  0.00000000000E+00  0.00000000000E+00  0.31992633832E+02  0.32336026650E+02  0.47000000000E+01 0. -1.
         -5   -1    0    0    0  501 -0.00000000000E+00 -0.00000000000E+00 -0.12606068828E+04  0.12606156444E+04  0.47000000000E+01 0.  1.
          6    1    1    2  502    0 -0.91715338400E+02  0.11957979501E+02 -0.45642274128E+03  0.49644779719E+03  0.17200000000E+03 0.  1.
         -6    1    1    2    0  502  0.91715338400E+02 -0.11957979501E+02 -0.77219150766E+03  0.79650387386E+03  0.17200000000E+03 0.  1.
</event>
<event>
 4    1 -0.6963162E-004  0.2279111E+03  0.7818608E-02  0.1128119E+00
         -5   -1    0    0    0  501 -0.00000000000E+00  0.00000000000E+00  0.36235813495E+03  0.36238861456E+03  0.47000000000E+01 0.  1.
          5   -1    0    0  501    0  0.00000000000E+00 -0.00000000000E+00 -0.39380751939E+03  0.39383556508E+03  0.47000000000E+01 0. -1.
          6    1    1    2  502    0  0.11316331782E+03 -0.97742160586E+02 -0.31727948592E+03  0.39065296446E+03  0.17200000000E+03 0. -1.
         -6    1    1    2    0  502 -0.11316331782E+03  0.97742160586E+02  0.28583010148E+03  0.36557121518E+03  0.17200000000E+03 0.  1.
</event>
<event>
 4    1 -0.6963162E-004  0.2268458E+03  0.7818608E-02  0.1128880E+00
         -5   -1    0    0    0  501 -0.00000000000E+00  0.00000000000E+00  0.71011874856E+03  0.71013430213E+03  0.47000000000E+01 0.  1.
          5   -1    0    0  501    0  0.00000000000E+00 -0.00000000000E+00 -0.56357629247E+03  0.56359589018E+03  0.47000000000E+01 0. -1.
          6    1    1    2  502    0  0.31786114160E+02  0.14444606972E+03 -0.52124357766E+03  0.56846626229E+03  0.17200000000E+03 0. -1.
         -6    1    1    2    0  502 -0.31786114160E+02 -0.14444606972E+03  0.66778603375E+03  0.70526393002E+03  0.17200000000E+03 0.  1.
</event>
<event>
 4    1 -0.6963162E-004  0.1864651E+03  0.7818608E-02  0.1161689E+00
          5   -1    0    0  501    0  0.00000000000E+00  0.00000000000E+00  0.16621706619E+04  0.16621773068E+04  0.47000000000E+01 0. -1.
         -5   -1    0    0    0  501 -0.00000000000E+00 -0.00000000000E+00 -0.61474200510E+02  0.61653607585E+02  0.47000000000E+01 0.  1.
          6    1    1    2  502    0 -0.51883067973E+02 -0.49933803281E+02  0.15007099924E+04  0.15122498864E+04  0.17200000000E+03 0. -1.
         -6    1    1    2    0  502  0.51883067973E+02  0.49933803281E+02  0.99986468993E+02  0.21158102806E+03  0.17200000000E+03 0.  1.
</event>
<event>
 4    1 -0.6963162E-004  0.1818387E+03  0.7818608E-02  0.1166035E+00
         -5   -1    0    0    0  501 -0.00000000000E+00  0.00000000000E+00  0.10027869644E+04  0.10027979787E+04  0.47000000000E+01 0.  1.
          5   -1    0    0  501    0  0.00000000000E+00 -0.00000000000E+00 -0.11243023013E+03  0.11252842595E+03  0.47000000000E+01 0. -1.
          6    1    1    2  502    0 -0.22295691898E+02 -0.54628034255E+02 -0.23683198508E+02  0.18337451812E+03  0.17200000000E+03 0. -1.
         -6    1    1    2    0  502  0.22295691898E+02  0.54628034255E+02  0.91403993280E+03  0.93195188650E+03  0.17200000000E+03 0.  1.
</event>
<event>
 4    1 -0.6963162E-004  0.1848986E+03  0.7818608E-02  0.1163145E+00
          5   -1    0    0  501    0  0.00000000000E+00  0.00000000000E+00  0.10913930760E+04  0.10914031961E+04  0.47000000000E+01 0. -1.
         -5   -1    0    0    0  501 -0.00000000000E+00 -0.00000000000E+00 -0.16595889282E+03  0.16602543211E+03  0.47000000000E+01 0.  1.
          6    1    1    2  502    0 -0.65115338320E+02  0.19065563551E+02  0.10290141346E+04  0.10454939465E+04  0.17200000000E+03 0. -1.
         -6    1    1    2    0  502  0.65115338320E+02 -0.19065563551E+02 -0.10357995134E+03  0.21193468172E+03  0.17200000000E+03 0.  1.
</event>
<event>
 4    1 -0.6963162E-004  0.2129960E+03  0.7818608E-02  0.1139215E+00
         -5   -1    0    0    0  501 -0.00000000000E+00  0.00000000000E+00  0.47509067118E+02  0.47740983007E+02  0.47000000000E+01 0.  1.
          5   -1    0    0  501    0  0.00000000000E+00 -0.00000000000E+00 -0.10403603655E+04  0.10403709820E+04  0.47000000000E+01 0. -1.
          6    1    1    2  502    0 -0.91177470928E+02 -0.86428856116E+02 -0.65464303542E+03  0.68842195069E+03  0.17200000000E+03 0. -1.
         -6    1    1    2    0  502  0.91177470928E+02  0.86428856116E+02 -0.33820826298E+03  0.39969001429E+03  0.17200000000E+03 0.  1.
</event>
<event>
 4    1 -0.6963162E-004  0.2326676E+03  0.7818608E-02  0.1124776E+00
         -5   -1    0    0    0  501 -0.00000000000E+00  0.00000000000E+00  0.72686933619E+02  0.72838728153E+02  0.47000000000E+01 0.  1.
          5   -1    0    0  501    0  0.00000000000E+00 -0.00000000000E+00 -0.77157766911E+03  0.77159198380E+03  0.47000000000E+01 0. -1.
          6    1    1    2  502    0 -0.86088259691E+02  0.13091617907E+03 -0.42951491950E+03  0.48848469830E+03  0.17200000000E+03 0.  1.
         -6    1    1    2    0  502  0.86088259691E+02 -0.13091617907E+03 -0.26937581599E+03  0.35594601366E+03  0.17200000000E+03 0.  1.
</event>
<event>
 4    1 -0.6963162E-004  0.2652985E+03  0.7818608E-02  0.1104001E+00
          5   -1    0    0  501    0  0.00000000000E+00  0.00000000000E+00  0.63484254867E+02  0.63657997267E+02  0.47000000000E+01 0. -1.
         -5   -1    0    0    0  501 -0.00000000000E+00 -0.00000000000E+00 -0.12811021141E+04  0.12811107356E+04  0.47000000000E+01 0.  1.
          6    1    1    2  502    0 -0.19382254994E+03 -0.56851517396E+02 -0.36093965851E+03  0.44795168599E+03  0.17200000000E+03 0. -1.
         -6    1    1    2    0  502  0.19382254994E+03  0.56851517396E+02 -0.85667820072E+03  0.89681704683E+03  0.17200000000E+03 0.  1.
</event>
<event>
 4    1 -0.6963162E-004  0.1723075E+03  0.7818608E-02  0.1175463E+00
          5   -1    0    0  501    0  0.00000000000E+00  0.00000000000E+00  0.44331310921E+03  0.44333802318E+03  0.47000000000E+01 0. -1.
         -5   -1    0    0    0  501 -0.00000000000E+00 -0.00000000000E+00 -0.65526323906E+03  0.65528009466E+03  0.47000000000E+01 0.  1.
          6    1    1    2  502    0 -0.56503875055E+01 -0.85997529180E+01  0.41450816127E+03  0.44889519756E+03  0.17200000000E+03 0. -1.
         -6    1    1    2    0  502  0.56503875055E+01  0.85997529180E+01 -0.62645829112E+03  0.64972292028E+03  0.17200000000E+03 0.  1.
</event>
<event>
 4    1 -0.6963162E-004  0.1750539E+03  0.7818608E-02  0.1172678E+00
         -5   -1    0    0    0  501 -0.00000000000E+00  0.00000000000E+00  0.29044475479E+03  0.29048278019E+03  0.47000000000E+01 0.  1.
          5   -1    0    0  501    0  0.00000000000E+00 -0.00000000000E+00 -0.10859423996E+03  0.10869590127E+03  0.47000000000E+01 0. -1.
          6    1    1    2  502    0  0.15765413624E+02 -0.28483559458E+02  0.56766902771E+02  0.18402810295E+03  0.17200000000E+03 0. -1.
         -6    1    1    2    0  502 -0.15765413624E+02  0.28483559458E+02  0.12508361206E+03  0.21515057851E+03  0.17200000000E+03 0.  1.
</event>
<event>
 4    1 -0.6963162E-004  0.2180959E+03  0.7818608E-02  0.1135311E+00
         -5   -1    0    0    0  501 -0.00000000000E+00  0.00000000000E+00  0.37313149639E+03  0.37316109604E+03  0.47000000000E+01 0.  1.
          5   -1    0    0  501    0  0.00000000000E+00 -0.00000000000E+00 -0.23445273438E+03  0.23449983936E+03  0.47000000000E+01 0. -1.
          6    1    1    2  502    0  0.11620023626E+03 -0.66927664783E+02 -0.13592544667E+03  0.25698547483E+03  0.17200000000E+03 0. -1.
         -6    1    1    2    0  502 -0.11620023626E+03  0.66927664783E+02  0.27460420868E+03  0.35067546057E+03  0.17200000000E+03 0.  1.
</event>
<event>
 4    1 -0.6963162E-004  0.1740536E+03  0.7818608E-02  0.1173685E+00
          5   -1    0    0  501    0  0.00000000000E+00  0.00000000000E+00  0.65902572838E+02  0.66069956158E+02  0.47000000000E+01 0. -1.
         -5   -1    0    0    0  501 -0.00000000000E+00 -0.00000000000E+00 -0.46579673921E+03  0.46582045066E+03  0.47000000000E+01 0.  1.
          6    1    1    2  502    0  0.25740091335E+02 -0.69356086615E+01 -0.16765431302E+03  0.24166634777E+03  0.17200000000E+03 0. -1.
         -6    1    1    2    0  502 -0.25740091335E+02  0.69356086615E+01 -0.23223985335E+03  0.29022405905E+03  0.17200000000E+03 0.  1.
</event>
<event>
 4    1 -0.6963162E-004  0.1999159E+03  0.7818608E-02  0.1149810E+00
         -5   -1    0    0    0  501 -0.00000000000E+00  0.00000000000E+00  0.95868616257E+03  0.95869768347E+03  0.47000000000E+01 0.  1.
          5   -1    0    0  501    0  0.00000000000E+00 -0.00000000000E+00 -0.45477619554E+02  0.45719841210E+02  0.47000000000E+01 0. -1.
          6    1    1    2  502    0 -0.90751308245E+02 -0.46330889496E+02  0.30933994378E+03  0.36831718951E+03  0.17200000000E+03 0. -1.
         -6    1    1    2    0  502  0.90751308245E+02  0.46330889496E+02  0.60386859923E+03  0.63610033517E+03  0.17200000000E+03 0.  1.
</event>
<event>
 4    1 -0.6963162E-004  0.2178993E+03  0.7818608E-02  0.1135459E+00
          5   -1    0    0  501    0  0.00000000000E+00  0.00000000000E+00  0.13012680792E+04  0.13012765670E+04  0.47000000000E+01 0. -1.
         -5   -1    0    0    0  501 -0.00000000000E+00 -0.00000000000E+00 -0.36393882060E+02  0.36696112211E+02  0.47000000000E+01 0.  1.
          6    1    1    2  502    0  0.87205068655E+02 -0.10144650526E+03  0.66086990703E+03  0.69586575677E+03  0.17200000000E+03 0.  1.
         -6    1    1    2    0  502 -0.87205068655E+02  0.10144650526E+03  0.60400429007E+03  0.64210692245E+03  0.17200000000E+03 0.  1.
</event>
<event>
 4    1 -0.6963162E-004  0.1752292E+03  0.7818608E-02  0.1172502E+00
         -5   -1    0    0    0  501 -0.00000000000E+00  0.00000000000E+00  0.20587436378E+03  0.20592800602E+03  0.47000000000E+01 0.  1.
          5   -1    0    0  501    0  0.00000000000E+00 -0.00000000000E+00 -0.15023071015E+03  0.15030421242E+03  0.47000000000E+01 0. -1.
          6    1    1    2  502    0  0.19805320726E+02  0.27000487879E+02  0.11941970668E+02  0.17563566761E+03  0.17200000000E+03 0. -1.
         -6    1    1    2    0  502 -0.19805320726E+02 -0.27000487879E+02  0.43701682964E+02  0.18059655082E+03  0.17200000000E+03 0. -1.
</event>
<event>
 4    1 -0.6963162E-004  0.1925184E+03  0.7818608E-02  0.1156209E+00
          5   -1    0    0  501    0  0.00000000000E+00  0.00000000000E+00  0.58634535241E+03  0.58636418913E+03  0.47000000000E+01 0. -1.
         -5   -1    0    0    0  501 -0.00000000000E+00 -0.00000000000E+00 -0.17136337266E+03  0.17142781423E+03  0.47000000000E+01 0.  1.
          6    1    1    2  502    0 -0.86149775618E+02  0.75855170284E+01  0.50852766301E+03  0.54374967398E+03  0.17200000000E+03 0. -1.
         -6    1    1    2    0  502  0.86149775618E+02 -0.75855170284E+01 -0.93545683264E+02  0.21404232938E+03  0.17200000000E+03 0.  1.
</event>
<event>
 4    1 -0.6963162E-004  0.2467282E+03  0.7818608E-02  0.1115390E+00
          5   -1    0    0  501    0  0.00000000000E+00  0.00000000000E+00  0.10396172975E+04  0.10396279215E+04  0.47000000000E+01 0. -1.
         -5   -1    0    0    0  501 -0.00000000000E+00 -0.00000000000E+00 -0.13096329776E+03  0.13104760722E+03  0.47000000000E+01 0.  1.
          6    1    1    2  502    0  0.13305542915E+03 -0.11656342893E+03  0.88963592161E+03  0.92321549663E+03  0.17200000000E+03 0. -1.
         -6    1    1    2    0  502 -0.13305542915E+03  0.11656342893E+03  0.19018078082E+02  0.24746003209E+03  0.17200000000E+03 0.  1.
</event>
<event>
 4    1 -0.6963162E-004  0.2414737E+03  0.7818608E-02  0.1118815E+00
         -5   -1    0    0    0  501 -0.00000000000E+00  0.00000000000E+00  0.56413473336E+03  0.56415431168E+03  0.47000000000E+01 0.  1.
          5   -1    0    0  501    0  0.00000000000E+00 -0.00000000000E+00 -0.21050192540E+03  0.21055438869E+03  0.47000000000E+01 0. -1.
          6    1    1    2  502    0  0.16175801778E+03  0.50595197758E+02 -0.99564037030E+02  0.26119442533E+03  0.17200000000E+03 0. -1.
         -6    1    1    2    0  502 -0.16175801778E+03 -0.50595197758E+02  0.45319684500E+03  0.51351427504E+03  0.17200000000E+03 0.  1.
</event>
<event>
 4    1 -0.6963162E-004  0.2268927E+03  0.7818608E-02  0.1128846E+00
         -5   -1    0    0    0  501 -0.00000000000E+00  0.00000000000E+00  0.10503075656E+03  0.10513586365E+03  0.47000000000E+01 0.  1.
          5   -1    0    0  501    0  0.00000000000E+00 -0.00000000000E+00 -0.50369272046E+03  0.50371464803E+03  0.47000000000E+01 0. -1.
          6    1    1    2  502    0 -0.14752496498E+03  0.11519615162E+02 -0.24991252942E+03  0.33754494395E+03  0.17200000000E+03 0. -1.
         -6    1    1    2    0  502  0.14752496498E+03 -0.11519615162E+02 -0.14874943447E+03  0.27130556773E+03  0.17200000000E+03 0.  1.
</event>
<event>
 4    1 -0.6963162E-004  0.2420779E+03  0.7818608E-02  0.1118416E+00
          5   -1    0    0  501    0  0.00000000000E+00  0.00000000000E+00  0.59946160019E+03  0.59948002477E+03  0.47000000000E+01 0. -1.
         -5   -1    0    0    0  501 -0.00000000000E+00 -0.00000000000E+00 -0.79300496730E+03  0.79301889521E+03  0.47000000000E+01 0.  1.
          6    1    1    2  502    0  0.16137632084E+03 -0.54547382181E+02  0.55515407573E+03  0.60563832576E+03  0.17200000000E+03 0. -1.
         -6    1    1    2    0  502 -0.16137632084E+03  0.54547382181E+02 -0.74869744284E+03  0.78686059423E+03  0.17200000000E+03 0.  1.
</event>
<event>
 4    1 -0.6963162E-004  0.1841721E+03  0.7818608E-02  0.1163825E+00
         -5   -1    0    0    0  501 -0.00000000000E+00  0.00000000000E+00  0.28962946754E+03  0.28966759996E+03  0.47000000000E+01 0.  1.
          5   -1    0    0  501    0  0.00000000000E+00 -0.00000000000E+00 -0.15823543548E+03  0.15830522114E+03  0.47000000000E+01 0. -1.
          6    1    1    2  502    0 -0.57111343835E+02 -0.32766567304E+02 -0.48573801757E+02  0.19046986046E+03  0.17200000000E+03 0. -1.
         -6    1    1    2    0  502  0.57111343835E+02  0.32766567304E+02  0.17996783382E+03  0.25750296064E+03  0.17200000000E+03 0.  1.
</event>
<event>
 4    1 -0.6963162E-004  0.1813388E+03  0.7818608E-02  0.1166514E+00
         -5   -1    0    0    0  501 -0.00000000000E+00  0.00000000000E+00  0.10008504029E+03  0.10019533567E+03  0.47000000000E+01 0.  1.
          5   -1    0    0  501    0  0.00000000000E+00 -0.00000000000E+00 -0.63373663900E+03  0.63375406714E+03  0.47000000000E+01 0. -1.
          6    1    1    2  502    0  0.57355284716E+02 -0.31821218288E+01 -0.52158579505E+03  0.55220964876E+03  0.17200000000E+03 0. -1.
         -6    1    1    2    0  502 -0.57355284716E+02  0.31821218288E+01 -0.12065803659E+02  0.18173975405E+03  0.17200000000E+03 0.  1.
</event>
<event>
 4    1 -0.6963162E-004  0.3167752E+03  0.7818608E-02  0.1077143E+00
          5   -1    0    0  501    0  0.00000000000E+00  0.00000000000E+00  0.19119493300E+03  0.19125269254E+03  0.47000000000E+01 0. -1.
         -5   -1    0    0    0  501 -0.00000000000E+00 -0.00000000000E+00 -0.56260571946E+03  0.56262535098E+03  0.47000000000E+01 0.  1.
          6    1    1    2  502    0  0.25676374218E+03  0.69533447628E+02 -0.87859778704E+02  0.32873372257E+03  0.17200000000E+03 0.  1.
         -6    1    1    2    0  502 -0.25676374218E+03 -0.69533447628E+02 -0.28355100776E+03  0.42514432095E+03  0.17200000000E+03 0. -1.
</event>
<event>
 4    1 -0.6963162E-004  0.1888067E+03  0.7818608E-02  0.1159542E+00
         -5   -1    0    0    0  501 -0.00000000000E+00  0.00000000000E+00  0.21978526007E+03  0.21983550792E+03  0.47000000000E+01 0.  1.
          5   -1    0    0  501    0  0.00000000000E+00 -0.00000000000E+00 -0.17164770873E+03  0.17171204359E+03  0.47000000000E+01 0. -1.
          6    1    1    2  502    0  0.77293996131E+02 -0.94653255163E+01  0.70246050748E+02  0.20145089196E+03  0.17200000000E+03 0. -1.
         -6    1    1    2    0  502 -0.77293996131E+02  0.94653255163E+01 -0.22108499412E+02  0.19009665955E+03  0.17200000000E+03 0.  1.
</event>
<event>
 4    1 -0.6963162E-004  0.1952259E+03  0.7818608E-02  0.1153831E+00
         -5   -1    0    0    0  501 -0.00000000000E+00  0.00000000000E+00  0.48873863506E+02  0.49099333336E+02  0.47000000000E+01 0.  1.
          5   -1    0    0  501    0  0.00000000000E+00 -0.00000000000E+00 -0.26775597616E+04  0.26775638866E+04  0.47000000000E+01 0. -1.
          6    1    1    2  502    0 -0.34605007299E+02 -0.85625035355E+02 -0.24626612062E+04  0.24703872914E+04  0.17200000000E+03 0. -1.
         -6    1    1    2    0  502  0.34605007299E+02  0.85625035355E+02 -0.16602469186E+03  0.25627592847E+03  0.17200000000E+03 0.  1.
</event>
<event>
 4    1 -0.6963162E-004  0.2282661E+03  0.7818608E-02  0.1127866E+00
          5   -1    0    0  501    0  0.00000000000E+00  0.00000000000E+00  0.33668940103E+03  0.33672220415E+03  0.47000000000E+01 0. -1.
         -5   -1    0    0    0  501 -0.00000000000E+00 -0.00000000000E+00 -0.17022914351E+03  0.17029401428E+03  0.47000000000E+01 0.  1.
          6    1    1    2  502    0 -0.54731976403E+02  0.13973489271E+03  0.15981974215E+03  0.27865351149E+03  0.17200000000E+03 0. -1.
         -6    1    1    2    0  502  0.54731976403E+02 -0.13973489271E+03  0.66405153668E+01  0.22836270695E+03  0.17200000000E+03 0.  1.
</event>
<event>
 4    1 -0.6963162E-004  0.1761900E+03  0.7818608E-02  0.1171542E+00
          5   -1    0    0  501    0  0.00000000000E+00  0.00000000000E+00  0.61033600584E+02  0.61214298985E+02  0.47000000000E+01 0. -1.
         -5   -1    0    0    0  501 -0.00000000000E+00 -0.00000000000E+00 -0.10873747943E+04  0.10873849517E+04  0.47000000000E+01 0.  1.
          6    1    1    2  502    0 -0.37230927586E+02  0.85309863708E+01 -0.93884422097E+02  0.19964269185E+03  0.17200000000E+03 0. -1.
         -6    1    1    2    0  502  0.37230927586E+02 -0.85309863708E+01 -0.93245677158E+03  0.94895655884E+03  0.17200000000E+03 0.  1.
</event>
<event>
 4    1 -0.6963162E-004  0.1740007E+03  0.7818608E-02  0.1173739E+00
         -5   -1    0    0    0  501 -0.00000000000E+00  0.00000000000E+00  0.32359835418E+03  0.32363248420E+03  0.47000000000E+01 0.  1.
          5   -1    0    0  501    0  0.00000000000E+00 -0.00000000000E+00 -0.11986385030E+03  0.11995596112E+03  0.47000000000E+01 0. -1.
          6    1    1    2  502    0 -0.13990754086E+02  0.22282646140E+02 -0.21635805714E+01  0.17401419080E+03  0.17200000000E+03 0. -1.
         -6    1    1    2    0  502  0.13990754086E+02 -0.22282646140E+02  0.20589808445E+03  0.26957425452E+03  0.17200000000E+03 0.  1.
</event>
<event>
 4    1 -0.6963162E-004  0.3651177E+03  0.7818608E-02  0.1056576E+00
          5   -1    0    0  501    0  0.00000000000E+00  0.00000000000E+00  0.36525859047E+03  0.36528882807E+03  0.47000000000E+01 0. -1.
         -5   -1    0    0    0  501 -0.00000000000E+00 -0.00000000000E+00 -0.37373122200E+03  0.37376077415E+03  0.47000000000E+01 0.  1.
          6    1    1    2  502    0  0.22334407103E+03  0.23204387135E+03  0.52509813496E+02  0.36887425067E+03  0.17200000000E+03 0. -1.
         -6    1    1    2    0  502 -0.22334407103E+03 -0.23204387135E+03 -0.60982445017E+02  0.37017535155E+03  0.17200000000E+03 0.  1.
</event>
<event>
 4    1 -0.6963162E-004  0.2055011E+03  0.7818608E-02  0.1145179E+00
          5   -1    0    0  501    0  0.00000000000E+00  0.00000000000E+00  0.18658805621E+03  0.18664724139E+03  0.47000000000E+01 0. -1.
         -5   -1    0    0    0  501 -0.00000000000E+00 -0.00000000000E+00 -0.65829388494E+03  0.65831066294E+03  0.47000000000E+01 0.  1.
          6    1    1    2  502    0  0.36553245596E+02 -0.10635109508E+03  0.10640067270E+03  0.23141261491E+03  0.17200000000E+03 0. -1.
         -6    1    1    2    0  502 -0.36553245596E+02  0.10635109508E+03 -0.57810650143E+03  0.61354528943E+03  0.17200000000E+03 0.  1.
</event>
<event>
 4    1 -0.6963162E-004  0.2007051E+03  0.7818608E-02  0.1149145E+00
          5   -1    0    0  501    0  0.00000000000E+00  0.00000000000E+00  0.19133012621E+04  0.19133070348E+04  0.47000000000E+01 0. -1.
         -5   -1    0    0    0  501 -0.00000000000E+00 -0.00000000000E+00 -0.24459414751E+03  0.24463929978E+03  0.47000000000E+01 0.  1.
          6    1    1    2  502    0  0.10293598307E+03  0.10134706687E+02  0.18658502509E+04  0.18766138888E+04  0.17200000000E+03 0. -1.
         -6    1    1    2    0  502 -0.10293598307E+03 -0.10134706687E+02 -0.19714313629E+03  0.28133244583E+03  0.17200000000E+03 0.  1.
</event>
<event>
 4    1 -0.6963162E-004  0.1871675E+03  0.7818608E-02  0.1161041E+00
         -5   -1    0    0    0  501 -0.00000000000E+00  0.00000000000E+00  0.71115546475E+03  0.71117099564E+03  0.47000000000E+01 0.  1.
          5   -1    0    0  501    0  0.00000000000E+00 -0.00000000000E+00 -0.53041382313E+02  0.53249208799E+02  0.47000000000E+01 0. -1.
          6    1    1    2  502    0  0.66971728159E+02  0.31023618857E+02  0.22551847175E+03  0.29307039837E+03  0.17200000000E+03 0. -1.
         -6    1    1    2    0  502 -0.66971728159E+02 -0.31023618857E+02  0.43259561069E+03  0.47134980608E+03  0.17200000000E+03 0.  1.
</event>
<event>
 4    1 -0.6963162E-004  0.1989501E+03  0.7818608E-02  0.1150628E+00
          5   -1    0    0  501    0  0.00000000000E+00  0.00000000000E+00  0.19107165653E+03  0.19112945333E+03  0.47000000000E+01 0. -1.
         -5   -1    0    0    0  501 -0.00000000000E+00 -0.00000000000E+00 -0.20800261627E+03  0.20805570979E+03  0.47000000000E+01 0.  1.
          6    1    1    2  502    0  0.98454192207E+02  0.17433329246E+02 -0.22056566163E+02  0.20016903118E+03  0.17200000000E+03 0.  1.
         -6    1    1    2    0  502 -0.98454192207E+02 -0.17433329246E+02  0.51256064201E+01  0.19901613194E+03  0.17200000000E+03 0.  1.
</event>
<event>
 4    1 -0.6963162E-004  0.1747371E+03  0.7818608E-02  0.1172996E+00
         -5   -1    0    0    0  501 -0.00000000000E+00  0.00000000000E+00  0.10381556990E+03  0.10392190603E+03  0.47000000000E+01 0.  1.
          5   -1    0    0  501    0  0.00000000000E+00 -0.00000000000E+00 -0.66679770768E+03  0.66681427172E+03  0.47000000000E+01 0. -1.
          6    1    1    2  502    0 -0.28821003108E+02  0.10880565731E+02 -0.56967466485E+03  0.59587101012E+03  0.17200000000E+03 0. -1.
         -6    1    1    2    0  502  0.28821003108E+02 -0.10880565731E+02  0.66925270690E+01  0.17486516763E+03  0.17200000000E+03 0.  1.
</event>
<event>
 4    1 -0.6963162E-004  0.2243913E+03  0.7818608E-02  0.1130651E+00
          5   -1    0    0  501    0  0.00000000000E+00  0.00000000000E+00  0.74059557641E+03  0.74061048993E+03  0.47000000000E+01 0. -1.
         -5   -1    0    0    0  501 -0.00000000000E+00 -0.00000000000E+00 -0.68403314080E+02  0.68564592736E+02  0.47000000000E+01 0.  1.
          6    1    1    2  502    0 -0.87382977957E+02  0.11459353291E+03  0.37106659965E+03  0.43363796420E+03  0.17200000000E+03 0. -1.
         -6    1    1    2    0  502  0.87382977957E+02 -0.11459353291E+03  0.30112566268E+03  0.37553711846E+03  0.17200000000E+03 0.  1.
</event>
<event>
 4    1 -0.6963162E-004  0.2590619E+03  0.7818608E-02  0.1107708E+00
         -5   -1    0    0    0  501 -0.00000000000E+00  0.00000000000E+00  0.22407273248E+03  0.22412201909E+03  0.47000000000E+01 0.  1.
          5   -1    0    0  501    0  0.00000000000E+00 -0.00000000000E+00 -0.67493532412E+03  0.67495168846E+03  0.47000000000E+01 0. -1.
          6    1    1    2  502    0 -0.69198662926E+02 -0.18094368363E+03 -0.56072631153E+03  0.61767877415E+03  0.17200000000E+03 0. -1.
         -6    1    1    2    0  502  0.69198662926E+02  0.18094368363E+03  0.10986371989E+03  0.28139493340E+03  0.17200000000E+03 0.  1.
</event>
<event>
 4    1 -0.6963162E-004  0.4981028E+03  0.7818608E-02  0.1014275E+00
         -5   -1    0    0    0  501 -0.00000000000E+00  0.00000000000E+00  0.26275007285E+03  0.26279210563E+03  0.47000000000E+01 0.  1.
          5   -1    0    0  501    0  0.00000000000E+00 -0.00000000000E+00 -0.15566202220E+04  0.15566273175E+04  0.47000000000E+01 0. -1.
          6    1    1    2  502    0  0.34891748780E+03  0.31109327546E+03 -0.12175574413E+04  0.13155046796E+04  0.17200000000E+03 0. -1.
         -6    1    1    2    0  502 -0.34891748780E+03 -0.31109327546E+03 -0.76312707889E+02  0.50391474350E+03  0.17200000000E+03 0.  1.
</event>
<event>
 4    1 -0.6963162E-004  0.1948375E+03  0.7818608E-02  0.1154169E+00
         -5   -1    0    0    0  501 -0.00000000000E+00  0.00000000000E+00  0.13020324390E+04  0.13020409218E+04  0.47000000000E+01 0.  1.
          5   -1    0    0  501    0  0.00000000000E+00 -0.00000000000E+00 -0.49007489910E+02  0.49232347774E+02  0.47000000000E+01 0. -1.
          6    1    1    2  502    0  0.89087523323E+02 -0.21001601467E+02  0.19572166977E+03  0.27616774992E+03  0.17200000000E+03 0. -1.
         -6    1    1    2    0  502 -0.89087523323E+02  0.21001601467E+02  0.10573032793E+04  0.10751055197E+04  0.17200000000E+03 0.  1.
</event>
<event>
 4    1 -0.6963162E-004  0.2494096E+03  0.7818608E-02  0.1113678E+00
          5   -1    0    0  501    0  0.00000000000E+00  0.00000000000E+00  0.18982823492E+04  0.18982881677E+04  0.47000000000E+01 0. -1.
         -5   -1    0    0    0  501 -0.00000000000E+00 -0.00000000000E+00 -0.47196794560E+02  0.47430237368E+02  0.47000000000E+01 0.  1.
          6    1    1    2  502    0  0.17945967731E+03 -0.20380911017E+02  0.14650101947E+04  0.14860888358E+04  0.17200000000E+03 0. -1.
         -6    1    1    2    0  502 -0.17945967731E+03  0.20380911017E+02  0.38607535996E+03  0.45962956920E+03  0.17200000000E+03 0.  1.
</event>
<event>
 4    1 -0.6963162E-004  0.1779555E+03  0.7818608E-02  0.1169797E+00
          5   -1    0    0  501    0  0.00000000000E+00  0.00000000000E+00  0.19544557406E+04  0.19544613918E+04  0.47000000000E+01 0. -1.
         -5   -1    0    0    0  501 -0.00000000000E+00 -0.00000000000E+00 -0.23124205843E+03  0.23128981730E+03  0.47000000000E+01 0.  1.
          6    1    1    2  502    0  0.51094591982E+01 -0.45365744495E+02  0.19155035510E+04  0.19237520660E+04  0.17200000000E+03 0. -1.
         -6    1    1    2    0  502 -0.51094591982E+01  0.45365744495E+02 -0.19228986883E+03  0.26199914313E+03  0.17200000000E+03 0.  1.
</event>
<event>
 4    1 -0.6963162E-004  0.2067137E+03  0.7818608E-02  0.1144195E+00
         -5   -1    0    0    0  501 -0.00000000000E+00  0.00000000000E+00  0.18996681044E+03  0.19002494328E+03  0.47000000000E+01 0.  1.
          5   -1    0    0  501    0  0.00000000000E+00 -0.00000000000E+00 -0.36165448440E+03  0.36168502331E+03  0.47000000000E+01 0. -1.
          6    1    1    2  502    0 -0.10081968834E+03 -0.54607301056E+02 -0.25550132108E+03  0.32865101850E+03  0.17200000000E+03 0. -1.
         -6    1    1    2    0  502  0.10081968834E+03  0.54607301056E+02  0.83813647118E+02  0.22305894810E+03  0.17200000000E+03 0.  1.
</event>
<event>
 4    1 -0.6963162E-004  0.1808123E+03  0.7818608E-02  0.1167019E+00
         -5   -1    0    0    0  501 -0.00000000000E+00  0.00000000000E+00  0.17035339650E+03  0.17041821997E+03  0.47000000000E+01 0.  1.
          5   -1    0    0  501    0  0.00000000000E+00 -0.00000000000E+00 -0.24721894467E+03  0.24726361763E+03  0.47000000000E+01 0. -1.
          6    1    1    2  502    0 -0.33147139294E+02 -0.44837105575E+02 -0.13730346174E+03  0.22703598720E+03  0.17200000000E+03 0. -1.
         -6    1    1    2    0  502  0.33147139294E+02  0.44837105575E+02  0.60437913567E+02  0.19064585040E+03  0.17200000000E+03 0.  1.
</event>
<event>
 4    1 -0.6963162E-004  0.6326350E+03  0.7818608E-02  0.9839920E-01
          5   -1    0    0  501    0  0.00000000000E+00  0.00000000000E+00  0.33425627233E+03  0.33428931420E+03  0.47000000000E+01 0. -1.
         -5   -1    0    0    0  501 -0.00000000000E+00 -0.00000000000E+00 -0.12240824636E+04  0.12240914867E+04  0.47000000000E+01 0.  1.
          6    1    1    2  502    0 -0.42993296000E+03 -0.43104606272E+03 -0.32959252374E+03  0.71334303808E+03  0.17200000000E+03 0. -1.
         -6    1    1    2    0  502  0.42993296000E+03  0.43104606272E+03 -0.56023366754E+03  0.84503776278E+03  0.17200000000E+03 0.  1.
</event>
<event>
 4    1 -0.6963162E-004  0.2026413E+03  0.7818608E-02  0.1147529E+00
         -5   -1    0    0    0  501 -0.00000000000E+00  0.00000000000E+00  0.31399912092E+03  0.31403429421E+03  0.47000000000E+01 0.  1.
          5   -1    0    0  501    0  0.00000000000E+00 -0.00000000000E+00 -0.17935141259E+03  0.17941298503E+03  0.47000000000E+01 0. -1.
          6    1    1    2  502    0  0.10475806642E+03  0.22477671634E+02 -0.61150028303E+02  0.21166677624E+03  0.17200000000E+03 0.  1.
         -6    1    1    2    0  502 -0.10475806642E+03 -0.22477671634E+02  0.19579773664E+03  0.28178050301E+03  0.17200000000E+03 0.  1.
</event>
<event>
 4    1 -0.6963162E-004  0.1787931E+03  0.7818608E-02  0.1168976E+00
         -5   -1    0    0    0  501 -0.00000000000E+00  0.00000000000E+00  0.95663469498E+03  0.95664624059E+03  0.47000000000E+01 0.  1.
          5   -1    0    0  501    0  0.00000000000E+00 -0.00000000000E+00 -0.50916091390E+03  0.50918260599E+03  0.47000000000E+01 0. -1.
          6    1    1    2  502    0 -0.77736713899E+01  0.48192696416E+02 -0.48472019865E+03  0.51664362663E+03  0.17200000000E+03 0. -1.
         -6    1    1    2    0  502  0.77736713899E+01 -0.48192696416E+02  0.93219397972E+03  0.94918521996E+03  0.17200000000E+03 0.  1.
</event>
<event>
 4    1 -0.6963162E-004  0.3590063E+03  0.7818608E-02  0.1058978E+00
          5   -1    0    0  501    0  0.00000000000E+00  0.00000000000E+00  0.12335389243E+04  0.12335478782E+04  0.47000000000E+01 0. -1.
         -5   -1    0    0    0  501 -0.00000000000E+00 -0.00000000000E+00 -0.31664494380E+03  0.31667982322E+03  0.47000000000E+01 0.  1.
          6    1    1    2  502    0 -0.29970977528E+03  0.97342630211E+02  0.10929312617E+04  0.11503844053E+04  0.17200000000E+03 0. -1.
         -6    1    1    2    0  502  0.29970977528E+03 -0.97342630211E+02 -0.17603728123E+03  0.39984329611E+03  0.17200000000E+03 0.  1.
</event>
<event>
 4    1 -0.6963162E-004  0.1849189E+03  0.7818608E-02  0.1163126E+00
         -5   -1    0    0    0  501 -0.00000000000E+00  0.00000000000E+00  0.10686954237E+04  0.10687057587E+04  0.47000000000E+01 0.  1.
          5   -1    0    0  501    0  0.00000000000E+00 -0.00000000000E+00 -0.23496938243E+03  0.23501638385E+03  0.47000000000E+01 0. -1.
          6    1    1    2  502    0  0.60236453910E+02 -0.31346138192E+02 -0.18899800238E+03  0.26441493086E+03  0.17200000000E+03 0. -1.
         -6    1    1    2    0  502 -0.60236453910E+02  0.31346138192E+02  0.10227240436E+04  0.10393072117E+04  0.17200000000E+03 0.  1.
</event>
<event>
 4    1 -0.6963162E-004  0.3901305E+03  0.7818608E-02  0.1047252E+00
          5   -1    0    0  501    0  0.00000000000E+00  0.00000000000E+00  0.40492750502E+03  0.40495478059E+03  0.47000000000E+01 0. -1.
         -5   -1    0    0    0  501 -0.00000000000E+00 -0.00000000000E+00 -0.10470809969E+04  0.10470915452E+04  0.47000000000E+01 0.  1.
          6    1    1    2  502    0  0.16262696027E+03  0.31011336178E+03  0.26021795904E+03  0.46895118250E+03  0.17200000000E+03 0. -1.
         -6    1    1    2    0  502 -0.16262696027E+03 -0.31011336178E+03 -0.90237145094E+03  0.98309514332E+03  0.17200000000E+03 0.  1.
</event>
<event>
 4    1 -0.6963162E-004  0.2285991E+03  0.7818608E-02  0.1127630E+00
          5   -1    0    0  501    0  0.00000000000E+00  0.00000000000E+00  0.57814861251E+03  0.57816771627E+03  0.47000000000E+01 0. -1.
         -5   -1    0    0    0  501 -0.00000000000E+00 -0.00000000000E+00 -0.18650954659E+03  0.18656875668E+03  0.47000000000E+01 0.  1.
          6    1    1    2  502    0  0.12946151054E+03 -0.76897867555E+02  0.47035524417E+03  0.52296426309E+03  0.17200000000E+03 0. -1.
         -6    1    1    2    0  502 -0.12946151054E+03  0.76897867555E+02 -0.78716178260E+02  0.24177220987E+03  0.17200000000E+03 0.  1.
</event>
<event>
 4    1 -0.6963162E-004  0.2908613E+03  0.7818608E-02  0.1089900E+00
          5   -1    0    0  501    0  0.00000000000E+00  0.00000000000E+00  0.75477396911E+03  0.75478860249E+03  0.47000000000E+01 0. -1.
         -5   -1    0    0    0  501 -0.00000000000E+00 -0.00000000000E+00 -0.12594076258E+03  0.12602843203E+03  0.47000000000E+01 0.  1.
          6    1    1    2  502    0 -0.67502617028E+02  0.22463238089E+03  0.46076499019E+03  0.54488960904E+03  0.17200000000E+03 0. -1.
         -6    1    1    2    0  502  0.67502617028E+02 -0.22463238089E+03  0.16806821634E+03  0.33592742548E+03  0.17200000000E+03 0.  1.
</event>
<event>
 4    1 -0.6963162E-004  0.2653611E+03  0.7818608E-02  0.1103964E+00
          5   -1    0    0  501    0  0.00000000000E+00  0.00000000000E+00  0.87310807318E+03  0.87312072330E+03  0.47000000000E+01 0. -1.
         -5   -1    0    0    0  501 -0.00000000000E+00 -0.00000000000E+00 -0.83787795907E+02  0.83919513481E+02  0.47000000000E+01 0.  1.
          6    1    1    2  502    0 -0.46485886604E+02 -0.19665094447E+03  0.48837236593E+03  0.55580940925E+03  0.17200000000E+03 0.  1.
         -6    1    1    2    0  502  0.46485886604E+02  0.19665094447E+03  0.30094791135E+03  0.40123082753E+03  0.17200000000E+03 0. -1.
</event>
<event>
 4    1 -0.6963162E-004  0.1850795E+03  0.7818608E-02  0.1162976E+00
         -5   -1    0    0    0  501 -0.00000000000E+00  0.00000000000E+00  0.68706197935E+02  0.68866767273E+02  0.47000000000E+01 0.  1.
          5   -1    0    0  501    0  0.00000000000E+00 -0.00000000000E+00 -0.13513282136E+04  0.13513363870E+04  0.47000000000E+01 0. -1.
          6    1    1    2  502    0  0.49938717849E+02 -0.46653478482E+02 -0.12056215382E+04  0.12197449389E+04  0.17200000000E+03 0. -1.
         -6    1    1    2    0  502 -0.49938717849E+02  0.46653478482E+02 -0.77000477495E+02  0.20045821542E+03  0.17200000000E+03 0.  1.
</event>
<event>
 4    1 -0.6963162E-004  0.2097767E+03  0.7818608E-02  0.1141743E+00
          5   -1    0    0  501    0  0.00000000000E+00  0.00000000000E+00  0.38081962838E+03  0.38084863051E+03  0.47000000000E+01 0. -1.
         -5   -1    0    0    0  501 -0.00000000000E+00 -0.00000000000E+00 -0.73195596468E+03  0.73197105423E+03  0.47000000000E+01 0.  1.
          6    1    1    2  502    0 -0.12008887825E+03 -0.96390785096E+00  0.33503905884E+03  0.39529411676E+03  0.17200000000E+03 0. -1.
         -6    1    1    2    0  502  0.12008887825E+03  0.96390785096E+00 -0.68617539514E+03  0.71752556797E+03  0.17200000000E+03 0.  1.
</event>
<event>
 4    1 -0.6963162E-004  0.1909833E+03  0.7818608E-02  0.1157577E+00
         -5   -1    0    0    0  501 -0.00000000000E+00  0.00000000000E+00  0.12598264710E+04  0.12598352380E+04  0.47000000000E+01 0.  1.
          5   -1    0    0  501    0  0.00000000000E+00 -0.00000000000E+00 -0.47408022703E+02  0.47640430483E+02  0.47000000000E+01 0. -1.
          6    1    1    2  502    0 -0.73655231447E+01 -0.82682251114E+02  0.19747531652E+03  0.27472005063E+03  0.17200000000E+03 0. -1.
         -6    1    1    2    0  502  0.73655231447E+01  0.82682251114E+02  0.10149431317E+04  0.10327556179E+04  0.17200000000E+03 0.  1.
</event>
<event>
 4    1 -0.6963162E-004  0.1774239E+03  0.7818608E-02  0.1170320E+00
          5   -1    0    0  501    0  0.00000000000E+00  0.00000000000E+00  0.40552361827E+02  0.40823817187E+02  0.47000000000E+01 0. -1.
         -5   -1    0    0    0  501 -0.00000000000E+00 -0.00000000000E+00 -0.90428004323E+03  0.90429225728E+03  0.47000000000E+01 0.  1.
          6    1    1    2  502    0  0.42751941694E+02  0.82158161653E+01 -0.25210787418E+03  0.30828170295E+03  0.17200000000E+03 0.  1.
         -6    1    1    2    0  502 -0.42751941694E+02 -0.82158161653E+01 -0.61161980722E+03  0.63683437151E+03  0.17200000000E+03 0.  1.
</event>
<event>
 4    1 -0.6963162E-004  0.1726713E+03  0.7818608E-02  0.1175090E+00
          5   -1    0    0  501    0  0.00000000000E+00  0.00000000000E+00  0.63509137984E+03  0.63510877080E+03  0.47000000000E+01 0. -1.
         -5   -1    0    0    0  501 -0.00000000000E+00 -0.00000000000E+00 -0.25213144053E+03  0.25217524324E+03  0.47000000000E+01 0.  1.
          6    1    1    2  502    0  0.11585775873E+02  0.98559011955E+01  0.59170130424E+03  0.61638121519E+03  0.17200000000E+03 0. -1.
         -6    1    1    2    0  502 -0.11585775873E+02 -0.98559011955E+01 -0.20874136494E+03  0.27090279885E+03  0.17200000000E+03 0.  1.
</event>
<event>
 4    1 -0.6963162E-004  0.2147109E+03  0.7818608E-02  0.1137889E+00
          5   -1    0    0  501    0  0.00000000000E+00  0.00000000000E+00  0.10530873756E+04  0.10530978637E+04  0.47000000000E+01 0. -1.
         -5   -1    0    0    0  501 -0.00000000000E+00 -0.00000000000E+00 -0.13161951992E+03  0.13170340931E+03  0.47000000000E+01 0.  1.
          6    1    1    2  502    0  0.26586135110E+02  0.12573767751E+03  0.94474121619E+03  0.96883267476E+03  0.17200000000E+03 0. -1.
         -6    1    1    2    0  502 -0.26586135110E+02 -0.12573767751E+03 -0.23273360553E+02  0.21596859826E+03  0.17200000000E+03 0.  1.
</event>
<event>
 4    1 -0.6963162E-004  0.1811322E+03  0.7818608E-02  0.1166712E+00
          5   -1    0    0  501    0  0.00000000000E+00  0.00000000000E+00  0.64515427887E+02  0.64686400699E+02  0.47000000000E+01 0. -1.
         -5   -1    0    0    0  501 -0.00000000000E+00 -0.00000000000E+00 -0.71587204817E+03  0.71588747674E+03  0.47000000000E+01 0.  1.
          6    1    1    2  502    0 -0.42654094118E+02  0.37489849997E+02 -0.11523627684E+03  0.21468176471E+03  0.17200000000E+03 0. -1.
         -6    1    1    2    0  502  0.42654094118E+02 -0.37489849997E+02 -0.53612034344E+03  0.56589211273E+03  0.17200000000E+03 0.  1.
</event>
<event>
 4    1 -0.6963162E-004  0.1934447E+03  0.7818608E-02  0.1155391E+00
          5   -1    0    0  501    0  0.00000000000E+00  0.00000000000E+00  0.19239826925E+03  0.19245566765E+03  0.47000000000E+01 0. -1.
         -5   -1    0    0    0  501 -0.00000000000E+00 -0.00000000000E+00 -0.28561490985E+03  0.28565357818E+03  0.47000000000E+01 0.  1.
          6    1    1    2  502    0 -0.95549884117E+01  0.88008779163E+02  0.88475284226E+02  0.21271746269E+03  0.17200000000E+03 0. -1.
         -6    1    1    2    0  502  0.95549884117E+01 -0.88008779163E+02 -0.18169192483E+03  0.26539178314E+03  0.17200000000E+03 0.  1.
</event>
<event>
 4    1 -0.6963162E-004  0.2199619E+03  0.7818608E-02  0.1133911E+00
          5   -1    0    0  501    0  0.00000000000E+00  0.00000000000E+00  0.21694387504E+03  0.21699478085E+03  0.47000000000E+01 0. -1.
         -5   -1    0    0    0  501 -0.00000000000E+00 -0.00000000000E+00 -0.52401903408E+03  0.52404011114E+03  0.47000000000E+01 0.  1.
          6    1    1    2  502    0 -0.13603061395E+03 -0.17172990863E+02  0.12729922935E+03  0.25414234857E+03  0.17200000000E+03 0. -1.
         -6    1    1    2    0  502  0.13603061395E+03  0.17172990863E+02 -0.43437438839E+03  0.48689254342E+03  0.17200000000E+03 0.  1.
</event>
<event>
 4    1 -0.6963162E-004  0.1809864E+03  0.7818608E-02  0.1166852E+00
          5   -1    0    0  501    0  0.00000000000E+00  0.00000000000E+00  0.73192347321E+03  0.73193856343E+03  0.47000000000E+01 0. -1.
         -5   -1    0    0    0  501 -0.00000000000E+00 -0.00000000000E+00 -0.14209279869E+03  0.14217050833E+03  0.47000000000E+01 0.  1.
          6    1    1    2  502    0  0.48955498951E+02 -0.27846679489E+02  0.65668554321E+03  0.68116956854E+03  0.17200000000E+03 0. -1.
         -6    1    1    2    0  502 -0.48955498951E+02  0.27846679489E+02 -0.66854868695E+02  0.19293950322E+03  0.17200000000E+03 0.  1.
</event>
<event>
 4    1 -0.6963162E-004  0.4641232E+03  0.7818608E-02  0.1023592E+00
         -5   -1    0    0    0  501 -0.00000000000E+00  0.00000000000E+00  0.55972270558E+03  0.55974243822E+03  0.47000000000E+01 0.  1.
          5   -1    0    0  501    0  0.00000000000E+00 -0.00000000000E+00 -0.10905700547E+04  0.10905801824E+04  0.47000000000E+01 0. -1.
          6    1    1    2  502    0  0.32704490555E+03 -0.28083448678E+03 -0.92921638576E+03  0.10386787139E+04  0.17200000000E+03 0. -1.
         -6    1    1    2    0  502 -0.32704490555E+03  0.28083448678E+03  0.39836903664E+03  0.61164390667E+03  0.17200000000E+03 0.  1.
</event>
<event>
 4    1 -0.6963162E-004  0.1768805E+03  0.7818608E-02  0.1170857E+00
          5   -1    0    0  501    0  0.00000000000E+00  0.00000000000E+00  0.12074378808E+03  0.12083522814E+03  0.47000000000E+01 0. -1.
         -5   -1    0    0    0  501 -0.00000000000E+00 -0.00000000000E+00 -0.25894964812E+03  0.25899229769E+03  0.47000000000E+01 0.  1.
          6    1    1    2  502    0  0.20603390300E+02 -0.35752274772E+02 -0.71573958548E+02  0.19081288317E+03  0.17200000000E+03 0.  1.
         -6    1    1    2    0  502 -0.20603390300E+02  0.35752274772E+02 -0.66631901491E+02  0.18901464266E+03  0.17200000000E+03 0. -1.
</event>
<event>
 4    1 -0.6963162E-004  0.3017471E+03  0.7818608E-02  0.1084371E+00
         -5   -1    0    0    0  501 -0.00000000000E+00  0.00000000000E+00  0.19993029466E+03  0.19998553128E+03  0.47000000000E+01 0.  1.
          5   -1    0    0  501    0  0.00000000000E+00 -0.00000000000E+00 -0.93584955486E+03  0.93586135689E+03  0.47000000000E+01 0. -1.
          6    1    1    2  502    0 -0.22731821646E+03  0.98963223535E+02 -0.77491397128E+03  0.83159061685E+03  0.17200000000E+03 0. -1.
         -6    1    1    2    0  502  0.22731821646E+03 -0.98963223535E+02  0.38994711084E+02  0.30425627132E+03  0.17200000000E+03 0.  1.
</event>
<event>
 4    1 -0.6963162E-004  0.2666123E+03  0.7818608E-02  0.1103234E+00
          5   -1    0    0  501    0  0.00000000000E+00  0.00000000000E+00  0.14823857106E+04  0.14823931615E+04  0.47000000000E+01 0. -1.
         -5   -1    0    0    0  501 -0.00000000000E+00 -0.00000000000E+00 -0.13268030313E+03  0.13276352225E+03  0.47000000000E+01 0.  1.
          6    1    1    2  502    0  0.19659482638E+03  0.53372197596E+02  0.13202744082E+04  0.13469248792E+04  0.17200000000E+03 0. -1.
         -6    1    1    2    0  502 -0.19659482638E+03 -0.53372197596E+02  0.29430999317E+02  0.26823180452E+03  0.17200000000E+03 0.  1.
</event>
<event>
 4    1 -0.6963162E-004  0.2725002E+03  0.7818608E-02  0.1099857E+00
          5   -1    0    0  501    0  0.00000000000E+00  0.00000000000E+00  0.99401660061E+02  0.99512712871E+02  0.47000000000E+01 0. -1.
         -5   -1    0    0    0  501 -0.00000000000E+00 -0.00000000000E+00 -0.10186315007E+04  0.10186423436E+04  0.47000000000E+01 0.  1.
          6    1    1    2  502    0 -0.20978213078E+03 -0.25764404895E+02 -0.17066120464E+03  0.32153008214E+03  0.17200000000E+03 0. -1.
         -6    1    1    2    0  502  0.20978213078E+03  0.25764404895E+02 -0.74856863597E+03  0.79662497432E+03  0.17200000000E+03 0.  1.
</event>
<event>
 4    1 -0.6963162E-004  0.2320326E+03  0.7818608E-02  0.1125217E+00
          5   -1    0    0  501    0  0.00000000000E+00  0.00000000000E+00  0.25442430824E+04  0.25442474236E+04  0.47000000000E+01 0. -1.
         -5   -1    0    0    0  501 -0.00000000000E+00 -0.00000000000E+00 -0.42953616689E+02  0.43209989432E+02  0.47000000000E+01 0.  1.
          6    1    1    2  502    0  0.27899687470E+02 -0.15322114756E+03  0.21735227695E+04  0.21858729016E+04  0.17200000000E+03 0. -1.
         -6    1    1    2    0  502 -0.27899687470E+02  0.15322114756E+03  0.32776669626E+03  0.40158451140E+03  0.17200000000E+03 0.  1.
</event>
<event>
 4    1 -0.6963162E-004  0.2100952E+03  0.7818608E-02  0.1141491E+00
          5   -1    0    0  501    0  0.00000000000E+00  0.00000000000E+00  0.14455536241E+03  0.14463174894E+03  0.47000000000E+01 0. -1.
         -5   -1    0    0    0  501 -0.00000000000E+00 -0.00000000000E+00 -0.41323369956E+03  0.41326042691E+03  0.47000000000E+01 0.  1.
          6    1    1    2  502    0  0.62226327870E+02 -0.10336274757E+03  0.82859385204E+01  0.21025848436E+03  0.17200000000E+03 0. -1.
         -6    1    1    2    0  502 -0.62226327870E+02  0.10336274757E+03 -0.27696427567E+03  0.34763369149E+03  0.17200000000E+03 0. -1.
</event>
<event>
 4    1 -0.6963162E-004  0.1762990E+03  0.7818608E-02  0.1171434E+00
         -5   -1    0    0    0  501 -0.00000000000E+00  0.00000000000E+00  0.15315544618E+03  0.15322754548E+03  0.47000000000E+01 0.  1.
          5   -1    0    0  501    0  0.00000000000E+00 -0.00000000000E+00 -0.51242435649E+03  0.51244591043E+03  0.47000000000E+01 0. -1.
          6    1    1    2  502    0  0.38686585105E+02  0.81979763957E+00 -0.43833207202E+03  0.47245775398E+03  0.17200000000E+03 0. -1.
         -6    1    1    2    0  502 -0.38686585105E+02 -0.81979763957E+00  0.79063161712E+02  0.19321570194E+03  0.17200000000E+03 0.  1.
</event>
<event>
 4    1 -0.6963162E-004  0.1977687E+03  0.7818608E-02  0.1151635E+00
         -5   -1    0    0    0  501 -0.00000000000E+00  0.00000000000E+00  0.34762196091E+02  0.35078487382E+02  0.47000000000E+01 0.  1.
          5   -1    0    0  501    0  0.00000000000E+00 -0.00000000000E+00 -0.11231849540E+04  0.11231947876E+04  0.47000000000E+01 0. -1.
          6    1    1    2  502    0 -0.82882152655E+02 -0.51565723422E+02 -0.51208303402E+03  0.54894581590E+03  0.17200000000E+03 0. -1.
         -6    1    1    2    0  502  0.82882152655E+02  0.51565723422E+02 -0.57633972388E+03  0.60932745908E+03  0.17200000000E+03 0.  1.
</event>
<event>
 4    1 -0.6963162E-004  0.3245861E+03  0.7818608E-02  0.1073558E+00
         -5   -1    0    0    0  501 -0.00000000000E+00  0.00000000000E+00  0.71612798083E+03  0.71614340388E+03  0.47000000000E+01 0.  1.
          5   -1    0    0  501    0  0.00000000000E+00 -0.00000000000E+00 -0.28426747895E+03  0.28430633055E+03  0.47000000000E+01 0. -1.
          6    1    1    2  502    0  0.27496222026E+03  0.12958156087E+02 -0.13154831037E+03  0.35023005916E+03  0.17200000000E+03 0. -1.
         -6    1    1    2    0  502 -0.27496222026E+03 -0.12958156087E+02  0.56340881225E+03  0.65021967527E+03  0.17200000000E+03 0.  1.
</event>
<event>
 4    1 -0.6963162E-004  0.2555761E+03  0.7818608E-02  0.1109831E+00
         -5   -1    0    0    0  501 -0.00000000000E+00  0.00000000000E+00  0.17147832843E+03  0.17154272681E+03  0.47000000000E+01 0.  1.
          5   -1    0    0  501    0  0.00000000000E+00 -0.00000000000E+00 -0.64491151644E+03  0.64492864259E+03  0.47000000000E+01 0. -1.
          6    1    1    2  502    0  0.11143078932E+03  0.15270339245E+03 -0.49796396994E+03  0.55972070020E+03  0.17200000000E+03 0. -1.
         -6    1    1    2    0  502 -0.11143078932E+03 -0.15270339245E+03  0.24530781932E+02  0.25675066920E+03  0.17200000000E+03 0. -1.
</event>
<event>
 4    1 -0.6963162E-004  0.2109485E+03  0.7818608E-02  0.1140817E+00
          5   -1    0    0  501    0  0.00000000000E+00  0.00000000000E+00  0.43231564464E+02  0.43486298601E+02  0.47000000000E+01 0. -1.
         -5   -1    0    0    0  501 -0.00000000000E+00 -0.00000000000E+00 -0.10806891204E+04  0.10806993407E+04  0.47000000000E+01 0.  1.
          6    1    1    2  502    0  0.12212719215E+03 -0.46629885500E+00 -0.39234342740E+03  0.44545777973E+03  0.17200000000E+03 0. -1.
         -6    1    1    2    0  502 -0.12212719215E+03  0.46629885500E+00 -0.64511412854E+03  0.67872785956E+03  0.17200000000E+03 0.  1.
</event>
<event>
 4    1 -0.6963162E-004  0.3578488E+03  0.7818608E-02  0.1059439E+00
         -5   -1    0    0    0  501 -0.00000000000E+00  0.00000000000E+00  0.33178400475E+03  0.33181729281E+03  0.47000000000E+01 0.  1.
          5   -1    0    0  501    0  0.00000000000E+00 -0.00000000000E+00 -0.12908533918E+04  0.12908619481E+04  0.47000000000E+01 0. -1.
          6    1    1    2  502    0 -0.28058417823E+03 -0.14051432211E+03 -0.11588477840E+04  0.12128412684E+04  0.17200000000E+03 0. -1.
         -6    1    1    2    0  502  0.28058417823E+03  0.14051432211E+03  0.19977839701E+03  0.40983797250E+03  0.17200000000E+03 0.  1.
</event>
<event>
 4    1 -0.6963162E-004  0.1928572E+03  0.7818608E-02  0.1155909E+00
         -5   -1    0    0    0  501 -0.00000000000E+00  0.00000000000E+00  0.15741988589E+04  0.15742058751E+04  0.47000000000E+01 0.  1.
          5   -1    0    0  501    0  0.00000000000E+00 -0.00000000000E+00 -0.41747903301E+02  0.42011634460E+02  0.47000000000E+01 0. -1.
          6    1    1    2  502    0 -0.42294704402E+02 -0.76295860946E+02  0.23267260764E+03  0.30220926982E+03  0.17200000000E+03 0. -1.
         -6    1    1    2    0  502  0.42294704402E+02  0.76295860946E+02  0.12997783479E+04  0.13140082398E+04  0.17200000000E+03 0.  1.
</event>
<event>
 4    1 -0.6963162E-004  0.2761107E+03  0.7818608E-02  0.1097832E+00
         -5   -1    0    0    0  501 -0.00000000000E+00  0.00000000000E+00  0.38782899702E+03  0.38785747502E+03  0.47000000000E+01 0.  1.
          5   -1    0    0  501    0  0.00000000000E+00 -0.00000000000E+00 -0.40718005312E+03  0.40720717781E+03  0.47000000000E+01 0. -1.
          6    1    1    2  502    0  0.20655877309E+03  0.63139381822E+02 -0.29559449163E+03  0.40449129998E+03  0.17200000000E+03 0. -1.
         -6    1    1    2    0  502 -0.20655877309E+03 -0.63139381822E+02  0.27624343554E+03  0.39057335285E+03  0.17200000000E+03 0.  1.
</event>
<event>
 4    1 -0.6963162E-004  0.1730880E+03  0.7818608E-02  0.1174665E+00
          5   -1    0    0  501    0  0.00000000000E+00  0.00000000000E+00  0.37217454648E+03  0.37220422223E+03  0.47000000000E+01 0. -1.
         -5   -1    0    0    0  501 -0.00000000000E+00 -0.00000000000E+00 -0.10544766793E+03  0.10555235986E+03  0.47000000000E+01 0.  1.
          6    1    1    2  502    0  0.15974350989E+02 -0.10966703252E+02  0.24971145521E+03  0.30383426293E+03  0.17200000000E+03 0. -1.
         -6    1    1    2    0  502 -0.15974350989E+02  0.10966703252E+02  0.17015423338E+02  0.17392231916E+03  0.17200000000E+03 0.  1.
</event>
<event>
 4    1 -0.6963162E-004  0.2006450E+03  0.7818608E-02  0.1149196E+00
          5   -1    0    0  501    0  0.00000000000E+00  0.00000000000E+00  0.37665852121E+02  0.37957955899E+02  0.47000000000E+01 0. -1.
         -5   -1    0    0    0  501 -0.00000000000E+00 -0.00000000000E+00 -0.18290454984E+04  0.18290515371E+04  0.47000000000E+01 0.  1.
          6    1    1    2  502    0 -0.10224673049E+03 -0.14832600237E+02 -0.29216181027E+03  0.35442477806E+03  0.17200000000E+03 0. -1.
         -6    1    1    2    0  502  0.10224673049E+03  0.14832600237E+02 -0.14992178360E+04  0.15125847149E+04  0.17200000000E+03 0.  1.
</event>
<event>
 4    1 -0.6963162E-004  0.1992708E+03  0.7818608E-02  0.1150356E+00
          5   -1    0    0  501    0  0.00000000000E+00  0.00000000000E+00  0.11864879792E+04  0.11864972881E+04  0.47000000000E+01 0. -1.
         -5   -1    0    0    0  501 -0.00000000000E+00 -0.00000000000E+00 -0.61023635448E+03  0.61025445376E+03  0.47000000000E+01 0.  1.
          6    1    1    2  502    0  0.47415734418E+02  0.88750168282E+02  0.11615201074E+04  0.11784896283E+04  0.17200000000E+03 0. -1.
         -6    1    1    2    0  502 -0.47415734418E+02 -0.88750168282E+02 -0.58526848268E+03  0.61826211356E+03  0.17200000000E+03 0.  1.
</event>
<event>
 4    1 -0.6963162E-004  0.1814291E+03  0.7818608E-02  0.1166427E+00
          5   -1    0    0  501    0  0.00000000000E+00  0.00000000000E+00  0.38199572351E+03  0.38202463635E+03  0.47000000000E+01 0. -1.
         -5   -1    0    0    0  501 -0.00000000000E+00 -0.00000000000E+00 -0.11712465541E+03  0.11721891871E+03  0.47000000000E+01 0.  1.
          6    1    1    2  502    0  0.51506650624E+02  0.26068990386E+02  0.26088632742E+03  0.31777067699E+03  0.17200000000E+03 0. -1.
         -6    1    1    2    0  502 -0.51506650624E+02 -0.26068990386E+02  0.39847406752E+01  0.18147287807E+03  0.17200000000E+03 0.  1.
</event>
<event>
 4    1 -0.6963162E-004  0.1976510E+03  0.7818608E-02  0.1151736E+00
          5   -1    0    0  501    0  0.00000000000E+00  0.00000000000E+00  0.27454466968E+03  0.27458489698E+03  0.47000000000E+01 0. -1.
         -5   -1    0    0    0  501 -0.00000000000E+00 -0.00000000000E+00 -0.21214236801E+03  0.21219442572E+03  0.47000000000E+01 0.  1.
          6    1    1    2  502    0 -0.52685644579E+02  0.81891034618E+02  0.17091472148E+03  0.26130013531E+03  0.17200000000E+03 0. -1.
         -6    1    1    2    0  502  0.52685644579E+02 -0.81891034618E+02 -0.10851241980E+03  0.22547918739E+03  0.17200000000E+03 0.  1.
</event>
<event>
 4    1 -0.6963162E-004  0.1758632E+03  0.7818608E-02  0.1171868E+00
         -5   -1    0    0    0  501 -0.00000000000E+00  0.00000000000E+00  0.81076158863E+03  0.81077521151E+03  0.47000000000E+01 0.  1.
          5   -1    0    0  501    0  0.00000000000E+00 -0.00000000000E+00 -0.44626377728E+02  0.44873194550E+02  0.47000000000E+01 0. -1.
          6    1    1    2  502    0  0.11776722728E+02 -0.34715493377E+02  0.21857883858E+03  0.28054333953E+03  0.17200000000E+03 0. -1.
         -6    1    1    2    0  502 -0.11776722728E+02  0.34715493377E+02  0.54755637232E+03  0.57510506653E+03  0.17200000000E+03 0.  1.
</event>
<event>
 4    1 -0.6963162E-004  0.1828251E+03  0.7818608E-02  0.1165097E+00
          5   -1    0    0  501    0  0.00000000000E+00  0.00000000000E+00  0.48189414441E+03  0.48191706383E+03  0.47000000000E+01 0. -1.
         -5   -1    0    0    0  501 -0.00000000000E+00 -0.00000000000E+00 -0.78599945901E+02  0.78740342237E+02  0.47000000000E+01 0.  1.
          6    1    1    2  502    0  0.58609428700E+02 -0.20148287855E+02  0.29818753799E+03  0.34977253530E+03  0.17200000000E+03 0.  1.
         -6    1    1    2    0  502 -0.58609428700E+02  0.20148287855E+02  0.10510666052E+03  0.21088487077E+03  0.17200000000E+03 0.  1.
</event>
<event>
 4    1 -0.6963162E-004  0.2075750E+03  0.7818608E-02  0.1143501E+00
         -5   -1    0    0    0  501 -0.00000000000E+00  0.00000000000E+00  0.56581257765E+03  0.56583209791E+03  0.47000000000E+01 0.  1.
          5   -1    0    0  501    0  0.00000000000E+00 -0.00000000000E+00 -0.29946939930E+03  0.29950627893E+03  0.47000000000E+01 0. -1.
          6    1    1    2  502    0 -0.95582321451E+02 -0.66086394280E+02 -0.24046751121E+03  0.31766651639E+03  0.17200000000E+03 0. -1.
         -6    1    1    2    0  502  0.95582321451E+02  0.66086394280E+02  0.50681068956E+03  0.54767186046E+03  0.17200000000E+03 0.  1.
</event>
<event>
 4    1 -0.6963162E-004  0.2332591E+03  0.7818608E-02  0.1124367E+00
         -5   -1    0    0    0  501 -0.00000000000E+00  0.00000000000E+00  0.16329567342E+03  0.16336329747E+03  0.47000000000E+01 0.  1.
          5   -1    0    0  501    0  0.00000000000E+00 -0.00000000000E+00 -0.11407716585E+04  0.11407813405E+04  0.47000000000E+01 0. -1.
          6    1    1    2  502    0 -0.79724740976E+02  0.13590353535E+03 -0.10374085916E+04  0.10633091701E+04  0.17200000000E+03 0. -1.
         -6    1    1    2    0  502  0.79724740976E+02 -0.13590353535E+03  0.59932606566E+02  0.24083546785E+03  0.17200000000E+03 0.  1.
</event>
<event>
 4    1 -0.6963162E-004  0.2123873E+03  0.7818608E-02  0.1139689E+00
          5   -1    0    0  501    0  0.00000000000E+00  0.00000000000E+00  0.89478438303E+03  0.89479672670E+03  0.47000000000E+01 0. -1.
         -5   -1    0    0    0  501 -0.00000000000E+00 -0.00000000000E+00 -0.21306819072E+03  0.21312002228E+03  0.47000000000E+01 0.  1.
          6    1    1    2  502    0  0.10276743148E+03 -0.70450117771E+02  0.82487990655E+03  0.85178355484E+03  0.17200000000E+03 0. -1.
         -6    1    1    2    0  502 -0.10276743148E+03  0.70450117771E+02 -0.14316371424E+03  0.25613319414E+03  0.17200000000E+03 0.  1.
</event>
<event>
 4    1 -0.6963162E-004  0.1908876E+03  0.7818608E-02  0.1157663E+00
         -5   -1    0    0    0  501 -0.00000000000E+00  0.00000000000E+00  0.16534785231E+04  0.16534852029E+04  0.47000000000E+01 0.  1.
          5   -1    0    0  501    0  0.00000000000E+00 -0.00000000000E+00 -0.34970094561E+02  0.35284522295E+02  0.47000000000E+01 0. -1.
          6    1    1    2  502    0 -0.90654458176E+01  0.82291469892E+02  0.29371756718E+03  0.35029712758E+03  0.17200000000E+03 0. -1.
         -6    1    1    2    0  502  0.90654458176E+01 -0.82291469892E+02  0.13247908613E+04  0.13384725976E+04  0.17200000000E+03 0.  1.
</event>
<event>
 4    1 -0.6963162E-004  0.1972635E+03  0.7818608E-02  0.1152069E+00
          5   -1    0    0  501    0  0.00000000000E+00  0.00000000000E+00  0.13179351303E+03  0.13187729174E+03  0.47000000000E+01 0. -1.
         -5   -1    0    0    0  501 -0.00000000000E+00 -0.00000000000E+00 -0.30303472749E+03  0.30307117327E+03  0.47000000000E+01 0.  1.
          6    1    1    2  502    0  0.85906428484E+02 -0.44147284066E+02 -0.50348874178E+02  0.20358758871E+03  0.17200000000E+03 0. -1.
         -6    1    1    2    0  502 -0.85906428484E+02  0.44147284066E+02 -0.12089234028E+03  0.23136087630E+03  0.17200000000E+03 0.  1.
</event>
<event>
 4    1 -0.6963162E-004  0.2028127E+03  0.7818608E-02  0.1147387E+00
         -5   -1    0    0    0  501 -0.00000000000E+00  0.00000000000E+00  0.65632244954E+03  0.65633927794E+03  0.47000000000E+01 0.  1.
          5   -1    0    0  501    0  0.00000000000E+00 -0.00000000000E+00 -0.12855058406E+03  0.12863647485E+03  0.47000000000E+01 0. -1.
          6    1    1    2  502    0 -0.21311663713E+02 -0.10533189560E+03 -0.17148938230E+02  0.20353643734E+03  0.17200000000E+03 0. -1.
         -6    1    1    2    0  502  0.21311663713E+02  0.10533189560E+03  0.54492080371E+03  0.58143931545E+03  0.17200000000E+03 0.  1.
</event>
<event>
 4    1 -0.6963162E-004  0.1963592E+03  0.7818608E-02  0.1152848E+00
          5   -1    0    0  501    0  0.00000000000E+00  0.00000000000E+00  0.10021336757E+03  0.10032352187E+03  0.47000000000E+01 0. -1.
         -5   -1    0    0    0  501 -0.00000000000E+00 -0.00000000000E+00 -0.83082809543E+03  0.83084138929E+03  0.47000000000E+01 0.  1.
          6    1    1    2  502    0 -0.89934043052E+02  0.29745430495E+02 -0.24054386366E+02  0.19782703617E+03  0.17200000000E+03 0. -1.
         -6    1    1    2    0  502  0.89934043052E+02 -0.29745430495E+02 -0.70656034149E+03  0.73333787499E+03  0.17200000000E+03 0.  1.
</event>
<event>
 4    1 -0.6963162E-004  0.2278071E+03  0.7818608E-02  0.1128193E+00
         -5   -1    0    0    0  501 -0.00000000000E+00  0.00000000000E+00  0.53291028042E+03  0.53293100583E+03  0.47000000000E+01 0.  1.
          5   -1    0    0  501    0  0.00000000000E+00 -0.00000000000E+00 -0.63346561354E+03  0.63348304914E+03  0.47000000000E+01 0. -1.
          6    1    1    2  502    0  0.12598738765E+03  0.80245016438E+02 -0.58679027000E+03  0.62945921669E+03  0.17200000000E+03 0. -1.
         -6    1    1    2    0  502 -0.12598738765E+03 -0.80245016438E+02  0.48623493688E+03  0.53695483828E+03  0.17200000000E+03 0.  1.
</event>
<event>
 4    1 -0.6963162E-004  0.2001607E+03  0.7818608E-02  0.1149604E+00
          5   -1    0    0  501    0  0.00000000000E+00  0.00000000000E+00  0.15723611307E+03  0.15730634206E+03  0.47000000000E+01 0. -1.
         -5   -1    0    0    0  501 -0.00000000000E+00 -0.00000000000E+00 -0.26129013317E+03  0.26133240077E+03  0.47000000000E+01 0.  1.
          6    1    1    2  502    0 -0.91121953316E+02  0.46659234339E+02 -0.18677263651E+02  0.20103018356E+03  0.17200000000E+03 0.  1.
         -6    1    1    2    0  502  0.91121953316E+02 -0.46659234339E+02 -0.85376756446E+02  0.21760855927E+03  0.17200000000E+03 0.  1.
</event>
<event>
 4    1 -0.6963162E-004  0.2128430E+03  0.7818608E-02  0.1139334E+00
          5   -1    0    0  501    0  0.00000000000E+00  0.00000000000E+00  0.66512300519E+03  0.66513961093E+03  0.47000000000E+01 0. -1.
         -5   -1    0    0    0  501 -0.00000000000E+00 -0.00000000000E+00 -0.16143525010E+03  0.16150365313E+03  0.47000000000E+01 0.  1.
          6    1    1    2  502    0 -0.65302659320E+02 -0.10702206898E+03  0.56613936942E+03  0.60482720356E+03  0.17200000000E+03 0. -1.
         -6    1    1    2    0  502  0.65302659320E+02  0.10702206898E+03 -0.62451614325E+02  0.22181606050E+03  0.17200000000E+03 0.  1.
</event>
<event>
 4    1 -0.6963162E-004  0.2139942E+03  0.7818608E-02  0.1138442E+00
         -5   -1    0    0    0  501 -0.00000000000E+00  0.00000000000E+00  0.68558556483E+03  0.68560167496E+03  0.47000000000E+01 0.  1.
          5   -1    0    0  501    0  0.00000000000E+00 -0.00000000000E+00 -0.27597340835E+03  0.27601342742E+03  0.47000000000E+01 0. -1.
          6    1    1    2  502    0 -0.65451668979E+02  0.10920429292E+03 -0.21380070653E+03  0.30249667878E+03  0.17200000000E+03 0. -1.
         -6    1    1    2    0  502  0.65451668979E+02 -0.10920429292E+03  0.62341286301E+03  0.65911842360E+03  0.17200000000E+03 0.  1.
</event>
<event>
 4    1 -0.6963162E-004  0.2834549E+03  0.7818608E-02  0.1093817E+00
         -5   -1    0    0    0  501 -0.00000000000E+00  0.00000000000E+00  0.31030203901E+03  0.31033763132E+03  0.47000000000E+01 0.  1.
          5   -1    0    0  501    0  0.00000000000E+00 -0.00000000000E+00 -0.84059928151E+03  0.84061242084E+03  0.47000000000E+01 0. -1.
          6    1    1    2  502    0  0.15113567881E+03 -0.16709482007E+03 -0.74386714283E+03  0.79604333958E+03  0.17200000000E+03 0. -1.
         -6    1    1    2    0  502 -0.15113567881E+03  0.16709482007E+03  0.21356990034E+03  0.35490671258E+03  0.17200000000E+03 0.  1.
</event>
<event>
 4    1 -0.6963162E-004  0.2126140E+03  0.7818608E-02  0.1139513E+00
         -5   -1    0    0    0  501 -0.00000000000E+00  0.00000000000E+00  0.19979712316E+03  0.19985239659E+03  0.47000000000E+01 0.  1.
          5   -1    0    0  501    0  0.00000000000E+00 -0.00000000000E+00 -0.45489830587E+03  0.45492258538E+03  0.47000000000E+01 0. -1.
          6    1    1    2  502    0 -0.12494681708E+03 -0.29982976541E+01 -0.35968932922E+03  0.41782904452E+03  0.17200000000E+03 0. -1.
         -6    1    1    2    0  502  0.12494681708E+03  0.29982976541E+01  0.10458814651E+03  0.23694593746E+03  0.17200000000E+03 0.  1.
</event>
<event>
 4    1 -0.6963162E-004  0.2538797E+03  0.7818608E-02  0.1110877E+00
         -5   -1    0    0    0  501 -0.00000000000E+00  0.00000000000E+00  0.39998199234E+03  0.40000960513E+03  0.47000000000E+01 0.  1.
          5   -1    0    0  501    0  0.00000000000E+00 -0.00000000000E+00 -0.36184299031E+03  0.36187351331E+03  0.47000000000E+01 0. -1.
          6    1    1    2  502    0  0.18452573337E+03  0.28655980220E+02 -0.26465507918E+03  0.36673862956E+03  0.17200000000E+03 0. -1.
         -6    1    1    2    0  502 -0.18452573337E+03 -0.28655980220E+02  0.30279408120E+03  0.39514448888E+03  0.17200000000E+03 0.  1.
</event>
<event>
 4    1 -0.6963162E-004  0.1739766E+03  0.7818608E-02  0.1173763E+00
          5   -1    0    0  501    0  0.00000000000E+00  0.00000000000E+00  0.10934940410E+03  0.10945036399E+03  0.47000000000E+01 0. -1.
         -5   -1    0    0    0  501 -0.00000000000E+00 -0.00000000000E+00 -0.34808730324E+03  0.34811903234E+03  0.47000000000E+01 0.  1.
          6    1    1    2  502    0  0.18380877748E+02 -0.18601059995E+02 -0.15673093842E+02  0.17468114372E+03  0.17200000000E+03 0. -1.
         -6    1    1    2    0  502 -0.18380877748E+02  0.18601059995E+02 -0.22306480530E+03  0.28288825261E+03  0.17200000000E+03 0.  1.
</event>
<event>
 4    1 -0.6963162E-004  0.1797114E+03  0.7818608E-02  0.1168083E+00
         -5   -1    0    0    0  501 -0.00000000000E+00  0.00000000000E+00  0.54985923667E+03  0.54987932326E+03  0.47000000000E+01 0.  1.
          5   -1    0    0  501    0  0.00000000000E+00 -0.00000000000E+00 -0.12971666065E+03  0.12980177984E+03  0.47000000000E+01 0. -1.
          6    1    1    2  502    0 -0.16390066110E+02 -0.49432391681E+02 -0.41371515095E+02  0.18441203289E+03  0.17200000000E+03 0. -1.
         -6    1    1    2    0  502  0.16390066110E+02  0.49432391681E+02  0.46151409111E+03  0.49526907021E+03  0.17200000000E+03 0.  1.
</event>
<event>
 4    1 -0.6963162E-004  0.1808837E+03  0.7818608E-02  0.1166951E+00
          5   -1    0    0  501    0  0.00000000000E+00  0.00000000000E+00  0.10188302783E+03  0.10199137885E+03  0.47000000000E+01 0. -1.
         -5   -1    0    0    0  501 -0.00000000000E+00 -0.00000000000E+00 -0.32260886393E+03  0.32264309861E+03  0.47000000000E+01 0.  1.
          6    1    1    2  502    0 -0.29206391605E+02 -0.47769201784E+02 -0.94670060063E+02  0.20416006030E+03  0.17200000000E+03 0.  1.
         -6    1    1    2    0  502  0.29206391605E+02  0.47769201784E+02 -0.12605577604E+03  0.22047441716E+03  0.17200000000E+03 0. -1.
</event>
<event>
 4    1 -0.6963162E-004  0.1939315E+03  0.7818608E-02  0.1154962E+00
          5   -1    0    0  501    0  0.00000000000E+00  0.00000000000E+00  0.25150248005E+03  0.25154639229E+03  0.47000000000E+01 0. -1.
         -5   -1    0    0    0  501 -0.00000000000E+00 -0.00000000000E+00 -0.18981618240E+03  0.18987436135E+03  0.47000000000E+01 0.  1.
          6    1    1    2  502    0 -0.88994955123E+02 -0.10262281337E+02  0.13260053027E+03  0.23493045159E+03  0.17200000000E+03 0. -1.
         -6    1    1    2    0  502  0.88994955123E+02  0.10262281337E+02 -0.70914232611E+02  0.20649030205E+03  0.17200000000E+03 0.  1.
</event>
<event>
 4    1 -0.6963162E-004  0.2228524E+03  0.7818608E-02  0.1131774E+00
         -5   -1    0    0    0  501 -0.00000000000E+00  0.00000000000E+00  0.12352471885E+04  0.12352561300E+04  0.47000000000E+01 0.  1.
          5   -1    0    0  501    0  0.00000000000E+00 -0.00000000000E+00 -0.79004707361E+02  0.79144385683E+02  0.47000000000E+01 0. -1.
          6    1    1    2  502    0  0.25924187949E+00  0.14170076567E+03  0.11732382102E+03  0.25184926678E+03  0.17200000000E+03 0. -1.
         -6    1    1    2    0  502 -0.25924187949E+00 -0.14170076567E+03  0.10389186601E+04  0.10625512489E+04  0.17200000000E+03 0.  1.
</event>
<event>
 4    1 -0.6963162E-004  0.1736968E+03  0.7818608E-02  0.1174047E+00
         -5   -1    0    0    0  501 -0.00000000000E+00  0.00000000000E+00  0.17610537395E+03  0.17616808092E+03  0.47000000000E+01 0.  1.
          5   -1    0    0  501    0  0.00000000000E+00 -0.00000000000E+00 -0.20721700781E+03  0.20727030257E+03  0.47000000000E+01 0. -1.
          6    1    1    2  502    0  0.23702161372E+01 -0.24103230749E+02 -0.95466526804E+02  0.19820303075E+03  0.17200000000E+03 0. -1.
         -6    1    1    2    0  502 -0.23702161372E+01  0.24103230749E+02  0.64354892944E+02  0.18523535274E+03  0.17200000000E+03 0.  1.
</event>
<event>
 4    1 -0.6963162E-004  0.2043219E+03  0.7818608E-02  0.1146143E+00
         -5   -1    0    0    0  501 -0.00000000000E+00  0.00000000000E+00  0.30036666283E+03  0.30040343231E+03  0.47000000000E+01 0.  1.
          5   -1    0    0  501    0  0.00000000000E+00 -0.00000000000E+00 -0.46579925009E+03  0.46582296141E+03  0.47000000000E+01 0. -1.
          6    1    1    2  502    0  0.11020463819E+03  0.42882912289E+01 -0.40363224922E+03  0.45240075633E+03  0.17200000000E+03 0. -1.
         -6    1    1    2    0  502 -0.11020463819E+03 -0.42882912289E+01  0.23819966197E+03  0.31382563739E+03  0.17200000000E+03 0.  1.
</event>
<event>
 4    1 -0.6963162E-004  0.1871197E+03  0.7818608E-02  0.1161085E+00
          5   -1    0    0  501    0  0.00000000000E+00  0.00000000000E+00  0.34726797012E+03  0.34729977408E+03  0.47000000000E+01 0. -1.
         -5   -1    0    0    0  501 -0.00000000000E+00 -0.00000000000E+00 -0.13709304450E+03  0.13717358656E+03  0.47000000000E+01 0.  1.
          6    1    1    2  502    0  0.34149852310E+02 -0.65296009079E+02  0.22977712086E+03  0.29632972595E+03  0.17200000000E+03 0. -1.
         -6    1    1    2    0  502 -0.34149852310E+02  0.65296009079E+02 -0.19602195235E+02  0.18814363468E+03  0.17200000000E+03 0.  1.
</event>
<event>
 4    1 -0.6963162E-004  0.2419686E+03  0.7818608E-02  0.1118488E+00
         -5   -1    0    0    0  501 -0.00000000000E+00  0.00000000000E+00  0.12897016530E+04  0.12897102169E+04  0.47000000000E+01 0.  1.
          5   -1    0    0  501    0  0.00000000000E+00 -0.00000000000E+00 -0.71101656805E+02  0.71256828447E+02  0.47000000000E+01 0. -1.
          6    1    1    2  502    0 -0.48940392769E+02  0.16300198966E+03  0.19971214053E+03  0.31374153336E+03  0.17200000000E+03 0. -1.
         -6    1    1    2    0  502  0.48940392769E+02 -0.16300198966E+03  0.10188878556E+04  0.10472255120E+04  0.17200000000E+03 0.  1.
</event>
<event>
 4    1 -0.6963162E-004  0.1989208E+03  0.7818608E-02  0.1150653E+00
         -5   -1    0    0    0  501 -0.00000000000E+00  0.00000000000E+00  0.15364733072E+03  0.15371919932E+03  0.47000000000E+01 0.  1.
          5   -1    0    0  501    0  0.00000000000E+00 -0.00000000000E+00 -0.30142126710E+03  0.30145790794E+03  0.47000000000E+01 0. -1.
          6    1    1    2  502    0 -0.39375703584E+02 -0.91842528776E+02 -0.16086468346E+03  0.25582600046E+03  0.17200000000E+03 0. -1.
         -6    1    1    2    0  502  0.39375703584E+02  0.91842528776E+02  0.13090747082E+02  0.19935110680E+03  0.17200000000E+03 0.  1.
</event>
<event>
 4    1 -0.6963162E-004  0.2046735E+03  0.7818608E-02  0.1145855E+00
          5   -1    0    0  501    0  0.00000000000E+00  0.00000000000E+00  0.10723838369E+04  0.10723941363E+04  0.47000000000E+01 0. -1.
         -5   -1    0    0    0  501 -0.00000000000E+00 -0.00000000000E+00 -0.84560444453E+02  0.84690960356E+02  0.47000000000E+01 0.  1.
          6    1    1    2  502    0 -0.51093790230E+02  0.98471747333E+02  0.91844249303E+03  0.94097177079E+03  0.17200000000E+03 0. -1.
         -6    1    1    2    0  502  0.51093790230E+02 -0.98471747333E+02  0.69380899402E+02  0.21611332588E+03  0.17200000000E+03 0.  1.
</event>
<event>
 4    1 -0.6963162E-004  0.2163221E+03  0.7818608E-02  0.1136655E+00
          5   -1    0    0  501    0  0.00000000000E+00  0.00000000000E+00  0.77488451608E+02  0.77630858121E+02  0.47000000000E+01 0. -1.
         -5   -1    0    0    0  501 -0.00000000000E+00 -0.00000000000E+00 -0.90031512372E+03  0.90032739156E+03  0.47000000000E+01 0.  1.
          6    1    1    2  502    0  0.13082724296E+03  0.97706782739E+01 -0.13053246876E+03  0.25265383245E+03  0.17200000000E+03 0. -1.
         -6    1    1    2    0  502 -0.13082724296E+03 -0.97706782739E+01 -0.69229420335E+03  0.72530441723E+03  0.17200000000E+03 0.  1.
</event>
<event>
 4    1 -0.6963162E-004  0.1840386E+03  0.7818608E-02  0.1163951E+00
          5   -1    0    0  501    0  0.00000000000E+00  0.00000000000E+00  0.28234225230E+03  0.28238136878E+03  0.47000000000E+01 0. -1.
         -5   -1    0    0    0  501 -0.00000000000E+00 -0.00000000000E+00 -0.92290599188E+03  0.92291795944E+03  0.47000000000E+01 0.  1.
          6    1    1    2  502    0  0.65077947614E+02  0.71457718590E+01  0.24184297261E+03  0.30390496001E+03  0.17200000000E+03 0. -1.
         -6    1    1    2    0  502 -0.65077947614E+02 -0.71457718590E+01 -0.88240671219E+03  0.90139436821E+03  0.17200000000E+03 0.  1.
</event>
<event>
 4    1 -0.6963162E-004  0.1732010E+03  0.7818608E-02  0.1174550E+00
          5   -1    0    0  501    0  0.00000000000E+00  0.00000000000E+00  0.51843764954E+03  0.51845895349E+03  0.47000000000E+01 0. -1.
         -5   -1    0    0    0  501 -0.00000000000E+00 -0.00000000000E+00 -0.68836148683E+02  0.68996415599E+02  0.47000000000E+01 0.  1.
          6    1    1    2  502    0  0.36585641323E+01  0.20029689197E+02  0.34253308940E+03  0.38383263394E+03  0.17200000000E+03 0. -1.
         -6    1    1    2    0  502 -0.36585641323E+01 -0.20029689197E+02  0.10706841145E+03  0.20362273515E+03  0.17200000000E+03 0.  1.
</event>
<event>
 4    1 -0.6963162E-004  0.1957409E+03  0.7818608E-02  0.1153383E+00
         -5   -1    0    0    0  501 -0.00000000000E+00  0.00000000000E+00  0.20133672931E+03  0.20139158018E+03  0.47000000000E+01 0.  1.
          5   -1    0    0  501    0  0.00000000000E+00 -0.00000000000E+00 -0.24081303908E+03  0.24085890017E+03  0.47000000000E+01 0. -1.
          6    1    1    2  502    0  0.36217264351E+02 -0.86132572948E+02 -0.12109953096E+03  0.23017299311E+03  0.17200000000E+03 0. -1.
         -6    1    1    2    0  502 -0.36217264351E+02  0.86132572948E+02  0.81623221180E+02  0.21207748724E+03  0.17200000000E+03 0.  1.
</event>
<event>
 4    1 -0.6963162E-004  0.1855402E+03  0.7818608E-02  0.1162546E+00
         -5   -1    0    0    0  501 -0.00000000000E+00  0.00000000000E+00  0.80846601763E+03  0.80847967919E+03  0.47000000000E+01 0.  1.
          5   -1    0    0  501    0  0.00000000000E+00 -0.00000000000E+00 -0.18565504590E+03  0.18571452843E+03  0.47000000000E+01 0. -1.
          6    1    1    2  502    0 -0.95252050818E+00 -0.69571939287E+02 -0.12499394621E+03  0.22371555293E+03  0.17200000000E+03 0. -1.
         -6    1    1    2    0  502  0.95252050818E+00  0.69571939287E+02  0.74780491795E+03  0.77047865469E+03  0.17200000000E+03 0.  1.
</event>
<event>
 4    1 -0.6963162E-004  0.1790831E+03  0.7818608E-02  0.1168693E+00
         -5   -1    0    0    0  501 -0.00000000000E+00  0.00000000000E+00  0.85752737268E+03  0.85754025264E+03  0.47000000000E+01 0.  1.
          5   -1    0    0  501    0  0.00000000000E+00 -0.00000000000E+00 -0.61809090510E+02  0.61987528340E+02  0.47000000000E+01 0. -1.
          6    1    1    2  502    0 -0.40894867356E+02  0.28537147022E+02  0.10856284664E+03  0.20941979516E+03  0.17200000000E+03 0. -1.
         -6    1    1    2    0  502  0.40894867356E+02 -0.28537147022E+02  0.68715543553E+03  0.71010798581E+03  0.17200000000E+03 0.  1.
</event>
<event>
 4    1 -0.6963162E-004  0.1993521E+03  0.7818608E-02  0.1150287E+00
         -5   -1    0    0    0  501 -0.00000000000E+00  0.00000000000E+00  0.13428498103E+03  0.13436720631E+03  0.47000000000E+01 0.  1.
          5   -1    0    0  501    0  0.00000000000E+00 -0.00000000000E+00 -0.66354088146E+03  0.66355752680E+03  0.47000000000E+01 0. -1.
          6    1    1    2  502    0 -0.95507566164E+02  0.32179962658E+02 -0.56163005804E+03  0.59596104510E+03  0.17200000000E+03 0. -1.
         -6    1    1    2    0  502  0.95507566164E+02 -0.32179962658E+02  0.32374157607E+02  0.20196368800E+03  0.17200000000E+03 0.  1.
</event>
<event>
 4    1 -0.6963162E-004  0.1826367E+03  0.7818608E-02  0.1165275E+00
         -5   -1    0    0    0  501 -0.00000000000E+00  0.00000000000E+00  0.81045113020E+02  0.81181280751E+02  0.47000000000E+01 0.  1.
          5   -1    0    0  501    0  0.00000000000E+00 -0.00000000000E+00 -0.11940476352E+04  0.11940568852E+04  0.47000000000E+01 0. -1.
          6    1    1    2  502    0 -0.28774734414E+02 -0.54260155499E+02 -0.10727919969E+04  0.10882273744E+04  0.17200000000E+03 0. -1.
         -6    1    1    2    0  502  0.28774734414E+02  0.54260155499E+02 -0.40210525291E+02  0.18701079156E+03  0.17200000000E+03 0.  1.
</event>
<event>
 4    1 -0.6963162E-004  0.1744372E+03  0.7818608E-02  0.1173298E+00
          5   -1    0    0  501    0  0.00000000000E+00  0.00000000000E+00  0.31451379525E+03  0.31454891099E+03  0.47000000000E+01 0. -1.
         -5   -1    0    0    0  501 -0.00000000000E+00 -0.00000000000E+00 -0.10045554028E+03  0.10056542932E+03  0.47000000000E+01 0.  1.
          6    1    1    2  502    0 -0.13172245259E+02 -0.25900256284E+02  0.14739969609E+03  0.22837469590E+03  0.17200000000E+03 0. -1.
         -6    1    1    2    0  502  0.13172245259E+02  0.25900256284E+02  0.66658558882E+02  0.18673964441E+03  0.17200000000E+03 0.  1.
</event>
<event>
 4    1 -0.6963162E-004  0.2010431E+03  0.7818608E-02  0.1148862E+00
          5   -1    0    0  501    0  0.00000000000E+00  0.00000000000E+00  0.81515650171E+03  0.81517005114E+03  0.47000000000E+01 0. -1.
         -5   -1    0    0    0  501 -0.00000000000E+00 -0.00000000000E+00 -0.22206989327E+03  0.22211962430E+03  0.47000000000E+01 0.  1.
          6    1    1    2  502    0  0.60229148287E+02  0.84892669113E+02  0.75364617407E+03  0.78000055850E+03  0.17200000000E+03 0. -1.
         -6    1    1    2    0  502 -0.60229148287E+02 -0.84892669113E+02 -0.16055956564E+03  0.25728911693E+03  0.17200000000E+03 0.  1.
</event>
<event>
 4    1 -0.6963162E-004  0.2643192E+03  0.7818608E-02  0.1104576E+00
          5   -1    0    0  501    0  0.00000000000E+00  0.00000000000E+00  0.72912557138E+03  0.72914071950E+03  0.47000000000E+01 0. -1.
         -5   -1    0    0    0  501 -0.00000000000E+00 -0.00000000000E+00 -0.25534529897E+03  0.25538855046E+03  0.47000000000E+01 0.  1.
          6    1    1    2  502    0 -0.13024239335E+03  0.15270086947E+03  0.62599794818E+03  0.67951311075E+03  0.17200000000E+03 0. -1.
         -6    1    1    2    0  502  0.13024239335E+03 -0.15270086947E+03 -0.15221767578E+03  0.30501615921E+03  0.17200000000E+03 0.  1.
</event>
<event>
 4    1 -0.6963162E-004  0.2253321E+03  0.7818608E-02  0.1129969E+00
         -5   -1    0    0    0  501 -0.00000000000E+00  0.00000000000E+00  0.39389069120E+03  0.39391873098E+03  0.47000000000E+01 0.  1.
          5   -1    0    0  501    0  0.00000000000E+00 -0.00000000000E+00 -0.49601186137E+03  0.49603412848E+03  0.47000000000E+01 0. -1.
          6    1    1    2  502    0 -0.13527295872E+03  0.53775472006E+02 -0.43388164282E+03  0.48890475016E+03  0.17200000000E+03 0. -1.
         -6    1    1    2    0  502  0.13527295872E+03 -0.53775472006E+02  0.33176047266E+03  0.40104810930E+03  0.17200000000E+03 0.  1.
</event>
<event>
 4    1 -0.6963162E-004  0.1727587E+03  0.7818608E-02  0.1175001E+00
         -5   -1    0    0    0  501 -0.00000000000E+00  0.00000000000E+00  0.31366293764E+03  0.31369814862E+03  0.47000000000E+01 0.  1.
          5   -1    0    0  501    0  0.00000000000E+00 -0.00000000000E+00 -0.15988438871E+03  0.15995345496E+03  0.47000000000E+01 0. -1.
          6    1    1    2  502    0  0.14907017330E+02 -0.62727498956E+01 -0.73856374510E+02  0.18788382212E+03  0.17200000000E+03 0. -1.
         -6    1    1    2    0  502 -0.14907017330E+02  0.62727498956E+01  0.22763492344E+03  0.28576778147E+03  0.17200000000E+03 0.  1.
</event>
<event>
 4    1 -0.6963162E-004  0.3053439E+03  0.7818608E-02  0.1082599E+00
          5   -1    0    0  501    0  0.00000000000E+00  0.00000000000E+00  0.10563970107E+04  0.10564074660E+04  0.47000000000E+01 0. -1.
         -5   -1    0    0    0  501 -0.00000000000E+00 -0.00000000000E+00 -0.89582459910E+03  0.89583692844E+03  0.47000000000E+01 0.  1.
          6    1    1    2  502    0  0.18351201998E+03  0.17313069292E+03  0.10070788510E+04  0.10523510396E+04  0.17200000000E+03 0. -1.
         -6    1    1    2    0  502 -0.18351201998E+03 -0.17313069292E+03 -0.84650643938E+03  0.89989335492E+03  0.17200000000E+03 0.  1.
</event>
<event>
 4    1 -0.6963162E-004  0.1768464E+03  0.7818608E-02  0.1170890E+00
          5   -1    0    0  501    0  0.00000000000E+00  0.00000000000E+00  0.20698782675E+03  0.20704118050E+03  0.47000000000E+01 0. -1.
         -5   -1    0    0    0  501 -0.00000000000E+00 -0.00000000000E+00 -0.10317063168E+04  0.10317170223E+04  0.47000000000E+01 0.  1.
          6    1    1    2  502    0 -0.27297515230E+02  0.30748818720E+02  0.15988017388E+03  0.23840367906E+03  0.17200000000E+03 0. -1.
         -6    1    1    2    0  502  0.27297515230E+02 -0.30748818720E+02 -0.98459866388E+03  0.10003545237E+04  0.17200000000E+03 0.  1.
</event>
<event>
 4    1 -0.6963162E-004  0.1826305E+03  0.7818608E-02  0.1165281E+00
         -5   -1    0    0    0  501 -0.00000000000E+00  0.00000000000E+00  0.81773377212E+03  0.81774727885E+03  0.47000000000E+01 0.  1.
          5   -1    0    0  501    0  0.00000000000E+00 -0.00000000000E+00 -0.11636753501E+03  0.11646241112E+03  0.47000000000E+01 0. -1.
          6    1    1    2  502    0 -0.52655166531E+02 -0.31580311847E+02 -0.25814566534E+02  0.18444585792E+03  0.17200000000E+03 0. -1.
         -6    1    1    2    0  502  0.52655166531E+02  0.31580311847E+02  0.72718080364E+03  0.74976383205E+03  0.17200000000E+03 0.  1.
</event>
<event>
 4    1 -0.6963162E-004  0.4526527E+03  0.7818608E-02  0.1026934E+00
          5   -1    0    0  501    0  0.00000000000E+00  0.00000000000E+00  0.75364437825E+03  0.75365903356E+03  0.47000000000E+01 0. -1.
         -5   -1    0    0    0  501 -0.00000000000E+00 -0.00000000000E+00 -0.38509034659E+03  0.38511902710E+03  0.47000000000E+01 0.  1.
          6    1    1    2  502    0  0.38648518438E+03  0.16105790934E+03  0.49304439759E+03  0.66931847868E+03  0.17200000000E+03 0. -1.
         -6    1    1    2    0  502 -0.38648518438E+03 -0.16105790934E+03 -0.12449036594E+03  0.46945958198E+03  0.17200000000E+03 0.  1.
</event>
<event>
 4    1 -0.6963162E-004  0.2371044E+03  0.7818608E-02  0.1121737E+00
          5   -1    0    0  501    0  0.00000000000E+00  0.00000000000E+00  0.30474548647E+03  0.30478172767E+03  0.47000000000E+01 0. -1.
         -5   -1    0    0    0  501 -0.00000000000E+00 -0.00000000000E+00 -0.70983497978E+03  0.70985053957E+03  0.47000000000E+01 0.  1.
          6    1    1    2  502    0  0.76160470697E+02 -0.14434022948E+03  0.23390769021E+03  0.33306354752E+03  0.17200000000E+03 0. -1.
         -6    1    1    2    0  502 -0.76160470697E+02  0.14434022948E+03 -0.63899718353E+03  0.68156871972E+03  0.17200000000E+03 0.  1.
</event>
<event>
 4    1 -0.6963162E-004  0.2012489E+03  0.7818608E-02  0.1148690E+00
         -5   -1    0    0    0  501 -0.00000000000E+00  0.00000000000E+00  0.12918191395E+04  0.12918276894E+04  0.47000000000E+01 0.  1.
          5   -1    0    0  501    0  0.00000000000E+00 -0.00000000000E+00 -0.57669701343E+02  0.57860906085E+02  0.47000000000E+01 0. -1.
          6    1    1    2  502    0  0.10039344858E+03  0.28953035044E+02  0.16070128937E+03  0.25753839939E+03  0.17200000000E+03 0. -1.
         -6    1    1    2    0  502 -0.10039344858E+03 -0.28953035044E+02  0.10734481488E+04  0.10921501961E+04  0.17200000000E+03 0.  1.
</event>
<event>
 4    1 -0.6963162E-004  0.1787975E+03  0.7818608E-02  0.1168972E+00
         -5   -1    0    0    0  501 -0.00000000000E+00  0.00000000000E+00  0.37859147541E+03  0.37862064821E+03  0.47000000000E+01 0.  1.
          5   -1    0    0  501    0  0.00000000000E+00 -0.00000000000E+00 -0.49910901244E+03  0.49913114139E+03  0.47000000000E+01 0. -1.
          6    1    1    2  502    0 -0.45677415571E+02 -0.17266368601E+02 -0.46029532531E+03  0.49380192414E+03  0.17200000000E+03 0. -1.
         -6    1    1    2    0  502  0.45677415571E+02  0.17266368601E+02  0.33977778828E+03  0.38394986546E+03  0.17200000000E+03 0.  1.
</event>
<event>
 4    1 -0.6963162E-004  0.2026027E+03  0.7818608E-02  0.1147562E+00
          5   -1    0    0  501    0  0.00000000000E+00  0.00000000000E+00  0.79738560631E+03  0.79739945771E+03  0.47000000000E+01 0. -1.
         -5   -1    0    0    0  501 -0.00000000000E+00 -0.00000000000E+00 -0.37467380470E+03  0.37470328252E+03  0.47000000000E+01 0.  1.
          6    1    1    2  502    0  0.10669590845E+03 -0.89345374042E+01  0.75566399765E+03  0.78235281055E+03  0.17200000000E+03 0. -1.
         -6    1    1    2    0  502 -0.10669590845E+03  0.89345374042E+01 -0.33295219603E+03  0.38974992968E+03  0.17200000000E+03 0.  1.
</event>
<event>
 4    1 -0.6963162E-004  0.4392829E+03  0.7818608E-02  0.1030967E+00
         -5   -1    0    0    0  501 -0.00000000000E+00  0.00000000000E+00  0.17283729229E+03  0.17290118451E+03  0.47000000000E+01 0.  1.
          5   -1    0    0  501    0  0.00000000000E+00 -0.00000000000E+00 -0.11295172457E+04  0.11295270242E+04  0.47000000000E+01 0. -1.
          6    1    1    2  502    0 -0.29299142589E+03 -0.27846270565E+03 -0.54903430451E+03  0.70314160850E+03  0.17200000000E+03 0. -1.
         -6    1    1    2    0  502  0.29299142589E+03  0.27846270565E+03 -0.40764564889E+03  0.59928660017E+03  0.17200000000E+03 0.  1.
</event>
<event>
 4    1 -0.6963162E-004  0.1819783E+03  0.7818608E-02  0.1165902E+00
          5   -1    0    0  501    0  0.00000000000E+00  0.00000000000E+00  0.55241138954E+03  0.55243138333E+03  0.47000000000E+01 0. -1.
         -5   -1    0    0    0  501 -0.00000000000E+00 -0.00000000000E+00 -0.61945204606E+02  0.62123251473E+02  0.47000000000E+01 0.  1.
          6    1    1    2  502    0 -0.47550926618E+02  0.35651197400E+02  0.18861142491E+03  0.26208847381E+03  0.17200000000E+03 0.  1.
         -6    1    1    2    0  502  0.47550926618E+02 -0.35651197400E+02  0.30185476002E+03  0.35246616099E+03  0.17200000000E+03 0.  1.
</event>
<event>
 4    1 -0.6963162E-004  0.2225914E+03  0.7818608E-02  0.1131966E+00
          5   -1    0    0  501    0  0.00000000000E+00  0.00000000000E+00  0.22943591002E+03  0.22948404477E+03  0.47000000000E+01 0. -1.
         -5   -1    0    0    0  501 -0.00000000000E+00 -0.00000000000E+00 -0.36329297084E+03  0.36332337202E+03  0.47000000000E+01 0.  1.
          6    1    1    2  502    0 -0.18547311217E+02 -0.14006763181E+03  0.12187365357E+03  0.25377181023E+03  0.17200000000E+03 0. -1.
         -6    1    1    2    0  502  0.18547311217E+02  0.14006763181E+03 -0.25573071439E+03  0.33903560656E+03  0.17200000000E+03 0.  1.
</event>
<event>
 4    1 -0.6963162E-004  0.2937142E+03  0.7818608E-02  0.1088426E+00
         -5   -1    0    0    0  501 -0.00000000000E+00  0.00000000000E+00  0.96211687674E+03  0.96212835656E+03  0.47000000000E+01 0.  1.
          5   -1    0    0  501    0  0.00000000000E+00 -0.00000000000E+00 -0.12887819771E+03  0.12896387031E+03  0.47000000000E+01 0. -1.
          6    1    1    2  502    0 -0.23064909544E+03  0.59034123563E+02  0.11554695735E+03  0.31562498685E+03  0.17200000000E+03 0. -1.
         -6    1    1    2    0  502  0.23064909544E+03 -0.59034123563E+02  0.71769172168E+03  0.77546724002E+03  0.17200000000E+03 0.  1.
</event>
<event>
 4    1 -0.6963162E-004  0.1950549E+03  0.7818608E-02  0.1153980E+00
         -5   -1    0    0    0  501 -0.00000000000E+00  0.00000000000E+00  0.23471516276E+03  0.23476221508E+03  0.47000000000E+01 0.  1.
          5   -1    0    0  501    0  0.00000000000E+00 -0.00000000000E+00 -0.43624769843E+03  0.43627301588E+03  0.47000000000E+01 0. -1.
          6    1    1    2  502    0  0.38880694801E+02  0.83370957676E+02 -0.36676191913E+03  0.41540429745E+03  0.17200000000E+03 0. -1.
         -6    1    1    2    0  502 -0.38880694801E+02 -0.83370957676E+02  0.16522938346E+03  0.25563093352E+03  0.17200000000E+03 0.  1.
</event>
<event>
 4    1 -0.6963162E-004  0.2875482E+03  0.7818608E-02  0.1091636E+00
         -5   -1    0    0    0  501 -0.00000000000E+00  0.00000000000E+00  0.10466575753E+04  0.10466681278E+04  0.47000000000E+01 0.  1.
          5   -1    0    0  501    0  0.00000000000E+00 -0.00000000000E+00 -0.47722279358E+03  0.47724593734E+03  0.47000000000E+01 0. -1.
          6    1    1    2  502    0  0.55039298454E+02  0.22376466810E+03 -0.41132582441E+03  0.50186939027E+03  0.17200000000E+03 0. -1.
         -6    1    1    2    0  502 -0.55039298454E+02 -0.22376466810E+03  0.98076060609E+03  0.10220446749E+04  0.17200000000E+03 0.  1.
</event>
<event>
 4    1 -0.6963162E-004  0.1758395E+03  0.7818608E-02  0.1171891E+00
          5   -1    0    0  501    0  0.00000000000E+00  0.00000000000E+00  0.61172712823E+03  0.61174518340E+03  0.47000000000E+01 0. -1.
         -5   -1    0    0    0  501 -0.00000000000E+00 -0.00000000000E+00 -0.17808967036E+03  0.17815167889E+03  0.47000000000E+01 0.  1.
          6    1    1    2  502    0  0.21116244402E+01  0.36483998943E+02  0.55107358705E+03  0.57844761170E+03  0.17200000000E+03 0. -1.
         -6    1    1    2    0  502 -0.21116244402E+01 -0.36483998943E+02 -0.11743612918E+03  0.21144925059E+03  0.17200000000E+03 0.  1.
</event>
<event>
 4    1 -0.6963162E-004  0.1925666E+03  0.7818608E-02  0.1156167E+00
         -5   -1    0    0    0  501 -0.00000000000E+00  0.00000000000E+00  0.29601434595E+03  0.29605165598E+03  0.47000000000E+01 0.  1.
          5   -1    0    0  501    0  0.00000000000E+00 -0.00000000000E+00 -0.73286278137E+03  0.73287785225E+03  0.47000000000E+01 0. -1.
          6    1    1    2  502    0  0.58532468557E+02 -0.63811100501E+02 -0.68686632732E+03  0.71334932398E+03  0.17200000000E+03 0. -1.
         -6    1    1    2    0  502 -0.58532468557E+02  0.63811100501E+02  0.25001789189E+03  0.31558018425E+03  0.17200000000E+03 0.  1.
</event>
<event>
 4    1 -0.6963162E-004  0.2716717E+03  0.7818608E-02  0.1100327E+00
         -5   -1    0    0    0  501 -0.00000000000E+00  0.00000000000E+00  0.13876864339E+04  0.13876943932E+04  0.47000000000E+01 0.  1.
          5   -1    0    0  501    0  0.00000000000E+00 -0.00000000000E+00 -0.11309204225E+03  0.11318966393E+03  0.47000000000E+01 0. -1.
          6    1    1    2  502    0 -0.15109626067E+03  0.14625807961E+03  0.90994103609E+02  0.28650555445E+03  0.17200000000E+03 0. -1.
         -6    1    1    2    0  502  0.15109626067E+03 -0.14625807961E+03  0.11836002881E+04  0.12143785027E+04  0.17200000000E+03 0.  1.
</event>
<event>
 4    1 -0.6963162E-004  0.2768547E+03  0.7818608E-02  0.1097419E+00
          5   -1    0    0  501    0  0.00000000000E+00  0.00000000000E+00  0.20762912002E+04  0.20762965198E+04  0.47000000000E+01 0. -1.
         -5   -1    0    0    0  501 -0.00000000000E+00 -0.00000000000E+00 -0.12133192452E+03  0.12142292167E+03  0.47000000000E+01 0.  1.
          6    1    1    2  502    0 -0.20785929160E+03 -0.62121374118E+02  0.18941359810E+04  0.19142621724E+04  0.17200000000E+03 0. -1.
         -6    1    1    2    0  502  0.20785929160E+03  0.62121374118E+02  0.60823294774E+02  0.28345726912E+03  0.17200000000E+03 0.  1.
</event>
<event>
 4    1 -0.6963162E-004  0.1754534E+03  0.7818608E-02  0.1172277E+00
          5   -1    0    0  501    0  0.00000000000E+00  0.00000000000E+00  0.37402341496E+03  0.37405294403E+03  0.47000000000E+01 0. -1.
         -5   -1    0    0    0  501 -0.00000000000E+00 -0.00000000000E+00 -0.25695938255E+03  0.25700236241E+03  0.47000000000E+01 0.  1.
          6    1    1    2  502    0  0.15042880788E+02  0.31202773392E+02  0.31867948253E+03  0.36378635752E+03  0.17200000000E+03 0. -1.
         -6    1    1    2    0  502 -0.15042880788E+02 -0.31202773392E+02 -0.20161545012E+03  0.26726894892E+03  0.17200000000E+03 0.  1.
</event>
<event>
 4    1 -0.6963162E-004  0.1742656E+03  0.7818608E-02  0.1173471E+00
         -5   -1    0    0    0  501 -0.00000000000E+00  0.00000000000E+00  0.55258258392E+03  0.55260257152E+03  0.47000000000E+01 0.  1.
          5   -1    0    0  501    0  0.00000000000E+00 -0.00000000000E+00 -0.61157185956E+02  0.61337520280E+02  0.47000000000E+01 0. -1.
          6    1    1    2  502    0  0.15371075397E+02 -0.23413987119E+02  0.14719155285E+03  0.22810926764E+03  0.17200000000E+03 0. -1.
         -6    1    1    2    0  502 -0.15371075397E+02  0.23413987119E+02  0.34423384511E+03  0.38583082416E+03  0.17200000000E+03 0.  1.
</event>
<event>
 4    1 -0.6963162E-004  0.2249638E+03  0.7818608E-02  0.1130236E+00
          5   -1    0    0  501    0  0.00000000000E+00  0.00000000000E+00  0.41279895944E+02  0.41546598045E+02  0.47000000000E+01 0. -1.
         -5   -1    0    0    0  501 -0.00000000000E+00 -0.00000000000E+00 -0.12415062860E+04  0.12415151824E+04  0.47000000000E+01 0.  1.
          6    1    1    2  502    0  0.10677596053E+03 -0.98099903685E+02 -0.51923577837E+03  0.56587497770E+03  0.17200000000E+03 0.  1.
         -6    1    1    2    0  502 -0.10677596053E+03  0.98099903685E+02 -0.68099061165E+03  0.71718680272E+03  0.17200000000E+03 0.  1.
</event>
<event>
 4    1 -0.6963162E-004  0.2273721E+03  0.7818608E-02  0.1128503E+00
          5   -1    0    0  501    0  0.00000000000E+00  0.00000000000E+00  0.27495887577E+03  0.27499904248E+03  0.47000000000E+01 0. -1.
         -5   -1    0    0    0  501 -0.00000000000E+00 -0.00000000000E+00 -0.39329222597E+03  0.39332030841E+03  0.47000000000E+01 0.  1.
          6    1    1    2  502    0 -0.21484346111E+02  0.14714780214E+03  0.18226947145E+03  0.29141072908E+03  0.17200000000E+03 0. -1.
         -6    1    1    2    0  502  0.21484346111E+02 -0.14714780214E+03 -0.30060282165E+03  0.37690862180E+03  0.17200000000E+03 0.  1.
</event>
<event>
 4    1 -0.6963162E-004  0.2624711E+03  0.7818608E-02  0.1105668E+00
         -5   -1    0    0    0  501 -0.00000000000E+00  0.00000000000E+00  0.18349119757E+03  0.18355138133E+03  0.47000000000E+01 0.  1.
          5   -1    0    0  501    0  0.00000000000E+00 -0.00000000000E+00 -0.51842997450E+03  0.51845127877E+03  0.47000000000E+01 0. -1.
          6    1    1    2  502    0  0.16879894076E+03  0.10399033314E+03 -0.35187681578E+03  0.43898560941E+03  0.17200000000E+03 0. -1.
         -6    1    1    2    0  502 -0.16879894076E+03 -0.10399033314E+03  0.16938038851E+02  0.26301705068E+03  0.17200000000E+03 0.  1.
</event>
<event>
 4    1 -0.6963162E-004  0.3381660E+03  0.7818608E-02  0.1067580E+00
          5   -1    0    0  501    0  0.00000000000E+00  0.00000000000E+00  0.46439813222E+03  0.46442191508E+03  0.47000000000E+01 0. -1.
         -5   -1    0    0    0  501 -0.00000000000E+00 -0.00000000000E+00 -0.24619390329E+03  0.24623876221E+03  0.47000000000E+01 0.  1.
          6    1    1    2  502    0 -0.23299068250E+03 -0.17460700941E+03  0.10945426017E+03  0.35543846294E+03  0.17200000000E+03 0. -1.
         -6    1    1    2    0  502  0.23299068250E+03  0.17460700941E+03  0.10874996876E+03  0.35522221435E+03  0.17200000000E+03 0.  1.
</event>
<event>
 4    1 -0.6963162E-004  0.2918927E+03  0.7818608E-02  0.1089365E+00
          5   -1    0    0  501    0  0.00000000000E+00  0.00000000000E+00  0.30110611582E+03  0.30114279501E+03  0.47000000000E+01 0. -1.
         -5   -1    0    0    0  501 -0.00000000000E+00 -0.00000000000E+00 -0.58342880178E+03  0.58344773266E+03  0.47000000000E+01 0.  1.
          6    1    1    2  502    0 -0.16945546937E+03  0.16401892932E+03  0.17626704570E+03  0.34098597724E+03  0.17200000000E+03 0. -1.
         -6    1    1    2    0  502  0.16945546937E+03 -0.16401892932E+03 -0.45858973165E+03  0.54360455043E+03  0.17200000000E+03 0.  1.
</event>
<event>
 4    1 -0.6963162E-004  0.1991241E+03  0.7818608E-02  0.1150480E+00
         -5   -1    0    0    0  501 -0.00000000000E+00  0.00000000000E+00  0.14354021899E+04  0.14354098846E+04  0.47000000000E+01 0.  1.
          5   -1    0    0  501    0  0.00000000000E+00 -0.00000000000E+00 -0.92407868074E+02  0.92527315329E+02  0.47000000000E+01 0. -1.
          6    1    1    2  502    0  0.23007575499E+02  0.97657905211E+02  0.31725704574E+02  0.20163564990E+03  0.17200000000E+03 0. -1.
         -6    1    1    2    0  502 -0.23007575499E+02 -0.97657905211E+02  0.13112686173E+04  0.13263015500E+04  0.17200000000E+03 0.  1.
</event>
<event>
 4    1 -0.6963162E-004  0.1841386E+03  0.7818608E-02  0.1163857E+00
          5   -1    0    0  501    0  0.00000000000E+00  0.00000000000E+00  0.95800782111E+02  0.95916004155E+02  0.47000000000E+01 0. -1.
         -5   -1    0    0    0  501 -0.00000000000E+00 -0.00000000000E+00 -0.48455634732E+03  0.48457914083E+03  0.47000000000E+01 0.  1.
          6    1    1    2  502    0  0.54939933938E+02  0.36119874919E+02 -0.43503996462E+02  0.18920792640E+03  0.17200000000E+03 0. -1.
         -6    1    1    2    0  502 -0.54939933938E+02 -0.36119874919E+02 -0.34525156875E+03  0.39128721859E+03  0.17200000000E+03 0.  1.
</event>
<event>
 4    1 -0.6963162E-004  0.2455296E+03  0.7818608E-02  0.1116163E+00
         -5   -1    0    0    0  501 -0.00000000000E+00  0.00000000000E+00  0.87553013147E+02  0.87679074534E+02  0.47000000000E+01 0.  1.
          5   -1    0    0  501    0  0.00000000000E+00 -0.00000000000E+00 -0.71626047796E+03  0.71627589816E+03  0.47000000000E+01 0. -1.
          6    1    1    2  502    0 -0.95213646934E+02 -0.14708884478E+03 -0.23440523667E+03  0.33945630323E+03  0.17200000000E+03 0. -1.
         -6    1    1    2    0  502  0.95213646934E+02  0.14708884478E+03 -0.39430222814E+03  0.46449866947E+03  0.17200000000E+03 0.  1.
</event>
<event>
 4    1 -0.6963162E-004  0.2347498E+03  0.7818608E-02  0.1123341E+00
         -5   -1    0    0    0  501 -0.00000000000E+00  0.00000000000E+00  0.10770067069E+03  0.10780317466E+03  0.47000000000E+01 0.  1.
          5   -1    0    0  501    0  0.00000000000E+00 -0.00000000000E+00 -0.57615645767E+03  0.57617562749E+03  0.47000000000E+01 0. -1.
          6    1    1    2  502    0  0.41713667507E+02 -0.15421873074E+03 -0.34894297855E+03  0.42055754570E+03  0.17200000000E+03 0. -1.
         -6    1    1    2    0  502 -0.41713667507E+02  0.15421873074E+03 -0.11951280844E+03  0.26342125645E+03  0.17200000000E+03 0.  1.
</event>
<event>
 4    1 -0.6963162E-004  0.1875379E+03  0.7818608E-02  0.1160701E+00
          5   -1    0    0  501    0  0.00000000000E+00  0.00000000000E+00  0.63554453035E+03  0.63556190891E+03  0.47000000000E+01 0. -1.
         -5   -1    0    0    0  501 -0.00000000000E+00 -0.00000000000E+00 -0.55392441349E+02  0.55591479190E+02  0.47000000000E+01 0.  1.
          6    1    1    2  502    0  0.26252366909E+02 -0.69980509703E+02  0.30925668059E+03  0.36167686268E+03  0.17200000000E+03 0.  1.
         -6    1    1    2    0  502 -0.26252366909E+02  0.69980509703E+02  0.27089540841E+03  0.32947652542E+03  0.17200000000E+03 0.  1.
</event>
<event>
 4    1 -0.6963162E-004  0.2345877E+03  0.7818608E-02  0.1123452E+00
         -5   -1    0    0    0  501 -0.00000000000E+00  0.00000000000E+00  0.22988922959E+03  0.22993726945E+03  0.47000000000E+01 0.  1.
          5   -1    0    0  501    0  0.00000000000E+00 -0.00000000000E+00 -0.94517771387E+03  0.94518939943E+03  0.47000000000E+01 0. -1.
          6    1    1    2  502    0  0.24293806371E+02  0.15766161553E+03 -0.86539351472E+03  0.89662551233E+03  0.17200000000E+03 0. -1.
         -6    1    1    2    0  502 -0.24293806371E+02 -0.15766161553E+03  0.15010503044E+03  0.27850115656E+03  0.17200000000E+03 0.  1.
</event>
<event>
 4    1 -0.6963162E-004  0.2518300E+03  0.7818608E-02  0.1112154E+00
          5   -1    0    0  501    0  0.00000000000E+00  0.00000000000E+00  0.19077181473E+04  0.19077239369E+04  0.47000000000E+01 0. -1.
         -5   -1    0    0    0  501 -0.00000000000E+00 -0.00000000000E+00 -0.46299915726E+02  0.46537857667E+02  0.47000000000E+01 0.  1.
          6    1    1    2  502    0 -0.17289399290E+03 -0.62785609937E+02  0.14513804534E+04  0.14730660495E+04  0.17200000000E+03 0. -1.
         -6    1    1    2    0  502  0.17289399290E+03  0.62785609937E+02  0.41003777817E+03  0.48119574512E+03  0.17200000000E+03 0.  1.
</event>
<event>
 4    1 -0.6963162E-004  0.2125216E+03  0.7818608E-02  0.1139585E+00
         -5   -1    0    0    0  501 -0.00000000000E+00  0.00000000000E+00  0.39462631495E+03  0.39465430246E+03  0.47000000000E+01 0.  1.
          5   -1    0    0  501    0  0.00000000000E+00 -0.00000000000E+00 -0.39819335885E+03  0.39822109567E+03  0.47000000000E+01 0. -1.
          6    1    1    2  502    0  0.51038207816E+02  0.11391458101E+03 -0.33644231035E+03  0.39794328568E+03  0.17200000000E+03 0. -1.
         -6    1    1    2    0  502 -0.51038207816E+02 -0.11391458101E+03  0.33287526645E+03  0.39493211245E+03  0.17200000000E+03 0.  1.
</event>
<event>
 4    1 -0.6963162E-004  0.3685606E+03  0.7818608E-02  0.1055245E+00
          5   -1    0    0  501    0  0.00000000000E+00  0.00000000000E+00  0.85477365187E+03  0.85478657332E+03  0.47000000000E+01 0. -1.
         -5   -1    0    0    0  501 -0.00000000000E+00 -0.00000000000E+00 -0.41654199019E+03  0.41656850529E+03  0.47000000000E+01 0.  1.
          6    1    1    2  502    0  0.32467242753E+03 -0.28995379915E+02  0.71904908758E+03  0.80800278936E+03  0.17200000000E+03 0. -1.
         -6    1    1    2    0  502 -0.32467242753E+03  0.28995379915E+02 -0.28081742591E+03  0.46335228925E+03  0.17200000000E+03 0.  1.
</event>
<event>
 4    1 -0.6963162E-004  0.2491369E+03  0.7818608E-02  0.1113852E+00
          5   -1    0    0  501    0  0.00000000000E+00  0.00000000000E+00  0.20786780380E+03  0.20792093174E+03  0.47000000000E+01 0. -1.
         -5   -1    0    0    0  501 -0.00000000000E+00 -0.00000000000E+00 -0.39432909693E+03  0.39435710554E+03  0.47000000000E+01 0.  1.
          6    1    1    2  502    0 -0.40582451168E+02  0.17560822544E+03  0.55213432863E+02  0.25518171438E+03  0.17200000000E+03 0. -1.
         -6    1    1    2    0  502  0.40582451168E+02 -0.17560822544E+03 -0.24167472600E+03  0.34709632290E+03  0.17200000000E+03 0.  1.
</event>
<event>
 4    1 -0.6963162E-004  0.2004136E+03  0.7818608E-02  0.1149390E+00
         -5   -1    0    0    0  501 -0.00000000000E+00  0.00000000000E+00  0.88753374420E+03  0.88754618871E+03  0.47000000000E+01 0.  1.
          5   -1    0    0  501    0  0.00000000000E+00 -0.00000000000E+00 -0.14354272265E+03  0.14361964778E+03  0.47000000000E+01 0. -1.
          6    1    1    2  502    0  0.27519204119E+02 -0.99117695516E+02 -0.54675368184E+02  0.20773786378E+03  0.17200000000E+03 0. -1.
         -6    1    1    2    0  502 -0.27519204119E+02  0.99117695516E+02  0.79866638973E+03  0.82342797271E+03  0.17200000000E+03 0.  1.
</event>
<event>
 4    1 -0.6963162E-004  0.3725721E+03  0.7818608E-02  0.1053714E+00
         -5   -1    0    0    0  501 -0.00000000000E+00  0.00000000000E+00  0.35206791795E+03  0.35209928834E+03  0.47000000000E+01 0.  1.
          5   -1    0    0  501    0  0.00000000000E+00 -0.00000000000E+00 -0.16770216446E+04  0.16770282306E+04  0.47000000000E+01 0. -1.
          6    1    1    2  502    0  0.19586715899E+03 -0.26619918743E+03 -0.15498077316E+04  0.15939617173E+04  0.17200000000E+03 0. -1.
         -6    1    1    2    0  502 -0.19586715899E+03  0.26619918743E+03  0.22485400499E+03  0.43516580164E+03  0.17200000000E+03 0.  1.
</event>
<event>
 4    1 -0.6963162E-004  0.1918071E+03  0.7818608E-02  0.1156841E+00
          5   -1    0    0  501    0  0.00000000000E+00  0.00000000000E+00  0.66671793946E+03  0.66673450548E+03  0.47000000000E+01 0. -1.
         -5   -1    0    0    0  501 -0.00000000000E+00 -0.00000000000E+00 -0.64177633577E+02  0.64349503895E+02  0.47000000000E+01 0.  1.
          6    1    1    2  502    0  0.67146510742E+02 -0.51935737888E+02  0.43880794642E+03  0.47889705430E+03  0.17200000000E+03 0. -1.
         -6    1    1    2    0  502 -0.67146510742E+02  0.51935737888E+02  0.16373235946E+03  0.25218695507E+03  0.17200000000E+03 0.  1.
</event>
<event>
 4    1 -0.6963162E-004  0.1973187E+03  0.7818608E-02  0.1152021E+00
          5   -1    0    0  501    0  0.00000000000E+00  0.00000000000E+00  0.26804180127E+03  0.26808300437E+03  0.47000000000E+01 0. -1.
         -5   -1    0    0    0  501 -0.00000000000E+00 -0.00000000000E+00 -0.21698285960E+03  0.21703375627E+03  0.47000000000E+01 0.  1.
          6    1    1    2  502    0  0.96698323794E+02  0.34570122044E+00  0.16504198954E+03  0.25724218870E+03  0.17200000000E+03 0. -1.
         -6    1    1    2    0  502 -0.96698323794E+02 -0.34570122044E+00 -0.11398304787E+03  0.22787457194E+03  0.17200000000E+03 0.  1.
</event>
<event>
 4    1 -0.6963162E-004  0.2033950E+03  0.7818608E-02  0.1146906E+00
         -5   -1    0    0    0  501 -0.00000000000E+00  0.00000000000E+00  0.12117787236E+03  0.12126898511E+03  0.47000000000E+01 0.  1.
          5   -1    0    0  501    0  0.00000000000E+00 -0.00000000000E+00 -0.52806978604E+03  0.52809070142E+03  0.47000000000E+01 0. -1.
          6    1    1    2  502    0 -0.67373988569E+02 -0.85125082041E+02 -0.39658844875E+03  0.44570386089E+03  0.17200000000E+03 0. -1.
         -6    1    1    2    0  502  0.67373988569E+02  0.85125082041E+02 -0.10303464926E+02  0.20365582564E+03  0.17200000000E+03 0.  1.
</event>
<event>
 4    1 -0.6963162E-004  0.1767212E+03  0.7818608E-02  0.1171015E+00
         -5   -1    0    0    0  501 -0.00000000000E+00  0.00000000000E+00  0.30217332195E+03  0.30220987161E+03  0.47000000000E+01 0.  1.
          5   -1    0    0  501    0  0.00000000000E+00 -0.00000000000E+00 -0.19594206114E+03  0.19599842173E+03  0.47000000000E+01 0. -1.
          6    1    1    2  502    0  0.30100143951E+02  0.27209632121E+02 -0.11815886778E+03  0.21258386764E+03  0.17200000000E+03 0. -1.
         -6    1    1    2    0  502 -0.30100143951E+02 -0.27209632121E+02  0.22439012860E+03  0.28562442571E+03  0.17200000000E+03 0.  1.
</event>
<event>
 4    1 -0.6963162E-004  0.2250653E+03  0.7818608E-02  0.1130162E+00
          5   -1    0    0  501    0  0.00000000000E+00  0.00000000000E+00  0.74835685972E+03  0.74837161858E+03  0.47000000000E+01 0. -1.
         -5   -1    0    0    0  501 -0.00000000000E+00 -0.00000000000E+00 -0.32379402145E+03  0.32382813084E+03  0.47000000000E+01 0.  1.
          6    1    1    2  502    0  0.10649614071E+03  0.98635448740E+02  0.68907219430E+03  0.72489645378E+03  0.17200000000E+03 0. -1.
         -6    1    1    2    0  502 -0.10649614071E+03 -0.98635448740E+02 -0.26450935603E+03  0.34730329564E+03  0.17200000000E+03 0.  1.
</event>
<event>
 4    1 -0.6963162E-004  0.1846724E+03  0.7818608E-02  0.1163356E+00
          5   -1    0    0  501    0  0.00000000000E+00  0.00000000000E+00  0.14466274190E+03  0.14473907176E+03  0.47000000000E+01 0. -1.
         -5   -1    0    0    0  501 -0.00000000000E+00 -0.00000000000E+00 -0.29767123928E+03  0.29770834166E+03  0.47000000000E+01 0.  1.
          6    1    1    2  502    0 -0.61900335823E+02  0.26234332248E+02  0.24507617567E+02  0.18629147882E+03  0.17200000000E+03 0. -1.
         -6    1    1    2    0  502  0.61900335823E+02 -0.26234332248E+02 -0.17751611495E+03  0.25615593460E+03  0.17200000000E+03 0.  1.
</event>
<event>
 4    1 -0.6963162E-004  0.1960456E+03  0.7818608E-02  0.1153119E+00
          5   -1    0    0  501    0  0.00000000000E+00  0.00000000000E+00  0.77781753630E+03  0.77783173616E+03  0.47000000000E+01 0. -1.
         -5   -1    0    0    0  501 -0.00000000000E+00 -0.00000000000E+00 -0.76029284631E+02  0.76174419076E+02  0.47000000000E+01 0.  1.
          6    1    1    2  502    0  0.50608481220E+02 -0.79301091254E+02  0.60381306564E+03  0.63484179106E+03  0.17200000000E+03 0. -1.
         -6    1    1    2    0  502 -0.50608481220E+02  0.79301091254E+02  0.97975186034E+02  0.21916436417E+03  0.17200000000E+03 0.  1.
</event>
<event>
 4    1 -0.6963162E-004  0.2357824E+03  0.7818608E-02  0.1122635E+00
         -5   -1    0    0    0  501 -0.00000000000E+00  0.00000000000E+00  0.30546832827E+03  0.30550448373E+03  0.47000000000E+01 0.  1.
          5   -1    0    0  501    0  0.00000000000E+00 -0.00000000000E+00 -0.18426828879E+03  0.18432821882E+03  0.47000000000E+01 0. -1.
          6    1    1    2  502    0 -0.15048217808E+03 -0.58003964541E+02  0.32938575010E+02  0.23807203856E+03  0.17200000000E+03 0. -1.
         -6    1    1    2    0  502  0.15048217808E+03  0.58003964541E+02  0.88261464472E+02  0.25176066399E+03  0.17200000000E+03 0.  1.
</event>
<event>
 4    1 -0.6963162E-004  0.1871326E+03  0.7818608E-02  0.1161073E+00
          5   -1    0    0  501    0  0.00000000000E+00  0.00000000000E+00  0.39215687299E+03  0.39218503673E+03  0.47000000000E+01 0. -1.
         -5   -1    0    0    0  501 -0.00000000000E+00 -0.00000000000E+00 -0.12598356270E+03  0.12607120239E+03  0.47000000000E+01 0.  1.
          6    1    1    2  502    0  0.55273054752E+02  0.48780118942E+02  0.27302250501E+03  0.33099833660E+03  0.17200000000E+03 0. -1.
         -6    1    1    2    0  502 -0.55273054752E+02 -0.48780118942E+02 -0.68491947297E+01  0.18725790251E+03  0.17200000000E+03 0.  1.
</event>
<event>
 4    1 -0.6963162E-004  0.2877855E+03  0.7818608E-02  0.1091511E+00
         -5   -1    0    0    0  501 -0.00000000000E+00  0.00000000000E+00  0.10834379383E+04  0.10834481326E+04  0.47000000000E+01 0.  1.
          5   -1    0    0  501    0  0.00000000000E+00 -0.00000000000E+00 -0.10168384333E+03  0.10179240637E+03  0.47000000000E+01 0. -1.
          6    1    1    2  502    0 -0.23022196836E+03 -0.15308489736E+02  0.19532923314E+03  0.34781318821E+03  0.17200000000E+03 0. -1.
         -6    1    1    2    0  502  0.23022196836E+03  0.15308489736E+02  0.78642486180E+03  0.83742735078E+03  0.17200000000E+03 0.  1.
</event>
<event>
 4    1 -0.6963162E-004  0.2083165E+03  0.7818608E-02  0.1142906E+00
         -5   -1    0    0    0  501 -0.00000000000E+00  0.00000000000E+00  0.71577390324E+03  0.71578933392E+03  0.47000000000E+01 0.  1.
          5   -1    0    0  501    0  0.00000000000E+00 -0.00000000000E+00 -0.16061914225E+03  0.16068789269E+03  0.47000000000E+01 0. -1.
          6    1    1    2  502    0  0.31439707023E+02 -0.11323998675E+03 -0.68231037665E+02  0.21920589472E+03  0.17200000000E+03 0. -1.
         -6    1    1    2    0  502 -0.31439707023E+02  0.11323998675E+03  0.62338579865E+03  0.65727133190E+03  0.17200000000E+03 0.  1.
</event>
<event>
 4    1 -0.6963162E-004  0.1846209E+03  0.7818608E-02  0.1163404E+00
          5   -1    0    0  501    0  0.00000000000E+00  0.00000000000E+00  0.14877261268E+03  0.14884683498E+03  0.47000000000E+01 0. -1.
         -5   -1    0    0    0  501 -0.00000000000E+00 -0.00000000000E+00 -0.70495235158E+03  0.70496801913E+03  0.47000000000E+01 0.  1.
          6    1    1    2  502    0 -0.45971223049E+02 -0.48862133554E+02  0.72682143889E+02  0.19841258903E+03  0.17200000000E+03 0. -1.
         -6    1    1    2    0  502  0.45971223049E+02  0.48862133554E+02 -0.62886188280E+03  0.65540226508E+03  0.17200000000E+03 0.  1.
</event>
<event>
 4    1 -0.6963162E-004  0.2205127E+03  0.7818608E-02  0.1133501E+00
          5   -1    0    0  501    0  0.00000000000E+00  0.00000000000E+00  0.10788163311E+04  0.10788265692E+04  0.47000000000E+01 0. -1.
         -5   -1    0    0    0  501 -0.00000000000E+00 -0.00000000000E+00 -0.29782701483E+03  0.29786409781E+03  0.47000000000E+01 0.  1.
          6    1    1    2  502    0 -0.84878379648E+02 -0.10880039010E+03  0.10246227396E+04  0.10480828320E+04  0.17200000000E+03 0. -1.
         -6    1    1    2    0  502  0.84878379648E+02  0.10880039010E+03 -0.24363342333E+03  0.32860783494E+03  0.17200000000E+03 0.  1.
</event>
<event>
 4    1 -0.6963162E-004  0.2028804E+03  0.7818608E-02  0.1147331E+00
          5   -1    0    0  501    0  0.00000000000E+00  0.00000000000E+00  0.66140908567E+02  0.66307690248E+02  0.47000000000E+01 0. -1.
         -5   -1    0    0    0  501 -0.00000000000E+00 -0.00000000000E+00 -0.76929129123E+03  0.76930564847E+03  0.47000000000E+01 0.  1.
          6    1    1    2  502    0  0.10423719366E+03 -0.26665586966E+02 -0.16837942159E+03  0.26365142838E+03  0.17200000000E+03 0. -1.
         -6    1    1    2    0  502 -0.10423719366E+03  0.26665586966E+02 -0.53477096108E+03  0.57196191034E+03  0.17200000000E+03 0.  1.
</event>
<event>
 4    1 -0.6963162E-004  0.1759228E+03  0.7818608E-02  0.1171808E+00
          5   -1    0    0  501    0  0.00000000000E+00  0.00000000000E+00  0.35366533463E+03  0.35369656334E+03  0.47000000000E+01 0. -1.
         -5   -1    0    0    0  501 -0.00000000000E+00 -0.00000000000E+00 -0.14194601986E+03  0.14202380982E+03  0.47000000000E+01 0.  1.
          6    1    1    2  502    0  0.32511526875E+02 -0.17545146394E+02  0.25942060712E+03  0.31344518331E+03  0.17200000000E+03 0. -1.
         -6    1    1    2    0  502 -0.32511526875E+02  0.17545146394E+02 -0.47701292354E+02  0.18227518985E+03  0.17200000000E+03 0.  1.
</event>
<event>
 4    1 -0.6963162E-004  0.1743312E+03  0.7818608E-02  0.1173405E+00
          5   -1    0    0  501    0  0.00000000000E+00  0.00000000000E+00  0.30503280318E+03  0.30506901026E+03  0.47000000000E+01 0. -1.
         -5   -1    0    0    0  501 -0.00000000000E+00 -0.00000000000E+00 -0.23517671583E+03  0.23522367582E+03  0.47000000000E+01 0.  1.
          6    1    1    2  502    0  0.19482957182E+02  0.20682888262E+02  0.24004020533E+03  0.29666591928E+03  0.17200000000E+03 0. -1.
         -6    1    1    2    0  502 -0.19482957182E+02 -0.20682888262E+02 -0.17018411798E+03  0.24362676680E+03  0.17200000000E+03 0.  1.
</event>
<event>
 4    1 -0.6963162E-004  0.2269309E+03  0.7818608E-02  0.1128819E+00
          5   -1    0    0  501    0  0.00000000000E+00  0.00000000000E+00  0.41526409060E+03  0.41529068728E+03  0.47000000000E+01 0. -1.
         -5   -1    0    0    0  501 -0.00000000000E+00 -0.00000000000E+00 -0.19070604431E+03  0.19076395188E+03  0.47000000000E+01 0.  1.
          6    1    1    2  502    0  0.42437965878E+02  0.14181904362E+03  0.29153531073E+03  0.36944615234E+03  0.17200000000E+03 0. -1.
         -6    1    1    2    0  502 -0.42437965878E+02 -0.14181904362E+03 -0.66977264440E+02  0.23660848681E+03  0.17200000000E+03 0.  1.
</event>
<event>
 4    1 -0.6963162E-004  0.1757756E+03  0.7818608E-02  0.1171955E+00
          5   -1    0    0  501    0  0.00000000000E+00  0.00000000000E+00  0.13208057247E+04  0.13208140870E+04  0.47000000000E+01 0. -1.
         -5   -1    0    0    0  501 -0.00000000000E+00 -0.00000000000E+00 -0.75674941236E+02  0.75820753960E+02  0.47000000000E+01 0.  1.
          6    1    1    2  502    0  0.32708053463E+02  0.15596272286E+02  0.12031411726E+04  0.12159135420E+04  0.17200000000E+03 0. -1.
         -6    1    1    2    0  502 -0.32708053463E+02 -0.15596272286E+02  0.41989610879E+02  0.18072129894E+03  0.17200000000E+03 0.  1.
</event>
<event>
 4    1 -0.6963162E-004  0.2233652E+03  0.7818608E-02  0.1131399E+00
          5   -1    0    0  501    0  0.00000000000E+00  0.00000000000E+00  0.56901665344E+03  0.56903606379E+03  0.47000000000E+01 0. -1.
         -5   -1    0    0    0  501 -0.00000000000E+00 -0.00000000000E+00 -0.24484614753E+03  0.24489125334E+03  0.47000000000E+01 0.  1.
          6    1    1    2  502    0  0.14189956435E+03  0.13134210648E+02  0.48815449127E+03  0.53683032813E+03  0.17200000000E+03 0. -1.
         -6    1    1    2    0  502 -0.14189956435E+03 -0.13134210648E+02 -0.16398398537E+03  0.27709698899E+03  0.17200000000E+03 0.  1.
</event>
<event>
 4    1 -0.6963162E-004  0.1819058E+03  0.7818608E-02  0.1165971E+00
          5   -1    0    0  501    0  0.00000000000E+00  0.00000000000E+00  0.17236775264E+03  0.17243181884E+03  0.47000000000E+01 0. -1.
         -5   -1    0    0    0  501 -0.00000000000E+00 -0.00000000000E+00 -0.96866128516E+03  0.96867268742E+03  0.47000000000E+01 0.  1.
          6    1    1    2  502    0 -0.21419442162E+02 -0.55198872365E+02  0.11276636824E+03  0.21402327401E+03  0.17200000000E+03 0. -1.
         -6    1    1    2    0  502  0.21419442162E+02  0.55198872365E+02 -0.90905990077E+03  0.92708123225E+03  0.17200000000E+03 0.  1.
</event>
<event>
 4    1 -0.6963162E-004  0.2021561E+03  0.7818608E-02  0.1147933E+00
         -5   -1    0    0    0  501 -0.00000000000E+00  0.00000000000E+00  0.62938163994E+03  0.62939918867E+03  0.47000000000E+01 0.  1.
          5   -1    0    0  501    0  0.00000000000E+00 -0.00000000000E+00 -0.80501691907E+02  0.80638777272E+02  0.47000000000E+01 0. -1.
          6    1    1    2  502    0 -0.69460827828E+02  0.80363421472E+02  0.11795767066E+03  0.23405362245E+03  0.17200000000E+03 0. -1.
         -6    1    1    2    0  502  0.69460827828E+02 -0.80363421472E+02  0.43092227737E+03  0.47598434349E+03  0.17200000000E+03 0.  1.
</event>
<event>
 4    1 -0.6963162E-004  0.2254573E+03  0.7818608E-02  0.1129879E+00
          5   -1    0    0  501    0  0.00000000000E+00  0.00000000000E+00  0.14224772620E+04  0.14224850266E+04  0.47000000000E+01 0. -1.
         -5   -1    0    0    0  501 -0.00000000000E+00 -0.00000000000E+00 -0.37600420008E+02  0.37893028182E+02  0.47000000000E+01 0.  1.
          6    1    1    2  502    0  0.13931673522E+03 -0.42870312935E+02  0.86135550480E+03  0.89037313644E+03  0.17200000000E+03 0. -1.
         -6    1    1    2    0  502 -0.13931673522E+03  0.42870312935E+02  0.52352133719E+03  0.57000491834E+03  0.17200000000E+03 0.  1.
</event>
<event>
 4    1 -0.6963162E-004  0.2393873E+03  0.7818608E-02  0.1120202E+00
         -5   -1    0    0    0  501 -0.00000000000E+00  0.00000000000E+00  0.34154545541E+03  0.34157779218E+03  0.47000000000E+01 0.  1.
          5   -1    0    0  501    0  0.00000000000E+00 -0.00000000000E+00 -0.38874686087E+03  0.38877527163E+03  0.47000000000E+01 0. -1.
          6    1    1    2  502    0  0.50105398647E+02 -0.15878200500E+03 -0.29893188933E+03  0.38297069150E+03  0.17200000000E+03 0. -1.
         -6    1    1    2    0  502 -0.50105398647E+02  0.15878200500E+03  0.25173048388E+03  0.34738237232E+03  0.17200000000E+03 0.  1.
</event>
<event>
 4    1 -0.6963162E-004  0.2149100E+03  0.7818608E-02  0.1137736E+00
         -5   -1    0    0    0  501 -0.00000000000E+00  0.00000000000E+00  0.74857140270E+02  0.75004542858E+02  0.47000000000E+01 0.  1.
          5   -1    0    0  501    0  0.00000000000E+00 -0.00000000000E+00 -0.14796693564E+04  0.14796768209E+04  0.47000000000E+01 0. -1.
          6    1    1    2  502    0  0.82023951764E+02 -0.99369938540E+02 -0.12961806915E+04  0.13138762112E+04  0.17200000000E+03 0. -1.
         -6    1    1    2    0  502 -0.82023951764E+02  0.99369938540E+02 -0.10863152463E+03  0.24080515255E+03  0.17200000000E+03 0.  1.
</event>
<event>
 4    1 -0.6963162E-004  0.1807872E+03  0.7818608E-02  0.1167043E+00
         -5   -1    0    0    0  501 -0.00000000000E+00  0.00000000000E+00  0.32169976038E+03  0.32173409181E+03  0.47000000000E+01 0.  1.
          5   -1    0    0  501    0  0.00000000000E+00 -0.00000000000E+00 -0.12765080976E+03  0.12773730556E+03  0.47000000000E+01 0. -1.
          6    1    1    2  502    0  0.15971269614E+02 -0.53337939219E+02 -0.46348561649E+01  0.18084661762E+03  0.17200000000E+03 0. -1.
         -6    1    1    2    0  502 -0.15971269614E+02  0.53337939219E+02  0.19868380679E+03  0.26862477975E+03  0.17200000000E+03 0.  1.
</event>
<event>
 4    1 -0.6963162E-004  0.1799526E+03  0.7818608E-02  0.1167849E+00
         -5   -1    0    0    0  501 -0.00000000000E+00  0.00000000000E+00  0.30520532115E+03  0.30524150775E+03  0.47000000000E+01 0.  1.
          5   -1    0    0  501    0  0.00000000000E+00 -0.00000000000E+00 -0.15980661602E+03  0.15987571587E+03  0.47000000000E+01 0. -1.
          6    1    1    2  502    0 -0.52416539133E+02 -0.71730057455E+01 -0.62183057678E+02  0.19039348268E+03  0.17200000000E+03 0. -1.
         -6    1    1    2    0  502  0.52416539133E+02  0.71730057455E+01  0.20758176280E+03  0.27472374094E+03  0.17200000000E+03 0.  1.
</event>
<event>
 4    1 -0.6963162E-004  0.1909276E+03  0.7818608E-02  0.1157627E+00
         -5   -1    0    0    0  501 -0.00000000000E+00  0.00000000000E+00  0.16309036619E+03  0.16315807532E+03  0.47000000000E+01 0.  1.
          5   -1    0    0  501    0  0.00000000000E+00 -0.00000000000E+00 -0.31275324475E+03  0.31278855814E+03  0.47000000000E+01 0. -1.
          6    1    1    2  502    0 -0.25242599598E+02  0.78944046712E+02 -0.20202375397E+03  0.27796933017E+03  0.17200000000E+03 0. -1.
         -6    1    1    2    0  502  0.25242599598E+02 -0.78944046712E+02  0.52360875408E+02  0.19797730329E+03  0.17200000000E+03 0.  1.
</event>
<event>
 4    1 -0.6963162E-004  0.1812999E+03  0.7818608E-02  0.1166551E+00
          5   -1    0    0  501    0  0.00000000000E+00  0.00000000000E+00  0.58893361709E+03  0.58895237103E+03  0.47000000000E+01 0. -1.
         -5   -1    0    0    0  501 -0.00000000000E+00 -0.00000000000E+00 -0.27753062671E+03  0.27757042126E+03  0.47000000000E+01 0.  1.
          6    1    1    2  502    0  0.39658539137E+02 -0.41386729892E+02  0.54296265799E+03  0.57243175061E+03  0.17200000000E+03 0. -1.
         -6    1    1    2    0  502 -0.39658539137E+02  0.41386729892E+02 -0.23155966760E+03  0.29409104168E+03  0.17200000000E+03 0.  1.
</event>
<event>
 4    1 -0.6963162E-004  0.2483073E+03  0.7818608E-02  0.1114379E+00
         -5   -1    0    0    0  501 -0.00000000000E+00  0.00000000000E+00  0.22416355134E+03  0.22421281798E+03  0.47000000000E+01 0.  1.
          5   -1    0    0  501    0  0.00000000000E+00 -0.00000000000E+00 -0.61389395900E+03  0.61391195044E+03  0.47000000000E+01 0. -1.
          6    1    1    2  502    0  0.10977979579E+03 -0.14149522513E+03 -0.50622824187E+03  0.56384708491E+03  0.17200000000E+03 0. -1.
         -6    1    1    2    0  502 -0.10977979579E+03  0.14149522513E+03  0.11649783421E+03  0.27427768351E+03  0.17200000000E+03 0.  1.
</event>
<event>
 4    1 -0.6963162E-004  0.1738662E+03  0.7818608E-02  0.1173875E+00
          5   -1    0    0  501    0  0.00000000000E+00  0.00000000000E+00  0.12217341987E+04  0.12217432391E+04  0.47000000000E+01 0. -1.
         -5   -1    0    0    0  501 -0.00000000000E+00 -0.00000000000E+00 -0.55469433862E+02  0.55668196423E+02  0.47000000000E+01 0.  1.
          6    1    1    2  502    0  0.78280073641E+01 -0.24170016885E+02  0.10588737870E+04  0.10730531973E+04  0.17200000000E+03 0. -1.
         -6    1    1    2    0  502 -0.78280073641E+01  0.24170016885E+02  0.10739097786E+03  0.20435823825E+03  0.17200000000E+03 0.  1.
</event>
<event>
 4    1 -0.6963162E-004  0.1797550E+03  0.7818608E-02  0.1168040E+00
         -5   -1    0    0    0  501 -0.00000000000E+00  0.00000000000E+00  0.42157020129E+02  0.42418207719E+02  0.47000000000E+01 0.  1.
          5   -1    0    0  501    0  0.00000000000E+00 -0.00000000000E+00 -0.82428156985E+03  0.82429496929E+03  0.47000000000E+01 0. -1.
          6    1    1    2  502    0 -0.49652427480E+02  0.16201587107E+02 -0.50840136972E+03  0.53924373683E+03  0.17200000000E+03 0.  1.
         -6    1    1    2    0  502  0.49652427480E+02 -0.16201587107E+02 -0.27372318001E+03  0.32746944018E+03  0.17200000000E+03 0.  1.
</event>
<event>
 4    1 -0.6963162E-004  0.2628160E+03  0.7818608E-02  0.1105463E+00
         -5   -1    0    0    0  501 -0.00000000000E+00  0.00000000000E+00  0.64892900323E+03  0.64894602336E+03  0.47000000000E+01 0.  1.
          5   -1    0    0  501    0  0.00000000000E+00 -0.00000000000E+00 -0.16806984781E+03  0.16813555169E+03  0.47000000000E+01 0. -1.
          6    1    1    2  502    0 -0.19650040541E+03  0.29594250331E+02 -0.70281261752E+01  0.26290991525E+03  0.17200000000E+03 0.  1.
         -6    1    1    2    0  502  0.19650040541E+03 -0.29594250331E+02  0.48788728160E+03  0.55417165980E+03  0.17200000000E+03 0.  1.
</event>
<event>
 4    1 -0.6963162E-004  0.2237483E+03  0.7818608E-02  0.1131119E+00
          5   -1    0    0  501    0  0.00000000000E+00  0.00000000000E+00  0.10103652375E+04  0.10103761691E+04  0.47000000000E+01 0. -1.
         -5   -1    0    0    0  501 -0.00000000000E+00 -0.00000000000E+00 -0.26487040021E+03  0.26491209657E+03  0.47000000000E+01 0.  1.
          6    1    1    2  502    0 -0.13256674734E+03  0.53901215898E+02  0.94767192588E+03  0.97372756081E+03  0.17200000000E+03 0. -1.
         -6    1    1    2    0  502  0.13256674734E+03 -0.53901215898E+02 -0.20217708860E+03  0.30156070488E+03  0.17200000000E+03 0.  1.
</event>
<event>
 4    1 -0.6963162E-004  0.1782657E+03  0.7818608E-02  0.1169492E+00
         -5   -1    0    0    0  501 -0.00000000000E+00  0.00000000000E+00  0.23791440996E+03  0.23796082969E+03  0.47000000000E+01 0.  1.
          5   -1    0    0  501    0  0.00000000000E+00 -0.00000000000E+00 -0.32226969461E+03  0.32230396532E+03  0.47000000000E+01 0. -1.
          6    1    1    2  502    0  0.37428062503E+02 -0.28174389261E+02 -0.25655673350E+03  0.31241000877E+03  0.17200000000E+03 0. -1.
         -6    1    1    2    0  502 -0.37428062503E+02  0.28174389261E+02  0.17220144886E+03  0.24785478624E+03  0.17200000000E+03 0.  1.
</event>
<event>
 4    1 -0.6963162E-004  0.3260365E+03  0.7818608E-02  0.1072904E+00
         -5   -1    0    0    0  501 -0.00000000000E+00  0.00000000000E+00  0.67545522997E+02  0.67708844894E+02  0.47000000000E+01 0.  1.
          5   -1    0    0  501    0  0.00000000000E+00 -0.00000000000E+00 -0.15717252200E+04  0.15717322473E+04  0.47000000000E+01 0. -1.
          6    1    1    2  502    0 -0.90342074121E+02  0.26182842310E+03 -0.74786786589E+03  0.81584689638E+03  0.17200000000E+03 0. -1.
         -6    1    1    2    0  502  0.90342074121E+02 -0.26182842310E+03 -0.75631183116E+03  0.82359419586E+03  0.17200000000E+03 0.  1.
</event>
<event>
 4    1 -0.6963162E-004  0.3355477E+03  0.7818608E-02  0.1068708E+00
         -5   -1    0    0    0  501 -0.00000000000E+00  0.00000000000E+00  0.23245558443E+03  0.23250309402E+03  0.47000000000E+01 0.  1.
          5   -1    0    0  501    0  0.00000000000E+00 -0.00000000000E+00 -0.60751651084E+03  0.60753469115E+03  0.47000000000E+01 0. -1.
          6    1    1    2  502    0  0.41417920412E+02 -0.28511895264E+03 -0.37671457361E+03  0.50448600700E+03  0.17200000000E+03 0. -1.
         -6    1    1    2    0  502 -0.41417920412E+02  0.28511895264E+03  0.16536471944E+01  0.33555177817E+03  0.17200000000E+03 0.  1.
</event>
<event>
 4    1 -0.6963162E-004  0.1880717E+03  0.7818608E-02  0.1160212E+00
          5   -1    0    0  501    0  0.00000000000E+00  0.00000000000E+00  0.72938633856E+03  0.72940148127E+03  0.47000000000E+01 0. -1.
         -5   -1    0    0    0  501 -0.00000000000E+00 -0.00000000000E+00 -0.74644212250E+03  0.74645691921E+03  0.47000000000E+01 0.  1.
          6    1    1    2  502    0 -0.24975783694E+02 -0.71855193259E+02  0.70502926865E+03  0.72968296419E+03  0.17200000000E+03 0. -1.
         -6    1    1    2    0  502  0.24975783694E+02  0.71855193259E+02 -0.72208505259E+03  0.74617543630E+03  0.17200000000E+03 0.  1.
</event>
<event>
 4    1 -0.6963162E-004  0.1974514E+03  0.7818608E-02  0.1151907E+00
         -5   -1    0    0    0  501 -0.00000000000E+00  0.00000000000E+00  0.21411911445E+03  0.21417069167E+03  0.47000000000E+01 0.  1.
          5   -1    0    0  501    0  0.00000000000E+00 -0.00000000000E+00 -0.26330795025E+03  0.26334989399E+03  0.47000000000E+01 0. -1.
          6    1    1    2  502    0 -0.86260201137E+02 -0.44297319261E+02 -0.15726423831E+03  0.25242645552E+03  0.17200000000E+03 0. -1.
         -6    1    1    2    0  502  0.86260201137E+02  0.44297319261E+02  0.10807540252E+03  0.22509413014E+03  0.17200000000E+03 0.  1.
</event>
<event>
 4    1 -0.6963162E-004  0.1882252E+03  0.7818608E-02  0.1160072E+00
         -5   -1    0    0    0  501 -0.00000000000E+00  0.00000000000E+00  0.49281348133E+03  0.49283589295E+03  0.47000000000E+01 0.  1.
          5   -1    0    0  501    0  0.00000000000E+00 -0.00000000000E+00 -0.64287156947E+03  0.64288874996E+03  0.47000000000E+01 0. -1.
          6    1    1    2  502    0  0.38536802654E+02  0.66027573796E+02 -0.61020136959E+03  0.63857218629E+03  0.17200000000E+03 0. -1.
         -6    1    1    2    0  502 -0.38536802654E+02 -0.66027573796E+02  0.46014328145E+03  0.49715245662E+03  0.17200000000E+03 0.  1.
</event>
<event>
 4    1 -0.6963162E-004  0.2513703E+03  0.7818608E-02  0.1112442E+00
         -5   -1    0    0    0  501 -0.00000000000E+00  0.00000000000E+00  0.92122478782E+02  0.92242295597E+02  0.47000000000E+01 0.  1.
          5   -1    0    0  501    0  0.00000000000E+00 -0.00000000000E+00 -0.93681801878E+03  0.93682980861E+03  0.47000000000E+01 0. -1.
          6    1    1    2  502    0 -0.82639135751E+01 -0.18312487549E+03 -0.68892132642E+03  0.73334821626E+03  0.17200000000E+03 0. -1.
         -6    1    1    2    0  502  0.82639135751E+01  0.18312487549E+03 -0.15577421357E+03  0.29572388795E+03  0.17200000000E+03 0.  1.
</event>
<event>
 4    1 -0.6963162E-004  0.2141620E+03  0.7818608E-02  0.1138312E+00
         -5   -1    0    0    0  501 -0.00000000000E+00  0.00000000000E+00  0.77588851259E+03  0.77590274775E+03  0.47000000000E+01 0.  1.
          5   -1    0    0  501    0  0.00000000000E+00 -0.00000000000E+00 -0.93885800014E+02  0.94003369324E+02  0.47000000000E+01 0. -1.
          6    1    1    2  502    0  0.12759846668E+03 -0.70626913133E-01  0.76120775395E+02  0.22728780463E+03  0.17200000000E+03 0. -1.
         -6    1    1    2    0  502 -0.12759846668E+03  0.70626913133E-01  0.60588193718E+03  0.64261831244E+03  0.17200000000E+03 0.  1.
</event>
<event>
 4    1 -0.6963162E-004  0.1758168E+03  0.7818608E-02  0.1171914E+00
          5   -1    0    0  501    0  0.00000000000E+00  0.00000000000E+00  0.54517761898E+02  0.54719981381E+02  0.47000000000E+01 0. -1.
         -5   -1    0    0    0  501 -0.00000000000E+00 -0.00000000000E+00 -0.56589568550E+03  0.56591520289E+03  0.47000000000E+01 0.  1.
          6    1    1    2  502    0  0.18033877621E+02  0.31659626329E+02 -0.25051062657E+03  0.30605085640E+03  0.17200000000E+03 0. -1.
         -6    1    1    2    0  502 -0.18033877621E+02 -0.31659626329E+02 -0.26086729704E+03  0.31458432787E+03  0.17200000000E+03 0.  1.
</event>
<event>
 4    1 -0.6963162E-004  0.1722648E+03  0.7818608E-02  0.1175506E+00
         -5   -1    0    0    0  501 -0.00000000000E+00  0.00000000000E+00  0.27759894801E+03  0.27763873277E+03  0.47000000000E+01 0.  1.
          5   -1    0    0  501    0  0.00000000000E+00 -0.00000000000E+00 -0.40950845046E+03  0.40953542094E+03  0.47000000000E+01 0. -1.
          6    1    1    2  502    0 -0.95462869002E+01 -0.13279484299E+00 -0.36132166554E+03  0.40028551712E+03  0.17200000000E+03 0. -1.
         -6    1    1    2    0  502  0.95462869002E+01  0.13279484299E+00  0.22941216309E+03  0.28688863658E+03  0.17200000000E+03 0.  1.
</event>
<event>
 4    1 -0.6963162E-004  0.1770881E+03  0.7818608E-02  0.1170651E+00
         -5   -1    0    0    0  501 -0.00000000000E+00  0.00000000000E+00  0.51279081649E+03  0.51281235504E+03  0.47000000000E+01 0.  1.
          5   -1    0    0  501    0  0.00000000000E+00 -0.00000000000E+00 -0.13960549168E+03  0.13968458507E+03  0.47000000000E+01 0. -1.
          6    1    1    2  502    0  0.87164252950E+01  0.41233878954E+02 -0.58014978254E+02  0.18634899126E+03  0.17200000000E+03 0. -1.
         -6    1    1    2    0  502 -0.87164252950E+01 -0.41233878954E+02  0.43120030307E+03  0.46614794884E+03  0.17200000000E+03 0.  1.
</event>
<event>
 4    1 -0.6963162E-004  0.1952106E+03  0.7818608E-02  0.1153844E+00
          5   -1    0    0  501    0  0.00000000000E+00  0.00000000000E+00  0.32257067342E+03  0.32260491216E+03  0.47000000000E+01 0. -1.
         -5   -1    0    0    0  501 -0.00000000000E+00 -0.00000000000E+00 -0.22995465815E+03  0.23000268434E+03  0.47000000000E+01 0.  1.
          6    1    1    2  502    0 -0.83401006942E+02 -0.39591206079E+02  0.23901312825E+03  0.30860082151E+03  0.17200000000E+03 0. -1.
         -6    1    1    2    0  502  0.83401006942E+02  0.39591206079E+02 -0.14639711297E+03  0.24400677500E+03  0.17200000000E+03 0.  1.
</event>
<event>
 4    1 -0.6963162E-004  0.2110576E+03  0.7818608E-02  0.1140731E+00
          5   -1    0    0  501    0  0.00000000000E+00  0.00000000000E+00  0.53585264390E+03  0.53587325551E+03  0.47000000000E+01 0. -1.
         -5   -1    0    0    0  501 -0.00000000000E+00 -0.00000000000E+00 -0.22475908048E+03  0.22480821662E+03  0.47000000000E+01 0.  1.
          6    1    1    2  502    0  0.53024945157E+02 -0.11022546130E+03  0.45748555229E+03  0.50382370695E+03  0.17200000000E+03 0. -1.
         -6    1    1    2    0  502 -0.53024945157E+02  0.11022546130E+03 -0.14639198887E+03  0.25685776518E+03  0.17200000000E+03 0.  1.
</event>
<event>
 4    1 -0.6963162E-004  0.1833991E+03  0.7818608E-02  0.1164553E+00
         -5   -1    0    0    0  501 -0.00000000000E+00  0.00000000000E+00  0.62473902873E+03  0.62475670786E+03  0.47000000000E+01 0.  1.
          5   -1    0    0  501    0  0.00000000000E+00 -0.00000000000E+00 -0.11201580862E+03  0.11211436741E+03  0.47000000000E+01 0. -1.
          6    1    1    2  502    0  0.36075811610E+02 -0.52438111779E+02 -0.92336295372E+01  0.18363136896E+03  0.17200000000E+03 0. -1.
         -6    1    1    2    0  502 -0.36075811610E+02  0.52438111779E+02  0.52195684965E+03  0.55323970632E+03  0.17200000000E+03 0.  1.
</event>
<event>
 4    1 -0.6963162E-004  0.2002418E+03  0.7818608E-02  0.1149535E+00
          5   -1    0    0  501    0  0.00000000000E+00  0.00000000000E+00  0.20043854429E+03  0.20049364089E+03  0.47000000000E+01 0. -1.
         -5   -1    0    0    0  501 -0.00000000000E+00 -0.00000000000E+00 -0.12433946854E+04  0.12434035683E+04  0.47000000000E+01 0.  1.
          6    1    1    2  502    0 -0.40358154956E+02  0.94254906461E+02  0.13986132825E+03  0.24424978855E+03  0.17200000000E+03 0. -1.
         -6    1    1    2    0  502  0.40358154956E+02 -0.94254906461E+02 -0.11828174693E+04  0.11996474206E+04  0.17200000000E+03 0.  1.
</event>
<event>
 4    1 -0.6963162E-004  0.1950372E+03  0.7818608E-02  0.1153995E+00
         -5   -1    0    0    0  501 -0.00000000000E+00  0.00000000000E+00  0.17787000758E+03  0.17793209265E+03  0.47000000000E+01 0.  1.
          5   -1    0    0  501    0  0.00000000000E+00 -0.00000000000E+00 -0.63810906457E+03  0.63812637329E+03  0.47000000000E+01 0. -1.
          6    1    1    2  502    0  0.57413836844E+02 -0.71827315142E+02 -0.56284406661E+03  0.59567856699E+03  0.17200000000E+03 0. -1.
         -6    1    1    2    0  502 -0.57413836844E+02  0.71827315142E+02  0.10260500962E+03  0.22037989895E+03  0.17200000000E+03 0.  1.
</event>
<event>
 4    1 -0.6963162E-004  0.2529096E+03  0.7818608E-02  0.1111480E+00
          5   -1    0    0  501    0  0.00000000000E+00  0.00000000000E+00  0.10943815992E+04  0.10943916917E+04  0.47000000000E+01 0. -1.
         -5   -1    0    0    0  501 -0.00000000000E+00 -0.00000000000E+00 -0.83811379978E+02  0.83943060546E+02  0.47000000000E+01 0.  1.
          6    1    1    2  502    0  0.14031479363E+03  0.12120663947E+03  0.82973999108E+03  0.86742823539E+03  0.17200000000E+03 0. -1.
         -6    1    1    2    0  502 -0.14031479363E+03 -0.12120663947E+03  0.18083022819E+03  0.31090651680E+03  0.17200000000E+03 0.  1.
</event>
<event>
 4    1 -0.6963162E-004  0.1773004E+03  0.7818608E-02  0.1170442E+00
          5   -1    0    0  501    0  0.00000000000E+00  0.00000000000E+00  0.14426983846E+03  0.14434637608E+03  0.47000000000E+01 0. -1.
         -5   -1    0    0    0  501 -0.00000000000E+00 -0.00000000000E+00 -0.65262235524E+03  0.65263927905E+03  0.47000000000E+01 0.  1.
          6    1    1    2  502    0 -0.17942769964E+02  0.39108674807E+02  0.71092159321E+02  0.19102231952E+03  0.17200000000E+03 0. -1.
         -6    1    1    2    0  502  0.17942769964E+02 -0.39108674807E+02 -0.57944467610E+03  0.60596333561E+03  0.17200000000E+03 0.  1.
</event>
<event>
 4    1 -0.6963162E-004  0.2103688E+03  0.7818608E-02  0.1141274E+00
         -5   -1    0    0    0  501 -0.00000000000E+00  0.00000000000E+00  0.82828029253E+03  0.82829362728E+03  0.47000000000E+01 0.  1.
          5   -1    0    0  501    0  0.00000000000E+00 -0.00000000000E+00 -0.92305517678E+02  0.92425097208E+02  0.47000000000E+01 0. -1.
          6    1    1    2  502    0 -0.19393310824E+00 -0.12112386648E+03  0.69064156279E+02  0.22141564155E+03  0.17200000000E+03 0. -1.
         -6    1    1    2    0  502  0.19393310824E+00  0.12112386648E+03  0.66691061857E+03  0.69930308294E+03  0.17200000000E+03 0.  1.
</event>
<event>
 4    1 -0.6963162E-004  0.1778570E+03  0.7818608E-02  0.1169893E+00
          5   -1    0    0  501    0  0.00000000000E+00  0.00000000000E+00  0.44002394837E+02  0.44252692024E+02  0.47000000000E+01 0. -1.
         -5   -1    0    0    0  501 -0.00000000000E+00 -0.00000000000E+00 -0.17302945287E+04  0.17303009120E+04  0.47000000000E+01 0.  1.
          6    1    1    2  502    0 -0.42674337423E+02  0.15099527097E+02 -0.16406704971E+03  0.24197332827E+03  0.17200000000E+03 0. -1.
         -6    1    1    2    0  502  0.42674337423E+02 -0.15099527097E+02 -0.15222250841E+04  0.15325802757E+04  0.17200000000E+03 0.  1.
</event>
<event>
 4    1 -0.6963162E-004  0.3308597E+03  0.7818608E-02  0.1070757E+00
         -5   -1    0    0    0  501 -0.00000000000E+00  0.00000000000E+00  0.21437137271E+03  0.21442288925E+03  0.47000000000E+01 0.  1.
          5   -1    0    0  501    0  0.00000000000E+00 -0.00000000000E+00 -0.71051756336E+03  0.71053310819E+03  0.47000000000E+01 0. -1.
          6    1    1    2  502    0  0.27026975926E+03 -0.82694597738E+02 -0.49342576561E+03  0.59408511632E+03  0.17200000000E+03 0. -1.
         -6    1    1    2    0  502 -0.27026975926E+03  0.82694597738E+02 -0.27204250447E+01  0.33087088113E+03  0.17200000000E+03 0.  1.
</event>
<event>
 4    1 -0.6963162E-004  0.1792455E+03  0.7818608E-02  0.1168535E+00
         -5   -1    0    0    0  501 -0.00000000000E+00  0.00000000000E+00  0.88532785422E+03  0.88534032974E+03  0.47000000000E+01 0.  1.
          5   -1    0    0  501    0  0.00000000000E+00 -0.00000000000E+00 -0.34154590200E+03  0.34157823872E+03  0.47000000000E+01 0. -1.
          6    1    1    2  502    0 -0.43110463399E+02  0.26200204413E+02 -0.30806529954E+03  0.35641715944E+03  0.17200000000E+03 0. -1.
         -6    1    1    2    0  502  0.43110463399E+02 -0.26200204413E+02  0.85184725176E+03  0.87050140902E+03  0.17200000000E+03 0.  1.
</event>
<event>
 4    1 -0.6963162E-004  0.1747443E+03  0.7818608E-02  0.1172989E+00
         -5   -1    0    0    0  501 -0.00000000000E+00  0.00000000000E+00  0.39864323259E+03  0.39867093810E+03  0.47000000000E+01 0.  1.
          5   -1    0    0  501    0  0.00000000000E+00 -0.00000000000E+00 -0.78044164223E+03  0.78045579434E+03  0.47000000000E+01 0. -1.
          6    1    1    2  502    0  0.13037529954E+02  0.27957074371E+02 -0.75078572335E+03  0.77085327889E+03  0.17200000000E+03 0. -1.
         -6    1    1    2    0  502 -0.13037529954E+02 -0.27957074371E+02  0.36898731371E+03  0.40827345355E+03  0.17200000000E+03 0.  1.
</event>
<event>
 4    1 -0.6963162E-004  0.2304020E+03  0.7818608E-02  0.1126357E+00
          5   -1    0    0  501    0  0.00000000000E+00  0.00000000000E+00  0.17744588906E+03  0.17750812248E+03  0.47000000000E+01 0. -1.
         -5   -1    0    0    0  501 -0.00000000000E+00 -0.00000000000E+00 -0.44876643350E+03  0.44879104474E+03  0.47000000000E+01 0.  1.
          6    1    1    2  502    0 -0.74207984878E+02  0.13414265101E+03  0.45207837238E+02  0.23479528187E+03  0.17200000000E+03 0. -1.
         -6    1    1    2    0  502  0.74207984878E+02 -0.13414265101E+03 -0.31652838167E+03  0.39150388535E+03  0.17200000000E+03 0.  1.
</event>
<event>
 4    1 -0.6963162E-004  0.2006875E+03  0.7818608E-02  0.1149160E+00
          5   -1    0    0  501    0  0.00000000000E+00  0.00000000000E+00  0.67377315060E+03  0.67378954315E+03  0.47000000000E+01 0. -1.
         -5   -1    0    0    0  501 -0.00000000000E+00 -0.00000000000E+00 -0.20915349983E+03  0.20920630127E+03  0.47000000000E+01 0.  1.
          6    1    1    2  502    0  0.93537986312E+02  0.44069381145E+02  0.60543754812E+03  0.63783233683E+03  0.17200000000E+03 0. -1.
         -6    1    1    2    0  502 -0.93537986312E+02 -0.44069381145E+02 -0.14081789735E+03  0.24516350759E+03  0.17200000000E+03 0.  1.
</event>
<event>
 4    1 -0.6963162E-004  0.3983164E+03  0.7818608E-02  0.1044364E+00
          5   -1    0    0  501    0  0.00000000000E+00  0.00000000000E+00  0.37619234156E+03  0.37622170039E+03  0.47000000000E+01 0. -1.
         -5   -1    0    0    0  501 -0.00000000000E+00 -0.00000000000E+00 -0.14000335669E+04  0.14000414560E+04  0.47000000000E+01 0.  1.
          6    1    1    2  502    0  0.33358960122E+03 -0.13337900358E+03  0.23049688442E+03  0.46020081961E+03  0.17200000000E+03 0. -1.
         -6    1    1    2    0  502 -0.33358960122E+03  0.13337900358E+03 -0.12543381098E+04  0.13160623368E+04  0.17200000000E+03 0.  1.
</event>
<event>
 4    1 -0.6963162E-004  0.2627414E+03  0.7818608E-02  0.1105507E+00
          5   -1    0    0  501    0  0.00000000000E+00  0.00000000000E+00  0.40776856276E+03  0.40779564831E+03  0.47000000000E+01 0. -1.
         -5   -1    0    0    0  501 -0.00000000000E+00 -0.00000000000E+00 -0.27334776435E+03  0.27338816777E+03  0.47000000000E+01 0.  1.
          6    1    1    2  502    0 -0.10563234874E+03 -0.16819884272E+03  0.27738338426E+03  0.38206620585E+03  0.17200000000E+03 0. -1.
         -6    1    1    2    0  502  0.10563234874E+03  0.16819884272E+03 -0.14296258585E+03  0.29911761022E+03  0.17200000000E+03 0.  1.
</event>
<event>
 4    1 -0.6963162E-004  0.3814204E+03  0.7818608E-02  0.1050410E+00
          5   -1    0    0  501    0  0.00000000000E+00  0.00000000000E+00  0.44510142814E+03  0.44512624202E+03  0.47000000000E+01 0. -1.
         -5   -1    0    0    0  501 -0.00000000000E+00 -0.00000000000E+00 -0.96142572922E+03  0.96143721730E+03  0.47000000000E+01 0.  1.
          6    1    1    2  502    0  0.30564376434E+03  0.14993129479E+03  0.31321094593E+03  0.49354088026E+03  0.17200000000E+03 0. -1.
         -6    1    1    2    0  502 -0.30564376434E+03 -0.14993129479E+03 -0.82953524701E+03  0.91302257906E+03  0.17200000000E+03 0.  1.
</event>
<event>
 4    1 -0.6963162E-004  0.1754151E+03  0.7818608E-02  0.1172316E+00
         -5   -1    0    0    0  501 -0.00000000000E+00  0.00000000000E+00  0.13465287829E+04  0.13465369855E+04  0.47000000000E+01 0.  1.
          5   -1    0    0  501    0  0.00000000000E+00 -0.00000000000E+00 -0.12330468429E+03  0.12339422664E+03  0.47000000000E+01 0. -1.
          6    1    1    2  502    0 -0.18729098939E+02  0.28907898379E+02 -0.51794957659E+02  0.18290205951E+03  0.17200000000E+03 0. -1.
         -6    1    1    2    0  502  0.18729098939E+02 -0.28907898379E+02  0.12750190563E+04  0.12870291526E+04  0.17200000000E+03 0.  1.
</event>
<event>
 4    1 -0.6963162E-004  0.1800490E+03  0.7818608E-02  0.1167756E+00
         -5   -1    0    0    0  501 -0.00000000000E+00  0.00000000000E+00  0.48299137115E+02  0.48527277340E+02  0.47000000000E+01 0.  1.
          5   -1    0    0  501    0  0.00000000000E+00 -0.00000000000E+00 -0.15316250393E+04  0.15316322506E+04  0.47000000000E+01 0. -1.
          6    1    1    2  502    0 -0.10438328205E+02 -0.52198512948E+02 -0.13344235603E+04  0.13465154591E+04  0.17200000000E+03 0. -1.
         -6    1    1    2    0  502  0.10438328205E+02  0.52198512948E+02 -0.14890234188E+03  0.23364406876E+03  0.17200000000E+03 0.  1.
</event>
<event>
 4    1 -0.6963162E-004  0.2546651E+03  0.7818608E-02  0.1110392E+00
         -5   -1    0    0    0  501 -0.00000000000E+00  0.00000000000E+00  0.50577057911E+03  0.50579241661E+03  0.47000000000E+01 0.  1.
          5   -1    0    0  501    0  0.00000000000E+00 -0.00000000000E+00 -0.29979138055E+03  0.29982822057E+03  0.47000000000E+01 0. -1.
          6    1    1    2  502    0  0.91693221037E+02 -0.16389836623E+03 -0.20174914778E+03  0.32489542913E+03  0.17200000000E+03 0. -1.
         -6    1    1    2    0  502 -0.91693221037E+02  0.16389836623E+03  0.40772834635E+03  0.48072520805E+03  0.17200000000E+03 0.  1.
</event>
<event>
 4    1 -0.6963162E-004  0.1741269E+03  0.7818608E-02  0.1173611E+00
          5   -1    0    0  501    0  0.00000000000E+00  0.00000000000E+00  0.58962102143E+03  0.58963975350E+03  0.47000000000E+01 0. -1.
         -5   -1    0    0    0  501 -0.00000000000E+00 -0.00000000000E+00 -0.22678964364E+03  0.22683833993E+03  0.47000000000E+01 0.  1.
          6    1    1    2  502    0  0.11775764855E+01  0.27107295674E+02  0.54041143232E+03  0.56777170442E+03  0.17200000000E+03 0. -1.
         -6    1    1    2    0  502 -0.11775764855E+01 -0.27107295674E+02 -0.17758005453E+03  0.24870638901E+03  0.17200000000E+03 0.  1.
</event>
<event>
 4    1 -0.6963162E-004  0.1879808E+03  0.7818608E-02  0.1160295E+00
          5   -1    0    0  501    0  0.00000000000E+00  0.00000000000E+00  0.29469505375E+03  0.29473253079E+03  0.47000000000E+01 0. -1.
         -5   -1    0    0    0  501 -0.00000000000E+00 -0.00000000000E+00 -0.15007867977E+03  0.15015225646E+03  0.47000000000E+01 0.  1.
          6    1    1    2  502    0  0.75813851447E+02  0.22477543139E+01  0.17215165289E+03  0.25489798756E+03  0.17200000000E+03 0. -1.
         -6    1    1    2    0  502 -0.75813851447E+02 -0.22477543139E+01 -0.27535278910E+02  0.18998679969E+03  0.17200000000E+03 0.  1.
</event>
<event>
 4    1 -0.6963162E-004  0.2283540E+03  0.7818608E-02  0.1127804E+00
          5   -1    0    0  501    0  0.00000000000E+00  0.00000000000E+00  0.63792930106E+03  0.63794661466E+03  0.47000000000E+01 0. -1.
         -5   -1    0    0    0  501 -0.00000000000E+00 -0.00000000000E+00 -0.23318817995E+03  0.23323554032E+03  0.47000000000E+01 0.  1.
          6    1    1    2  502    0 -0.10258937745E+03 -0.10971317732E+03  0.55342719449E+03  0.59868791640E+03  0.17200000000E+03 0. -1.
         -6    1    1    2    0  502  0.10258937745E+03  0.10971317732E+03 -0.14868607338E+03  0.27249423858E+03  0.17200000000E+03 0.  1.
</event>
<event>
 4    1 -0.6963162E-004  0.2007355E+03  0.7818608E-02  0.1149120E+00
         -5   -1    0    0    0  501 -0.00000000000E+00  0.00000000000E+00  0.66907017989E+03  0.66908668767E+03  0.47000000000E+01 0.  1.
          5   -1    0    0  501    0  0.00000000000E+00 -0.00000000000E+00 -0.10733804469E+03  0.10744089463E+03  0.47000000000E+01 0. -1.
          6    1    1    2  502    0 -0.57304392100E+02 -0.86179832536E+02  0.23530677726E+02  0.20210999402E+03  0.17200000000E+03 0. -1.
         -6    1    1    2    0  502  0.57304392100E+02  0.86179832536E+02  0.53820145747E+03  0.57441758827E+03  0.17200000000E+03 0.  1.
</event>
<event>
 4    1 -0.6963162E-004  0.3895348E+03  0.7818608E-02  0.1047465E+00
          5   -1    0    0  501    0  0.00000000000E+00  0.00000000000E+00  0.74286803634E+03  0.74288290424E+03  0.47000000000E+01 0. -1.
         -5   -1    0    0    0  501 -0.00000000000E+00 -0.00000000000E+00 -0.37515214424E+03  0.37518158448E+03  0.47000000000E+01 0.  1.
          6    1    1    2  502    0  0.14229820240E+03 -0.31922498417E+03  0.56118567358E+03  0.68313009680E+03  0.17200000000E+03 0. -1.
         -6    1    1    2    0  502 -0.14229820240E+03  0.31922498417E+03 -0.19346978149E+03  0.43493439191E+03  0.17200000000E+03 0.  1.
</event>
<event>
 4    1 -0.6963162E-004  0.1794906E+03  0.7818608E-02  0.1168297E+00
         -5   -1    0    0    0  501 -0.00000000000E+00  0.00000000000E+00  0.10017018069E+04  0.10017128331E+04  0.47000000000E+01 0.  1.
          5   -1    0    0  501    0  0.00000000000E+00 -0.00000000000E+00 -0.79061148290E+02  0.79200727073E+02  0.47000000000E+01 0. -1.
          6    1    1    2  502    0 -0.50627853925E+02  0.83485013348E+01  0.44917133738E+02  0.18502547384E+03  0.17200000000E+03 0. -1.
         -6    1    1    2    0  502  0.50627853925E+02 -0.83485013348E+01  0.87772352486E+03  0.89588808629E+03  0.17200000000E+03 0.  1.
</event>
<event>
 4    1 -0.6963162E-004  0.1800256E+03  0.7818608E-02  0.1167778E+00
         -5   -1    0    0    0  501 -0.00000000000E+00  0.00000000000E+00  0.17556369021E+03  0.17562659058E+03  0.47000000000E+01 0.  1.
          5   -1    0    0  501    0  0.00000000000E+00 -0.00000000000E+00 -0.18626014529E+03  0.18631943463E+03  0.47000000000E+01 0. -1.
          6    1    1    2  502    0 -0.63465183071E+01 -0.52772389357E+02  0.12363304096E+02  0.18044959036E+03  0.17200000000E+03 0.  1.
         -6    1    1    2    0  502  0.63465183071E+01  0.52772389357E+02 -0.23059759174E+02  0.18149643486E+03  0.17200000000E+03 0. -1.
</event>
<event>
 4    1 -0.6963162E-004  0.1774301E+03  0.7818608E-02  0.1170314E+00
         -5   -1    0    0    0  501 -0.00000000000E+00  0.00000000000E+00  0.38100623347E+03  0.38103522140E+03  0.47000000000E+01 0.  1.
          5   -1    0    0  501    0  0.00000000000E+00 -0.00000000000E+00 -0.86785180733E+02  0.86912355824E+02  0.47000000000E+01 0. -1.
          6    1    1    2  502    0 -0.38997195070E+02  0.19407467529E+02  0.95337595676E+02  0.20142166757E+03  0.17200000000E+03 0. -1.
         -6    1    1    2    0  502  0.38997195070E+02 -0.19407467529E+02  0.19888345706E+03  0.26652590965E+03  0.17200000000E+03 0.  1.
</event>
<event>
 4    1 -0.6963162E-004  0.1739088E+03  0.7818608E-02  0.1173832E+00
          5   -1    0    0  501    0  0.00000000000E+00  0.00000000000E+00  0.52101093586E+03  0.52103213460E+03  0.47000000000E+01 0. -1.
         -5   -1    0    0    0  501 -0.00000000000E+00 -0.00000000000E+00 -0.74457495495E+02  0.74605687688E+02  0.47000000000E+01 0.  1.
          6    1    1    2  502    0  0.27797619899E+00 -0.25694023107E+02  0.36340483858E+03  0.40287384725E+03  0.17200000000E+03 0. -1.
         -6    1    1    2    0  502 -0.27797619899E+00  0.25694023107E+02  0.83148601785E+02  0.19276397504E+03  0.17200000000E+03 0.  1.
</event>
<event>
 4    1 -0.6963162E-004  0.2805455E+03  0.7818608E-02  0.1095391E+00
          5   -1    0    0  501    0  0.00000000000E+00  0.00000000000E+00  0.13418837797E+03  0.13427066241E+03  0.47000000000E+01 0. -1.
         -5   -1    0    0    0  501 -0.00000000000E+00 -0.00000000000E+00 -0.20463706401E+04  0.20463760374E+04  0.47000000000E+01 0.  1.
          6    1    1    2  502    0  0.19320378899E+03  0.10860043351E+03 -0.35120089566E+02  0.28273517455E+03  0.17200000000E+03 0. -1.
         -6    1    1    2    0  502 -0.19320378899E+03 -0.10860043351E+03 -0.18770621725E+04  0.18979115253E+04  0.17200000000E+03 0.  1.
</event>
<event>
 4    1 -0.6963162E-004  0.1924351E+03  0.7818608E-02  0.1156283E+00
         -5   -1    0    0    0  501 -0.00000000000E+00  0.00000000000E+00  0.19654378696E+03  0.19659997505E+03  0.47000000000E+01 0.  1.
          5   -1    0    0  501    0  0.00000000000E+00 -0.00000000000E+00 -0.49627867534E+03  0.49630093048E+03  0.47000000000E+01 0. -1.
          6    1    1    2  502    0  0.84682184134E+02 -0.16619617757E+02 -0.42276296359E+03  0.46449952356E+03  0.17200000000E+03 0. -1.
         -6    1    1    2    0  502 -0.84682184134E+02  0.16619617757E+02  0.12302807520E+03  0.22840138198E+03  0.17200000000E+03 0.  1.
</event>
<event>
 4    1 -0.6963162E-004  0.1892282E+03  0.7818608E-02  0.1159159E+00
          5   -1    0    0  501    0  0.00000000000E+00  0.00000000000E+00  0.67017966731E+02  0.67182571139E+02  0.47000000000E+01 0. -1.
         -5   -1    0    0    0  501 -0.00000000000E+00 -0.00000000000E+00 -0.63695029220E+03  0.63696763241E+03  0.47000000000E+01 0.  1.
          6    1    1    2  502    0  0.59607141716E+02  0.51674933515E+02 -0.14307295302E+03  0.23722811803E+03  0.17200000000E+03 0.  1.
         -6    1    1    2    0  502 -0.59607141716E+02 -0.51674933515E+02 -0.42685937245E+03  0.46692208552E+03  0.17200000000E+03 0.  1.
</event>
<event>
 4    1 -0.6963162E-004  0.1827851E+03  0.7818608E-02  0.1165135E+00
         -5   -1    0    0    0  501 -0.00000000000E+00  0.00000000000E+00  0.25224857055E+03  0.25229235292E+03  0.47000000000E+01 0.  1.
          5   -1    0    0  501    0  0.00000000000E+00 -0.00000000000E+00 -0.74592929338E+03  0.74594410027E+03  0.47000000000E+01 0. -1.
          6    1    1    2  502    0  0.20914610834E+02  0.58214862289E+02 -0.69948954556E+03  0.72297718877E+03  0.17200000000E+03 0. -1.
         -6    1    1    2    0  502 -0.20914610834E+02 -0.58214862289E+02  0.20580882272E+03  0.27525926442E+03  0.17200000000E+03 0.  1.
</event>
<event>
 4    1 -0.6963162E-004  0.1745395E+03  0.7818608E-02  0.1173195E+00
         -5   -1    0    0    0  501 -0.00000000000E+00  0.00000000000E+00  0.21990492111E+03  0.21995514162E+03  0.47000000000E+01 0.  1.
          5   -1    0    0  501    0  0.00000000000E+00 -0.00000000000E+00 -0.57544372777E+03  0.57546292133E+03  0.47000000000E+01 0. -1.
          6    1    1    2  502    0 -0.49183375620E+01 -0.29254592940E+02 -0.52432709742E+03  0.55261462733E+03  0.17200000000E+03 0. -1.
         -6    1    1    2    0  502  0.49183375620E+01  0.29254592940E+02  0.16878829076E+03  0.24280343562E+03  0.17200000000E+03 0.  1.
</event>
<event>
 4    1 -0.6963162E-004  0.2146374E+03  0.7818608E-02  0.1137945E+00
         -5   -1    0    0    0  501 -0.00000000000E+00  0.00000000000E+00  0.55770421938E+03  0.55772402343E+03  0.47000000000E+01 0.  1.
          5   -1    0    0  501    0  0.00000000000E+00 -0.00000000000E+00 -0.27285159417E+03  0.27289207104E+03  0.47000000000E+01 0. -1.
          6    1    1    2  502    0 -0.12662150013E+03  0.21264937041E+02 -0.20437518194E+03  0.29637546598E+03  0.17200000000E+03 0. -1.
         -6    1    1    2    0  502  0.12662150013E+03 -0.21264937041E+02  0.48922780715E+03  0.53424062849E+03  0.17200000000E+03 0.  1.
</event>
<event>
 4    1 -0.6963162E-004  0.1860873E+03  0.7818608E-02  0.1162038E+00
         -5   -1    0    0    0  501 -0.00000000000E+00  0.00000000000E+00  0.53113867527E+03  0.53115946981E+03  0.47000000000E+01 0.  1.
          5   -1    0    0  501    0  0.00000000000E+00 -0.00000000000E+00 -0.20523857744E+03  0.20529238581E+03  0.47000000000E+01 0. -1.
          6    1    1    2  502    0 -0.48335011987E+02  0.52040404817E+02 -0.14123602685E+03  0.23361526576E+03  0.17200000000E+03 0. -1.
         -6    1    1    2    0  502  0.48335011987E+02 -0.52040404817E+02  0.46713612468E+03  0.50283658986E+03  0.17200000000E+03 0.  1.
</event>
<event>
 4    1 -0.6963162E-004  0.1796770E+03  0.7818608E-02  0.1168116E+00
          5   -1    0    0  501    0  0.00000000000E+00  0.00000000000E+00  0.20651084140E+03  0.20656431835E+03  0.47000000000E+01 0. -1.
         -5   -1    0    0    0  501 -0.00000000000E+00 -0.00000000000E+00 -0.17520829909E+03  0.17527132701E+03  0.47000000000E+01 0.  1.
          6    1    1    2  502    0 -0.29798597272E+02  0.42565869283E+02  0.78479383485E+02  0.19606841474E+03  0.17200000000E+03 0. -1.
         -6    1    1    2    0  502  0.29798597272E+02 -0.42565869283E+02 -0.47176841181E+02  0.18576723062E+03  0.17200000000E+03 0.  1.
</event>
<event>
 4    1 -0.6963162E-004  0.1771928E+03  0.7818608E-02  0.1170548E+00
          5   -1    0    0  501    0  0.00000000000E+00  0.00000000000E+00  0.24191303277E+02  0.24643643283E+02  0.47000000000E+01 0. -1.
         -5   -1    0    0    0  501 -0.00000000000E+00 -0.00000000000E+00 -0.14828329878E+04  0.14828404364E+04  0.47000000000E+01 0.  1.
          6    1    1    2  502    0 -0.26345413819E+02  0.33454444330E+02 -0.45432689693E+03  0.48765788208E+03  0.17200000000E+03 0. -1.
         -6    1    1    2    0  502  0.26345413819E+02 -0.33454444330E+02 -0.10043147876E+04  0.10198261976E+04  0.17200000000E+03 0.  1.
</event>
<event>
 4    1 -0.6963162E-004  0.1991150E+03  0.7818608E-02  0.1150488E+00
         -5   -1    0    0    0  501 -0.00000000000E+00  0.00000000000E+00  0.34971810404E+03  0.34974968519E+03  0.47000000000E+01 0.  1.
          5   -1    0    0  501    0  0.00000000000E+00 -0.00000000000E+00 -0.12268265622E+03  0.12277265224E+03  0.47000000000E+01 0. -1.
          6    1    1    2  502    0 -0.10001137475E+03 -0.77777760239E+01  0.48152038208E+02  0.20485455246E+03  0.17200000000E+03 0. -1.
         -6    1    1    2    0  502  0.10001137475E+03  0.77777760239E+01  0.17888340961E+03  0.26766778497E+03  0.17200000000E+03 0.  1.
</event>
<event>
 4    1 -0.6963162E-004  0.2330946E+03  0.7818608E-02  0.1124480E+00
         -5   -1    0    0    0  501 -0.00000000000E+00  0.00000000000E+00  0.70206834881E+02  0.70363979876E+02  0.47000000000E+01 0.  1.
          5   -1    0    0  501    0  0.00000000000E+00 -0.00000000000E+00 -0.11929154852E+04  0.11929247440E+04  0.47000000000E+01 0. -1.
          6    1    1    2  502    0 -0.13896234617E+03  0.73746603879E+02 -0.93614150083E+03  0.96472483373E+03  0.17200000000E+03 0. -1.
         -6    1    1    2    0  502  0.13896234617E+03 -0.73746603879E+02 -0.18656714953E+03  0.29856389018E+03  0.17200000000E+03 0.  1.
</event>
<event>
 4    1 -0.6963162E-004  0.1890331E+03  0.7818608E-02  0.1159336E+00
          5   -1    0    0  501    0  0.00000000000E+00  0.00000000000E+00  0.77072527124E+03  0.77073960177E+03  0.47000000000E+01 0. -1.
         -5   -1    0    0    0  501 -0.00000000000E+00 -0.00000000000E+00 -0.93310759092E+02  0.93429052025E+02  0.47000000000E+01 0.  1.
          6    1    1    2  502    0 -0.32226877266E+02  0.71490724636E+02  0.64531179947E+03  0.67242904002E+03  0.17200000000E+03 0. -1.
         -6    1    1    2    0  502  0.32226877266E+02 -0.71490724636E+02  0.32102712677E+02  0.19173961377E+03  0.17200000000E+03 0.  1.
</event>
<event>
 4    1 -0.6963162E-004  0.1784907E+03  0.7818608E-02  0.1169272E+00
         -5   -1    0    0    0  501 -0.00000000000E+00  0.00000000000E+00  0.50706856979E+02  0.50924211773E+02  0.47000000000E+01 0.  1.
          5   -1    0    0  501    0  0.00000000000E+00 -0.00000000000E+00 -0.14875387896E+04  0.14875462146E+04  0.47000000000E+01 0. -1.
          6    1    1    2  502    0  0.47554593668E+02 -0.36726726633E+01 -0.13035370085E+04  0.13157004448E+04  0.17200000000E+03 0. -1.
         -6    1    1    2    0  502 -0.47554593668E+02  0.36726726633E+01 -0.13329492417E+03  0.22276998162E+03  0.17200000000E+03 0.  1.
</event>
<event>
 4    1 -0.6963162E-004  0.1920427E+03  0.7818608E-02  0.1156632E+00
          5   -1    0    0  501    0  0.00000000000E+00  0.00000000000E+00  0.17584018129E+03  0.17590298279E+03  0.47000000000E+01 0. -1.
         -5   -1    0    0    0  501 -0.00000000000E+00 -0.00000000000E+00 -0.10173963690E+04  0.10174072251E+04  0.47000000000E+01 0.  1.
          6    1    1    2  502    0 -0.44584325236E+01 -0.85302556088E+02  0.11084753692E+03  0.22173763807E+03  0.17200000000E+03 0. -1.
         -6    1    1    2    0  502  0.44584325236E+01  0.85302556088E+02 -0.95240372467E+03  0.97157256983E+03  0.17200000000E+03 0.  1.
</event>
<event>
 4    1 -0.6963162E-004  0.1754410E+03  0.7818608E-02  0.1172290E+00
         -5   -1    0    0    0  501 -0.00000000000E+00  0.00000000000E+00  0.37095845560E+02  0.37392402407E+02  0.47000000000E+01 0.  1.
          5   -1    0    0  501    0  0.00000000000E+00 -0.00000000000E+00 -0.18514787362E+04  0.18514847017E+04  0.47000000000E+01 0. -1.
          6    1    1    2  502    0 -0.24321486414E+02  0.24576564917E+02 -0.16099652993E+04  0.16194961584E+04  0.17200000000E+03 0. -1.
         -6    1    1    2    0  502  0.24321486414E+02 -0.24576564917E+02 -0.20441759140E+03  0.26938094573E+03  0.17200000000E+03 0.  1.
</event>
<event>
 4    1 -0.6963162E-004  0.1779312E+03  0.7818608E-02  0.1169820E+00
          5   -1    0    0  501    0  0.00000000000E+00  0.00000000000E+00  0.16034633743E+03  0.16041520479E+03  0.47000000000E+01 0. -1.
         -5   -1    0    0    0  501 -0.00000000000E+00 -0.00000000000E+00 -0.29118838719E+03  0.29122631549E+03  0.47000000000E+01 0.  1.
          6    1    1    2  502    0 -0.27309422885E+02 -0.36465315724E+02  0.62777776515E+02  0.18868114122E+03  0.17200000000E+03 0. -1.
         -6    1    1    2    0  502  0.27309422885E+02  0.36465315724E+02 -0.19361982627E+03  0.26296037906E+03  0.17200000000E+03 0.  1.
</event>
<event>
 4    1 -0.6963162E-004  0.1923040E+03  0.7818608E-02  0.1156400E+00
         -5   -1    0    0    0  501 -0.00000000000E+00  0.00000000000E+00  0.18521497361E+04  0.18521556994E+04  0.47000000000E+01 0.  1.
          5   -1    0    0  501    0  0.00000000000E+00 -0.00000000000E+00 -0.52523402601E+02  0.52733270530E+02  0.47000000000E+01 0. -1.
          6    1    1    2  502    0  0.78955865483E+02  0.34099760129E+02  0.14945976897E+03  0.24355501407E+03  0.17200000000E+03 0. -1.
         -6    1    1    2    0  502 -0.78955865483E+02 -0.34099760129E+02  0.16501665645E+04  0.16613339559E+04  0.17200000000E+03 0.  1.
</event>
<event>
 4    1 -0.6963162E-004  0.2485351E+03  0.7818608E-02  0.1114234E+00
          5   -1    0    0  501    0  0.00000000000E+00  0.00000000000E+00  0.59981592035E+03  0.59983433405E+03  0.47000000000E+01 0. -1.
         -5   -1    0    0    0  501 -0.00000000000E+00 -0.00000000000E+00 -0.18868437083E+03  0.18874289867E+03  0.47000000000E+01 0.  1.
          6    1    1    2  502    0 -0.79792245188E+02 -0.16068257010E+03  0.47134126886E+03  0.53285296514E+03  0.17200000000E+03 0. -1.
         -6    1    1    2    0  502  0.79792245188E+02  0.16068257010E+03 -0.60209719343E+02  0.25572426758E+03  0.17200000000E+03 0.  1.
</event>
<event>
 4    1 -0.6963162E-004  0.1772691E+03  0.7818608E-02  0.1170472E+00
         -5   -1    0    0    0  501 -0.00000000000E+00  0.00000000000E+00  0.12264923842E+04  0.12265013895E+04  0.47000000000E+01 0.  1.
          5   -1    0    0  501    0  0.00000000000E+00 -0.00000000000E+00 -0.42534217916E+02  0.42793103343E+02  0.47000000000E+01 0. -1.
          6    1    1    2  502    0  0.13576441911E+02  0.40694220592E+02  0.19080007814E+03  0.26044002992E+03  0.17200000000E+03 0. -1.
         -6    1    1    2    0  502 -0.13576441911E+02 -0.40694220592E+02  0.99315808810E+03  0.10088544629E+04  0.17200000000E+03 0.  1.
</event>
<event>
 4    1 -0.6963162E-004  0.1883418E+03  0.7818608E-02  0.1159965E+00
         -5   -1    0    0    0  501 -0.00000000000E+00  0.00000000000E+00  0.91749972752E+03  0.91751176559E+03  0.47000000000E+01 0.  1.
          5   -1    0    0  501    0  0.00000000000E+00 -0.00000000000E+00 -0.12047618806E+03  0.12056783108E+03  0.47000000000E+01 0. -1.
          6    1    1    2  502    0  0.76334547596E+02  0.78529175949E+01 -0.29261403393E+02  0.19060131479E+03  0.17200000000E+03 0. -1.
         -6    1    1    2    0  502 -0.76334547596E+02 -0.78529175949E+01  0.82628494285E+03  0.84747828188E+03  0.17200000000E+03 0.  1.
</event>
<event>
 4    1 -0.6963162E-004  0.1807816E+03  0.7818608E-02  0.1167049E+00
          5   -1    0    0  501    0  0.00000000000E+00  0.00000000000E+00  0.11201226978E+03  0.11211083168E+03  0.47000000000E+01 0. -1.
         -5   -1    0    0    0  501 -0.00000000000E+00 -0.00000000000E+00 -0.63119951544E+03  0.63121701363E+03  0.47000000000E+01 0.  1.
          6    1    1    2  502    0  0.51141159191E+02 -0.21967394357E+02  0.13024493293E+02  0.18125016415E+03  0.17200000000E+03 0. -1.
         -6    1    1    2    0  502 -0.51141159191E+02  0.21967394357E+02 -0.53221173896E+03  0.56207768116E+03  0.17200000000E+03 0.  1.
</event>
<event>
 4    1 -0.6963162E-004  0.2747653E+03  0.7818608E-02  0.1098583E+00
          5   -1    0    0  501    0  0.00000000000E+00  0.00000000000E+00  0.65851433067E+02  0.66018946046E+02  0.47000000000E+01 0. -1.
         -5   -1    0    0    0  501 -0.00000000000E+00 -0.00000000000E+00 -0.21319157359E+04  0.21319209167E+04  0.47000000000E+01 0.  1.
          6    1    1    2  502    0  0.11011836517E+03 -0.18380941331E+03 -0.28527532693E+03  0.39607823333E+03  0.17200000000E+03 0. -1.
         -6    1    1    2    0  502 -0.11011836517E+03  0.18380941331E+03 -0.17807889759E+04  0.18018616294E+04  0.17200000000E+03 0.  1.
</event>
<event>
 4    1 -0.6963162E-004  0.1831589E+03  0.7818608E-02  0.1164780E+00
          5   -1    0    0  501    0  0.00000000000E+00  0.00000000000E+00  0.27186309562E+03  0.27190371965E+03  0.47000000000E+01 0. -1.
         -5   -1    0    0    0  501 -0.00000000000E+00 -0.00000000000E+00 -0.47344019395E+03  0.47346352262E+03  0.47000000000E+01 0.  1.
          6    1    1    2  502    0  0.48188125263E+02  0.40510279099E+02  0.21967787454E+03  0.28601668954E+03  0.17200000000E+03 0. -1.
         -6    1    1    2    0  502 -0.48188125263E+02 -0.40510279099E+02 -0.42125497287E+03  0.45935055274E+03  0.17200000000E+03 0.  1.
</event>
<event>
 4    1 -0.6963162E-004  0.2033466E+03  0.7818608E-02  0.1146946E+00
          5   -1    0    0  501    0  0.00000000000E+00  0.00000000000E+00  0.20355640444E+03  0.20361065736E+03  0.47000000000E+01 0. -1.
         -5   -1    0    0    0  501 -0.00000000000E+00 -0.00000000000E+00 -0.32680286190E+03  0.32683665729E+03  0.47000000000E+01 0.  1.
          6    1    1    2  502    0 -0.92939131625E+02 -0.55929993373E+02  0.10157644837E+03  0.22730512799E+03  0.17200000000E+03 0. -1.
         -6    1    1    2    0  502  0.92939131625E+02  0.55929993373E+02 -0.22482290583E+03  0.30314218665E+03  0.17200000000E+03 0.  1.
</event>
<event>
 4    1 -0.6963162E-004  0.1726252E+03  0.7818608E-02  0.1175137E+00
          5   -1    0    0  501    0  0.00000000000E+00  0.00000000000E+00  0.70181439634E+02  0.70338641366E+02  0.47000000000E+01 0. -1.
         -5   -1    0    0    0  501 -0.00000000000E+00 -0.00000000000E+00 -0.13292681524E+04  0.13292764615E+04  0.47000000000E+01 0.  1.
          6    1    1    2  502    0 -0.14626496201E+02  0.12416547550E+01 -0.52056878561E+02  0.18030361811E+03  0.17200000000E+03 0. -1.
         -6    1    1    2    0  502  0.14626496201E+02 -0.12416547550E+01 -0.12070298343E+04  0.12193114848E+04  0.17200000000E+03 0.  1.
</event>
<event>
 4    1 -0.6963162E-004  0.1856095E+03  0.7818608E-02  0.1162482E+00
          5   -1    0    0  501    0  0.00000000000E+00  0.00000000000E+00  0.41347977669E+03  0.41350648813E+03  0.47000000000E+01 0. -1.
         -5   -1    0    0    0  501 -0.00000000000E+00 -0.00000000000E+00 -0.27333552790E+03  0.27337593313E+03  0.47000000000E+01 0.  1.
          6    1    1    2  502    0  0.66375921176E+02  0.21473641647E+02  0.35643652554E+03  0.40186798447E+03  0.17200000000E+03 0. -1.
         -6    1    1    2    0  502 -0.66375921176E+02 -0.21473641647E+02 -0.21629227675E+03  0.28501443679E+03  0.17200000000E+03 0.  1.
</event>
<event>
 4    1 -0.6963162E-004  0.1856747E+03  0.7818608E-02  0.1162421E+00
          5   -1    0    0  501    0  0.00000000000E+00  0.00000000000E+00  0.11353094597E+03  0.11362819057E+03  0.47000000000E+01 0. -1.
         -5   -1    0    0    0  501 -0.00000000000E+00 -0.00000000000E+00 -0.67571977731E+03  0.67573612265E+03  0.47000000000E+01 0.  1.
          6    1    1    2  502    0 -0.23755848618E+02  0.65777989349E+02  0.11841480294E+02  0.18605188761E+03  0.17200000000E+03 0. -1.
         -6    1    1    2    0  502  0.23755848618E+02 -0.65777989349E+02 -0.57403031164E+03  0.60331242562E+03  0.17200000000E+03 0.  1.
</event>
<event>
 4    1 -0.6963162E-004  0.2144096E+03  0.7818608E-02  0.1138121E+00
          5   -1    0    0  501    0  0.00000000000E+00  0.00000000000E+00  0.83308076888E+02  0.83440551741E+02  0.47000000000E+01 0. -1.
         -5   -1    0    0    0  501 -0.00000000000E+00 -0.00000000000E+00 -0.18539228259E+04  0.18539287835E+04  0.47000000000E+01 0.  1.
          6    1    1    2  502    0 -0.88068451792E+02 -0.92905417589E+02 -0.73340629293E+02  0.22660608272E+03  0.17200000000E+03 0. -1.
         -6    1    1    2    0  502  0.88068451792E+02  0.92905417589E+02 -0.16972741197E+04  0.17107632525E+04  0.17200000000E+03 0.  1.
</event>
<event>
 4    1 -0.6963162E-004  0.2552233E+03  0.7818608E-02  0.1110048E+00
         -5   -1    0    0    0  501 -0.00000000000E+00  0.00000000000E+00  0.10028302395E+04  0.10028412532E+04  0.47000000000E+01 0.  1.
          5   -1    0    0  501    0  0.00000000000E+00 -0.00000000000E+00 -0.20434133830E+03  0.20439538287E+03  0.47000000000E+01 0. -1.
          6    1    1    2  502    0 -0.12739091515E+03  0.13901969450E+03 -0.99311217137E+02  0.27386427034E+03  0.17200000000E+03 0. -1.
         -6    1    1    2    0  502  0.12739091515E+03 -0.13901969450E+03  0.89780011829E+03  0.93337236574E+03  0.17200000000E+03 0.  1.
</event>
<event>
 4    1 -0.6963162E-004  0.2082398E+03  0.7818608E-02  0.1142967E+00
          5   -1    0    0  501    0  0.00000000000E+00  0.00000000000E+00  0.75714411717E+02  0.75860148574E+02  0.47000000000E+01 0. -1.
         -5   -1    0    0    0  501 -0.00000000000E+00 -0.00000000000E+00 -0.97355625287E+03  0.97356759781E+03  0.47000000000E+01 0.  1.
          6    1    1    2  502    0 -0.10459341868E+03  0.53292038420E+02 -0.11196972730E+03  0.23643401706E+03  0.17200000000E+03 0. -1.
         -6    1    1    2    0  502  0.10459341868E+03 -0.53292038420E+02 -0.78587211385E+03  0.81299372932E+03  0.17200000000E+03 0.  1.
</event>
<event>
 4    1 -0.6963162E-004  0.2171395E+03  0.7818608E-02  0.1136034E+00
         -5   -1    0    0    0  501 -0.00000000000E+00  0.00000000000E+00  0.45282720918E+03  0.45285159973E+03  0.47000000000E+01 0.  1.
          5   -1    0    0  501    0  0.00000000000E+00 -0.00000000000E+00 -0.19709796627E+03  0.19715399643E+03  0.47000000000E+01 0. -1.
          6    1    1    2  502    0 -0.85698624303E+02  0.10110057095E+03 -0.95390270529E+02  0.23716847043E+03  0.17200000000E+03 0. -1.
         -6    1    1    2    0  502  0.85698624303E+02 -0.10110057095E+03  0.35111951344E+03  0.41283712572E+03  0.17200000000E+03 0.  1.
</event>
<event>
 4    1 -0.6963162E-004  0.1796398E+03  0.7818608E-02  0.1168152E+00
          5   -1    0    0  501    0  0.00000000000E+00  0.00000000000E+00  0.24120059318E+03  0.24124638060E+03  0.47000000000E+01 0. -1.
         -5   -1    0    0    0  501 -0.00000000000E+00 -0.00000000000E+00 -0.11611626310E+04  0.11611721430E+04  0.47000000000E+01 0.  1.
          6    1    1    2  502    0  0.44376376760E+02 -0.26780246130E+02  0.19960104713E+03  0.26853495566E+03  0.17200000000E+03 0. -1.
         -6    1    1    2    0  502 -0.44376376760E+02  0.26780246130E+02 -0.11195630850E+04  0.11338835680E+04  0.17200000000E+03 0.  1.
</event>
<event>
 4    1 -0.6963162E-004  0.2028690E+03  0.7818608E-02  0.1147341E+00
          5   -1    0    0  501    0  0.00000000000E+00  0.00000000000E+00  0.26129466935E+03  0.26133693622E+03  0.47000000000E+01 0. -1.
         -5   -1    0    0    0  501 -0.00000000000E+00 -0.00000000000E+00 -0.56923639203E+03  0.56925579488E+03  0.47000000000E+01 0.  1.
          6    1    1    2  502    0  0.70637924033E+02  0.81130239606E+02  0.19923821144E+03  0.28434432822E+03  0.17200000000E+03 0. -1.
         -6    1    1    2    0  502 -0.70637924033E+02 -0.81130239606E+02 -0.50717993411E+03  0.54624840289E+03  0.17200000000E+03 0.  1.
</event>
<event>
 4    1 -0.6963162E-004  0.1751357E+03  0.7818608E-02  0.1172596E+00
          5   -1    0    0  501    0  0.00000000000E+00  0.00000000000E+00  0.10861860670E+03  0.10872024522E+03  0.47000000000E+01 0. -1.
         -5   -1    0    0    0  501 -0.00000000000E+00 -0.00000000000E+00 -0.32592174249E+03  0.32595562924E+03  0.47000000000E+01 0.  1.
          6    1    1    2  502    0 -0.10681885540E+02  0.31215446616E+02 -0.29005675513E+02  0.17752136772E+03  0.17200000000E+03 0. -1.
         -6    1    1    2    0  502  0.10681885540E+02 -0.31215446616E+02 -0.18829746028E+03  0.25715450674E+03  0.17200000000E+03 0.  1.
</event>
<event>
 4    1 -0.6963162E-004  0.2728912E+03  0.7818608E-02  0.1099636E+00
         -5   -1    0    0    0  501 -0.00000000000E+00  0.00000000000E+00  0.28238264300E+04  0.28238303414E+04  0.47000000000E+01 0.  1.
          5   -1    0    0  501    0  0.00000000000E+00 -0.00000000000E+00 -0.88689628735E+02  0.88814076841E+02  0.47000000000E+01 0. -1.
          6    1    1    2  502    0  0.20982458572E+03  0.29312626337E+02  0.14662512061E+03  0.30978785133E+03  0.17200000000E+03 0. -1.
         -6    1    1    2    0  502 -0.20982458572E+03 -0.29312626337E+02  0.25885116807E+04  0.26028565669E+04  0.17200000000E+03 0.  1.
</event>
<event>
 4    1 -0.6963162E-004  0.2024400E+03  0.7818608E-02  0.1147697E+00
          5   -1    0    0  501    0  0.00000000000E+00  0.00000000000E+00  0.49136298065E+02  0.49360569158E+02  0.47000000000E+01 0. -1.
         -5   -1    0    0    0  501 -0.00000000000E+00 -0.00000000000E+00 -0.11205399722E+04  0.11205498291E+04  0.47000000000E+01 0.  1.
          6    1    1    2  502    0  0.10195925517E+03  0.31658261438E+02 -0.23885707880E+03  0.31310483760E+03  0.17200000000E+03 0. -1.
         -6    1    1    2    0  502 -0.10195925517E+03 -0.31658261438E+02 -0.83254659537E+03  0.85680556062E+03  0.17200000000E+03 0.  1.
</event>
<event>
 4    1 -0.6963162E-004  0.1976182E+03  0.7818608E-02  0.1151764E+00
         -5   -1    0    0    0  501 -0.00000000000E+00  0.00000000000E+00  0.23002567182E+03  0.23007368319E+03  0.47000000000E+01 0.  1.
          5   -1    0    0  501    0  0.00000000000E+00 -0.00000000000E+00 -0.25640228489E+03  0.25644535812E+03  0.47000000000E+01 0. -1.
          6    1    1    2  502    0 -0.33516456300E+02 -0.91354268024E+02 -0.15463481229E+03  0.25092803809E+03  0.17200000000E+03 0. -1.
         -6    1    1    2    0  502  0.33516456300E+02  0.91354268024E+02  0.12825819922E+03  0.23559100321E+03  0.17200000000E+03 0.  1.
</event>
<event>
 4    1 -0.6963162E-004  0.1750143E+03  0.7818608E-02  0.1172717E+00
          5   -1    0    0  501    0  0.00000000000E+00  0.00000000000E+00  0.58933347636E+03  0.58935221757E+03  0.47000000000E+01 0. -1.
         -5   -1    0    0    0  501 -0.00000000000E+00 -0.00000000000E+00 -0.96754849878E+02  0.96868937100E+02  0.47000000000E+01 0.  1.
          6    1    1    2  502    0 -0.31477953671E+02  0.74253051414E+01  0.47982069008E+03  0.51074249026E+03  0.17200000000E+03 0. -1.
         -6    1    1    2    0  502  0.31477953671E+02 -0.74253051414E+01  0.12757936399E+02  0.17547866442E+03  0.17200000000E+03 0.  1.
</event>
<event>
 4    1 -0.6963162E-004  0.2176297E+03  0.7818608E-02  0.1135663E+00
         -5   -1    0    0    0  501 -0.00000000000E+00  0.00000000000E+00  0.71035317797E+03  0.71036872640E+03  0.47000000000E+01 0.  1.
          5   -1    0    0  501    0  0.00000000000E+00 -0.00000000000E+00 -0.40080181477E+03  0.40082937108E+03  0.47000000000E+01 0. -1.
          6    1    1    2  502    0  0.51366806821E+02  0.12304532437E+03 -0.35251402811E+03  0.41428111314E+03  0.17200000000E+03 0. -1.
         -6    1    1    2    0  502 -0.51366806821E+02 -0.12304532437E+03  0.66206539131E+03  0.69691698434E+03  0.17200000000E+03 0.  1.
</event>
<event>
 4    1 -0.6963162E-004  0.2670886E+03  0.7818608E-02  0.1102958E+00
         -5   -1    0    0    0  501 -0.00000000000E+00  0.00000000000E+00  0.35783469333E+02  0.36090811539E+02  0.47000000000E+01 0.  1.
          5   -1    0    0  501    0  0.00000000000E+00 -0.00000000000E+00 -0.25042538207E+04  0.25042582312E+04  0.47000000000E+01 0. -1.
          6    1    1    2  502    0 -0.13539215515E+03  0.15304006224E+03 -0.65573409361E+03  0.70804201701E+03  0.17200000000E+03 0. -1.
         -6    1    1    2    0  502  0.13539215515E+03 -0.15304006224E+03 -0.18127362577E+04  0.18323070257E+04  0.17200000000E+03 0.  1.
</event>
<event>
 4    1 -0.6963162E-004  0.2222500E+03  0.7818608E-02  0.1132217E+00
         -5   -1    0    0    0  501 -0.00000000000E+00  0.00000000000E+00  0.61459889774E+03  0.61461686854E+03  0.47000000000E+01 0.  1.
          5   -1    0    0  501    0  0.00000000000E+00 -0.00000000000E+00 -0.20982982160E+03  0.20988245290E+03  0.47000000000E+01 0. -1.
          6    1    1    2  502    0 -0.12904947559E+03  0.56189729080E+02 -0.12145161302E+03  0.25326971218E+03  0.17200000000E+03 0. -1.
         -6    1    1    2    0  502  0.12904947559E+03 -0.56189729080E+02  0.52622068915E+03  0.57122960926E+03  0.17200000000E+03 0.  1.
</event>
<event>
 4    1 -0.6963162E-004  0.1728533E+03  0.7818608E-02  0.1174905E+00
         -5   -1    0    0    0  501 -0.00000000000E+00  0.00000000000E+00  0.14554273965E+04  0.14554349853E+04  0.47000000000E+01 0.  1.
          5   -1    0    0  501    0  0.00000000000E+00 -0.00000000000E+00 -0.28930216959E+02  0.29309511311E+02  0.47000000000E+01 0. -1.
          6    1    1    2  502    0  0.29573751816E+00  0.17151192485E+02  0.30989513673E+03  0.35484256598E+03  0.17200000000E+03 0. -1.
         -6    1    1    2    0  502 -0.29573751816E+00 -0.17151192485E+02  0.11166020428E+04  0.11299019306E+04  0.17200000000E+03 0.  1.
</event>
<event>
 4    1 -0.6963162E-004  0.2230241E+03  0.7818608E-02  0.1131648E+00
         -5   -1    0    0    0  501 -0.00000000000E+00  0.00000000000E+00  0.25300505574E+03  0.25304870723E+03  0.47000000000E+01 0.  1.
          5   -1    0    0  501    0  0.00000000000E+00 -0.00000000000E+00 -0.52063236529E+03  0.52065357945E+03  0.47000000000E+01 0. -1.
          6    1    1    2  502    0 -0.14535446485E+02 -0.14122487349E+03 -0.43902478705E+03  0.49242512907E+03  0.17200000000E+03 0. -1.
         -6    1    1    2    0  502  0.14535446485E+02  0.14122487349E+03  0.17139747750E+03  0.28127715760E+03  0.17200000000E+03 0.  1.
</event>
<event>
 4    1 -0.6963162E-004  0.1964433E+03  0.7818608E-02  0.1152775E+00
         -5   -1    0    0    0  501 -0.00000000000E+00  0.00000000000E+00  0.19385068475E+03  0.19390765322E+03  0.47000000000E+01 0.  1.
          5   -1    0    0  501    0  0.00000000000E+00 -0.00000000000E+00 -0.20951474500E+03  0.20956745543E+03  0.47000000000E+01 0. -1.
          6    1    1    2  502    0  0.75395973721E+02 -0.57631620348E+02 -0.53107113230E+02  0.20349526283E+03  0.17200000000E+03 0. -1.
         -6    1    1    2    0  502 -0.75395973721E+02  0.57631620348E+02  0.37443052974E+02  0.19997984582E+03  0.17200000000E+03 0.  1.
</event>
<event>
 4    1 -0.6963162E-004  0.2004318E+03  0.7818608E-02  0.1149375E+00
          5   -1    0    0  501    0  0.00000000000E+00  0.00000000000E+00  0.21748061598E+03  0.21753139619E+03  0.47000000000E+01 0. -1.
         -5   -1    0    0    0  501 -0.00000000000E+00 -0.00000000000E+00 -0.42815932247E+03  0.42818511816E+03  0.47000000000E+01 0.  1.
          6    1    1    2  502    0 -0.97664438478E+01 -0.10243787805E+03  0.13813250495E+03  0.24342040015E+03  0.17200000000E+03 0. -1.
         -6    1    1    2    0  502  0.97664438478E+01  0.10243787805E+03 -0.34881121143E+03  0.40229611421E+03  0.17200000000E+03 0.  1.
</event>
<event>
 4    1 -0.6963162E-004  0.1842824E+03  0.7818608E-02  0.1163722E+00
         -5   -1    0    0    0  501 -0.00000000000E+00  0.00000000000E+00  0.45897825590E+03  0.45900231959E+03  0.47000000000E+01 0.  1.
          5   -1    0    0  501    0  0.00000000000E+00 -0.00000000000E+00 -0.11181031469E+03  0.11190905446E+03  0.47000000000E+01 0. -1.
          6    1    1    2  502    0 -0.23950997303E+01  0.66108078832E+02  0.74542122604E+01  0.18443313116E+03  0.17200000000E+03 0. -1.
         -6    1    1    2    0  502  0.23950997303E+01 -0.66108078832E+02  0.33971372895E+03  0.38647824289E+03  0.17200000000E+03 0.  1.
</event>
<event>
 4    1 -0.6963162E-004  0.2054071E+03  0.7818608E-02  0.1145256E+00
          5   -1    0    0  501    0  0.00000000000E+00  0.00000000000E+00  0.76111567914E+03  0.76113019059E+03  0.47000000000E+01 0. -1.
         -5   -1    0    0    0  501 -0.00000000000E+00 -0.00000000000E+00 -0.40029689425E+03  0.40032448532E+03  0.47000000000E+01 0.  1.
          6    1    1    2  502    0 -0.10784340087E+03 -0.31270855341E+02  0.71943187817E+03  0.74818065521E+03  0.17200000000E+03 0. -1.
         -6    1    1    2    0  502  0.10784340087E+03  0.31270855341E+02 -0.35861309328E+03  0.41327402069E+03  0.17200000000E+03 0.  1.
</event>
<event>
 4    1 -0.6963162E-004  0.3849159E+03  0.7818608E-02  0.1049132E+00
          5   -1    0    0  501    0  0.00000000000E+00  0.00000000000E+00  0.96773689854E+03  0.96774831170E+03  0.47000000000E+01 0. -1.
         -5   -1    0    0    0  501 -0.00000000000E+00 -0.00000000000E+00 -0.15642773592E+03  0.15649832768E+03  0.47000000000E+01 0.  1.
          6    1    1    2  502    0 -0.10540911061E+03 -0.32781884750E+03  0.48821753870E+03  0.62170462639E+03  0.17200000000E+03 0. -1.
         -6    1    1    2    0  502  0.10540911061E+03  0.32781884750E+03  0.32309162392E+03  0.50254201299E+03  0.17200000000E+03 0.  1.
</event>
<event>
 4    1 -0.6963162E-004  0.1786383E+03  0.7818608E-02  0.1169127E+00
          5   -1    0    0  501    0  0.00000000000E+00  0.00000000000E+00  0.20538463062E+03  0.20543840073E+03  0.47000000000E+01 0. -1.
         -5   -1    0    0    0  501 -0.00000000000E+00 -0.00000000000E+00 -0.33159107642E+03  0.33162438384E+03  0.47000000000E+01 0.  1.
          6    1    1    2  502    0  0.42362556202E+02 -0.23087727496E+02  0.13268301283E+03  0.22252283303E+03  0.17200000000E+03 0. -1.
         -6    1    1    2    0  502 -0.42362556202E+02  0.23087727496E+02 -0.25888945862E+03  0.31453995154E+03  0.17200000000E+03 0.  1.
</event>
<event>
 4    1 -0.6963162E-004  0.1975122E+03  0.7818608E-02  0.1151855E+00
          5   -1    0    0  501    0  0.00000000000E+00  0.00000000000E+00  0.12787821901E+04  0.12787908272E+04  0.47000000000E+01 0. -1.
         -5   -1    0    0    0  501 -0.00000000000E+00 -0.00000000000E+00 -0.28608151686E+03  0.28612012213E+03  0.47000000000E+01 0.  1.
          6    1    1    2  502    0 -0.56804052766E+02  0.78742490060E+02  0.12359157800E+04  0.12515985360E+04  0.17200000000E+03 0. -1.
         -6    1    1    2    0  502  0.56804052766E+02 -0.78742490060E+02 -0.24321510677E+03  0.31331241328E+03  0.17200000000E+03 0.  1.
</event>
<event>
 4    1 -0.6963162E-004  0.3096678E+03  0.7818608E-02  0.1080505E+00
          5   -1    0    0  501    0  0.00000000000E+00  0.00000000000E+00  0.16181060545E+03  0.16187884987E+03  0.47000000000E+01 0. -1.
         -5   -1    0    0    0  501 -0.00000000000E+00 -0.00000000000E+00 -0.14613005377E+04  0.14613080960E+04  0.47000000000E+01 0.  1.
          6    1    1    2  502    0 -0.16832662015E+03 -0.19487514363E+03 -0.23946774860E+02  0.31059237061E+03  0.17200000000E+03 0. -1.
         -6    1    1    2    0  502  0.16832662015E+03  0.19487514363E+03 -0.12755431573E+04  0.13125945752E+04  0.17200000000E+03 0.  1.
</event>
<event>
 4    1 -0.6963162E-004  0.2303406E+03  0.7818608E-02  0.1126400E+00
          5   -1    0    0  501    0  0.00000000000E+00  0.00000000000E+00  0.25065905647E+03  0.25070311643E+03  0.47000000000E+01 0. -1.
         -5   -1    0    0    0  501 -0.00000000000E+00 -0.00000000000E+00 -0.80340253330E+03  0.80341628096E+03  0.47000000000E+01 0.  1.
          6    1    1    2  502    0 -0.13760736544E+03  0.67357245328E+02  0.17597139485E+03  0.28986672338E+03  0.17200000000E+03 0. -1.
         -6    1    1    2    0  502  0.13760736544E+03 -0.67357245328E+02 -0.72871487168E+03  0.76425267401E+03  0.17200000000E+03 0.  1.
</event>
<event>
 4    1 -0.6963162E-004  0.6880276E+03  0.7818608E-02  0.9737928E-01
         -5   -1    0    0    0  501 -0.00000000000E+00  0.00000000000E+00  0.13243740992E+04  0.13243824389E+04  0.47000000000E+01 0.  1.
          5   -1    0    0  501    0  0.00000000000E+00 -0.00000000000E+00 -0.69847122081E+03  0.69848703374E+03  0.47000000000E+01 0. -1.
          6    1    1    2  502    0 -0.45320703225E+03 -0.48826363534E+03 -0.39380176439E+03  0.79275583966E+03  0.17200000000E+03 0. -1.
         -6    1    1    2    0  502  0.45320703225E+03  0.48826363534E+03  0.10197046427E+04  0.12301136330E+04  0.17200000000E+03 0.  1.
</event>
<event>
 4    1 -0.6963162E-004  0.2044018E+03  0.7818608E-02  0.1146077E+00
         -5   -1    0    0    0  501 -0.00000000000E+00  0.00000000000E+00  0.28946955599E+03  0.28950770948E+03  0.47000000000E+01 0.  1.
          5   -1    0    0  501    0  0.00000000000E+00 -0.00000000000E+00 -0.29285040892E+03  0.29288812199E+03  0.47000000000E+01 0. -1.
          6    1    1    2  502    0 -0.61500973141E+02  0.91726469317E+02 -0.20909028968E+03  0.29240188801E+03  0.17200000000E+03 0. -1.
         -6    1    1    2    0  502  0.61500973141E+02 -0.91726469317E+02  0.20570943676E+03  0.28999394346E+03  0.17200000000E+03 0.  1.
</event>
<event>
 4    1 -0.6963162E-004  0.5887984E+03  0.7818608E-02  0.9928922E-01
         -5   -1    0    0    0  501 -0.00000000000E+00  0.00000000000E+00  0.12833626237E+04  0.12833712300E+04  0.47000000000E+01 0.  1.
          5   -1    0    0  501    0  0.00000000000E+00 -0.00000000000E+00 -0.34849722304E+03  0.34852891482E+03  0.47000000000E+01 0. -1.
          6    1    1    2  502    0  0.50845579772E+03 -0.24201700649E+03  0.80471688321E+02  0.59427201035E+03  0.17200000000E+03 0. -1.
         -6    1    1    2    0  502 -0.50845579772E+03  0.24201700649E+03  0.85439371233E+03  0.10376281344E+04  0.17200000000E+03 0.  1.
</event>
<event>
 4    1 -0.6963162E-004  0.2334782E+03  0.7818608E-02  0.1124215E+00
         -5   -1    0    0    0  501 -0.00000000000E+00  0.00000000000E+00  0.41034854447E+03  0.41037545973E+03  0.47000000000E+01 0.  1.
          5   -1    0    0  501    0  0.00000000000E+00 -0.00000000000E+00 -0.35549143446E+03  0.35552250277E+03  0.47000000000E+01 0. -1.
          6    1    1    2  502    0 -0.43872017033E+02  0.15166841044E+03 -0.27565026057E+03  0.36124109229E+03  0.17200000000E+03 0. -1.
         -6    1    1    2    0  502  0.43872017033E+02 -0.15166841044E+03  0.33050737058E+03  0.40465687021E+03  0.17200000000E+03 0.  1.
</event>
<event>
 4    1 -0.6963162E-004  0.1845825E+03  0.7818608E-02  0.1163440E+00
         -5   -1    0    0    0  501 -0.00000000000E+00  0.00000000000E+00  0.12339841149E+03  0.12348788588E+03  0.47000000000E+01 0.  1.
          5   -1    0    0  501    0  0.00000000000E+00 -0.00000000000E+00 -0.71038828954E+03  0.71040383720E+03  0.47000000000E+01 0. -1.
          6    1    1    2  502    0 -0.49622114759E+02  0.44992808525E+02 -0.61954786208E+03  0.64645979032E+03  0.17200000000E+03 0. -1.
         -6    1    1    2    0  502  0.49622114759E+02 -0.44992808525E+02  0.32557984036E+02  0.18743193276E+03  0.17200000000E+03 0.  1.
</event>
<event>
 4    1 -0.6963162E-004  0.1722937E+03  0.7818608E-02  0.1175477E+00
          5   -1    0    0  501    0  0.00000000000E+00  0.00000000000E+00  0.10877547610E+03  0.10887696818E+03  0.47000000000E+01 0. -1.
         -5   -1    0    0    0  501 -0.00000000000E+00 -0.00000000000E+00 -0.48650181398E+03  0.48652451634E+03  0.47000000000E+01 0.  1.
          6    1    1    2  502    0  0.78027393622E+01  0.63438036421E+01  0.84840223973E+01  0.17250247889E+03  0.17200000000E+03 0. -1.
         -6    1    1    2    0  502 -0.78027393622E+01 -0.63438036421E+01 -0.38621036027E+03  0.42289900564E+03  0.17200000000E+03 0.  1.
</event>
<event>
 4    1 -0.6963162E-004  0.2425376E+03  0.7818608E-02  0.1118114E+00
         -5   -1    0    0    0  501 -0.00000000000E+00  0.00000000000E+00  0.33576040045E+03  0.33579329432E+03  0.47000000000E+01 0.  1.
          5   -1    0    0  501    0  0.00000000000E+00 -0.00000000000E+00 -0.86802158747E+03  0.86803431172E+03  0.47000000000E+01 0. -1.
          6    1    1    2  502    0  0.12237868065E+03  0.11943169888E+03 -0.80388703099E+03  0.83967781367E+03  0.17200000000E+03 0. -1.
         -6    1    1    2    0  502 -0.12237868065E+03 -0.11943169888E+03  0.27162584397E+03  0.36414979237E+03  0.17200000000E+03 0.  1.
</event>
<event>
 4    1 -0.6963162E-004  0.1829264E+03  0.7818608E-02  0.1165001E+00
         -5   -1    0    0    0  501 -0.00000000000E+00  0.00000000000E+00  0.27861095958E+03  0.27865059985E+03  0.47000000000E+01 0.  1.
          5   -1    0    0  501    0  0.00000000000E+00 -0.00000000000E+00 -0.56428836226E+03  0.56430793524E+03  0.47000000000E+01 0. -1.
          6    1    1    2  502    0 -0.21306653239E+02 -0.58515792523E+02 -0.51679168747E+03  0.54821138230E+03  0.17200000000E+03 0. -1.
         -6    1    1    2    0  502  0.21306653239E+02  0.58515792523E+02  0.23111428479E+03  0.29474715280E+03  0.17200000000E+03 0.  1.
</event>
<event>
 4    1 -0.6963162E-004  0.2013141E+03  0.7818608E-02  0.1148635E+00
          5   -1    0    0  501    0  0.00000000000E+00  0.00000000000E+00  0.12404558369E+04  0.12404647409E+04  0.47000000000E+01 0. -1.
         -5   -1    0    0    0  501 -0.00000000000E+00 -0.00000000000E+00 -0.10703536809E+03  0.10713850858E+03  0.47000000000E+01 0.  1.
          6    1    1    2  502    0  0.93000196163E+02 -0.47899306089E+02  0.11284096862E+04  0.11462267664E+04  0.17200000000E+03 0. -1.
         -6    1    1    2    0  502 -0.93000196163E+02  0.47899306089E+02  0.50107826538E+01  0.20137648312E+03  0.17200000000E+03 0.  1.
</event>
<event>
 4    1 -0.6963162E-004  0.1872656E+03  0.7818608E-02  0.1160951E+00
         -5   -1    0    0    0  501 -0.00000000000E+00  0.00000000000E+00  0.16675935672E+04  0.16676001905E+04  0.47000000000E+01 0.  1.
          5   -1    0    0  501    0  0.00000000000E+00 -0.00000000000E+00 -0.68211353555E+02  0.68373085010E+02  0.47000000000E+01 0. -1.
          6    1    1    2  502    0  0.11565612421E+02 -0.73148048550E+02  0.77591592629E+02  0.20270386194E+03  0.17200000000E+03 0. -1.
         -6    1    1    2    0  502 -0.11565612421E+02  0.73148048550E+02  0.15217906211E+04  0.15332694136E+04  0.17200000000E+03 0.  1.
</event>
<event>
 4    1 -0.6963162E-004  0.1978962E+03  0.7818608E-02  0.1151526E+00
         -5   -1    0    0    0  501 -0.00000000000E+00  0.00000000000E+00  0.10637007957E+03  0.10647386453E+03  0.47000000000E+01 0.  1.
          5   -1    0    0  501    0  0.00000000000E+00 -0.00000000000E+00 -0.70618879653E+03  0.70620443665E+03  0.47000000000E+01 0. -1.
          6    1    1    2  502    0 -0.64686857175E+02 -0.73447495841E+02 -0.58113012041E+03  0.61390157272E+03  0.17200000000E+03 0. -1.
         -6    1    1    2    0  502  0.64686857175E+02  0.73447495841E+02 -0.18688596551E+02  0.19877672846E+03  0.17200000000E+03 0.  1.
</event>
<event>
 4    1 -0.6963162E-004  0.2241852E+03  0.7818608E-02  0.1130801E+00
         -5   -1    0    0    0  501 -0.00000000000E+00  0.00000000000E+00  0.13814143651E+04  0.13814223605E+04  0.47000000000E+01 0.  1.
          5   -1    0    0  501    0  0.00000000000E+00 -0.00000000000E+00 -0.61112716491E+02  0.61293181651E+02  0.47000000000E+01 0. -1.
          6    1    1    2  502    0  0.14081455388E+03 -0.29090490414E+02  0.20072666057E+03  0.30091558198E+03  0.17200000000E+03 0.  1.
         -6    1    1    2    0  502 -0.14081455388E+03  0.29090490414E+02  0.11195749880E+04  0.11417999602E+04  0.17200000000E+03 0.  1.
</event>
<event>
 4    1 -0.6963162E-004  0.1760144E+03  0.7818608E-02  0.1171717E+00
          5   -1    0    0  501    0  0.00000000000E+00  0.00000000000E+00  0.55394953835E+03  0.55396947663E+03  0.47000000000E+01 0. -1.
         -5   -1    0    0    0  501 -0.00000000000E+00 -0.00000000000E+00 -0.10479594153E+03  0.10490128388E+03  0.47000000000E+01 0.  1.
          6    1    1    2  502    0 -0.34903818155E+02  0.13371468219E+02  0.44963157737E+03  0.48285570107E+03  0.17200000000E+03 0. -1.
         -6    1    1    2    0  502  0.34903818155E+02 -0.13371468219E+02 -0.47798055530E+00  0.17601505944E+03  0.17200000000E+03 0.  1.
</event>
<event>
 4    1 -0.6963162E-004  0.2068115E+03  0.7818608E-02  0.1144116E+00
          5   -1    0    0  501    0  0.00000000000E+00  0.00000000000E+00  0.11386794695E+03  0.11396490399E+03  0.47000000000E+01 0. -1.
         -5   -1    0    0    0  501 -0.00000000000E+00 -0.00000000000E+00 -0.42223044057E+03  0.42225659846E+03  0.47000000000E+01 0.  1.
          6    1    1    2  502    0 -0.11480196883E+03  0.27358004107E+01 -0.64854330333E+02  0.21674192214E+03  0.17200000000E+03 0. -1.
         -6    1    1    2    0  502  0.11480196883E+03 -0.27358004107E+01 -0.24350816329E+03  0.31947958032E+03  0.17200000000E+03 0.  1.
</event>
<event>
 4    1 -0.6963162E-004  0.1780327E+03  0.7818608E-02  0.1169721E+00
          5   -1    0    0  501    0  0.00000000000E+00  0.00000000000E+00  0.14505793128E+03  0.14513405330E+03  0.47000000000E+01 0. -1.
         -5   -1    0    0    0  501 -0.00000000000E+00 -0.00000000000E+00 -0.48758183332E+03  0.48760448541E+03  0.47000000000E+01 0.  1.
          6    1    1    2  502    0  0.76581020981E+01 -0.45309899228E+02  0.63803027816E+02  0.18912022593E+03  0.17200000000E+03 0. -1.
         -6    1    1    2    0  502 -0.76581020981E+01  0.45309899228E+02 -0.40632692987E+03  0.44361831278E+03  0.17200000000E+03 0.  1.
</event>
<event>
 4    1 -0.6963162E-004  0.2325925E+03  0.7818608E-02  0.1124828E+00
         -5   -1    0    0    0  501 -0.00000000000E+00  0.00000000000E+00  0.28492008501E+03  0.28495884763E+03  0.47000000000E+01 0.  1.
          5   -1    0    0  501    0  0.00000000000E+00 -0.00000000000E+00 -0.23003303275E+04  0.23003351290E+04  0.47000000000E+01 0. -1.
          6    1    1    2  502    0  0.77300233199E+02  0.13616147065E+03 -0.22458588524E+04  0.22578709567E+04  0.17200000000E+03 0. -1.
         -6    1    1    2    0  502 -0.77300233199E+02 -0.13616147065E+03  0.23044860993E+03  0.32742301990E+03  0.17200000000E+03 0.  1.
</event>
<event>
 4    1 -0.6963162E-004  0.2174833E+03  0.7818608E-02  0.1135773E+00
          5   -1    0    0  501    0  0.00000000000E+00  0.00000000000E+00  0.10768096060E+04  0.10768198631E+04  0.47000000000E+01 0. -1.
         -5   -1    0    0    0  501 -0.00000000000E+00 -0.00000000000E+00 -0.47271395652E+03  0.47273732103E+03  0.47000000000E+01 0.  1.
          6    1    1    2  502    0  0.40160674116E+02 -0.12689401352E+03  0.10399542346E+04  0.10624517780E+04  0.17200000000E+03 0. -1.
         -6    1    1    2    0  502 -0.40160674116E+02  0.12689401352E+03 -0.43585858517E+03  0.48710540613E+03  0.17200000000E+03 0.  1.
</event>
<event>
 4    1 -0.6963162E-004  0.1721384E+03  0.7818608E-02  0.1175636E+00
         -5   -1    0    0    0  501 -0.00000000000E+00  0.00000000000E+00  0.37168505154E+02  0.37464486856E+02  0.47000000000E+01 0.  1.
          5   -1    0    0  501    0  0.00000000000E+00 -0.00000000000E+00 -0.81516190104E+03  0.81517545039E+03  0.47000000000E+01 0. -1.
          6    1    1    2  502    0  0.67808290372E+01  0.12863797582E+01 -0.45806216851E+03  0.48933892614E+03  0.17200000000E+03 0. -1.
         -6    1    1    2    0  502 -0.67808290372E+01 -0.12863797582E+01 -0.31993122738E+03  0.36330101110E+03  0.17200000000E+03 0.  1.
</event>
<event>
 4    1 -0.6963162E-004  0.2109483E+03  0.7818608E-02  0.1140817E+00
         -5   -1    0    0    0  501 -0.00000000000E+00  0.00000000000E+00  0.35765882710E+04  0.35765913592E+04  0.47000000000E+01 0.  1.
          5   -1    0    0  501    0  0.00000000000E+00 -0.00000000000E+00 -0.15141954412E+02  0.15854613947E+02  0.47000000000E+01 0. -1.
          6    1    1    2  502    0 -0.69843854167E+02  0.10018495932E+03  0.98271736400E+03  0.10051032820E+04  0.17200000000E+03 0. -1.
         -6    1    1    2    0  502  0.69843854167E+02 -0.10018495932E+03  0.25787289526E+04  0.25873426911E+04  0.17200000000E+03 0. -1.
</event>
<event>
 4    1 -0.6963162E-004  0.1912264E+03  0.7818608E-02  0.1157360E+00
         -5   -1    0    0    0  501 -0.00000000000E+00  0.00000000000E+00  0.65475104304E+03  0.65476791183E+03  0.47000000000E+01 0.  1.
          5   -1    0    0  501    0  0.00000000000E+00 -0.00000000000E+00 -0.52597658697E+03  0.52599758559E+03  0.47000000000E+01 0. -1.
          6    1    1    2  502    0  0.44415864824E+02  0.70786906454E+02 -0.49377409328E+03  0.52950959421E+03  0.17200000000E+03 0. -1.
         -6    1    1    2    0  502 -0.44415864824E+02 -0.70786906454E+02  0.62254854934E+03  0.65125590320E+03  0.17200000000E+03 0.  1.
</event>
<event>
 4    1 -0.6963162E-004  0.2236053E+03  0.7818608E-02  0.1131223E+00
         -5   -1    0    0    0  501 -0.00000000000E+00  0.00000000000E+00  0.46651907126E+03  0.46654274601E+03  0.47000000000E+01 0.  1.
          5   -1    0    0  501    0  0.00000000000E+00 -0.00000000000E+00 -0.14225038082E+03  0.14232800443E+03  0.47000000000E+01 0. -1.
          6    1    1    2  502    0  0.10079250949E+03 -0.10127284277E+03  0.10856363044E+02  0.22386866522E+03  0.17200000000E+03 0. -1.
         -6    1    1    2    0  502 -0.10079250949E+03  0.10127284277E+03  0.31341232740E+03  0.38500208521E+03  0.17200000000E+03 0.  1.
</event>
<event>
 4    1 -0.6963162E-004  0.3049762E+03  0.7818608E-02  0.1082779E+00
         -5   -1    0    0    0  501 -0.00000000000E+00  0.00000000000E+00  0.19210902320E+03  0.19216650799E+03  0.47000000000E+01 0.  1.
          5   -1    0    0  501    0  0.00000000000E+00 -0.00000000000E+00 -0.50691099332E+03  0.50693278168E+03  0.47000000000E+01 0. -1.
          6    1    1    2  502    0 -0.20869894999E+03 -0.14096545069E+03 -0.23168627084E+03  0.38300004975E+03  0.17200000000E+03 0. -1.
         -6    1    1    2    0  502  0.20869894999E+03  0.14096545069E+03 -0.83115699276E+02  0.31609923992E+03  0.17200000000E+03 0.  1.
</event>
<event>
 4    1 -0.6963162E-004  0.1780568E+03  0.7818608E-02  0.1169697E+00
          5   -1    0    0  501    0  0.00000000000E+00  0.00000000000E+00  0.48573921870E+03  0.48576195670E+03  0.47000000000E+01 0. -1.
         -5   -1    0    0    0  501 -0.00000000000E+00 -0.00000000000E+00 -0.22195578234E+03  0.22200553893E+03  0.47000000000E+01 0.  1.
          6    1    1    2  502    0 -0.36662295614E+02 -0.27858263097E+02  0.42923879685E+03  0.46470436996E+03  0.17200000000E+03 0. -1.
         -6    1    1    2    0  502  0.36662295614E+02  0.27858263097E+02 -0.16545536050E+03  0.24306312567E+03  0.17200000000E+03 0.  1.
</event>
<event>
 4    1 -0.6963162E-004  0.1799913E+03  0.7818608E-02  0.1167812E+00
          5   -1    0    0  501    0  0.00000000000E+00  0.00000000000E+00  0.40943184397E+03  0.40945881949E+03  0.47000000000E+01 0. -1.
         -5   -1    0    0    0  501 -0.00000000000E+00 -0.00000000000E+00 -0.82293447313E+02  0.82427552861E+02  0.47000000000E+01 0.  1.
          6    1    1    2  502    0 -0.53028470192E+02 -0.91258020108E+00  0.21252012661E+03  0.27849893298E+03  0.17200000000E+03 0. -1.
         -6    1    1    2    0  502  0.53028470192E+02  0.91258020108E+00  0.11461827004E+03  0.21338743937E+03  0.17200000000E+03 0.  1.
</event>
<event>
 4    1 -0.6963162E-004  0.1756746E+03  0.7818608E-02  0.1172056E+00
          5   -1    0    0  501    0  0.00000000000E+00  0.00000000000E+00  0.31316065451E+03  0.31319592196E+03  0.47000000000E+01 0. -1.
         -5   -1    0    0    0  501 -0.00000000000E+00 -0.00000000000E+00 -0.19122121467E+03  0.19127896628E+03  0.47000000000E+01 0.  1.
          6    1    1    2  502    0 -0.35672842237E+02  0.22409051416E+01  0.23660324718E+03  0.29469080390E+03  0.17200000000E+03 0. -1.
         -6    1    1    2    0  502  0.35672842237E+02 -0.22409051416E+01 -0.11466380734E+03  0.20978408434E+03  0.17200000000E+03 0.  1.
</event>
<event>
 4    1 -0.6963162E-004  0.1875714E+03  0.7818608E-02  0.1160670E+00
         -5   -1    0    0    0  501 -0.00000000000E+00  0.00000000000E+00  0.68803760651E+02  0.68964102835E+02  0.47000000000E+01 0.  1.
          5   -1    0    0  501    0  0.00000000000E+00 -0.00000000000E+00 -0.94263558619E+03  0.94264730326E+03  0.47000000000E+01 0. -1.
          6    1    1    2  502    0 -0.65914629582E+02  0.35415943117E+02 -0.77931874415E+03  0.80157390951E+03  0.17200000000E+03 0. -1.
         -6    1    1    2    0  502  0.65914629582E+02 -0.35415943117E+02 -0.94513081384E+02  0.21003749659E+03  0.17200000000E+03 0.  1.
</event>
<event>
 4    1 -0.6963162E-004  0.2138007E+03  0.7818608E-02  0.1138591E+00
         -5   -1    0    0    0  501 -0.00000000000E+00  0.00000000000E+00  0.12498135999E+03  0.12506970194E+03  0.47000000000E+01 0.  1.
          5   -1    0    0  501    0  0.00000000000E+00 -0.00000000000E+00 -0.43413311299E+03  0.43415855375E+03  0.47000000000E+01 0. -1.
          6    1    1    2  502    0  0.12698799776E+03 -0.87772091442E+00 -0.26573169717E+03  0.34106312737E+03  0.17200000000E+03 0. -1.
         -6    1    1    2    0  502 -0.12698799776E+03  0.87772091442E+00 -0.43420055836E+02  0.21816512833E+03  0.17200000000E+03 0.  1.
</event>
<event>
 4    1 -0.6963162E-004  0.2003250E+03  0.7818608E-02  0.1149465E+00
          5   -1    0    0  501    0  0.00000000000E+00  0.00000000000E+00  0.33892411793E+03  0.33895670478E+03  0.47000000000E+01 0. -1.
         -5   -1    0    0    0  501 -0.00000000000E+00 -0.00000000000E+00 -0.84498842850E+03  0.84500149959E+03  0.47000000000E+01 0.  1.
          6    1    1    2  502    0 -0.89819211092E+02  0.49785712233E+02  0.29591085156E+03  0.35734204888E+03  0.17200000000E+03 0. -1.
         -6    1    1    2    0  502  0.89819211092E+02 -0.49785712233E+02 -0.80197516214E+03  0.82661615549E+03  0.17200000000E+03 0.  1.
</event>
<event>
 4    1 -0.6963162E-004  0.2073585E+03  0.7818608E-02  0.1143675E+00
          5   -1    0    0  501    0  0.00000000000E+00  0.00000000000E+00  0.15090730569E+03  0.15098047858E+03  0.47000000000E+01 0. -1.
         -5   -1    0    0    0  501 -0.00000000000E+00 -0.00000000000E+00 -0.42083886954E+03  0.42086511392E+03  0.47000000000E+01 0.  1.
          6    1    1    2  502    0  0.71265297663E+01 -0.11559732762E+03  0.27597886416E+02  0.20918693294E+03  0.17200000000E+03 0. -1.
         -6    1    1    2    0  502 -0.71265297663E+01  0.11559732762E+03 -0.29752945026E+03  0.36265865956E+03  0.17200000000E+03 0.  1.
</event>
<event>
 4    1 -0.6963162E-004  0.1726656E+03  0.7818608E-02  0.1175096E+00
          5   -1    0    0  501    0  0.00000000000E+00  0.00000000000E+00  0.19349700995E+03  0.19355408251E+03  0.47000000000E+01 0. -1.
         -5   -1    0    0    0  501 -0.00000000000E+00 -0.00000000000E+00 -0.71701580483E+03  0.71703120879E+03  0.47000000000E+01 0.  1.
          6    1    1    2  502    0  0.65486684724E+01 -0.13657258922E+02  0.14167326958E+03  0.22334887753E+03  0.17200000000E+03 0. -1.
         -6    1    1    2    0  502 -0.65486684724E+01  0.13657258922E+02 -0.66519206447E+03  0.68723641377E+03  0.17200000000E+03 0.  1.
</event>
<event>
 4    1 -0.6963162E-004  0.1745595E+03  0.7818608E-02  0.1173175E+00
          5   -1    0    0  501    0  0.00000000000E+00  0.00000000000E+00  0.39031731625E+03  0.39034561271E+03  0.47000000000E+01 0. -1.
         -5   -1    0    0    0  501 -0.00000000000E+00 -0.00000000000E+00 -0.13528007897E+03  0.13536169977E+03  0.47000000000E+01 0.  1.
          6    1    1    2  502    0 -0.57542986236E+01  0.29221457891E+02  0.29852239958E+03  0.34581299658E+03  0.17200000000E+03 0. -1.
         -6    1    1    2    0  502  0.57542986236E+01 -0.29221457891E+02 -0.43485162298E+02  0.17989431590E+03  0.17200000000E+03 0.  1.
</event>
<event>
 4    1 -0.6963162E-004  0.1742708E+03  0.7818608E-02  0.1173466E+00
          5   -1    0    0  501    0  0.00000000000E+00  0.00000000000E+00  0.83201709653E+03  0.83203037139E+03  0.47000000000E+01 0. -1.
         -5   -1    0    0    0  501 -0.00000000000E+00 -0.00000000000E+00 -0.10261229027E+03  0.10271987205E+03  0.47000000000E+01 0.  1.
          6    1    1    2  502    0  0.22779247638E+01 -0.27948796056E+02  0.73991684231E+03  0.76016265212E+03  0.17200000000E+03 0. -1.
         -6    1    1    2    0  502 -0.22779247638E+01  0.27948796056E+02 -0.10512036047E+02  0.17458759132E+03  0.17200000000E+03 0.  1.
</event>
<event>
 4    1 -0.6963162E-004  0.3455685E+03  0.7818608E-02  0.1064449E+00
         -5   -1    0    0    0  501 -0.00000000000E+00  0.00000000000E+00  0.70862755068E+03  0.70864313697E+03  0.47000000000E+01 0.  1.
          5   -1    0    0  501    0  0.00000000000E+00 -0.00000000000E+00 -0.77883041154E+03  0.77884459293E+03  0.47000000000E+01 0. -1.
          6    1    1    2  502    0 -0.26781045059E+03  0.13457763227E+03 -0.69348640349E+03  0.77481673212E+03  0.17200000000E+03 0. -1.
         -6    1    1    2    0  502  0.26781045059E+03 -0.13457763227E+03  0.62328354263E+03  0.71267099777E+03  0.17200000000E+03 0.  1.
</event>
<event>
 4    1 -0.6963162E-004  0.1800672E+03  0.7818608E-02  0.1167738E+00
          5   -1    0    0  501    0  0.00000000000E+00  0.00000000000E+00  0.16444924132E+04  0.16444991295E+04  0.47000000000E+01 0. -1.
         -5   -1    0    0    0  501 -0.00000000000E+00 -0.00000000000E+00 -0.10097594598E+03  0.10108526929E+03  0.47000000000E+01 0.  1.
          6    1    1    2  502    0 -0.16670843837E+02  0.50618933558E+02  0.15547731292E+04  0.15651657027E+04  0.17200000000E+03 0. -1.
         -6    1    1    2    0  502  0.16670843837E+02 -0.50618933558E+02 -0.11256662049E+02  0.18041869612E+03  0.17200000000E+03 0.  1.
</event>
<event>
 4    1 -0.6963162E-004  0.1952185E+03  0.7818608E-02  0.1153837E+00
          5   -1    0    0  501    0  0.00000000000E+00  0.00000000000E+00  0.22828590175E+03  0.22833427894E+03  0.47000000000E+01 0. -1.
         -5   -1    0    0    0  501 -0.00000000000E+00 -0.00000000000E+00 -0.18943980655E+03  0.18949810106E+03  0.47000000000E+01 0.  1.
          6    1    1    2  502    0  0.39307602793E+02  0.83553382101E+02  0.91557924049E+02  0.21562260724E+03  0.17200000000E+03 0. -1.
         -6    1    1    2    0  502 -0.39307602793E+02 -0.83553382101E+02 -0.52711828853E+02  0.20220977276E+03  0.17200000000E+03 0.  1.
</event>
<event>
 4    1 -0.6963162E-004  0.1859707E+03  0.7818608E-02  0.1162147E+00
         -5   -1    0    0    0  501 -0.00000000000E+00  0.00000000000E+00  0.61445975502E+02  0.61625464748E+02  0.47000000000E+01 0.  1.
          5   -1    0    0  501    0  0.00000000000E+00 -0.00000000000E+00 -0.18364462913E+04  0.18364523056E+04  0.47000000000E+01 0. -1.
          6    1    1    2  502    0 -0.32179072569E+02  0.62973004545E+02 -0.16781052193E+04  0.16883785769E+04  0.17200000000E+03 0. -1.
         -6    1    1    2    0  502  0.32179072569E+02 -0.62973004545E+02 -0.96895096546E+02  0.20969919348E+03  0.17200000000E+03 0.  1.
</event>
<event>
 4    1 -0.6963162E-004  0.2080974E+03  0.7818608E-02  0.1143082E+00
          5   -1    0    0  501    0  0.00000000000E+00  0.00000000000E+00  0.62236400598E+02  0.62413616778E+02  0.47000000000E+01 0. -1.
         -5   -1    0    0    0  501 -0.00000000000E+00 -0.00000000000E+00 -0.10414097183E+04  0.10414203240E+04  0.47000000000E+01 0.  1.
          6    1    1    2  502    0  0.73386437195E+02  0.91295897921E+02 -0.17113128985E+03  0.26942610955E+03  0.17200000000E+03 0. -1.
         -6    1    1    2    0  502 -0.73386437195E+02 -0.91295897921E+02 -0.80804202781E+03  0.83440783125E+03  0.17200000000E+03 0.  1.
</event>
<event>
 4    1 -0.6963162E-004  0.1839112E+03  0.7818608E-02  0.1164071E+00
          5   -1    0    0  501    0  0.00000000000E+00  0.00000000000E+00  0.21508382371E+03  0.21513516966E+03  0.47000000000E+01 0. -1.
         -5   -1    0    0    0  501 -0.00000000000E+00 -0.00000000000E+00 -0.91074019500E+03  0.91075232241E+03  0.47000000000E+01 0.  1.
          6    1    1    2  502    0  0.62009226943E+02 -0.19853698344E+02  0.16422251193E+03  0.24656104110E+03  0.17200000000E+03 0. -1.
         -6    1    1    2    0  502 -0.62009226943E+02  0.19853698344E+02 -0.85987888322E+03  0.87932645097E+03  0.17200000000E+03 0.  1.
</event>
<event>
 4    1 -0.6963162E-004  0.1964390E+03  0.7818608E-02  0.1152779E+00
          5   -1    0    0  501    0  0.00000000000E+00  0.00000000000E+00  0.10293365926E+03  0.10304090551E+03  0.47000000000E+01 0. -1.
         -5   -1    0    0    0  501 -0.00000000000E+00 -0.00000000000E+00 -0.12404802256E+04  0.12404891294E+04  0.47000000000E+01 0.  1.
          6    1    1    2  502    0  0.10648880620E+02 -0.94291437552E+02 -0.75478587657E+01  0.19658393634E+03  0.17200000000E+03 0. -1.
         -6    1    1    2    0  502 -0.10648880620E+02  0.94291437552E+02 -0.11299987076E+04  0.11469460986E+04  0.17200000000E+03 0.  1.
</event>
<event>
 4    1 -0.6963162E-004  0.2045445E+03  0.7818608E-02  0.1145960E+00
         -5   -1    0    0    0  501 -0.00000000000E+00  0.00000000000E+00  0.18650655673E+03  0.18656576777E+03  0.47000000000E+01 0.  1.
          5   -1    0    0  501    0  0.00000000000E+00 -0.00000000000E+00 -0.36415487748E+03  0.36418520672E+03  0.47000000000E+01 0. -1.
          6    1    1    2  502    0  0.62762130016E+01 -0.11052175083E+03 -0.25951316479E+03  0.33043233945E+03  0.17200000000E+03 0. -1.
         -6    1    1    2    0  502 -0.62762130016E+01  0.11052175083E+03  0.81864844042E+02  0.22031863504E+03  0.17200000000E+03 0.  1.
</event>
<event>
 4    1 -0.6963162E-004  0.2446075E+03  0.7818608E-02  0.1116761E+00
          5   -1    0    0  501    0  0.00000000000E+00  0.00000000000E+00  0.11882572126E+03  0.11891863619E+03  0.47000000000E+01 0. -1.
         -5   -1    0    0    0  501 -0.00000000000E+00 -0.00000000000E+00 -0.12676476103E+04  0.12676563233E+04  0.47000000000E+01 0.  1.
          6    1    1    2  502    0 -0.67979026860E+02  0.16008651685E+03 -0.36067011441E+02  0.24725224020E+03  0.17200000000E+03 0. -1.
         -6    1    1    2    0  502  0.67979026860E+02 -0.16008651685E+03 -0.11127548776E+04  0.11393227193E+04  0.17200000000E+03 0.  1.
</event>
<event>
 4    1 -0.6963162E-004  0.1840011E+03  0.7818608E-02  0.1163986E+00
          5   -1    0    0  501    0  0.00000000000E+00  0.00000000000E+00  0.35117571572E+03  0.35120716580E+03  0.47000000000E+01 0. -1.
         -5   -1    0    0    0  501 -0.00000000000E+00 -0.00000000000E+00 -0.17483793368E+03  0.17490109506E+03  0.47000000000E+01 0.  1.
          6    1    1    2  502    0  0.65162921464E+02 -0.51176312887E+01  0.26439667450E+03  0.32212109209E+03  0.17200000000E+03 0. -1.
         -6    1    1    2    0  502 -0.65162921464E+02  0.51176312887E+01 -0.88058892463E+02  0.20398716878E+03  0.17200000000E+03 0.  1.
</event>
<event>
 4    1 -0.6963162E-004  0.2308835E+03  0.7818608E-02  0.1126019E+00
          5   -1    0    0  501    0  0.00000000000E+00  0.00000000000E+00  0.94292736544E+03  0.94293907889E+03  0.47000000000E+01 0. -1.
         -5   -1    0    0    0  501 -0.00000000000E+00 -0.00000000000E+00 -0.12846253540E+03  0.12854848502E+03  0.47000000000E+01 0.  1.
          6    1    1    2  502    0 -0.95658611734E+02  0.12071719108E+03  0.80818587225E+03  0.84051865792E+03  0.17200000000E+03 0. -1.
         -6    1    1    2    0  502  0.95658611734E+02 -0.12071719108E+03  0.62789577927E+01  0.23096890599E+03  0.17200000000E+03 0.  1.
</event>
<event>
 4    1 -0.6963162E-004  0.1815992E+03  0.7818608E-02  0.1166264E+00
          5   -1    0    0  501    0  0.00000000000E+00  0.00000000000E+00  0.26895338205E+03  0.26899444551E+03  0.47000000000E+01 0. -1.
         -5   -1    0    0    0  501 -0.00000000000E+00 -0.00000000000E+00 -0.52317115822E+03  0.52319226943E+03  0.47000000000E+01 0.  1.
          6    1    1    2  502    0 -0.57509888255E+02 -0.93202424779E+01  0.21948262289E+03  0.28486992807E+03  0.17200000000E+03 0. -1.
         -6    1    1    2    0  502  0.57509888255E+02  0.93202424779E+01 -0.47370039906E+03  0.50731678687E+03  0.17200000000E+03 0.  1.
</event>
<event>
 4    1 -0.6963162E-004  0.3606642E+03  0.7818608E-02  0.1058321E+00
          5   -1    0    0  501    0  0.00000000000E+00  0.00000000000E+00  0.52767732606E+03  0.52769825699E+03  0.47000000000E+01 0. -1.
         -5   -1    0    0    0  501 -0.00000000000E+00 -0.00000000000E+00 -0.97314219483E+03  0.97315354459E+03  0.47000000000E+01 0.  1.
          6    1    1    2  502    0 -0.22196737481E+03 -0.22632966016E+03  0.42572272613E+03  0.55795920110E+03  0.17200000000E+03 0. -1.
         -6    1    1    2    0  502  0.22196737481E+03  0.22632966016E+03 -0.87118759490E+03  0.94289260049E+03  0.17200000000E+03 0.  1.
</event>
<event>
 4    1 -0.6963162E-004  0.2881874E+03  0.7818608E-02  0.1091299E+00
         -5   -1    0    0    0  501 -0.00000000000E+00  0.00000000000E+00  0.33524062168E+03  0.33527356655E+03  0.47000000000E+01 0.  1.
          5   -1    0    0  501    0  0.00000000000E+00 -0.00000000000E+00 -0.27075716277E+04  0.27075757070E+04  0.47000000000E+01 0. -1.
          6    1    1    2  502    0 -0.67241144647E+02 -0.22123880373E+03 -0.26363212735E+04  0.26520259873E+04  0.17200000000E+03 0. -1.
         -6    1    1    2    0  502  0.67241144647E+02  0.22123880373E+03  0.26399026748E+03  0.39082328632E+03  0.17200000000E+03 0.  1.
</event>
<event>
 4    1 -0.6963162E-004  0.1758478E+03  0.7818608E-02  0.1171883E+00
         -5   -1    0    0    0  501 -0.00000000000E+00  0.00000000000E+00  0.16220191102E+03  0.16226999087E+03  0.47000000000E+01 0.  1.
          5   -1    0    0  501    0  0.00000000000E+00 -0.00000000000E+00 -0.11531606167E+04  0.11531701947E+04  0.47000000000E+01 0. -1.
          6    1    1    2  502    0  0.74042810730E+00 -0.36577233206E+02 -0.10963937292E+04  0.11104060751E+04  0.17200000000E+03 0. -1.
         -6    1    1    2    0  502 -0.74042810730E+00  0.36577233206E+02  0.10543502358E+03  0.20503411038E+03  0.17200000000E+03 0.  1.
</event>
<event>
 4    1 -0.6963162E-004  0.2144220E+03  0.7818608E-02  0.1138111E+00
          5   -1    0    0  501    0  0.00000000000E+00  0.00000000000E+00  0.52510983047E+03  0.52513086375E+03  0.47000000000E+01 0. -1.
         -5   -1    0    0    0  501 -0.00000000000E+00 -0.00000000000E+00 -0.13724813413E+03  0.13732858523E+03  0.47000000000E+01 0.  1.
          6    1    1    2  502    0 -0.26511202310E+02 -0.12525949479E+03  0.39331744206E+03  0.44796807376E+03  0.17200000000E+03 0. -1.
         -6    1    1    2    0  502  0.26511202310E+02  0.12525949479E+03 -0.54557457147E+01  0.21449137522E+03  0.17200000000E+03 0.  1.
</event>
<event>
 4    1 -0.6963162E-004  0.2202004E+03  0.7818608E-02  0.1133734E+00
          5   -1    0    0  501    0  0.00000000000E+00  0.00000000000E+00  0.55476525998E+03  0.55478516895E+03  0.47000000000E+01 0. -1.
         -5   -1    0    0    0  501 -0.00000000000E+00 -0.00000000000E+00 -0.23126493255E+03  0.23131268669E+03  0.47000000000E+01 0.  1.
          6    1    1    2  502    0 -0.78074450407E+01  0.13727072276E+03  0.47177168689E+03  0.52063109019E+03  0.17200000000E+03 0. -1.
         -6    1    1    2    0  502  0.78074450407E+01 -0.13727072276E+03 -0.14827135945E+03  0.26546676545E+03  0.17200000000E+03 0.  1.
</event>
<event>
 4    1 -0.6963162E-004  0.1982153E+03  0.7818608E-02  0.1151254E+00
          5   -1    0    0  501    0  0.00000000000E+00  0.00000000000E+00  0.36993175774E+02  0.37290549122E+02  0.47000000000E+01 0. -1.
         -5   -1    0    0    0  501 -0.00000000000E+00 -0.00000000000E+00 -0.14222320228E+04  0.14222397888E+04  0.47000000000E+01 0.  1.
          6    1    1    2  502    0 -0.23591411432E+02 -0.95649094087E+02 -0.32310675875E+03  0.37906105239E+03  0.17200000000E+03 0. -1.
         -6    1    1    2    0  502  0.23591411432E+02  0.95649094087E+02 -0.10621320883E+04  0.10804692855E+04  0.17200000000E+03 0.  1.
</event>
<event>
 4    1 -0.6963162E-004  0.1937323E+03  0.7818608E-02  0.1155137E+00
          5   -1    0    0  501    0  0.00000000000E+00  0.00000000000E+00  0.87104264052E+02  0.87230973948E+02  0.47000000000E+01 0. -1.
         -5   -1    0    0    0  501 -0.00000000000E+00 -0.00000000000E+00 -0.68667172161E+03  0.68668780626E+03  0.47000000000E+01 0.  1.
          6    1    1    2  502    0 -0.88255368158E+02 -0.12616788844E+02 -0.63428899232E+02  0.20385146217E+03  0.17200000000E+03 0. -1.
         -6    1    1    2    0  502  0.88255368158E+02  0.12616788844E+02 -0.53613855833E+03  0.57006731804E+03  0.17200000000E+03 0.  1.
</event>
<event>
 4    1 -0.6963162E-004  0.2777320E+03  0.7818608E-02  0.1096934E+00
         -5   -1    0    0    0  501 -0.00000000000E+00  0.00000000000E+00  0.16238330193E+03  0.16245130577E+03  0.47000000000E+01 0.  1.
          5   -1    0    0  501    0  0.00000000000E+00 -0.00000000000E+00 -0.96157467235E+03  0.96158615865E+03  0.47000000000E+01 0. -1.
          6    1    1    2  502    0 -0.14023766702E+02  0.21761063073E+03 -0.79943588759E+03  0.84630537692E+03  0.17200000000E+03 0. -1.
         -6    1    1    2    0  502  0.14023766702E+02 -0.21761063073E+03  0.24451716371E+00  0.27773208750E+03  0.17200000000E+03 0.  1.
</event>
<event>
 4    1 -0.6963162E-004  0.2200106E+03  0.7818608E-02  0.1133875E+00
         -5   -1    0    0    0  501 -0.00000000000E+00  0.00000000000E+00  0.35858834495E+03  0.35861914497E+03  0.47000000000E+01 0.  1.
          5   -1    0    0  501    0  0.00000000000E+00 -0.00000000000E+00 -0.40181803600E+03  0.40184552263E+03  0.47000000000E+01 0. -1.
          6    1    1    2  502    0  0.13692510502E+03  0.84964563059E+01 -0.33147776032E+03  0.39784693004E+03  0.17200000000E+03 0. -1.
         -6    1    1    2    0  502 -0.13692510502E+03 -0.84964563059E+01  0.28824806927E+03  0.36261773756E+03  0.17200000000E+03 0.  1.
</event>
<event>
 4    1 -0.6963162E-004  0.3865944E+03  0.7818608E-02  0.1048523E+00
          5   -1    0    0  501    0  0.00000000000E+00  0.00000000000E+00  0.30462969076E+03  0.30466594573E+03  0.47000000000E+01 0. -1.
         -5   -1    0    0    0  501 -0.00000000000E+00 -0.00000000000E+00 -0.10503215426E+04  0.10503320583E+04  0.47000000000E+01 0.  1.
          6    1    1    2  502    0 -0.22825050558E+03 -0.26033239837E+03  0.12174641137E+03  0.40531153404E+03  0.17200000000E+03 0. -1.
         -6    1    1    2    0  502  0.22825050558E+03  0.26033239837E+03 -0.86743826319E+03  0.94968647005E+03  0.17200000000E+03 0.  1.
</event>
<event>
 4    1 -0.6963162E-004  0.1730403E+03  0.7818608E-02  0.1174714E+00
          5   -1    0    0  501    0  0.00000000000E+00  0.00000000000E+00  0.16454784251E+03  0.16461495217E+03  0.47000000000E+01 0. -1.
         -5   -1    0    0    0  501 -0.00000000000E+00 -0.00000000000E+00 -0.37225125321E+03  0.37228092284E+03  0.47000000000E+01 0.  1.
          6    1    1    2  502    0  0.13650526739E+02  0.13138336369E+02  0.88115368296E+02  0.19418360099E+03  0.17200000000E+03 0. -1.
         -6    1    1    2    0  502 -0.13650526739E+02 -0.13138336369E+02 -0.29581877899E+03  0.34271227402E+03  0.17200000000E+03 0.  1.
</event>
<event>
 4    1 -0.6963162E-004  0.1734964E+03  0.7818608E-02  0.1174250E+00
          5   -1    0    0  501    0  0.00000000000E+00  0.00000000000E+00  0.20634393550E+03  0.20639745569E+03  0.47000000000E+01 0. -1.
         -5   -1    0    0    0  501 -0.00000000000E+00 -0.00000000000E+00 -0.78029190411E+03  0.78030605894E+03  0.47000000000E+01 0.  1.
          6    1    1    2  502    0 -0.20377126549E+02 -0.10088358514E+02  0.15788758566E+03  0.23458365666E+03  0.17200000000E+03 0. -1.
         -6    1    1    2    0  502  0.20377126549E+02  0.10088358514E+02 -0.73183555428E+03  0.75211985798E+03  0.17200000000E+03 0.  1.
</event>
<event>
 4    1 -0.6963162E-004  0.2000811E+03  0.7818608E-02  0.1149671E+00
         -5   -1    0    0    0  501 -0.00000000000E+00  0.00000000000E+00  0.12689919171E+04  0.12690006208E+04  0.47000000000E+01 0.  1.
          5   -1    0    0  501    0  0.00000000000E+00 -0.00000000000E+00 -0.38970049488E+02  0.39252449058E+02  0.47000000000E+01 0. -1.
          6    1    1    2  502    0 -0.90223902013E+02  0.48042707625E+02  0.32719942941E+03  0.38352564563E+03  0.17200000000E+03 0. -1.
         -6    1    1    2    0  502  0.90223902013E+02 -0.48042707625E+02  0.90282243821E+03  0.92472742427E+03  0.17200000000E+03 0.  1.
</event>
<event>
 4    1 -0.6963162E-004  0.1826895E+03  0.7818608E-02  0.1165225E+00
          5   -1    0    0  501    0  0.00000000000E+00  0.00000000000E+00  0.65676704602E+03  0.65678386303E+03  0.47000000000E+01 0. -1.
         -5   -1    0    0    0  501 -0.00000000000E+00 -0.00000000000E+00 -0.89836891389E+02  0.89959752414E+02  0.47000000000E+01 0.  1.
          6    1    1    2  502    0 -0.50387687154E+02  0.35390906180E+02  0.52967327376E+03  0.56029386235E+03  0.17200000000E+03 0. -1.
         -6    1    1    2    0  502  0.50387687154E+02 -0.35390906180E+02  0.37256880878E+02  0.18644975310E+03  0.17200000000E+03 0.  1.
</event>
<event>
 4    1 -0.6963162E-004  0.1757505E+03  0.7818608E-02  0.1171980E+00
          5   -1    0    0  501    0  0.00000000000E+00  0.00000000000E+00  0.13921789988E+03  0.13929721335E+03  0.47000000000E+01 0. -1.
         -5   -1    0    0    0  501 -0.00000000000E+00 -0.00000000000E+00 -0.89433319703E+03  0.89434554693E+03  0.47000000000E+01 0.  1.
          6    1    1    2  502    0 -0.35993064144E+02 -0.29533139496E+01  0.70622302687E+02  0.18940890255E+03  0.17200000000E+03 0. -1.
         -6    1    1    2    0  502  0.35993064144E+02  0.29533139496E+01 -0.82573759984E+03  0.84423385772E+03  0.17200000000E+03 0.  1.
</event>
<event>
 4    1 -0.6963162E-004  0.2476388E+03  0.7818608E-02  0.1114806E+00
         -5   -1    0    0    0  501 -0.00000000000E+00  0.00000000000E+00  0.49031074392E+03  0.49033326994E+03  0.47000000000E+01 0.  1.
          5   -1    0    0  501    0  0.00000000000E+00 -0.00000000000E+00 -0.13924807226E+03  0.13932736856E+03  0.47000000000E+01 0. -1.
          6    1    1    2  502    0  0.54368591052E+02  0.16966148319E+03  0.74877186874E+02  0.25871133660E+03  0.17200000000E+03 0. -1.
         -6    1    1    2    0  502 -0.54368591052E+02 -0.16966148319E+03  0.27618548479E+03  0.37094930190E+03  0.17200000000E+03 0.  1.
</event>
<event>
 4    1 -0.6963162E-004  0.1832738E+03  0.7818608E-02  0.1164672E+00
          5   -1    0    0  501    0  0.00000000000E+00  0.00000000000E+00  0.36471632148E+03  0.36474660404E+03  0.47000000000E+01 0. -1.
         -5   -1    0    0    0  501 -0.00000000000E+00 -0.00000000000E+00 -0.93169608805E+02  0.93288080722E+02  0.47000000000E+01 0.  1.
          6    1    1    2  502    0  0.60637605069E+02 -0.18120463834E+02  0.11016582783E+03  0.21383587159E+03  0.17200000000E+03 0.  1.
         -6    1    1    2    0  502 -0.60637605069E+02  0.18120463834E+02  0.16138088485E+03  0.24419881317E+03  0.17200000000E+03 0. -1.
</event>
<event>
 4    1 -0.6963162E-004  0.1860111E+03  0.7818608E-02  0.1162109E+00
         -5   -1    0    0    0  501 -0.00000000000E+00  0.00000000000E+00  0.26197978350E+03  0.26202193985E+03  0.47000000000E+01 0.  1.
          5   -1    0    0  501    0  0.00000000000E+00 -0.00000000000E+00 -0.35898580874E+03  0.35901657466E+03  0.47000000000E+01 0. -1.
          6    1    1    2  502    0  0.70732598420E+02 -0.36116772742E+01 -0.29539725386E+03  0.34908406191E+03  0.17200000000E+03 0. -1.
         -6    1    1    2    0  502 -0.70732598420E+02  0.36116772742E+01  0.19839122861E+03  0.27195445259E+03  0.17200000000E+03 0.  1.
</event>
<event>
 4    1 -0.6963162E-004  0.1959272E+03  0.7818608E-02  0.1153221E+00
         -5   -1    0    0    0  501 -0.00000000000E+00  0.00000000000E+00  0.19669926803E+03  0.19675541173E+03  0.47000000000E+01 0.  1.
          5   -1    0    0  501    0  0.00000000000E+00 -0.00000000000E+00 -0.49543702470E+03  0.49545931765E+03  0.47000000000E+01 0. -1.
          6    1    1    2  502    0  0.26514753412E+02 -0.90002323682E+02 -0.41884379945E+03  0.46240412926E+03  0.17200000000E+03 0. -1.
         -6    1    1    2    0  502 -0.26514753412E+02  0.90002323682E+02  0.12010604278E+03  0.22981060012E+03  0.17200000000E+03 0.  1.
</event>
<event>
 4    1 -0.6963162E-004  0.1770886E+03  0.7818608E-02  0.1170651E+00
          5   -1    0    0  501    0  0.00000000000E+00  0.00000000000E+00  0.95711968585E+03  0.95713122561E+03  0.47000000000E+01 0. -1.
         -5   -1    0    0    0  501 -0.00000000000E+00 -0.00000000000E+00 -0.32849232222E+03  0.32852594381E+03  0.47000000000E+01 0.  1.
          6    1    1    2  502    0  0.31370715298E+02  0.28147162029E+02  0.92424402672E+03  0.94105653679E+03  0.17200000000E+03 0. -1.
         -6    1    1    2    0  502 -0.31370715298E+02 -0.28147162029E+02 -0.29561666310E+03  0.34460063263E+03  0.17200000000E+03 0.  1.
</event>
<event>
 4    1 -0.6963162E-004  0.3289116E+03  0.7818608E-02  0.1071619E+00
          5   -1    0    0  501    0  0.00000000000E+00  0.00000000000E+00  0.19054211202E+04  0.19054269168E+04  0.47000000000E+01 0. -1.
         -5   -1    0    0    0  501 -0.00000000000E+00 -0.00000000000E+00 -0.64413358404E+02  0.64584601423E+02  0.47000000000E+01 0.  1.
          6    1    1    2  502    0  0.13185771483E+03 -0.24741133355E+03  0.12614543305E+04  0.13036294921E+04  0.17200000000E+03 0. -1.
         -6    1    1    2    0  502 -0.13185771483E+03  0.24741133355E+03  0.57955343131E+03  0.66638202607E+03  0.17200000000E+03 0.  1.
</event>
<event>
 4    1 -0.6963162E-004  0.2639772E+03  0.7818608E-02  0.1104777E+00
          5   -1    0    0  501    0  0.00000000000E+00  0.00000000000E+00  0.53509030006E+03  0.53511094103E+03  0.47000000000E+01 0. -1.
         -5   -1    0    0    0  501 -0.00000000000E+00 -0.00000000000E+00 -0.13169969450E+03  0.13178353286E+03  0.47000000000E+01 0.  1.
          6    1    1    2  502    0  0.85193589086E+02  0.18122366829E+03  0.23770139344E+03  0.35522657278E+03  0.17200000000E+03 0.  1.
         -6    1    1    2    0  502 -0.85193589086E+02 -0.18122366829E+03  0.16568921211E+03  0.31166790111E+03  0.17200000000E+03 0.  1.
</event>
<event>
 4    1 -0.6963162E-004  0.2282540E+03  0.7818608E-02  0.1127875E+00
          5   -1    0    0  501    0  0.00000000000E+00  0.00000000000E+00  0.18866466765E+03  0.18872320160E+03  0.47000000000E+01 0. -1.
         -5   -1    0    0    0  501 -0.00000000000E+00 -0.00000000000E+00 -0.39104184217E+03  0.39107008621E+03  0.47000000000E+01 0.  1.
          6    1    1    2  502    0 -0.11326757680E+03 -0.98419279183E+02  0.56011393025E+02  0.23502590201E+03  0.17200000000E+03 0. -1.
         -6    1    1    2    0  502  0.11326757680E+03  0.98419279183E+02 -0.25838856754E+03  0.34476738579E+03  0.17200000000E+03 0.  1.
</event>
<event>
 4    1 -0.6963162E-004  0.1805232E+03  0.7818608E-02  0.1167298E+00
         -5   -1    0    0    0  501 -0.00000000000E+00  0.00000000000E+00  0.76238201396E+03  0.76239650131E+03  0.47000000000E+01 0.  1.
          5   -1    0    0  501    0  0.00000000000E+00 -0.00000000000E+00 -0.50281348790E+03  0.50283545381E+03  0.47000000000E+01 0. -1.
          6    1    1    2  502    0  0.48852507130E+02  0.24860436380E+02 -0.47534588354E+03  0.50847056724E+03  0.17200000000E+03 0. -1.
         -6    1    1    2    0  502 -0.48852507130E+02 -0.24860436380E+02  0.73491440960E+03  0.75676138788E+03  0.17200000000E+03 0.  1.
</event>
<event>
 4    1 -0.6963162E-004  0.2037064E+03  0.7818608E-02  0.1146649E+00
         -5   -1    0    0    0  501 -0.00000000000E+00  0.00000000000E+00  0.38181418129E+02  0.38469607359E+02  0.47000000000E+01 0.  1.
          5   -1    0    0  501    0  0.00000000000E+00 -0.00000000000E+00 -0.17186595342E+04  0.17186659607E+04  0.47000000000E+01 0. -1.
          6    1    1    2  502    0  0.51601655460E+02  0.96174604989E+02 -0.13747376884E+04  0.13897481777E+04  0.17200000000E+03 0. -1.
         -6    1    1    2    0  502 -0.51601655460E+02 -0.96174604989E+02 -0.30574042765E+03  0.36738739035E+03  0.17200000000E+03 0.  1.
</event>
<event>
 4    1 -0.6963162E-004  0.2572769E+03  0.7818608E-02  0.1108790E+00
          5   -1    0    0  501    0  0.00000000000E+00  0.00000000000E+00  0.32031858139E+03  0.32035306084E+03  0.47000000000E+01 0. -1.
         -5   -1    0    0    0  501 -0.00000000000E+00 -0.00000000000E+00 -0.59326773907E+03  0.59328635601E+03  0.47000000000E+01 0.  1.
          6    1    1    2  502    0  0.19026772616E+03 -0.20139020242E+02  0.23231569244E+03  0.34664386437E+03  0.17200000000E+03 0. -1.
         -6    1    1    2    0  502 -0.19026772616E+03  0.20139020242E+02 -0.50526485012E+03  0.56699555247E+03  0.17200000000E+03 0.  1.
</event>
<event>
 4    1 -0.6963162E-004  0.1956802E+03  0.7818608E-02  0.1153436E+00
         -5   -1    0    0    0  501 -0.00000000000E+00  0.00000000000E+00  0.50130267739E+02  0.50350111654E+02  0.47000000000E+01 0.  1.
          5   -1    0    0  501    0  0.00000000000E+00 -0.00000000000E+00 -0.11051061123E+04  0.11051161068E+04  0.47000000000E+01 0. -1.
          6    1    1    2  502    0  0.34229651337E+02  0.86804686977E+02 -0.84940249870E+03  0.87165092067E+03  0.17200000000E+03 0. -1.
         -6    1    1    2    0  502 -0.34229651337E+02 -0.86804686977E+02 -0.20557334588E+03  0.28381529777E+03  0.17200000000E+03 0.  1.
</event>
<event>
 4    1 -0.6963162E-004  0.2963134E+03  0.7818608E-02  0.1087098E+00
         -5   -1    0    0    0  501 -0.00000000000E+00  0.00000000000E+00  0.28225424906E+03  0.28229337773E+03  0.47000000000E+01 0.  1.
          5   -1    0    0  501    0  0.00000000000E+00 -0.00000000000E+00 -0.33347303117E+03  0.33350615064E+03  0.47000000000E+01 0. -1.
          6    1    1    2  502    0  0.18639412654E+03  0.15321502907E+03  0.54321875708E+02  0.30125152568E+03  0.17200000000E+03 0. -1.
         -6    1    1    2    0  502 -0.18639412654E+03 -0.15321502907E+03 -0.10554065782E+03  0.31454800269E+03  0.17200000000E+03 0.  1.
</event>
<event>
 4    1 -0.6963162E-004  0.2074926E+03  0.7818608E-02  0.1143567E+00
         -5   -1    0    0    0  501 -0.00000000000E+00  0.00000000000E+00  0.52177527903E+03  0.52179644672E+03  0.47000000000E+01 0.  1.
          5   -1    0    0  501    0  0.00000000000E+00 -0.00000000000E+00 -0.12701345358E+03  0.12710038313E+03  0.47000000000E+01 0. -1.
          6    1    1    2  502    0  0.82414870269E+02  0.81712642731E+02  0.52414492761E+01  0.20755876183E+03  0.17200000000E+03 0. -1.
         -6    1    1    2    0  502 -0.82414870269E+02 -0.81712642731E+02  0.38952037618E+03  0.44133806802E+03  0.17200000000E+03 0.  1.
</event>
<event>
 4    1 -0.6963162E-004  0.2056335E+03  0.7818608E-02  0.1145071E+00
         -5   -1    0    0    0  501 -0.00000000000E+00  0.00000000000E+00  0.51647292837E+02  0.51860706295E+02  0.47000000000E+01 0.  1.
          5   -1    0    0  501    0  0.00000000000E+00 -0.00000000000E+00 -0.10974313701E+04  0.10974414345E+04  0.47000000000E+01 0. -1.
          6    1    1    2  502    0  0.10894682180E+03 -0.28839812614E+02 -0.81344338959E+03  0.83903235506E+03  0.17200000000E+03 0. -1.
         -6    1    1    2    0  502 -0.10894682180E+03  0.28839812614E+02 -0.23234068770E+03  0.31026978572E+03  0.17200000000E+03 0.  1.
</event>
<event>
 4    1 -0.6963162E-004  0.1898816E+03  0.7818608E-02  0.1158568E+00
          5   -1    0    0  501    0  0.00000000000E+00  0.00000000000E+00  0.22240938990E+03  0.22245904503E+03  0.47000000000E+01 0. -1.
         -5   -1    0    0    0  501 -0.00000000000E+00 -0.00000000000E+00 -0.60533549353E+03  0.60535373934E+03  0.47000000000E+01 0.  1.
          6    1    1    2  502    0 -0.23832914706E+02 -0.76831134750E+02  0.16272382454E+03  0.25006813904E+03  0.17200000000E+03 0. -1.
         -6    1    1    2    0  502  0.23832914706E+02  0.76831134750E+02 -0.54564992817E+03  0.57774464533E+03  0.17200000000E+03 0.  1.
</event>
<event>
 4    1 -0.6963162E-004  0.3408910E+03  0.7818608E-02  0.1066417E+00
          5   -1    0    0  501    0  0.00000000000E+00  0.00000000000E+00  0.24482962731E+03  0.24487473616E+03  0.47000000000E+01 0. -1.
         -5   -1    0    0    0  501 -0.00000000000E+00 -0.00000000000E+00 -0.72269293487E+03  0.72270821783E+03  0.47000000000E+01 0.  1.
          6    1    1    2  502    0  0.29426153796E+03  0.57291539163E+01  0.44546391581E+02  0.34378926238E+03  0.17200000000E+03 0. -1.
         -6    1    1    2    0  502 -0.29426153796E+03 -0.57291539163E+01 -0.52240969914E+03  0.62379369160E+03  0.17200000000E+03 0.  1.
</event>
<event>
 4    1 -0.6963162E-004  0.1857493E+03  0.7818608E-02  0.1162352E+00
         -5   -1    0    0    0  501 -0.00000000000E+00  0.00000000000E+00  0.98820779702E+03  0.98821897376E+03  0.47000000000E+01 0.  1.
          5   -1    0    0  501    0  0.00000000000E+00 -0.00000000000E+00 -0.41258169814E+02  0.41525011455E+02  0.47000000000E+01 0. -1.
          6    1    1    2  502    0 -0.58855555192E+02  0.38142317879E+02  0.26965119437E+03  0.32743637460E+03  0.17200000000E+03 0. -1.
         -6    1    1    2    0  502  0.58855555192E+02 -0.38142317879E+02  0.67729843284E+03  0.70230761061E+03  0.17200000000E+03 0.  1.
</event>
<event>
 4    1 -0.6963162E-004  0.1742722E+03  0.7818608E-02  0.1173464E+00
          5   -1    0    0  501    0  0.00000000000E+00  0.00000000000E+00  0.18566893981E+03  0.18572841789E+03  0.47000000000E+01 0. -1.
         -5   -1    0    0    0  501 -0.00000000000E+00 -0.00000000000E+00 -0.18824367126E+03  0.18830233607E+03  0.47000000000E+01 0.  1.
          6    1    1    2  502    0  0.13148138370E+02  0.24777872737E+02  0.66554328608E+02  0.18654837222E+03  0.17200000000E+03 0. -1.
         -6    1    1    2    0  502 -0.13148138370E+02 -0.24777872737E+02 -0.69129060058E+02  0.18748238174E+03  0.17200000000E+03 0.  1.
</event>
<event>
 4    1 -0.6963162E-004  0.1722180E+03  0.7818608E-02  0.1175554E+00
          5   -1    0    0  501    0  0.00000000000E+00  0.00000000000E+00  0.24751933597E+03  0.24756395472E+03  0.47000000000E+01 0. -1.
         -5   -1    0    0    0  501 -0.00000000000E+00 -0.00000000000E+00 -0.28567848316E+03  0.28571714288E+03  0.47000000000E+01 0.  1.
          6    1    1    2  502    0  0.70263487892E+01  0.50680137797E+01  0.18410873015E+03  0.25210132657E+03  0.17200000000E+03 0. -1.
         -6    1    1    2    0  502 -0.70263487892E+01 -0.50680137797E+01 -0.22226787734E+03  0.28117977103E+03  0.17200000000E+03 0.  1.
</event>
<event>
 4    1 -0.6963162E-004  0.1843235E+03  0.7818608E-02  0.1163683E+00
          5   -1    0    0  501    0  0.00000000000E+00  0.00000000000E+00  0.14476708675E+03  0.14484336162E+03  0.47000000000E+01 0. -1.
         -5   -1    0    0    0  501 -0.00000000000E+00 -0.00000000000E+00 -0.37332410127E+03  0.37335368565E+03  0.47000000000E+01 0.  1.
          6    1    1    2  502    0  0.48284156330E+02 -0.45384968604E+02  0.43681024312E+02  0.18942858024E+03  0.17200000000E+03 0.  1.
         -6    1    1    2    0  502 -0.48284156330E+02  0.45384968604E+02 -0.27223803883E+03  0.32876846703E+03  0.17200000000E+03 0.  1.
</event>
<event>
 4    1 -0.6963162E-004  0.1751161E+03  0.7818608E-02  0.1172615E+00
         -5   -1    0    0    0  501 -0.00000000000E+00  0.00000000000E+00  0.27636387114E+03  0.27640383367E+03  0.47000000000E+01 0.  1.
          5   -1    0    0  501    0  0.00000000000E+00 -0.00000000000E+00 -0.19003163221E+03  0.19008974523E+03  0.47000000000E+01 0. -1.
          6    1    1    2  502    0  0.73698360141E+01 -0.32052132637E+02 -0.10733597120E+03  0.20539392494E+03  0.17200000000E+03 0. -1.
         -6    1    1    2    0  502 -0.73698360141E+01  0.32052132637E+02  0.19366821012E+03  0.26109965396E+03  0.17200000000E+03 0.  1.
</event>
<event>
 4    1 -0.6963162E-004  0.1964785E+03  0.7818608E-02  0.1152745E+00
         -5   -1    0    0    0  501 -0.00000000000E+00  0.00000000000E+00  0.11957170385E+04  0.11957262756E+04  0.47000000000E+01 0.  1.
          5   -1    0    0  501    0  0.00000000000E+00 -0.00000000000E+00 -0.38543224377E+02  0.38828728351E+02  0.47000000000E+01 0. -1.
          6    1    1    2  502    0  0.67574388489E+02 -0.66734470689E+02  0.32734589914E+03  0.38178413435E+03  0.17200000000E+03 0. -1.
         -6    1    1    2    0  502 -0.67574388489E+02  0.66734470689E+02  0.82982791503E+03  0.85277086965E+03  0.17200000000E+03 0.  1.
</event>
<event>
 4    1 -0.6963162E-004  0.2491146E+03  0.7818608E-02  0.1113866E+00
          5   -1    0    0  501    0  0.00000000000E+00  0.00000000000E+00  0.38653767554E+03  0.38656624867E+03  0.47000000000E+01 0. -1.
         -5   -1    0    0    0  501 -0.00000000000E+00 -0.00000000000E+00 -0.60892101208E+03  0.60893915045E+03  0.47000000000E+01 0.  1.
          6    1    1    2  502    0 -0.11543395308E+03 -0.13838024895E+03  0.31593850791E+03  0.40233721131E+03  0.17200000000E+03 0. -1.
         -6    1    1    2    0  502  0.11543395308E+03  0.13838024895E+03 -0.53832184445E+03  0.59316818781E+03  0.17200000000E+03 0.  1.
</event>
<event>
 4    1 -0.6963162E-004  0.1892303E+03  0.7818608E-02  0.1159157E+00
          5   -1    0    0  501    0  0.00000000000E+00  0.00000000000E+00  0.18520077126E+03  0.18526039964E+03  0.47000000000E+01 0. -1.
         -5   -1    0    0    0  501 -0.00000000000E+00 -0.00000000000E+00 -0.65052109737E+03  0.65053807585E+03  0.47000000000E+01 0.  1.
          6    1    1    2  502    0  0.78584769985E+02 -0.69671228554E+01  0.11769284360E+03  0.22284459228E+03  0.17200000000E+03 0. -1.
         -6    1    1    2    0  502 -0.78584769985E+02  0.69671228554E+01 -0.58301316971E+03  0.61295388320E+03  0.17200000000E+03 0.  1.
</event>
<event>
 4    1 -0.6963162E-004  0.2356949E+03  0.7818608E-02  0.1122694E+00
          5   -1    0    0  501    0  0.00000000000E+00  0.00000000000E+00  0.58757625855E+03  0.58759505581E+03  0.47000000000E+01 0. -1.
         -5   -1    0    0    0  501 -0.00000000000E+00 -0.00000000000E+00 -0.94522304017E+02  0.94639082607E+02  0.47000000000E+01 0.  1.
          6    1    1    2  502    0  0.95929442028E+01  0.16086043730E+03  0.23819036987E+03  0.33509216219E+03  0.17200000000E+03 0. -1.
         -6    1    1    2    0  502 -0.95929442028E+01 -0.16086043730E+03  0.25486358466E+03  0.34714197622E+03  0.17200000000E+03 0.  1.
</event>
<event>
 4    1 -0.6963162E-004  0.1733850E+03  0.7818608E-02  0.1174363E+00
          5   -1    0    0  501    0  0.00000000000E+00  0.00000000000E+00  0.34857493700E+03  0.34860662172E+03  0.47000000000E+01 0. -1.
         -5   -1    0    0    0  501 -0.00000000000E+00 -0.00000000000E+00 -0.10867198632E+03  0.10877357497E+03  0.47000000000E+01 0.  1.
          6    1    1    2  502    0 -0.15481710547E+01 -0.21816168973E+02  0.22400532591E+03  0.28326794400E+03  0.17200000000E+03 0. -1.
         -6    1    1    2    0  502  0.15481710547E+01  0.21816168973E+02  0.15897624767E+02  0.17411225269E+03  0.17200000000E+03 0.  1.
</event>
<event>
 4    1 -0.6963162E-004  0.1965873E+03  0.7818608E-02  0.1152651E+00
          5   -1    0    0  501    0  0.00000000000E+00  0.00000000000E+00  0.17639980420E+03  0.17646240654E+03  0.47000000000E+01 0. -1.
         -5   -1    0    0    0  501 -0.00000000000E+00 -0.00000000000E+00 -0.23210285412E+03  0.23215043590E+03  0.47000000000E+01 0.  1.
          6    1    1    2  502    0 -0.56017097340E-01  0.95197500743E+02 -0.76459629181E+02  0.21093279067E+03  0.17200000000E+03 0. -1.
         -6    1    1    2    0  502  0.56017097340E-01 -0.95197500743E+02  0.20756579266E+02  0.19768005177E+03  0.17200000000E+03 0. -1.
</event>
<event>
 4    1 -0.6963162E-004  0.2011415E+03  0.7818608E-02  0.1148779E+00
         -5   -1    0    0    0  501 -0.00000000000E+00  0.00000000000E+00  0.63924754185E+03  0.63926481974E+03  0.47000000000E+01 0.  1.
          5   -1    0    0  501    0  0.00000000000E+00 -0.00000000000E+00 -0.16598234741E+04  0.16598301284E+04  0.47000000000E+01 0. -1.
          6    1    1    2  502    0 -0.92104990624E+02  0.48893482329E+02 -0.16377066138E+04  0.16500123802E+04  0.17200000000E+03 0. -1.
         -6    1    1    2    0  502  0.92104990624E+02 -0.48893482329E+02  0.61713068155E+03  0.64908256796E+03  0.17200000000E+03 0.  1.
</event>
<event>
 4    1 -0.6963162E-004  0.1940905E+03  0.7818608E-02  0.1154823E+00
          5   -1    0    0  501    0  0.00000000000E+00  0.00000000000E+00  0.23949386592E+03  0.23953997957E+03  0.47000000000E+01 0. -1.
         -5   -1    0    0    0  501 -0.00000000000E+00 -0.00000000000E+00 -0.18101284583E+03  0.18107385332E+03  0.47000000000E+01 0.  1.
          6    1    1    2  502    0 -0.46613654245E+02 -0.76904372491E+02  0.10549858532E+03  0.22090963486E+03  0.17200000000E+03 0. -1.
         -6    1    1    2    0  502  0.46613654245E+02  0.76904372491E+02 -0.47017565233E+02  0.19970419803E+03  0.17200000000E+03 0.  1.
</event>
<event>
 4    1 -0.6963162E-004  0.2674613E+03  0.7818608E-02  0.1102741E+00
         -5   -1    0    0    0  501 -0.00000000000E+00  0.00000000000E+00  0.79322889191E+03  0.79324281589E+03  0.47000000000E+01 0.  1.
          5   -1    0    0  501    0  0.00000000000E+00 -0.00000000000E+00 -0.11816731964E+04  0.11816825433E+04  0.47000000000E+01 0. -1.
          6    1    1    2  502    0  0.42294011536E+02  0.20040655393E+03 -0.11432575379E+04  0.11741266407E+04  0.17200000000E+03 0. -1.
         -6    1    1    2    0  502 -0.42294011536E+02 -0.20040655393E+03  0.75481323341E+03  0.80079871853E+03  0.17200000000E+03 0.  1.
</event>
<event>
 4    1 -0.6963162E-004  0.2237015E+03  0.7818608E-02  0.1131153E+00
         -5   -1    0    0    0  501 -0.00000000000E+00  0.00000000000E+00  0.30755328501E+03  0.30758919539E+03  0.47000000000E+01 0.  1.
          5   -1    0    0  501    0  0.00000000000E+00 -0.00000000000E+00 -0.26158248739E+04  0.26158290962E+04  0.47000000000E+01 0. -1.
          6    1    1    2  502    0  0.59283272032E+02  0.13016849028E+03 -0.25696574726E+04  0.25793762558E+04  0.17200000000E+03 0. -1.
         -6    1    1    2    0  502 -0.59283272032E+02 -0.13016849028E+03  0.26138588377E+03  0.34404203586E+03  0.17200000000E+03 0.  1.
</event>
<event>
 4    1 -0.6963162E-004  0.2471230E+03  0.7818608E-02  0.1115137E+00
          5   -1    0    0  501    0  0.00000000000E+00  0.00000000000E+00  0.20365282067E+04  0.20365336301E+04  0.47000000000E+01 0. -1.
         -5   -1    0    0    0  501 -0.00000000000E+00 -0.00000000000E+00 -0.11366035486E+03  0.11375748884E+03  0.47000000000E+01 0.  1.
          6    1    1    2  502    0  0.89805219319E+01 -0.17721493049E+03  0.18839902283E+04  0.19001286698E+04  0.17200000000E+03 0. -1.
         -6    1    1    2    0  502 -0.89805219319E+01  0.17721493049E+03  0.38877623508E+02  0.25016244917E+03  0.17200000000E+03 0.  1.
</event>
<event>
 4    1 -0.6963162E-004  0.1730740E+03  0.7818608E-02  0.1174680E+00
          5   -1    0    0  501    0  0.00000000000E+00  0.00000000000E+00  0.38500036070E+03  0.38502904791E+03  0.47000000000E+01 0. -1.
         -5   -1    0    0    0  501 -0.00000000000E+00 -0.00000000000E+00 -0.10807637114E+03  0.10817851912E+03  0.47000000000E+01 0.  1.
          6    1    1    2  502    0 -0.12435445158E+02  0.14695489021E+02  0.26910584173E+03  0.31995710923E+03  0.17200000000E+03 0. -1.
         -6    1    1    2    0  502  0.12435445158E+02 -0.14695489021E+02  0.78181478303E+01  0.17325045780E+03  0.17200000000E+03 0.  1.
</event>
<event>
 4    1 -0.6963162E-004  0.2011990E+03  0.7818608E-02  0.1148731E+00
         -5   -1    0    0    0  501 -0.00000000000E+00  0.00000000000E+00  0.38424596668E+02  0.38710975564E+02  0.47000000000E+01 0.  1.
          5   -1    0    0  501    0  0.00000000000E+00 -0.00000000000E+00 -0.17164339040E+04  0.17164403388E+04  0.47000000000E+01 0. -1.
          6    1    1    2  502    0 -0.95259241847E+02 -0.42693045199E+02 -0.13860649888E+04  0.14005917222E+04  0.17200000000E+03 0. -1.
         -6    1    1    2    0  502  0.95259241847E+02  0.42693045199E+02 -0.29194431855E+03  0.35455959217E+03  0.17200000000E+03 0.  1.
</event>
<event>
 4    1 -0.6963162E-004  0.3024008E+03  0.7818608E-02  0.1084047E+00
          5   -1    0    0  501    0  0.00000000000E+00  0.00000000000E+00  0.21035171610E+04  0.21035224118E+04  0.47000000000E+01 0. -1.
         -5   -1    0    0    0  501 -0.00000000000E+00 -0.00000000000E+00 -0.18854674376E+03  0.18860531430E+03  0.47000000000E+01 0.  1.
          6    1    1    2  502    0  0.13481418938E+03  0.20901529147E+03  0.19628083221E+04  0.19859664567E+04  0.17200000000E+03 0. -1.
         -6    1    1    2    0  502 -0.13481418938E+03 -0.20901529147E+03 -0.47837904833E+02  0.30616126937E+03  0.17200000000E+03 0.  1.
</event>
<event>
 4    1 -0.6963162E-004  0.1802655E+03  0.7818608E-02  0.1167546E+00
          5   -1    0    0  501    0  0.00000000000E+00  0.00000000000E+00  0.27026364611E+03  0.27030451052E+03  0.47000000000E+01 0. -1.
         -5   -1    0    0    0  501 -0.00000000000E+00 -0.00000000000E+00 -0.17383873977E+03  0.17390226406E+03  0.47000000000E+01 0.  1.
          6    1    1    2  502    0 -0.43765846171E+02 -0.31562829025E+02  0.17161151689E+03  0.24888988367E+03  0.17200000000E+03 0. -1.
         -6    1    1    2    0  502  0.43765846171E+02  0.31562829025E+02 -0.75186610556E+02  0.19531689091E+03  0.17200000000E+03 0.  1.
</event>
<event>
 4    1 -0.6963162E-004  0.2040602E+03  0.7818608E-02  0.1146358E+00
         -5   -1    0    0    0  501 -0.00000000000E+00  0.00000000000E+00  0.41069724124E+03  0.41072413365E+03  0.47000000000E+01 0.  1.
          5   -1    0    0  501    0  0.00000000000E+00 -0.00000000000E+00 -0.13987802990E+03  0.13995696927E+03  0.47000000000E+01 0. -1.
          6    1    1    2  502    0 -0.24906885185E+02 -0.10694029582E+03 -0.91171462280E+01  0.20426380530E+03  0.17200000000E+03 0. -1.
         -6    1    1    2    0  502  0.24906885185E+02  0.10694029582E+03  0.27993635758E+03  0.34641729762E+03  0.17200000000E+03 0.  1.
</event>
<event>
 4    1 -0.6963162E-004  0.2060618E+03  0.7818608E-02  0.1144723E+00
          5   -1    0    0  501    0  0.00000000000E+00  0.00000000000E+00  0.21592660653E+03  0.21597775212E+03  0.47000000000E+01 0. -1.
         -5   -1    0    0    0  501 -0.00000000000E+00 -0.00000000000E+00 -0.31185892030E+03  0.31189433494E+03  0.47000000000E+01 0.  1.
          6    1    1    2  502    0 -0.77721413962E+02  0.82685141720E+02  0.11250346730E+03  0.23477325445E+03  0.17200000000E+03 0. -1.
         -6    1    1    2    0  502  0.77721413962E+02 -0.82685141720E+02 -0.20843578106E+03  0.29309883261E+03  0.17200000000E+03 0.  1.
</event>
<event>
 4    1 -0.6963162E-004  0.1781477E+03  0.7818608E-02  0.1169608E+00
         -5   -1    0    0    0  501 -0.00000000000E+00  0.00000000000E+00  0.44536815754E+03  0.44539295655E+03  0.47000000000E+01 0.  1.
          5   -1    0    0  501    0  0.00000000000E+00 -0.00000000000E+00 -0.84429790853E+02  0.84560508415E+02  0.47000000000E+01 0. -1.
          6    1    1    2  502    0 -0.17762548680E+02  0.42861476959E+02  0.75504464877E+02  0.19348782535E+03  0.17200000000E+03 0. -1.
         -6    1    1    2    0  502  0.17762548680E+02 -0.42861476959E+02  0.28543390181E+03  0.33646563962E+03  0.17200000000E+03 0.  1.
</event>
<event>
 4    1 -0.6963162E-004  0.1868013E+03  0.7818608E-02  0.1161378E+00
         -5   -1    0    0    0  501 -0.00000000000E+00  0.00000000000E+00  0.69755983593E+03  0.69757566952E+03  0.47000000000E+01 0.  1.
          5   -1    0    0  501    0  0.00000000000E+00 -0.00000000000E+00 -0.25446684666E+03  0.25451024743E+03  0.47000000000E+01 0. -1.
          6    1    1    2  502    0  0.45404964888E+02 -0.57000860143E+02 -0.20515579870E+03  0.27745920535E+03  0.17200000000E+03 0. -1.
         -6    1    1    2    0  502 -0.45404964888E+02  0.57000860143E+02  0.64824878798E+03  0.67462671160E+03  0.17200000000E+03 0.  1.
</event>
<event>
 4    1 -0.6963162E-004  0.2301112E+03  0.7818608E-02  0.1126562E+00
          5   -1    0    0  501    0  0.00000000000E+00  0.00000000000E+00  0.10230095309E+03  0.10240886194E+03  0.47000000000E+01 0. -1.
         -5   -1    0    0    0  501 -0.00000000000E+00 -0.00000000000E+00 -0.82993670167E+03  0.82995000981E+03  0.47000000000E+01 0.  1.
          6    1    1    2  502    0 -0.50569809970E+02  0.14425616474E+03 -0.77676828501E+02  0.24286794031E+03  0.17200000000E+03 0. -1.
         -6    1    1    2    0  502  0.50569809970E+02 -0.14425616474E+03 -0.64995892008E+03  0.68949093144E+03  0.17200000000E+03 0.  1.
</event>
<event>
 4    1 -0.6963162E-004  0.1746788E+03  0.7818608E-02  0.1173055E+00
         -5   -1    0    0    0  501 -0.00000000000E+00  0.00000000000E+00  0.17012334118E+03  0.17018825228E+03  0.47000000000E+01 0.  1.
          5   -1    0    0  501    0  0.00000000000E+00 -0.00000000000E+00 -0.74888734452E+03  0.74890209292E+03  0.47000000000E+01 0. -1.
          6    1    1    2  502    0  0.28419288744E+02  0.11001317731E+02 -0.69015487953E+03  0.71191744093E+03  0.17200000000E+03 0. -1.
         -6    1    1    2    0  502 -0.28419288744E+02 -0.11001317731E+02  0.11139087619E+03  0.20717290427E+03  0.17200000000E+03 0.  1.
</event>
<event>
 4    1 -0.6963162E-004  0.2096836E+03  0.7818608E-02  0.1141817E+00
         -5   -1    0    0    0  501 -0.00000000000E+00  0.00000000000E+00  0.95789687978E+02  0.95904923351E+02  0.47000000000E+01 0.  1.
          5   -1    0    0  501    0  0.00000000000E+00 -0.00000000000E+00 -0.10445088198E+04  0.10445193941E+04  0.47000000000E+01 0. -1.
          6    1    1    2  502    0  0.11800469383E+03 -0.21403767380E+02 -0.90140096942E+03  0.92546795552E+03  0.17200000000E+03 0. -1.
         -6    1    1    2    0  502 -0.11800469383E+03  0.21403767380E+02 -0.47318162359E+02  0.21495636188E+03  0.17200000000E+03 0.  1.
</event>
<event>
 4    1 -0.6963162E-004  0.2794813E+03  0.7818608E-02  0.1095973E+00
          5   -1    0    0  501    0  0.00000000000E+00  0.00000000000E+00  0.40549360291E+03  0.40552084040E+03  0.47000000000E+01 0. -1.
         -5   -1    0    0    0  501 -0.00000000000E+00 -0.00000000000E+00 -0.64472064261E+03  0.64473777383E+03  0.47000000000E+01 0.  1.
          6    1    1    2  502    0  0.21297162279E+03  0.56293076673E+02  0.32013254168E+03  0.42496431243E+03  0.17200000000E+03 0. -1.
         -6    1    1    2    0  502 -0.21297162279E+03 -0.56293076673E+02 -0.55935958138E+03  0.62529430181E+03  0.17200000000E+03 0.  1.
</event>
<event>
 4    1 -0.6963162E-004  0.1982372E+03  0.7818608E-02  0.1151235E+00
          5   -1    0    0  501    0  0.00000000000E+00  0.00000000000E+00  0.11243766352E+04  0.11243864584E+04  0.47000000000E+01 0. -1.
         -5   -1    0    0    0  501 -0.00000000000E+00 -0.00000000000E+00 -0.72809739336E+02  0.72961278376E+02  0.47000000000E+01 0.  1.
          6    1    1    2  502    0  0.98477440403E+02  0.40207471168E+01  0.95771542700E+03  0.97801677480E+03  0.17200000000E+03 0. -1.
         -6    1    1    2    0  502 -0.98477440403E+02 -0.40207471168E+01  0.93851468912E+02  0.21933096200E+03  0.17200000000E+03 0.  1.
</event>
<event>
 4    1 -0.6963162E-004  0.2148752E+03  0.7818608E-02  0.1137762E+00
         -5   -1    0    0    0  501 -0.00000000000E+00  0.00000000000E+00  0.50221803231E+03  0.50224002427E+03  0.47000000000E+01 0.  1.
          5   -1    0    0  501    0  0.00000000000E+00 -0.00000000000E+00 -0.94414810424E+02  0.94531721805E+02  0.47000000000E+01 0. -1.
          6    1    1    2  502    0  0.12789194072E+03  0.15199078003E+02  0.15476614852E+03  0.26480921661E+03  0.17200000000E+03 0.  1.
         -6    1    1    2    0  502 -0.12789194072E+03 -0.15199078003E+02  0.25303707336E+03  0.33196252946E+03  0.17200000000E+03 0. -1.
</event>
<event>
 4    1 -0.6963162E-004  0.1761231E+03  0.7818608E-02  0.1171609E+00
          5   -1    0    0  501    0  0.00000000000E+00  0.00000000000E+00  0.21769397944E+03  0.21774470989E+03  0.47000000000E+01 0. -1.
         -5   -1    0    0    0  501 -0.00000000000E+00 -0.00000000000E+00 -0.47677965371E+03  0.47680281899E+03  0.47000000000E+01 0.  1.
          6    1    1    2  502    0 -0.37283372804E+02 -0.67293280059E+01  0.16125897483E+03  0.23879654668E+03  0.17200000000E+03 0. -1.
         -6    1    1    2    0  502  0.37283372804E+02  0.67293280059E+01 -0.42034464910E+03  0.45575098220E+03  0.17200000000E+03 0.  1.
</event>
<event>
 4    1 -0.6963162E-004  0.1922169E+03  0.7818608E-02  0.1156477E+00
          5   -1    0    0  501    0  0.00000000000E+00  0.00000000000E+00  0.15490226483E+03  0.15497355146E+03  0.47000000000E+01 0. -1.
         -5   -1    0    0    0  501 -0.00000000000E+00 -0.00000000000E+00 -0.46848007078E+03  0.46850364643E+03  0.47000000000E+01 0.  1.
          6    1    1    2  502    0 -0.50236893049E+02  0.69567133477E+02  0.61666450147E+02  0.20186649687E+03  0.17200000000E+03 0. -1.
         -6    1    1    2    0  502  0.50236893049E+02 -0.69567133477E+02 -0.37524425609E+03  0.42161070102E+03  0.17200000000E+03 0.  1.
</event>
<event>
 4    1 -0.6963162E-004  0.1950160E+03  0.7818608E-02  0.1154013E+00
         -5   -1    0    0    0  501 -0.00000000000E+00  0.00000000000E+00  0.10054954262E+04  0.10055064108E+04  0.47000000000E+01 0.  1.
          5   -1    0    0  501    0  0.00000000000E+00 -0.00000000000E+00 -0.24265956611E+03  0.24270507829E+03  0.47000000000E+01 0. -1.
          6    1    1    2  502    0 -0.88128021768E+02 -0.26090035442E+02 -0.19199648025E+03  0.27366747450E+03  0.17200000000E+03 0. -1.
         -6    1    1    2    0  502  0.88128021768E+02  0.26090035442E+02  0.95483234037E+03  0.97454401460E+03  0.17200000000E+03 0.  1.
</event>
<event>
 4    1 -0.6963162E-004  0.1993760E+03  0.7818608E-02  0.1150267E+00
          5   -1    0    0  501    0  0.00000000000E+00  0.00000000000E+00  0.14225657485E+03  0.14233419507E+03  0.47000000000E+01 0. -1.
         -5   -1    0    0    0  501 -0.00000000000E+00 -0.00000000000E+00 -0.45997070442E+03  0.45999471619E+03  0.47000000000E+01 0.  1.
          6    1    1    2  502    0 -0.49662414097E+02 -0.87752212502E+02  0.29891138874E+02  0.20160428159E+03  0.17200000000E+03 0. -1.
         -6    1    1    2    0  502  0.49662414097E+02  0.87752212502E+02 -0.34760526845E+03  0.40072462967E+03  0.17200000000E+03 0.  1.
</event>
<event>
 4    1 -0.6963162E-004  0.1780886E+03  0.7818608E-02  0.1169666E+00
          5   -1    0    0  501    0  0.00000000000E+00  0.00000000000E+00  0.13620055551E+04  0.13620136645E+04  0.47000000000E+01 0. -1.
         -5   -1    0    0    0  501 -0.00000000000E+00 -0.00000000000E+00 -0.10460626921E+03  0.10471180238E+03  0.47000000000E+01 0.  1.
          6    1    1    2  502    0  0.46134409450E+02  0.17764121641E+01  0.12753596015E+04  0.12877335332E+04  0.17200000000E+03 0. -1.
         -6    1    1    2    0  502 -0.46134409450E+02 -0.17764121641E+01 -0.17960315586E+02  0.17899193365E+03  0.17200000000E+03 0.  1.
</event>
<event>
 4    1 -0.6963162E-004  0.2036567E+03  0.7818608E-02  0.1146690E+00
         -5   -1    0    0    0  501 -0.00000000000E+00  0.00000000000E+00  0.57506246835E+02  0.57697993250E+02  0.47000000000E+01 0.  1.
          5   -1    0    0  501    0  0.00000000000E+00 -0.00000000000E+00 -0.86368769285E+03  0.86370048094E+03  0.47000000000E+01 0. -1.
          6    1    1    2  502    0 -0.88425524367E+02  0.63819972565E+02 -0.59107949037E+03  0.62518079481E+03  0.17200000000E+03 0. -1.
         -6    1    1    2    0  502  0.88425524367E+02 -0.63819972565E+02 -0.21510195564E+03  0.29621767938E+03  0.17200000000E+03 0.  1.
</event>
<event>
 4    1 -0.6963162E-004  0.3257658E+03  0.7818608E-02  0.1073026E+00
         -5   -1    0    0    0  501 -0.00000000000E+00  0.00000000000E+00  0.48342377409E+03  0.48344662100E+03  0.47000000000E+01 0.  1.
          5   -1    0    0  501    0  0.00000000000E+00 -0.00000000000E+00 -0.13282875020E+04  0.13282958172E+04  0.47000000000E+01 0. -1.
          6    1    1    2  502    0  0.10651304873E+03  0.25533181984E+03 -0.12500722394E+04  0.12918219581E+04  0.17200000000E+03 0. -1.
         -6    1    1    2    0  502 -0.10651304873E+03 -0.25533181984E+03  0.40520851151E+03  0.51992048005E+03  0.17200000000E+03 0.  1.
</event>
<event>
 4    1 -0.6963162E-004  0.1754814E+03  0.7818608E-02  0.1172249E+00
         -5   -1    0    0    0  501 -0.00000000000E+00  0.00000000000E+00  0.11636104192E+03  0.11645592332E+03  0.47000000000E+01 0.  1.
          5   -1    0    0  501    0  0.00000000000E+00 -0.00000000000E+00 -0.59938177574E+03  0.59940020278E+03  0.47000000000E+01 0. -1.
          6    1    1    2  502    0  0.95749562494E+01 -0.33437304164E+02 -0.50905668228E+03  0.53845374813E+03  0.17200000000E+03 0. -1.
         -6    1    1    2    0  502 -0.95749562494E+01  0.33437304164E+02  0.26035948463E+02  0.17740237797E+03  0.17200000000E+03 0.  1.
</event>
<event>
 4    1 -0.6963162E-004  0.1795817E+03  0.7818608E-02  0.1168208E+00
          5   -1    0    0  501    0  0.00000000000E+00  0.00000000000E+00  0.21302068308E+04  0.21302120158E+04  0.47000000000E+01 0. -1.
         -5   -1    0    0    0  501 -0.00000000000E+00 -0.00000000000E+00 -0.36565868458E+02  0.36866688705E+02  0.47000000000E+01 0.  1.
          6    1    1    2  502    0  0.43095775301E+02  0.28431415306E+02  0.18775000901E+04  0.18860689753E+04  0.17200000000E+03 0. -1.
         -6    1    1    2    0  502 -0.43095775301E+02 -0.28431415306E+02  0.21614087225E+03  0.28100972916E+03  0.17200000000E+03 0.  1.
</event>
<event>
 4    1 -0.6963162E-004  0.1758160E+03  0.7818608E-02  0.1171915E+00
         -5   -1    0    0    0  501 -0.00000000000E+00  0.00000000000E+00  0.11145045365E+04  0.11145144467E+04  0.47000000000E+01 0.  1.
          5   -1    0    0  501    0  0.00000000000E+00 -0.00000000000E+00 -0.16348268361E+03  0.16355023033E+03  0.47000000000E+01 0. -1.
          6    1    1    2  502    0 -0.33516138264E+02  0.14280061871E+02 -0.10681288325E+03  0.20571884629E+03  0.17200000000E+03 0. -1.
         -6    1    1    2    0  502  0.33516138264E+02 -0.14280061871E+02  0.10578347361E+04  0.10723458307E+04  0.17200000000E+03 0.  1.
</event>
<event>
 4    1 -0.6963162E-004  0.2093424E+03  0.7818608E-02  0.1142088E+00
         -5   -1    0    0    0  501 -0.00000000000E+00  0.00000000000E+00  0.12844734493E+03  0.12853330471E+03  0.47000000000E+01 0.  1.
          5   -1    0    0  501    0  0.00000000000E+00 -0.00000000000E+00 -0.55955266180E+03  0.55957240044E+03  0.47000000000E+01 0. -1.
          6    1    1    2  502    0 -0.11083782434E+03  0.44217754597E+02 -0.43056872560E+03  0.47876263491E+03  0.17200000000E+03 0. -1.
         -6    1    1    2    0  502  0.11083782434E+03 -0.44217754597E+02 -0.53659127024E+00  0.20934307024E+03  0.17200000000E+03 0.  1.
</event>
<event>
 4    1 -0.6963162E-004  0.1888145E+03  0.7818608E-02  0.1159535E+00
          5   -1    0    0  501    0  0.00000000000E+00  0.00000000000E+00  0.13581114807E+03  0.13589244991E+03  0.47000000000E+01 0. -1.
         -5   -1    0    0    0  501 -0.00000000000E+00 -0.00000000000E+00 -0.12061973575E+04  0.12062065143E+04  0.47000000000E+01 0.  1.
          6    1    1    2  502    0  0.77720196889E+02 -0.51461061625E+01  0.58392389374E+02  0.19763750289E+03  0.17200000000E+03 0. -1.
         -6    1    1    2    0  502 -0.77720196889E+02  0.51461061625E+01 -0.11287785988E+04  0.11444614613E+04  0.17200000000E+03 0.  1.
</event>
<event>
 4    1 -0.6963162E-004  0.2174680E+03  0.7818608E-02  0.1135785E+00
          5   -1    0    0  501    0  0.00000000000E+00  0.00000000000E+00  0.10659445272E+03  0.10669801943E+03  0.47000000000E+01 0. -1.
         -5   -1    0    0    0  501 -0.00000000000E+00 -0.00000000000E+00 -0.10274002680E+04  0.10274110184E+04  0.47000000000E+01 0.  1.
          6    1    1    2  502    0  0.13241645640E+03  0.13198163187E+02 -0.32879136713E+02  0.21993941681E+03  0.17200000000E+03 0. -1.
         -6    1    1    2    0  502 -0.13241645640E+03 -0.13198163187E+02 -0.88792667857E+03  0.91416962099E+03  0.17200000000E+03 0.  1.
</event>
<event>
 4    1 -0.6963162E-004  0.1767365E+03  0.7818608E-02  0.1170999E+00
         -5   -1    0    0    0  501 -0.00000000000E+00  0.00000000000E+00  0.49311908511E+02  0.49535384535E+02  0.47000000000E+01 0.  1.
          5   -1    0    0  501    0  0.00000000000E+00 -0.00000000000E+00 -0.94720154721E+03  0.94721320780E+03  0.47000000000E+01 0. -1.
          6    1    1    2  502    0 -0.13902648986E+02  0.38190249284E+02 -0.73650813931E+03  0.75741667400E+03  0.17200000000E+03 0. -1.
         -6    1    1    2    0  502  0.13902648986E+02 -0.38190249284E+02 -0.16138149939E+03  0.23933191834E+03  0.17200000000E+03 0.  1.
</event>
<event>
 4    1 -0.6963162E-004  0.1787883E+03  0.7818608E-02  0.1168981E+00
          5   -1    0    0  501    0  0.00000000000E+00  0.00000000000E+00  0.33932894514E+03  0.33936149311E+03  0.47000000000E+01 0. -1.
         -5   -1    0    0    0  501 -0.00000000000E+00 -0.00000000000E+00 -0.17207388457E+03  0.17213806014E+03  0.47000000000E+01 0.  1.
          6    1    1    2  502    0  0.14313325623E+02  0.46651672094E+02  0.25571969377E+03  0.31202213316E+03  0.17200000000E+03 0. -1.
         -6    1    1    2    0  502 -0.14313325623E+02 -0.46651672094E+02 -0.88464633203E+02  0.19947742009E+03  0.17200000000E+03 0.  1.
</event>
<event>
 4    1 -0.6963162E-004  0.1929124E+03  0.7818608E-02  0.1155860E+00
         -5   -1    0    0    0  501 -0.00000000000E+00  0.00000000000E+00  0.73508717797E+02  0.73658818835E+02  0.47000000000E+01 0.  1.
          5   -1    0    0  501    0  0.00000000000E+00 -0.00000000000E+00 -0.57940201570E+03  0.57942107815E+03  0.47000000000E+01 0. -1.
          6    1    1    2  502    0 -0.37099729859E+02  0.79087250810E+02 -0.36947759848E+03  0.41680796415E+03  0.17200000000E+03 0. -1.
         -6    1    1    2    0  502  0.37099729859E+02 -0.79087250810E+02 -0.13641569943E+03  0.23627193284E+03  0.17200000000E+03 0.  1.
</event>
<event>
 4    1 -0.6963162E-004  0.1892342E+03  0.7818608E-02  0.1159154E+00
          5   -1    0    0  501    0  0.00000000000E+00  0.00000000000E+00  0.62691255867E+02  0.62867189870E+02  0.47000000000E+01 0. -1.
         -5   -1    0    0    0  501 -0.00000000000E+00 -0.00000000000E+00 -0.16617351765E+04  0.16617418232E+04  0.47000000000E+01 0.  1.
          6    1    1    2  502    0 -0.46283595577E+02  0.63901458795E+02 -0.10069424528E+03  0.21435694224E+03  0.17200000000E+03 0. -1.
         -6    1    1    2    0  502  0.46283595577E+02 -0.63901458795E+02 -0.14983496754E+04  0.15102520708E+04  0.17200000000E+03 0.  1.
</event>
<event>
 4    1 -0.6963162E-004  0.2027682E+03  0.7818608E-02  0.1147424E+00
         -5   -1    0    0    0  501 -0.00000000000E+00  0.00000000000E+00  0.10760085274E+04  0.10760187921E+04  0.47000000000E+01 0.  1.
          5   -1    0    0  501    0  0.00000000000E+00 -0.00000000000E+00 -0.10762651285E+03  0.10772908738E+03  0.47000000000E+01 0. -1.
          6    1    1    2  502    0  0.10631352451E+03  0.15112696881E+02  0.87814555543E+01  0.20295830375E+03  0.17200000000E+03 0. -1.
         -6    1    1    2    0  502 -0.10631352451E+03 -0.15112696881E+02  0.95960055897E+03  0.98078957574E+03  0.17200000000E+03 0.  1.
</event>
<event>
 4    1 -0.6963162E-004  0.1831727E+03  0.7818608E-02  0.1164767E+00
          5   -1    0    0  501    0  0.00000000000E+00  0.00000000000E+00  0.31498124257E+03  0.31501630620E+03  0.47000000000E+01 0. -1.
         -5   -1    0    0    0  501 -0.00000000000E+00 -0.00000000000E+00 -0.33630418192E+03  0.33633702261E+03  0.47000000000E+01 0.  1.
          6    1    1    2  502    0 -0.40646111835E+02  0.48126334575E+02  0.25855413862E+03  0.31686352439E+03  0.17200000000E+03 0. -1.
         -6    1    1    2    0  502  0.40646111835E+02 -0.48126334575E+02 -0.27987707797E+03  0.33448980442E+03  0.17200000000E+03 0.  1.
</event>
<event>
 4    1 -0.6963162E-004  0.2408465E+03  0.7818608E-02  0.1119230E+00
         -5   -1    0    0    0  501 -0.00000000000E+00  0.00000000000E+00  0.19646528571E+03  0.19652149625E+03  0.47000000000E+01 0.  1.
          5   -1    0    0  501    0  0.00000000000E+00 -0.00000000000E+00 -0.33685901450E+03  0.33689180111E+03  0.47000000000E+01 0. -1.
          6    1    1    2  502    0  0.10948283533E+03 -0.12820513678E+03 -0.16404752498E+03  0.29140802799E+03  0.17200000000E+03 0. -1.
         -6    1    1    2    0  502 -0.10948283533E+03  0.12820513678E+03  0.23653796183E+02  0.24200526937E+03  0.17200000000E+03 0. -1.
</event>
<event>
 4    1 -0.6963162E-004  0.1862878E+03  0.7818608E-02  0.1161853E+00
         -5   -1    0    0    0  501 -0.00000000000E+00  0.00000000000E+00  0.69456084429E+02  0.69614924149E+02  0.47000000000E+01 0.  1.
          5   -1    0    0  501    0  0.00000000000E+00 -0.00000000000E+00 -0.10456596170E+04  0.10456701797E+04  0.47000000000E+01 0. -1.
          6    1    1    2  502    0  0.66930343669E+02 -0.25287694330E+02 -0.89130335069E+03  0.91056290356E+03  0.17200000000E+03 0. -1.
         -6    1    1    2    0  502 -0.66930343669E+02  0.25287694330E+02 -0.84900181872E+02  0.20472220024E+03  0.17200000000E+03 0.  1.
</event>
<event>
 4    1 -0.6963162E-004  0.1997744E+03  0.7818608E-02  0.1149929E+00
         -5   -1    0    0    0  501 -0.00000000000E+00  0.00000000000E+00  0.56250582098E+03  0.56252545599E+03  0.47000000000E+01 0.  1.
          5   -1    0    0  501    0  0.00000000000E+00 -0.00000000000E+00 -0.12110785875E+03  0.12119902414E+03  0.47000000000E+01 0. -1.
          6    1    1    2  502    0 -0.58856008478E+02  0.82835851125E+02  0.60664235131E+00  0.19977531374E+03  0.17200000000E+03 0. -1.
         -6    1    1    2    0  502  0.58856008478E+02 -0.82835851125E+02  0.44079131987E+03  0.48394916638E+03  0.17200000000E+03 0.  1.
</event>
<event>
 4    1 -0.6963162E-004  0.2026600E+03  0.7818608E-02  0.1147514E+00
         -5   -1    0    0    0  501 -0.00000000000E+00  0.00000000000E+00  0.14950653307E+04  0.14950727183E+04  0.47000000000E+01 0.  1.
          5   -1    0    0  501    0  0.00000000000E+00 -0.00000000000E+00 -0.58582577266E+03  0.58584462609E+03  0.47000000000E+01 0. -1.
          6    1    1    2  502    0  0.10477706232E+03 -0.22557120374E+02 -0.56115170449E+03  0.59662575533E+03  0.17200000000E+03 0. -1.
         -6    1    1    2    0  502 -0.10477706232E+03  0.22557120374E+02  0.14703912625E+04  0.14842915890E+04  0.17200000000E+03 0.  1.
</event>
<event>
 4    1 -0.6963162E-004  0.3577547E+03  0.7818608E-02  0.1059476E+00
         -5   -1    0    0    0  501 -0.00000000000E+00  0.00000000000E+00  0.36241571762E+03  0.36244619239E+03  0.47000000000E+01 0.  1.
          5   -1    0    0  501    0  0.00000000000E+00 -0.00000000000E+00 -0.77120027912E+03  0.77121460082E+03  0.47000000000E+01 0. -1.
          6    1    1    2  502    0  0.53370502763E+02 -0.30912138580E+03 -0.62174049207E+03  0.71732118413E+03  0.17200000000E+03 0. -1.
         -6    1    1    2    0  502 -0.53370502763E+02  0.30912138580E+03  0.21295593057E+03  0.41633960908E+03  0.17200000000E+03 0.  1.
</event>
<event>
 4    1 -0.6963162E-004  0.2234451E+03  0.7818608E-02  0.1131340E+00
          5   -1    0    0  501    0  0.00000000000E+00  0.00000000000E+00  0.19362243615E+03  0.19367947176E+03  0.47000000000E+01 0. -1.
         -5   -1    0    0    0  501 -0.00000000000E+00 -0.00000000000E+00 -0.10356761506E+04  0.10356868151E+04  0.47000000000E+01 0.  1.
          6    1    1    2  502    0 -0.13988566458E+03  0.27851653806E+02  0.11168503753E+03  0.24980244471E+03  0.17200000000E+03 0. -1.
         -6    1    1    2    0  502  0.13988566458E+03 -0.27851653806E+02 -0.95373875202E+03  0.97956384216E+03  0.17200000000E+03 0.  1.
</event>
<event>
 4    1 -0.6963162E-004  0.1729666E+03  0.7818608E-02  0.1174789E+00
         -5   -1    0    0    0  501 -0.00000000000E+00  0.00000000000E+00  0.23412920316E+03  0.23417637321E+03  0.47000000000E+01 0.  1.
          5   -1    0    0  501    0  0.00000000000E+00 -0.00000000000E+00 -0.99141192253E+03  0.99142306315E+03  0.47000000000E+01 0. -1.
          6    1    1    2  502    0  0.18248277898E+02 -0.65972202369E+00 -0.95059435855E+03  0.96620239566E+03  0.17200000000E+03 0. -1.
         -6    1    1    2    0  502 -0.18248277898E+02  0.65972202369E+00  0.19331163918E+03  0.25939704070E+03  0.17200000000E+03 0.  1.
</event>
<event>
 4    1 -0.6963162E-004  0.2068744E+03  0.7818608E-02  0.1144065E+00
         -5   -1    0    0    0  501 -0.00000000000E+00  0.00000000000E+00  0.26687501275E+03  0.26691639596E+03  0.47000000000E+01 0.  1.
          5   -1    0    0  501    0  0.00000000000E+00 -0.00000000000E+00 -0.40964240121E+03  0.40966936286E+03  0.47000000000E+01 0. -1.
          6    1    1    2  502    0  0.43035274850E+02  0.10658785332E+03 -0.33529786993E+03  0.39398181042E+03  0.17200000000E+03 0. -1.
         -6    1    1    2    0  502 -0.43035274850E+02 -0.10658785332E+03  0.19253048147E+03  0.28260394841E+03  0.17200000000E+03 0.  1.
</event>
<event>
 4    1 -0.6963162E-004  0.1737497E+03  0.7818608E-02  0.1173993E+00
         -5   -1    0    0    0  501 -0.00000000000E+00  0.00000000000E+00  0.52437598301E+02  0.52647808269E+02  0.47000000000E+01 0.  1.
          5   -1    0    0  501    0  0.00000000000E+00 -0.00000000000E+00 -0.81441586730E+03  0.81442942905E+03  0.47000000000E+01 0. -1.
          6    1    1    2  502    0  0.24513779141E+02 -0.20120103845E+01 -0.61634103769E+03  0.64036337207E+03  0.17200000000E+03 0. -1.
         -6    1    1    2    0  502 -0.24513779141E+02  0.20120103845E+01 -0.14563723131E+03  0.22671386525E+03  0.17200000000E+03 0.  1.
</event>
<event>
 4    1 -0.6963162E-004  0.1738313E+03  0.7818608E-02  0.1173910E+00
          5   -1    0    0  501    0  0.00000000000E+00  0.00000000000E+00  0.30586703359E+03  0.30590314192E+03  0.47000000000E+01 0. -1.
         -5   -1    0    0    0  501 -0.00000000000E+00 -0.00000000000E+00 -0.54618315970E+03  0.54620338148E+03  0.47000000000E+01 0.  1.
          6    1    1    2  502    0  0.16334133984E+02 -0.19145000334E+02  0.26544914122E+03  0.31730203520E+03  0.17200000000E+03 0. -1.
         -6    1    1    2    0  502 -0.16334133984E+02  0.19145000334E+02 -0.50576526733E+03  0.53480448820E+03  0.17200000000E+03 0.  1.
</event>
<event>
 4    1 -0.6963162E-004  0.1739825E+03  0.7818608E-02  0.1173757E+00
          5   -1    0    0  501    0  0.00000000000E+00  0.00000000000E+00  0.46818490860E+03  0.46820849911E+03  0.47000000000E+01 0. -1.
         -5   -1    0    0    0  501 -0.00000000000E+00 -0.00000000000E+00 -0.29053981290E+03  0.29057782585E+03  0.47000000000E+01 0.  1.
          6    1    1    2  502    0  0.24736340170E+02  0.86035328519E+01  0.42335794211E+03  0.45771372543E+03  0.17200000000E+03 0. -1.
         -6    1    1    2    0  502 -0.24736340170E+02 -0.86035328519E+01 -0.24571284640E+03  0.30107259953E+03  0.17200000000E+03 0.  1.
</event>
<event>
 4    1 -0.6963162E-004  0.1821610E+03  0.7818608E-02  0.1165728E+00
         -5   -1    0    0    0  501 -0.00000000000E+00  0.00000000000E+00  0.10471473667E+04  0.10471579144E+04  0.47000000000E+01 0.  1.
          5   -1    0    0  501    0  0.00000000000E+00 -0.00000000000E+00 -0.35401165219E+02  0.35711797754E+02  0.47000000000E+01 0. -1.
          6    1    1    2  502    0 -0.11948614786E+02 -0.58786620848E+02  0.32707652136E+03  0.37438173969E+03  0.17200000000E+03 0. -1.
         -6    1    1    2    0  502  0.11948614786E+02  0.58786620848E+02  0.68466968017E+03  0.70848797247E+03  0.17200000000E+03 0.  1.
</event>
<event>
 4    1 -0.6963162E-004  0.1797511E+03  0.7818608E-02  0.1168044E+00
         -5   -1    0    0    0  501 -0.00000000000E+00  0.00000000000E+00  0.30463947988E+03  0.30467573369E+03  0.47000000000E+01 0.  1.
          5   -1    0    0  501    0  0.00000000000E+00 -0.00000000000E+00 -0.24075434405E+03  0.24080021631E+03  0.47000000000E+01 0. -1.
          6    1    1    2  502    0  0.36778324025E+02  0.37064961134E+02 -0.17208240920E+03  0.24884294649E+03  0.17200000000E+03 0. -1.
         -6    1    1    2    0  502 -0.36778324025E+02 -0.37064961134E+02  0.23596754504E+03  0.29663300351E+03  0.17200000000E+03 0.  1.
</event>
<event>
 4    1 -0.6963162E-004  0.2183432E+03  0.7818608E-02  0.1135124E+00
         -5   -1    0    0    0  501 -0.00000000000E+00  0.00000000000E+00  0.12066054807E+03  0.12075205117E+03  0.47000000000E+01 0.  1.
          5   -1    0    0  501    0  0.00000000000E+00 -0.00000000000E+00 -0.10225217884E+04  0.10225325901E+04  0.47000000000E+01 0. -1.
          6    1    1    2  502    0 -0.89843874249E+02 -0.10008903179E+03 -0.89877847649E+03  0.92491971858E+03  0.17200000000E+03 0. -1.
         -6    1    1    2    0  502  0.89843874249E+02  0.10008903179E+03 -0.30827638723E+01  0.21836492268E+03  0.17200000000E+03 0.  1.
</event>
<event>
 4    1 -0.6963162E-004  0.2606742E+03  0.7818608E-02  0.1106739E+00
         -5   -1    0    0    0  501 -0.00000000000E+00  0.00000000000E+00  0.47829368359E+03  0.47831677554E+03  0.47000000000E+01 0.  1.
          5   -1    0    0  501    0  0.00000000000E+00 -0.00000000000E+00 -0.20263148238E+03  0.20268598287E+03  0.47000000000E+01 0. -1.
          6    1    1    2  502    0 -0.19544067699E+03 -0.13038131107E+02 -0.48379084564E+02  0.26512560591E+03  0.17200000000E+03 0. -1.
         -6    1    1    2    0  502  0.19544067699E+03  0.13038131107E+02  0.32404128578E+03  0.41587715250E+03  0.17200000000E+03 0.  1.
</event>
<event>
 4    1 -0.6963162E-004  0.2176551E+03  0.7818608E-02  0.1135643E+00
         -5   -1    0    0    0  501 -0.00000000000E+00  0.00000000000E+00  0.45801596624E+03  0.45804008048E+03  0.47000000000E+01 0.  1.
          5   -1    0    0  501    0  0.00000000000E+00 -0.00000000000E+00 -0.20308648605E+03  0.20314086447E+03  0.47000000000E+01 0. -1.
          6    1    1    2  502    0  0.11495843376E+03 -0.67633482636E+02 -0.10414671507E+03  0.24128876419E+03  0.17200000000E+03 0. -1.
         -6    1    1    2    0  502 -0.11495843376E+03  0.67633482636E+02  0.35907619525E+03  0.41989218076E+03  0.17200000000E+03 0.  1.
</event>
<event>
 4    1 -0.6963162E-004  0.1886476E+03  0.7818608E-02  0.1159687E+00
         -5   -1    0    0    0  501 -0.00000000000E+00  0.00000000000E+00  0.94236180393E+03  0.94237352441E+03  0.47000000000E+01 0.  1.
          5   -1    0    0  501    0  0.00000000000E+00 -0.00000000000E+00 -0.25295154821E+03  0.25299520893E+03  0.47000000000E+01 0. -1.
          6    1    1    2  502    0  0.74659705185E+02 -0.20733109096E+02 -0.20656754106E+03  0.27974646094E+03  0.17200000000E+03 0. -1.
         -6    1    1    2    0  502 -0.74659705185E+02  0.20733109096E+02  0.89597779678E+03  0.91562227239E+03  0.17200000000E+03 0.  1.
</event>
<event>
 4    1 -0.6963162E-004  0.1783727E+03  0.7818608E-02  0.1169387E+00
          5   -1    0    0  501    0  0.00000000000E+00  0.00000000000E+00  0.29202067922E+03  0.29205849943E+03  0.47000000000E+01 0. -1.
         -5   -1    0    0    0  501 -0.00000000000E+00 -0.00000000000E+00 -0.13127646011E+03  0.13136056858E+03  0.47000000000E+01 0.  1.
          6    1    1    2  502    0  0.40332211721E+02 -0.24619470609E+02  0.16781619763E+03  0.24490627151E+03  0.17200000000E+03 0. -1.
         -6    1    1    2    0  502 -0.40332211721E+02  0.24619470609E+02 -0.70719785234E+01  0.17851279650E+03  0.17200000000E+03 0.  1.
</event>
<event>
 4    1 -0.6963162E-004  0.1891606E+03  0.7818608E-02  0.1159221E+00
         -5   -1    0    0    0  501 -0.00000000000E+00  0.00000000000E+00  0.41945075583E+03  0.41947708706E+03  0.47000000000E+01 0.  1.
          5   -1    0    0  501    0  0.00000000000E+00 -0.00000000000E+00 -0.90159594510E+02  0.90282016383E+02  0.47000000000E+01 0. -1.
          6    1    1    2  502    0  0.41011325207E+02 -0.67199700152E+02  0.22430003823E+03  0.29341478430E+03  0.17200000000E+03 0. -1.
         -6    1    1    2    0  502 -0.41011325207E+02  0.67199700152E+02  0.10499112308E+03  0.21634431914E+03  0.17200000000E+03 0. -1.
</event>
<event>
 4    1 -0.6963162E-004  0.1728553E+03  0.7818608E-02  0.1174903E+00
          5   -1    0    0  501    0  0.00000000000E+00  0.00000000000E+00  0.12205442513E+03  0.12214488403E+03  0.47000000000E+01 0. -1.
         -5   -1    0    0    0  501 -0.00000000000E+00 -0.00000000000E+00 -0.36940743783E+03  0.36943733586E+03  0.47000000000E+01 0.  1.
          6    1    1    2  502    0  0.16893833348E+02  0.30900422395E+01  0.19168300475E+02  0.17391484614E+03  0.17200000000E+03 0. -1.
         -6    1    1    2    0  502 -0.16893833348E+02 -0.30900422395E+01 -0.26652131317E+03  0.31766737375E+03  0.17200000000E+03 0.  1.
</event>
<event>
 4    1 -0.6963162E-004  0.2023517E+03  0.7818608E-02  0.1147770E+00
          5   -1    0    0  501    0  0.00000000000E+00  0.00000000000E+00  0.11876941168E+03  0.11886237063E+03  0.47000000000E+01 0. -1.
         -5   -1    0    0    0  501 -0.00000000000E+00 -0.00000000000E+00 -0.66776028503E+03  0.66777682520E+03  0.47000000000E+01 0.  1.
          6    1    1    2  502    0 -0.10599682559E+03 -0.11263856224E+02 -0.86356242951E+00  0.20235352043E+03  0.17200000000E+03 0. -1.
         -6    1    1    2    0  502  0.10599682559E+03  0.11263856224E+02 -0.54812731092E+03  0.58428567539E+03  0.17200000000E+03 0.  1.
</event>
<event>
 4    1 -0.6963162E-004  0.1811698E+03  0.7818608E-02  0.1166676E+00
          5   -1    0    0  501    0  0.00000000000E+00  0.00000000000E+00  0.86703184615E+02  0.86830479800E+02  0.47000000000E+01 0. -1.
         -5   -1    0    0    0  501 -0.00000000000E+00 -0.00000000000E+00 -0.10829911496E+04  0.10830013482E+04  0.47000000000E+01 0.  1.
          6    1    1    2  502    0  0.34834463602E+02  0.45000636720E+02 -0.26298723059E+02  0.18306862100E+03  0.17200000000E+03 0. -1.
         -6    1    1    2    0  502 -0.34834463602E+02 -0.45000636720E+02 -0.96998924197E+03  0.98676320701E+03  0.17200000000E+03 0.  1.
</event>
<event>
 4    1 -0.6963162E-004  0.1931122E+03  0.7818608E-02  0.1155684E+00
         -5   -1    0    0    0  501 -0.00000000000E+00  0.00000000000E+00  0.78343905275E+02  0.78484759627E+02  0.47000000000E+01 0.  1.
          5   -1    0    0  501    0  0.00000000000E+00 -0.00000000000E+00 -0.63046435755E+03  0.63048187614E+03  0.47000000000E+01 0. -1.
          6    1    1    2  502    0  0.58377527472E+01  0.87602796782E+02 -0.45182292684E+03  0.49136166576E+03  0.17200000000E+03 0. -1.
         -6    1    1    2    0  502 -0.58377527472E+01 -0.87602796782E+02 -0.10029752543E+03  0.21760497000E+03  0.17200000000E+03 0.  1.
</event>
<event>
 4    1 -0.6963162E-004  0.4550547E+03  0.7818608E-02  0.1026225E+00
          5   -1    0    0  501    0  0.00000000000E+00  0.00000000000E+00  0.17352238220E+04  0.17352301872E+04  0.47000000000E+01 0. -1.
         -5   -1    0    0    0  501 -0.00000000000E+00 -0.00000000000E+00 -0.19005160485E+03  0.19010971177E+03  0.47000000000E+01 0.  1.
          6    1    1    2  502    0  0.41736044713E+03  0.57454814129E+02  0.13598969098E+04  0.14340133904E+04  0.17200000000E+03 0. -1.
         -6    1    1    2    0  502 -0.41736044713E+03 -0.57454814129E+02  0.18527530734E+03  0.49132650855E+03  0.17200000000E+03 0.  1.
</event>
<event>
 4    1 -0.6963162E-004  0.1979456E+03  0.7818608E-02  0.1151484E+00
         -5   -1    0    0    0  501 -0.00000000000E+00  0.00000000000E+00  0.40149123733E+03  0.40151874633E+03  0.47000000000E+01 0.  1.
          5   -1    0    0  501    0  0.00000000000E+00 -0.00000000000E+00 -0.12836769101E+04  0.12836855143E+04  0.47000000000E+01 0. -1.
          6    1    1    2  502    0  0.97927589233E+02  0.29373986283E+01 -0.12510342093E+04  0.12665974237E+04  0.17200000000E+03 0. -1.
         -6    1    1    2    0  502 -0.97927589233E+02 -0.29373986283E+01  0.36884853647E+03  0.41860683690E+03  0.17200000000E+03 0.  1.
</event>
<event>
 4    1 -0.6963162E-004  0.1790229E+03  0.7818608E-02  0.1168752E+00
          5   -1    0    0  501    0  0.00000000000E+00  0.00000000000E+00  0.20065029342E+03  0.20070533189E+03  0.47000000000E+01 0. -1.
         -5   -1    0    0    0  501 -0.00000000000E+00 -0.00000000000E+00 -0.39088695823E+03  0.39091521346E+03  0.47000000000E+01 0.  1.
          6    1    1    2  502    0 -0.16991648186E+02  0.46652867722E+02  0.13238689190E+03  0.22265555309E+03  0.17200000000E+03 0. -1.
         -6    1    1    2    0  502  0.16991648186E+02 -0.46652867722E+02 -0.32262355671E+03  0.36896499227E+03  0.17200000000E+03 0.  1.
</event>
<event>
 4    1 -0.6963162E-004  0.2114421E+03  0.7818608E-02  0.1140429E+00
         -5   -1    0    0    0  501 -0.00000000000E+00  0.00000000000E+00  0.12748807516E+04  0.12748894152E+04  0.47000000000E+01 0.  1.
          5   -1    0    0  501    0  0.00000000000E+00 -0.00000000000E+00 -0.24762594559E+03  0.24767054514E+03  0.47000000000E+01 0. -1.
          6    1    1    2  502    0 -0.40606719311E+02 -0.11608126661E+03 -0.19169781143E+03  0.28540465486E+03  0.17200000000E+03 0. -1.
         -6    1    1    2    0  502  0.40606719311E+02  0.11608126661E+03  0.12189526175E+04  0.12371553054E+04  0.17200000000E+03 0.  1.
</event>
<event>
 4    1 -0.6963162E-004  0.2234884E+03  0.7818608E-02  0.1131309E+00
         -5   -1    0    0    0  501 -0.00000000000E+00  0.00000000000E+00  0.25131206136E+04  0.25131250085E+04  0.47000000000E+01 0.  1.
          5   -1    0    0  501    0  0.00000000000E+00 -0.00000000000E+00 -0.15490921236E+03  0.15498049578E+03  0.47000000000E+01 0. -1.
          6    1    1    2  502    0  0.14268067647E+03 -0.23013735026E+01 -0.66456275775E+02  0.23315983433E+03  0.17200000000E+03 0. -1.
         -6    1    1    2    0  502 -0.14268067647E+03  0.23013735026E+01  0.24246676770E+04  0.24349456700E+04  0.17200000000E+03 0.  1.
</event>
<event>
 4    1 -0.6963162E-004  0.2747464E+03  0.7818608E-02  0.1098593E+00
         -5   -1    0    0    0  501 -0.00000000000E+00  0.00000000000E+00  0.36168139740E+03  0.36171193403E+03  0.47000000000E+01 0.  1.
          5   -1    0    0  501    0  0.00000000000E+00 -0.00000000000E+00 -0.34632951345E+03  0.34636140357E+03  0.47000000000E+01 0. -1.
          6    1    1    2  502    0 -0.10274037479E+03 -0.18800529176E+03 -0.21552998978E+03  0.34919729500E+03  0.17200000000E+03 0. -1.
         -6    1    1    2    0  502  0.10274037479E+03  0.18800529176E+03  0.23088187373E+03  0.35887604261E+03  0.17200000000E+03 0.  1.
</event>
<event>
 4    1 -0.6963162E-004  0.2824447E+03  0.7818608E-02  0.1094361E+00
          5   -1    0    0  501    0  0.00000000000E+00  0.00000000000E+00  0.13980905882E+03  0.13988803711E+03  0.47000000000E+01 0. -1.
         -5   -1    0    0    0  501 -0.00000000000E+00 -0.00000000000E+00 -0.63913051009E+03  0.63914779114E+03  0.47000000000E+01 0.  1.
          6    1    1    2  502    0 -0.21410269600E+03 -0.65962563719E+02 -0.12188976033E+03  0.30762337024E+03  0.17200000000E+03 0. -1.
         -6    1    1    2    0  502  0.21410269600E+03  0.65962563719E+02 -0.37743169094E+03  0.47141245801E+03  0.17200000000E+03 0. -1.
</event>
<event>
 4    1 -0.6963162E-004  0.2156833E+03  0.7818608E-02  0.1137143E+00
          5   -1    0    0  501    0  0.00000000000E+00  0.00000000000E+00  0.10129329603E+03  0.10140227720E+03  0.47000000000E+01 0. -1.
         -5   -1    0    0    0  501 -0.00000000000E+00 -0.00000000000E+00 -0.48405080025E+03  0.48407361757E+03  0.47000000000E+01 0.  1.
          6    1    1    2  502    0  0.12314659140E+03  0.42073807255E+02 -0.12464035295E+03  0.24910741822E+03  0.17200000000E+03 0.  1.
         -6    1    1    2    0  502 -0.12314659140E+03 -0.42073807255E+02 -0.25811715127E+03  0.33636847654E+03  0.17200000000E+03 0.  1.
</event>
<event>
 4    1 -0.6963162E-004  0.3095644E+03  0.7818608E-02  0.1080555E+00
          5   -1    0    0  501    0  0.00000000000E+00  0.00000000000E+00  0.38659358512E+03  0.38662215412E+03  0.47000000000E+01 0. -1.
         -5   -1    0    0    0  501 -0.00000000000E+00 -0.00000000000E+00 -0.12408189901E+04  0.12408278915E+04  0.47000000000E+01 0.  1.
          6    1    1    2  502    0  0.16298490506E+03 -0.19920356326E+03  0.30081363966E+03  0.43164682867E+03  0.17200000000E+03 0. -1.
         -6    1    1    2    0  502 -0.16298490506E+03  0.19920356326E+03 -0.11550390447E+04  0.11958032169E+04  0.17200000000E+03 0.  1.
</event>
<event>
 4    1 -0.6963162E-004  0.1833988E+03  0.7818608E-02  0.1164554E+00
         -5   -1    0    0    0  501 -0.00000000000E+00  0.00000000000E+00  0.23180939758E+03  0.23185703959E+03  0.47000000000E+01 0.  1.
          5   -1    0    0  501    0  0.00000000000E+00 -0.00000000000E+00 -0.82208592811E+03  0.82209936334E+03  0.47000000000E+01 0. -1.
          6    1    1    2  502    0 -0.36344405841E+02 -0.52251408291E+02 -0.77336329406E+03  0.79481187089E+03  0.17200000000E+03 0. -1.
         -6    1    1    2    0  502  0.36344405841E+02  0.52251408291E+02  0.18308676353E+03  0.25914453203E+03  0.17200000000E+03 0.  1.
</event>
<event>
 4    1 -0.6963162E-004  0.2041206E+03  0.7818608E-02  0.1146308E+00
          5   -1    0    0  501    0  0.00000000000E+00  0.00000000000E+00  0.23470267543E+03  0.23474973026E+03  0.47000000000E+01 0. -1.
         -5   -1    0    0    0  501 -0.00000000000E+00 -0.00000000000E+00 -0.27536272293E+03  0.27540283074E+03  0.47000000000E+01 0.  1.
          6    1    1    2  502    0 -0.92659355613E+02  0.59122460550E+02  0.13176311383E+03  0.24295419258E+03  0.17200000000E+03 0. -1.
         -6    1    1    2    0  502  0.92659355613E+02 -0.59122460550E+02 -0.17242316133E+03  0.26719836842E+03  0.17200000000E+03 0.  1.
</event>
<event>
 4    1 -0.6963162E-004  0.1771596E+03  0.7818608E-02  0.1170581E+00
          5   -1    0    0  501    0  0.00000000000E+00  0.00000000000E+00  0.50052867293E+02  0.50273049681E+02  0.47000000000E+01 0. -1.
         -5   -1    0    0    0  501 -0.00000000000E+00 -0.00000000000E+00 -0.72461856116E+03  0.72463380350E+03  0.47000000000E+01 0.  1.
          6    1    1    2  502    0 -0.27335133736E+02  0.32470092864E+02 -0.19396571577E+03  0.26269414794E+03  0.17200000000E+03 0. -1.
         -6    1    1    2    0  502  0.27335133736E+02 -0.32470092864E+02 -0.48059997810E+03  0.51221270525E+03  0.17200000000E+03 0.  1.
</event>
<event>
 4    1 -0.6963162E-004  0.2163383E+03  0.7818608E-02  0.1136643E+00
         -5   -1    0    0    0  501 -0.00000000000E+00  0.00000000000E+00  0.43122531610E+02  0.43377906040E+02  0.47000000000E+01 0.  1.
          5   -1    0    0  501    0  0.00000000000E+00 -0.00000000000E+00 -0.16690100695E+04  0.16690166872E+04  0.47000000000E+01 0. -1.
          6    1    1    2  502    0 -0.94800469244E+02 -0.90725570706E+02 -0.13207312161E+04  0.13383322469E+04  0.17200000000E+03 0. -1.
         -6    1    1    2    0  502  0.94800469244E+02  0.90725570706E+02 -0.30515632185E+03  0.37406234629E+03  0.17200000000E+03 0.  1.
</event>
<event>
 4    1 -0.6963162E-004  0.1837773E+03  0.7818608E-02  0.1164197E+00
          5   -1    0    0  501    0  0.00000000000E+00  0.00000000000E+00  0.53393123983E+03  0.53395192561E+03  0.47000000000E+01 0. -1.
         -5   -1    0    0    0  501 -0.00000000000E+00 -0.00000000000E+00 -0.13305132884E+03  0.13313431604E+03  0.47000000000E+01 0.  1.
          6    1    1    2  502    0 -0.45941247887E+02 -0.45601670485E+02  0.44207098169E+03  0.47874926993E+03  0.17200000000E+03 0. -1.
         -6    1    1    2    0  502  0.45941247887E+02  0.45601670485E+02 -0.41191070709E+02  0.18833697171E+03  0.17200000000E+03 0.  1.
</event>
<event>
 4    1 -0.6963162E-004  0.1794636E+03  0.7818608E-02  0.1168323E+00
         -5   -1    0    0    0  501 -0.00000000000E+00  0.00000000000E+00  0.13255645508E+03  0.13263975189E+03  0.47000000000E+01 0.  1.
          5   -1    0    0  501    0  0.00000000000E+00 -0.00000000000E+00 -0.27236509130E+04  0.27236549682E+04  0.47000000000E+01 0. -1.
          6    1    1    2  502    0  0.19780008060E+02  0.47243274941E+02 -0.26585292966E+04  0.26645797411E+04  0.17200000000E+03 0. -1.
         -6    1    1    2    0  502 -0.19780008060E+02 -0.47243274941E+02  0.67434838613E+02  0.19171497908E+03  0.17200000000E+03 0.  1.
</event>
<event>
 4    1 -0.6963162E-004  0.3777491E+03  0.7818608E-02  0.1051769E+00
         -5   -1    0    0    0  501 -0.00000000000E+00  0.00000000000E+00  0.41242771600E+03  0.41245449558E+03  0.47000000000E+01 0.  1.
          5   -1    0    0  501    0  0.00000000000E+00 -0.00000000000E+00 -0.25310586889E+04  0.25310630527E+04  0.47000000000E+01 0. -1.
          6    1    1    2  502    0 -0.33631570527E+03  0.14667429492E+01 -0.24267921836E+04  0.24560160235E+04  0.17200000000E+03 0. -1.
         -6    1    1    2    0  502  0.33631570527E+03 -0.14667429492E+01  0.30816121070E+03  0.48750152484E+03  0.17200000000E+03 0.  1.
</event>
<event>
 4    1 -0.6963162E-004  0.2564083E+03  0.7818608E-02  0.1109321E+00
         -5   -1    0    0    0  501 -0.00000000000E+00  0.00000000000E+00  0.46666730642E+03  0.46669097365E+03  0.47000000000E+01 0.  1.
          5   -1    0    0  501    0  0.00000000000E+00 -0.00000000000E+00 -0.18241483899E+03  0.18247537775E+03  0.47000000000E+01 0. -1.
          6    1    1    2  502    0 -0.34881393509E+02  0.18693446837E+03 -0.12836029932E+02  0.25672937258E+03  0.17200000000E+03 0. -1.
         -6    1    1    2    0  502  0.34881393509E+02 -0.18693446837E+03  0.29708849736E+03  0.39243697882E+03  0.17200000000E+03 0.  1.
</event>
<event>
 4    1 -0.6963162E-004  0.2040910E+03  0.7818608E-02  0.1146333E+00
          5   -1    0    0  501    0  0.00000000000E+00  0.00000000000E+00  0.18237807819E+03  0.18243862914E+03  0.47000000000E+01 0. -1.
         -5   -1    0    0    0  501 -0.00000000000E+00 -0.00000000000E+00 -0.42076477867E+03  0.42079102767E+03  0.47000000000E+01 0.  1.
          6    1    1    2  502    0 -0.16746163811E+02  0.10857578542E+03  0.84790678107E+02  0.22100360693E+03  0.17200000000E+03 0. -1.
         -6    1    1    2    0  502  0.16746163811E+02 -0.10857578542E+03 -0.32317737858E+03  0.38222604988E+03  0.17200000000E+03 0.  1.
</event>
<event>
 4    1 -0.6963162E-004  0.1958319E+03  0.7818608E-02  0.1153304E+00
         -5   -1    0    0    0  501 -0.00000000000E+00  0.00000000000E+00  0.32444603535E+03  0.32448007621E+03  0.47000000000E+01 0.  1.
          5   -1    0    0  501    0  0.00000000000E+00 -0.00000000000E+00 -0.45902847391E+03  0.45905253497E+03  0.47000000000E+01 0. -1.
          6    1    1    2  502    0  0.61346717605E+02 -0.70729882065E+02 -0.40487805580E+03  0.44975146031E+03  0.17200000000E+03 0. -1.
         -6    1    1    2    0  502 -0.61346717605E+02  0.70729882065E+02  0.27029561724E+03  0.33378115087E+03  0.17200000000E+03 0.  1.
</event>
<event>
 4    1 -0.6963162E-004  0.1788202E+03  0.7818608E-02  0.1168950E+00
          5   -1    0    0  501    0  0.00000000000E+00  0.00000000000E+00  0.52160824719E+03  0.52162942166E+03  0.47000000000E+01 0. -1.
         -5   -1    0    0    0  501 -0.00000000000E+00 -0.00000000000E+00 -0.12980625976E+03  0.12989132024E+03  0.47000000000E+01 0.  1.
          6    1    1    2  502    0 -0.23168417688E+02  0.43080073529E+02  0.43260311434E+03  0.46810482037E+03  0.17200000000E+03 0. -1.
         -6    1    1    2    0  502  0.23168417688E+02 -0.43080073529E+02 -0.40801126914E+02  0.18341592153E+03  0.17200000000E+03 0.  1.
</event>
<event>
 4    1 -0.6963162E-004  0.2069572E+03  0.7818608E-02  0.1143998E+00
          5   -1    0    0  501    0  0.00000000000E+00  0.00000000000E+00  0.15890202697E+04  0.15890272205E+04  0.47000000000E+01 0. -1.
         -5   -1    0    0    0  501 -0.00000000000E+00 -0.00000000000E+00 -0.11252902647E+03  0.11262713615E+03  0.47000000000E+01 0.  1.
          6    1    1    2  502    0  0.89408170954E+02 -0.72480743432E+02  0.14802653388E+04  0.14946627554E+04  0.17200000000E+03 0. -1.
         -6    1    1    2    0  502 -0.89408170954E+02  0.72480743432E+02 -0.37740955288E+01  0.20699160128E+03  0.17200000000E+03 0.  1.
</event>
<event>
 4    1 -0.6963162E-004  0.2314447E+03  0.7818608E-02  0.1125627E+00
          5   -1    0    0  501    0  0.00000000000E+00  0.00000000000E+00  0.22600106874E+04  0.22600155745E+04  0.47000000000E+01 0. -1.
         -5   -1    0    0    0  501 -0.00000000000E+00 -0.00000000000E+00 -0.37205494651E+02  0.37501184411E+02  0.47000000000E+01 0.  1.
          6    1    1    2  502    0  0.14196383989E+03 -0.61878071464E+02  0.18059507463E+04  0.18207209356E+04  0.17200000000E+03 0. -1.
         -6    1    1    2    0  502 -0.14196383989E+03  0.61878071464E+02  0.41685444646E+03  0.47679582328E+03  0.17200000000E+03 0.  1.
</event>
<event>
 4    1 -0.6963162E-004  0.1747798E+03  0.7818608E-02  0.1172953E+00
          5   -1    0    0  501    0  0.00000000000E+00  0.00000000000E+00  0.13406940227E+04  0.13407022610E+04  0.47000000000E+01 0. -1.
         -5   -1    0    0    0  501 -0.00000000000E+00 -0.00000000000E+00 -0.24141164436E+02  0.24594426611E+02  0.47000000000E+01 0.  1.
          6    1    1    2  502    0 -0.11155562331E+02  0.28974839762E+02  0.83267258441E+03  0.85081820663E+03  0.17200000000E+03 0. -1.
         -6    1    1    2    0  502  0.11155562331E+02 -0.28974839762E+02  0.48388027389E+03  0.51447848095E+03  0.17200000000E+03 0.  1.
</event>
<event>
 4    1 -0.6963162E-004  0.2024631E+03  0.7818608E-02  0.1147677E+00
          5   -1    0    0  501    0  0.00000000000E+00  0.00000000000E+00  0.57319209143E+03  0.57321136038E+03  0.47000000000E+01 0. -1.
         -5   -1    0    0    0  501 -0.00000000000E+00 -0.00000000000E+00 -0.27902098462E+03  0.27906056665E+03  0.47000000000E+01 0.  1.
          6    1    1    2  502    0 -0.10678814228E+03  0.18972468351E+01  0.51458590540E+03  0.55298278537E+03  0.17200000000E+03 0. -1.
         -6    1    1    2    0  502  0.10678814228E+03 -0.18972468351E+01 -0.22041479860E+03  0.29928914167E+03  0.17200000000E+03 0.  1.
</event>
<event>
 4    1 -0.6963162E-004  0.4446499E+03  0.7818608E-02  0.1029330E+00
         -5   -1    0    0    0  501 -0.00000000000E+00  0.00000000000E+00  0.62183629337E+03  0.62185405502E+03  0.47000000000E+01 0.  1.
          5   -1    0    0  501    0  0.00000000000E+00 -0.00000000000E+00 -0.49955893704E+03  0.49958104606E+03  0.47000000000E+01 0. -1.
          6    1    1    2  502    0 -0.22023210075E+03  0.34587186949E+03 -0.27696153306E+03  0.52385228748E+03  0.17200000000E+03 0. -1.
         -6    1    1    2    0  502  0.22023210075E+03 -0.34587186949E+03  0.39923888938E+03  0.59758281360E+03  0.17200000000E+03 0.  1.
</event>
<event>
 4    1 -0.6963162E-004  0.1773325E+03  0.7818608E-02  0.1170410E+00
         -5   -1    0    0    0  501 -0.00000000000E+00  0.00000000000E+00  0.18489293298E+03  0.18495266061E+03  0.47000000000E+01 0.  1.
          5   -1    0    0  501    0  0.00000000000E+00 -0.00000000000E+00 -0.50506398833E+03  0.50508585637E+03  0.47000000000E+01 0. -1.
          6    1    1    2  502    0 -0.76759423782E+00  0.43153535676E+02 -0.44109087746E+03  0.47540296489E+03  0.17200000000E+03 0. -1.
         -6    1    1    2    0  502  0.76759423782E+00 -0.43153535676E+02  0.12091982212E+03  0.21463555209E+03  0.17200000000E+03 0.  1.
</event>
<event>
 4    1 -0.6963162E-004  0.1951487E+03  0.7818608E-02  0.1153898E+00
         -5   -1    0    0    0  501 -0.00000000000E+00  0.00000000000E+00  0.13945009653E+04  0.13945088856E+04  0.47000000000E+01 0.  1.
          5   -1    0    0  501    0  0.00000000000E+00 -0.00000000000E+00 -0.53571925260E+02  0.53777701476E+02  0.47000000000E+01 0. -1.
          6    1    1    2  502    0 -0.87395118307E+02 -0.29344439134E+02  0.16290117721E+03  0.25420424140E+03  0.17200000000E+03 0. -1.
         -6    1    1    2    0  502  0.87395118307E+02  0.29344439134E+02  0.11780278628E+04  0.11940823457E+04  0.17200000000E+03 0.  1.
</event>
<event>
 4    1 -0.6963162E-004  0.1727958E+03  0.7818608E-02  0.1174963E+00
          5   -1    0    0  501    0  0.00000000000E+00  0.00000000000E+00  0.37639984227E+03  0.37642918492E+03  0.47000000000E+01 0. -1.
         -5   -1    0    0    0  501 -0.00000000000E+00 -0.00000000000E+00 -0.29275591686E+03  0.29279364210E+03  0.47000000000E+01 0.  1.
          6    1    1    2  502    0 -0.15081694954E+02 -0.68511739167E+01  0.32753608892E+03  0.37032186764E+03  0.17200000000E+03 0. -1.
         -6    1    1    2    0  502  0.15081694954E+02  0.68511739167E+01 -0.24389216350E+03  0.29890095939E+03  0.17200000000E+03 0.  1.
</event>
<event>
 4    1 -0.6963162E-004  0.2026365E+03  0.7818608E-02  0.1147533E+00
          5   -1    0    0  501    0  0.00000000000E+00  0.00000000000E+00  0.87791175838E+02  0.87916895731E+02  0.47000000000E+01 0. -1.
         -5   -1    0    0    0  501 -0.00000000000E+00 -0.00000000000E+00 -0.16871337582E+04  0.16871403048E+04  0.47000000000E+01 0.  1.
          6    1    1    2  502    0 -0.82110310499E+02  0.68814610555E+02 -0.45014707595E+02  0.20757619713E+03  0.17200000000E+03 0. -1.
         -6    1    1    2    0  502  0.82110310499E+02 -0.68814610555E+02 -0.15543278748E+04  0.15674810034E+04  0.17200000000E+03 0.  1.
</event>
<event>
 4    1 -0.6963162E-004  0.4088737E+03  0.7818608E-02  0.1040750E+00
         -5   -1    0    0    0  501 -0.00000000000E+00  0.00000000000E+00  0.21429458035E+03  0.21434611535E+03  0.47000000000E+01 0.  1.
          5   -1    0    0  501    0  0.00000000000E+00 -0.00000000000E+00 -0.13461311856E+04  0.13461393906E+04  0.47000000000E+01 0. -1.
          6    1    1    2  502    0 -0.33591282847E+02  0.36941212571E+03 -0.10719094956E+04  0.11472435049E+04  0.17200000000E+03 0. -1.
         -6    1    1    2    0  502  0.33591282847E+02 -0.36941212571E+03 -0.59927109661E+02  0.41324200098E+03  0.17200000000E+03 0.  1.
</event>
<event>
 4    1 -0.6963162E-004  0.2106333E+03  0.7818608E-02  0.1141065E+00
         -5   -1    0    0    0  501 -0.00000000000E+00  0.00000000000E+00  0.72183344696E+03  0.72184874811E+03  0.47000000000E+01 0.  1.
          5   -1    0    0  501    0  0.00000000000E+00 -0.00000000000E+00 -0.23789188989E+03  0.23793831401E+03  0.47000000000E+01 0. -1.
          6    1    1    2  502    0 -0.50874522181E+02 -0.11042728560E+03 -0.17131681871E+03  0.27150663857E+03  0.17200000000E+03 0. -1.
         -6    1    1    2    0  502  0.50874522181E+02  0.11042728560E+03  0.65525837578E+03  0.68828042355E+03  0.17200000000E+03 0.  1.
</event>
<event>
 4    1 -0.6963162E-004  0.4149433E+03  0.7818608E-02  0.1038725E+00
         -5   -1    0    0    0  501 -0.00000000000E+00  0.00000000000E+00  0.49234551739E+03  0.49236795031E+03  0.47000000000E+01 0.  1.
          5   -1    0    0  501    0  0.00000000000E+00 -0.00000000000E+00 -0.51296193894E+03  0.51298347030E+03  0.47000000000E+01 0. -1.
          6    1    1    2  502    0 -0.70584607802E+02  0.37096058547E+03 -0.29391443688E+03  0.50849153291E+03  0.17200000000E+03 0. -1.
         -6    1    1    2    0  502  0.70584607802E+02 -0.37096058547E+03  0.27329801533E+03  0.49685988771E+03  0.17200000000E+03 0.  1.
</event>
<event>
 4    1 -0.6963162E-004  0.1725722E+03  0.7818608E-02  0.1175192E+00
         -5   -1    0    0    0  501 -0.00000000000E+00  0.00000000000E+00  0.65248847475E+03  0.65250540203E+03  0.47000000000E+01 0.  1.
          5   -1    0    0  501    0  0.00000000000E+00 -0.00000000000E+00 -0.22027682906E+03  0.22032696481E+03  0.47000000000E+01 0. -1.
          6    1    1    2  502    0 -0.87382784055E+01 -0.10991774016E+02 -0.17248528383E+03  0.24399251985E+03  0.17200000000E+03 0. -1.
         -6    1    1    2    0  502  0.87382784055E+01  0.10991774016E+02  0.60469692951E+03  0.62883984699E+03  0.17200000000E+03 0.  1.
</event>
<event>
 4    1 -0.6963162E-004  0.1894155E+03  0.7818608E-02  0.1158990E+00
          5   -1    0    0  501    0  0.00000000000E+00  0.00000000000E+00  0.12715408274E+03  0.12724091620E+03  0.47000000000E+01 0. -1.
         -5   -1    0    0    0  501 -0.00000000000E+00 -0.00000000000E+00 -0.54503731883E+03  0.54505758312E+03  0.47000000000E+01 0.  1.
          6    1    1    2  502    0 -0.47813749181E+02  0.63309251936E+02  0.24572868134E+02  0.19100272731E+03  0.17200000000E+03 0. -1.
         -6    1    1    2    0  502  0.47813749181E+02 -0.63309251936E+02 -0.44245610423E+03  0.48129577201E+03  0.17200000000E+03 0. -1.
</event>
<event>
 4    1 -0.6963162E-004  0.1844789E+03  0.7818608E-02  0.1163537E+00
          5   -1    0    0  501    0  0.00000000000E+00  0.00000000000E+00  0.69341240746E+02  0.69500342936E+02  0.47000000000E+01 0. -1.
         -5   -1    0    0    0  501 -0.00000000000E+00 -0.00000000000E+00 -0.10583001094E+04  0.10583105459E+04  0.47000000000E+01 0.  1.
          6    1    1    2  502    0  0.63089254478E+02  0.21638132989E+02 -0.81308053808E+02  0.20160223819E+03  0.17200000000E+03 0. -1.
         -6    1    1    2    0  502 -0.63089254478E+02 -0.21638132989E+02 -0.90765081482E+03  0.92620865061E+03  0.17200000000E+03 0.  1.
</event>
<event>
 4    1 -0.6963162E-004  0.1792970E+03  0.7818608E-02  0.1168485E+00
          5   -1    0    0  501    0  0.00000000000E+00  0.00000000000E+00  0.64532346962E+02  0.64703275067E+02  0.47000000000E+01 0. -1.
         -5   -1    0    0    0  501 -0.00000000000E+00 -0.00000000000E+00 -0.10154583445E+04  0.10154692213E+04  0.47000000000E+01 0.  1.
          6    1    1    2  502    0 -0.35560315640E+02  0.36040013739E+02 -0.89704659782E+02  0.20048527284E+03  0.17200000000E+03 0. -1.
         -6    1    1    2    0  502  0.35560315640E+02 -0.36040013739E+02 -0.86122133775E+03  0.87968722352E+03  0.17200000000E+03 0.  1.
</event>
<event>
 4    1 -0.6963162E-004  0.3565725E+03  0.7818608E-02  0.1059949E+00
         -5   -1    0    0    0  501 -0.00000000000E+00  0.00000000000E+00  0.10416279727E+04  0.10416385763E+04  0.47000000000E+01 0.  1.
          5   -1    0    0  501    0  0.00000000000E+00 -0.00000000000E+00 -0.23734400372E+03  0.23739053499E+03  0.47000000000E+01 0. -1.
          6    1    1    2  502    0 -0.29806189683E+03 -0.93375804774E+02 -0.43590915895E+02  0.35922709141E+03  0.17200000000E+03 0. -1.
         -6    1    1    2    0  502  0.29806189683E+03  0.93375804774E+02  0.84787488491E+03  0.91980201985E+03  0.17200000000E+03 0.  1.
</event>
<event>
 4    1 -0.6963162E-004  0.1778461E+03  0.7818608E-02  0.1169904E+00
          5   -1    0    0  501    0  0.00000000000E+00  0.00000000000E+00  0.38442297579E+04  0.38442326310E+04  0.47000000000E+01 0. -1.
         -5   -1    0    0    0  501 -0.00000000000E+00 -0.00000000000E+00 -0.30877453393E+02  0.31233109484E+02  0.47000000000E+01 0.  1.
          6    1    1    2  502    0 -0.13040691630E+02 -0.43303139023E+02  0.35680342866E+04  0.35724638406E+04  0.17200000000E+03 0. -1.
         -6    1    1    2    0  502  0.13040691630E+02  0.43303139023E+02  0.24531801787E+03  0.30300189996E+03  0.17200000000E+03 0.  1.
</event>
<event>
 4    1 -0.6963162E-004  0.1822914E+03  0.7818608E-02  0.1165604E+00
          5   -1    0    0  501    0  0.00000000000E+00  0.00000000000E+00  0.83688677581E+02  0.83820550912E+02  0.47000000000E+01 0. -1.
         -5   -1    0    0    0  501 -0.00000000000E+00 -0.00000000000E+00 -0.12100944613E+04  0.12101035886E+04  0.47000000000E+01 0.  1.
          6    1    1    2  502    0 -0.48798088109E+02  0.35565566738E+02 -0.32786759105E+02  0.18521645314E+03  0.17200000000E+03 0. -1.
         -6    1    1    2    0  502  0.48798088109E+02 -0.35565566738E+02 -0.10936190246E+04  0.11087076864E+04  0.17200000000E+03 0.  1.
</event>
<event>
 4    1 -0.6963162E-004  0.3072448E+03  0.7818608E-02  0.1081674E+00
         -5   -1    0    0    0  501 -0.00000000000E+00  0.00000000000E+00  0.25930637715E+03  0.25934896805E+03  0.47000000000E+01 0.  1.
          5   -1    0    0  501    0  0.00000000000E+00 -0.00000000000E+00 -0.69320862372E+03  0.69322455669E+03  0.47000000000E+01 0. -1.
          6    1    1    2  502    0  0.21452289867E+03 -0.13709587730E+03 -0.54518187329E+03  0.62579759395E+03  0.17200000000E+03 0. -1.
         -6    1    1    2    0  502 -0.21452289867E+03  0.13709587730E+03  0.11127962672E+03  0.32677593080E+03  0.17200000000E+03 0.  1.
</event>
<event>
 4    1 -0.6963162E-004  0.1981564E+03  0.7818608E-02  0.1151304E+00
          5   -1    0    0  501    0  0.00000000000E+00  0.00000000000E+00  0.17871333081E+03  0.17877512302E+03  0.47000000000E+01 0. -1.
         -5   -1    0    0    0  501 -0.00000000000E+00 -0.00000000000E+00 -0.26860009309E+03  0.26864121055E+03  0.47000000000E+01 0.  1.
          6    1    1    2  502    0  0.38954299632E+02  0.90357771991E+02  0.50596598065E+02  0.20451400968E+03  0.17200000000E+03 0. -1.
         -6    1    1    2    0  502 -0.38954299632E+02 -0.90357771991E+02 -0.14048336034E+03  0.24290232389E+03  0.17200000000E+03 0.  1.
</event>
<event>
 4    1 -0.6963162E-004  0.1758245E+03  0.7818608E-02  0.1171906E+00
         -5   -1    0    0    0  501 -0.00000000000E+00  0.00000000000E+00  0.52018254665E+03  0.52020377914E+03  0.47000000000E+01 0.  1.
          5   -1    0    0  501    0  0.00000000000E+00 -0.00000000000E+00 -0.70614109868E+02  0.70770350518E+02  0.47000000000E+01 0. -1.
          6    1    1    2  502    0  0.24774633936E+02  0.26766962818E+02  0.10674149107E+03  0.20568908260E+03  0.17200000000E+03 0. -1.
         -6    1    1    2    0  502 -0.24774633936E+02 -0.26766962818E+02  0.34282694571E+03  0.38528504706E+03  0.17200000000E+03 0.  1.
</event>
<event>
 4    1 -0.6963162E-004  0.1802881E+03  0.7818608E-02  0.1167524E+00
         -5   -1    0    0    0  501 -0.00000000000E+00  0.00000000000E+00  0.29518606747E+03  0.29522348218E+03  0.47000000000E+01 0.  1.
          5   -1    0    0  501    0  0.00000000000E+00 -0.00000000000E+00 -0.21078344439E+03  0.21083583763E+03  0.47000000000E+01 0. -1.
          6    1    1    2  502    0  0.38200343941E+02  0.38217052228E+02 -0.13269915478E+03  0.22385905172E+03  0.17200000000E+03 0. -1.
         -6    1    1    2    0  502 -0.38200343941E+02 -0.38217052228E+02  0.21710177786E+03  0.28220026809E+03  0.17200000000E+03 0.  1.
</event>
<event>
 4    1 -0.6963162E-004  0.1732211E+03  0.7818608E-02  0.1174530E+00
          5   -1    0    0  501    0  0.00000000000E+00  0.00000000000E+00  0.64791743358E+03  0.64793448028E+03  0.47000000000E+01 0. -1.
         -5   -1    0    0    0  501 -0.00000000000E+00 -0.00000000000E+00 -0.36262337276E+03  0.36265383008E+03  0.47000000000E+01 0.  1.
          6    1    1    2  502    0 -0.20301147802E+02  0.30671634074E+01  0.61457735612E+03  0.63852241210E+03  0.17200000000E+03 0. -1.
         -6    1    1    2    0  502  0.20301147802E+02 -0.30671634074E+01 -0.32928329530E+03  0.37206589827E+03  0.17200000000E+03 0.  1.
</event>
<event>
 4    1 -0.6963162E-004  0.2051897E+03  0.7818608E-02  0.1145433E+00
          5   -1    0    0  501    0  0.00000000000E+00  0.00000000000E+00  0.14782754492E+03  0.14790224149E+03  0.47000000000E+01 0. -1.
         -5   -1    0    0    0  501 -0.00000000000E+00 -0.00000000000E+00 -0.55323605359E+03  0.55325601758E+03  0.47000000000E+01 0.  1.
          6    1    1    2  502    0 -0.71443898576E+02  0.86107855698E+02  0.41546782348E+02  0.20935359701E+03  0.17200000000E+03 0. -1.
         -6    1    1    2    0  502  0.71443898576E+02 -0.86107855698E+02 -0.44695529102E+03  0.49180466206E+03  0.17200000000E+03 0.  1.
</event>
<event>
 4    1 -0.6963162E-004  0.2860220E+03  0.7818608E-02  0.1092445E+00
          5   -1    0    0  501    0  0.00000000000E+00  0.00000000000E+00  0.11885911812E+04  0.11886004737E+04  0.47000000000E+01 0. -1.
         -5   -1    0    0    0  501 -0.00000000000E+00 -0.00000000000E+00 -0.92581468282E+03  0.92582661278E+03  0.47000000000E+01 0.  1.
          6    1    1    2  502    0  0.73829701111E+02  0.21627244353E+03  0.11485453300E+04  0.11836236605E+04  0.17200000000E+03 0. -1.
         -6    1    1    2    0  502 -0.73829701111E+02 -0.21627244353E+03 -0.88576883166E+03  0.93080342594E+03  0.17200000000E+03 0.  1.
</event>
<event>
 4    1 -0.6963162E-004  0.2339839E+03  0.7818608E-02  0.1123867E+00
         -5   -1    0    0    0  501 -0.00000000000E+00  0.00000000000E+00  0.11182578859E+03  0.11192451471E+03  0.47000000000E+01 0.  1.
          5   -1    0    0  501    0  0.00000000000E+00 -0.00000000000E+00 -0.57531622066E+03  0.57533541848E+03  0.47000000000E+01 0. -1.
          6    1    1    2  502    0  0.28788001375E+02 -0.15599908539E+03 -0.36463176800E+03  0.43324910837E+03  0.17200000000E+03 0. -1.
         -6    1    1    2    0  502 -0.28788001375E+02  0.15599908539E+03 -0.98858664077E+02  0.25401082482E+03  0.17200000000E+03 0.  1.
</event>
<event>
 4    1 -0.6963162E-004  0.1994420E+03  0.7818608E-02  0.1150211E+00
         -5   -1    0    0    0  501 -0.00000000000E+00  0.00000000000E+00  0.15690251356E+03  0.15697289181E+03  0.47000000000E+01 0.  1.
          5   -1    0    0  501    0  0.00000000000E+00 -0.00000000000E+00 -0.58620140482E+03  0.58622024616E+03  0.47000000000E+01 0. -1.
          6    1    1    2  502    0 -0.77909015024E+02 -0.64212873258E+02  0.65329610085E+02  0.20986916321E+03  0.17200000000E+03 0.  1.
         -6    1    1    2    0  502  0.77909015024E+02  0.64212873258E+02 -0.49462850134E+03  0.53332397476E+03  0.17200000000E+03 0. -1.
</event>
<event>
 4    1 -0.6963162E-004  0.1725120E+03  0.7818608E-02  0.1175253E+00
          5   -1    0    0  501    0  0.00000000000E+00  0.00000000000E+00  0.54317524720E+03  0.54319558096E+03  0.47000000000E+01 0. -1.
         -5   -1    0    0    0  501 -0.00000000000E+00 -0.00000000000E+00 -0.10547916251E+03  0.10558382321E+03  0.47000000000E+01 0.  1.
          6    1    1    2  502    0  0.13051035387E+02  0.24622763486E+01  0.44380975270E+03  0.47615910042E+03  0.17200000000E+03 0. -1.
         -6    1    1    2    0  502 -0.13051035387E+02 -0.24622763486E+01 -0.61136680009E+01  0.17262030375E+03  0.17200000000E+03 0.  1.
</event>
<event>
 4    1 -0.6963162E-004  0.2631046E+03  0.7818608E-02  0.1105292E+00
          5   -1    0    0  501    0  0.00000000000E+00  0.00000000000E+00  0.35763305730E+03  0.35766393958E+03  0.47000000000E+01 0. -1.
         -5   -1    0    0    0  501 -0.00000000000E+00 -0.00000000000E+00 -0.72811462006E+03  0.72812978921E+03  0.47000000000E+01 0.  1.
          6    1    1    2  502    0  0.79056065336E+02  0.18272972104E+03  0.27993855621E+03  0.38417392893E+03  0.17200000000E+03 0. -1.
         -6    1    1    2    0  502 -0.79056065336E+02 -0.18272972104E+03 -0.65042011896E+03  0.70161979987E+03  0.17200000000E+03 0.  1.
</event>
<event>
 4    1 -0.6963162E-004  0.1733251E+03  0.7818608E-02  0.1174424E+00
         -5   -1    0    0    0  501 -0.00000000000E+00  0.00000000000E+00  0.49005207936E+03  0.49007461726E+03  0.47000000000E+01 0.  1.
          5   -1    0    0  501    0  0.00000000000E+00 -0.00000000000E+00 -0.58834851800E+03  0.58836729059E+03  0.47000000000E+01 0. -1.
          6    1    1    2  502    0 -0.12124913487E+02 -0.17623407223E+02 -0.55950688835E+03  0.58573847076E+03  0.17200000000E+03 0. -1.
         -6    1    1    2    0  502  0.12124913487E+02  0.17623407223E+02  0.46121044971E+03  0.49270343710E+03  0.17200000000E+03 0.  1.
</event>
<event>
 4    1 -0.6963162E-004  0.1929392E+03  0.7818608E-02  0.1155837E+00
          5   -1    0    0  501    0  0.00000000000E+00  0.00000000000E+00  0.21732695701E+03  0.21737777311E+03  0.47000000000E+01 0. -1.
         -5   -1    0    0    0  501 -0.00000000000E+00 -0.00000000000E+00 -0.23474477096E+03  0.23479181735E+03  0.47000000000E+01 0.  1.
          6    1    1    2  502    0  0.15200657816E+02 -0.86084079788E+02  0.10890693952E+03  0.22155417005E+03  0.17200000000E+03 0. -1.
         -6    1    1    2    0  502 -0.15200657816E+02  0.86084079788E+02 -0.12632475347E+03  0.23061542041E+03  0.17200000000E+03 0.  1.
</event>
<event>
 4    1 -0.6963162E-004  0.2032006E+03  0.7818608E-02  0.1147066E+00
         -5   -1    0    0    0  501 -0.00000000000E+00  0.00000000000E+00  0.87122959059E+03  0.87124226798E+03  0.47000000000E+01 0.  1.
          5   -1    0    0  501    0  0.00000000000E+00 -0.00000000000E+00 -0.17351662112E+03  0.17358026329E+03  0.47000000000E+01 0. -1.
          6    1    1    2  502    0 -0.50759137609E+01 -0.10807734798E+03 -0.96554722295E+02  0.22497398170E+03  0.17200000000E+03 0. -1.
         -6    1    1    2    0  502  0.50759137609E+01  0.10807734798E+03  0.79426769176E+03  0.81984854957E+03  0.17200000000E+03 0.  1.
</event>
<event>
 4    1 -0.6963162E-004  0.3357807E+03  0.7818608E-02  0.1068607E+00
         -5   -1    0    0    0  501 -0.00000000000E+00  0.00000000000E+00  0.22322918281E+03  0.22327865563E+03  0.47000000000E+01 0.  1.
          5   -1    0    0  501    0  0.00000000000E+00 -0.00000000000E+00 -0.52807686617E+03  0.52809778127E+03  0.47000000000E+01 0. -1.
          6    1    1    2  502    0 -0.28181494296E+03  0.61196752921E+02 -0.73832322711E+02  0.34380214735E+03  0.17200000000E+03 0.  1.
         -6    1    1    2    0  502  0.28181494296E+03 -0.61196752921E+02 -0.23101536065E+03  0.40757428955E+03  0.17200000000E+03 0.  1.
</event>
<event>
 4    1 -0.6963162E-004  0.1735138E+03  0.7818608E-02  0.1174232E+00
         -5   -1    0    0    0  501 -0.00000000000E+00  0.00000000000E+00  0.74728741806E+03  0.74730219803E+03  0.47000000000E+01 0.  1.
          5   -1    0    0  501    0  0.00000000000E+00 -0.00000000000E+00 -0.10002125211E+03  0.10013161776E+03  0.47000000000E+01 0. -1.
          6    1    1    2  502    0 -0.22018431873E+02  0.61828821485E+01 -0.38885219396E+01  0.17355736797E+03  0.17200000000E+03 0. -1.
         -6    1    1    2    0  502  0.22018431873E+02 -0.61828821485E+01  0.65115468788E+03  0.67387644782E+03  0.17200000000E+03 0.  1.
</event>
<event>
 4    1 -0.6963162E-004  0.1893540E+03  0.7818608E-02  0.1159045E+00
          5   -1    0    0  501    0  0.00000000000E+00  0.00000000000E+00  0.10255597633E+03  0.10266361713E+03  0.47000000000E+01 0. -1.
         -5   -1    0    0    0  501 -0.00000000000E+00 -0.00000000000E+00 -0.87237308798E+03  0.87238574876E+03  0.47000000000E+01 0.  1.
          6    1    1    2  502    0  0.60691368859E+02 -0.50867432674E+02 -0.74305437462E+01  0.18949973863E+03  0.17200000000E+03 0. -1.
         -6    1    1    2    0  502 -0.60691368859E+02  0.50867432674E+02 -0.76238656790E+03  0.78554962726E+03  0.17200000000E+03 0.  1.
</event>
<event>
 4    1 -0.6963162E-004  0.1747590E+03  0.7818608E-02  0.1172974E+00
         -5   -1    0    0    0  501 -0.00000000000E+00  0.00000000000E+00  0.58692228667E+03  0.58694110488E+03  0.47000000000E+01 0.  1.
          5   -1    0    0  501    0  0.00000000000E+00 -0.00000000000E+00 -0.25596245985E+03  0.25600560708E+03  0.47000000000E+01 0. -1.
          6    1    1    2  502    0 -0.30858067180E+02  0.21203767103E+01 -0.21072900138E+03  0.27376527963E+03  0.17200000000E+03 0. -1.
         -6    1    1    2    0  502  0.30858067180E+02 -0.21203767103E+01  0.54168882820E+03  0.56918143233E+03  0.17200000000E+03 0.  1.
</event>
<event>
 4    1 -0.6963162E-004  0.2090235E+03  0.7818608E-02  0.1142342E+00
          5   -1    0    0  501    0  0.00000000000E+00  0.00000000000E+00  0.57833153379E+03  0.57835063152E+03  0.47000000000E+01 0. -1.
         -5   -1    0    0    0  501 -0.00000000000E+00 -0.00000000000E+00 -0.23381453461E+03  0.23386176813E+03  0.47000000000E+01 0.  1.
          6    1    1    2  502    0  0.90105335699E+02  0.77381161243E+02  0.50639303796E+03  0.54783640307E+03  0.17200000000E+03 0. -1.
         -6    1    1    2    0  502 -0.90105335699E+02 -0.77381161243E+02 -0.16187603878E+03  0.26437599658E+03  0.17200000000E+03 0.  1.
</event>
<event>
 4    1 -0.6963162E-004  0.2048903E+03  0.7818608E-02  0.1145677E+00
          5   -1    0    0  501    0  0.00000000000E+00  0.00000000000E+00  0.20992079401E+03  0.20997340250E+03  0.47000000000E+01 0. -1.
         -5   -1    0    0    0  501 -0.00000000000E+00 -0.00000000000E+00 -0.33729120329E+03  0.33732394788E+03  0.47000000000E+01 0.  1.
          6    1    1    2  502    0 -0.10084996616E+03 -0.47173124323E+02  0.11095637160E+03  0.23300501224E+03  0.17200000000E+03 0. -1.
         -6    1    1    2    0  502  0.10084996616E+03  0.47173124323E+02 -0.23832678087E+03  0.31429233814E+03  0.17200000000E+03 0.  1.
</event>
<event>
 4    1 -0.6963162E-004  0.1917615E+03  0.7818608E-02  0.1156882E+00
         -5   -1    0    0    0  501 -0.00000000000E+00  0.00000000000E+00  0.64260550753E+03  0.64262269514E+03  0.47000000000E+01 0.  1.
          5   -1    0    0  501    0  0.00000000000E+00 -0.00000000000E+00 -0.12116045231E+03  0.12125157815E+03  0.47000000000E+01 0. -1.
          6    1    1    2  502    0 -0.34636959378E+02  0.77387062954E+02 -0.16793960288E+02  0.19249548974E+03  0.17200000000E+03 0. -1.
         -6    1    1    2    0  502  0.34636959378E+02 -0.77387062954E+02  0.53823901552E+03  0.57137878355E+03  0.17200000000E+03 0.  1.
</event>
<event>
 4    1 -0.6963162E-004  0.1929994E+03  0.7818608E-02  0.1155784E+00
          5   -1    0    0  501    0  0.00000000000E+00  0.00000000000E+00  0.37214539580E+02  0.37510158040E+02  0.47000000000E+01 0. -1.
         -5   -1    0    0    0  501 -0.00000000000E+00 -0.00000000000E+00 -0.20917178131E+04  0.20917230934E+04  0.47000000000E+01 0.  1.
          6    1    1    2  502    0  0.75174670285E+02  0.44872425709E+02 -0.25700657221E+03  0.32140495298E+03  0.17200000000E+03 0. -1.
         -6    1    1    2    0  502 -0.75174670285E+02 -0.44872425709E+02 -0.17974967013E+04  0.18078282985E+04  0.17200000000E+03 0.  1.
</event>
<event>
 4    1 -0.6963162E-004  0.1739750E+03  0.7818608E-02  0.1173765E+00
         -5   -1    0    0    0  501 -0.00000000000E+00  0.00000000000E+00  0.47037969595E+02  0.47272196729E+02  0.47000000000E+01 0.  1.
          5   -1    0    0  501    0  0.00000000000E+00 -0.00000000000E+00 -0.11165493901E+04  0.11165592821E+04  0.47000000000E+01 0. -1.
          6    1    1    2  502    0 -0.21708898068E+02  0.14561211202E+02 -0.91423269667E+03  0.93063888205E+03  0.17200000000E+03 0. -1.
         -6    1    1    2    0  502  0.21708898068E+02 -0.14561211202E+02 -0.15527872379E+03  0.23319259677E+03  0.17200000000E+03 0.  1.
</event>
<event>
 4    1 -0.6963162E-004  0.1987370E+03  0.7818608E-02  0.1150809E+00
         -5   -1    0    0    0  501 -0.00000000000E+00  0.00000000000E+00  0.72335233384E+03  0.72336760286E+03  0.47000000000E+01 0.  1.
          5   -1    0    0  501    0  0.00000000000E+00 -0.00000000000E+00 -0.56248034024E+02  0.56444054882E+02  0.47000000000E+01 0. -1.
          6    1    1    2  502    0  0.74308034731E+02 -0.66262480837E+02  0.26465102475E+03  0.33096308751E+03  0.17200000000E+03 0. -1.
         -6    1    1    2    0  502 -0.74308034731E+02  0.66262480837E+02  0.40245327506E+03  0.44884857023E+03  0.17200000000E+03 0.  1.
</event>
<event>
 4    1 -0.6963162E-004  0.1984192E+03  0.7818608E-02  0.1151080E+00
         -5   -1    0    0    0  501 -0.00000000000E+00  0.00000000000E+00  0.11500104456E+03  0.11509704710E+03  0.47000000000E+01 0.  1.
          5   -1    0    0  501    0  0.00000000000E+00 -0.00000000000E+00 -0.79232411330E+03  0.79233805318E+03  0.47000000000E+01 0. -1.
          6    1    1    2  502    0  0.28800788272E+02  0.94639763678E+02 -0.68065681345E+03  0.70898791807E+03  0.17200000000E+03 0. -1.
         -6    1    1    2    0  502 -0.28800788272E+02 -0.94639763678E+02  0.33337447090E+01  0.19844718221E+03  0.17200000000E+03 0.  1.
</event>
<event>
 4    1 -0.6963162E-004  0.2265487E+03  0.7818608E-02  0.1129093E+00
         -5   -1    0    0    0  501 -0.00000000000E+00  0.00000000000E+00  0.74420567987E+03  0.74422052105E+03  0.47000000000E+01 0.  1.
          5   -1    0    0  501    0  0.00000000000E+00 -0.00000000000E+00 -0.16887702079E+03  0.16894241075E+03  0.47000000000E+01 0. -1.
          6    1    1    2  502    0 -0.12909000863E+03 -0.71246505758E+02 -0.63560411351E+02  0.23529602802E+03  0.17200000000E+03 0. -1.
         -6    1    1    2    0  502  0.12909000863E+03  0.71246505758E+02  0.63888907043E+03  0.67786690377E+03  0.17200000000E+03 0.  1.
</event>
<event>
 4    1 -0.6963162E-004  0.2062255E+03  0.7818608E-02  0.1144590E+00
          5   -1    0    0  501    0  0.00000000000E+00  0.00000000000E+00  0.11161687250E+03  0.11171578324E+03  0.47000000000E+01 0. -1.
         -5   -1    0    0    0  501 -0.00000000000E+00 -0.00000000000E+00 -0.38624935690E+03  0.38627795136E+03  0.47000000000E+01 0.  1.
          6    1    1    2  502    0  0.11278186070E+03 -0.15007163549E+02 -0.16703811749E+03  0.26538782141E+03  0.17200000000E+03 0.  1.
         -6    1    1    2    0  502 -0.11278186070E+03  0.15007163549E+02 -0.10759436692E+03  0.23260591320E+03  0.17200000000E+03 0. -1.
</event>
<event>
 4    1 -0.6963162E-004  0.1769720E+03  0.7818608E-02  0.1170766E+00
         -5   -1    0    0    0  501 -0.00000000000E+00  0.00000000000E+00  0.25028635454E+03  0.25033048010E+03  0.47000000000E+01 0.  1.
          5   -1    0    0  501    0  0.00000000000E+00 -0.00000000000E+00 -0.35680761043E+03  0.35683856414E+03  0.47000000000E+01 0. -1.
          6    1    1    2  502    0 -0.31328512924E+02  0.27452186328E+02 -0.29790298700E+03  0.34650438369E+03  0.17200000000E+03 0. -1.
         -6    1    1    2    0  502  0.31328512924E+02 -0.27452186328E+02  0.19138173111E+03  0.26066466055E+03  0.17200000000E+03 0.  1.
</event>
<event>
 4    1 -0.6963162E-004  0.3250614E+03  0.7818608E-02  0.1073343E+00
         -5   -1    0    0    0  501 -0.00000000000E+00  0.00000000000E+00  0.28888538304E+03  0.28892361366E+03  0.47000000000E+01 0.  1.
          5   -1    0    0  501    0  0.00000000000E+00 -0.00000000000E+00 -0.53830467938E+03  0.53832519711E+03  0.47000000000E+01 0. -1.
          6    1    1    2  502    0  0.47370875761E+01  0.27578697859E+03 -0.35891956209E+03  0.48423976459E+03  0.17200000000E+03 0. -1.
         -6    1    1    2    0  502 -0.47370875761E+01 -0.27578697859E+03  0.10950026575E+03  0.34300904618E+03  0.17200000000E+03 0.  1.
</event>
<event>
 4    1 -0.6963162E-004  0.1907470E+03  0.7818608E-02  0.1157789E+00
         -5   -1    0    0    0  501 -0.00000000000E+00  0.00000000000E+00  0.62276739950E+03  0.62278513460E+03  0.47000000000E+01 0.  1.
          5   -1    0    0  501    0  0.00000000000E+00 -0.00000000000E+00 -0.17584751347E+03  0.17591031236E+03  0.47000000000E+01 0. -1.
          6    1    1    2  502    0  0.78169274836E+02  0.26267625145E+02 -0.10289692818E+03  0.21673071192E+03  0.17200000000E+03 0. -1.
         -6    1    1    2    0  502 -0.78169274836E+02 -0.26267625145E+02  0.54981681420E+03  0.58196473505E+03  0.17200000000E+03 0.  1.
</event>
<event>
 4    1 -0.6963162E-004  0.2408197E+03  0.7818608E-02  0.1119248E+00
          5   -1    0    0  501    0  0.00000000000E+00  0.00000000000E+00  0.11499840528E+03  0.11509441002E+03  0.47000000000E+01 0. -1.
         -5   -1    0    0    0  501 -0.00000000000E+00 -0.00000000000E+00 -0.56034958044E+03  0.56036929101E+03  0.47000000000E+01 0.  1.
          6    1    1    2  502    0  0.17496001089E+02 -0.16764258438E+03 -0.11557435662E+03  0.26711716167E+03  0.17200000000E+03 0. -1.
         -6    1    1    2    0  502 -0.17496001089E+02  0.16764258438E+03 -0.32977681855E+03  0.40834653935E+03  0.17200000000E+03 0. -1.
</event>
<event>
 4    1 -0.6963162E-004  0.1800295E+03  0.7818608E-02  0.1167775E+00
          5   -1    0    0  501    0  0.00000000000E+00  0.00000000000E+00  0.49487038251E+03  0.49489270098E+03  0.47000000000E+01 0. -1.
         -5   -1    0    0    0  501 -0.00000000000E+00 -0.00000000000E+00 -0.14869547827E+03  0.14876973905E+03  0.47000000000E+01 0.  1.
          6    1    1    2  502    0  0.52318717915E+02 -0.94530634939E+01  0.41386680517E+03  0.45132731036E+03  0.17200000000E+03 0. -1.
         -6    1    1    2    0  502 -0.52318717915E+02  0.94530634939E+01 -0.67691900929E+02  0.19233512967E+03  0.17200000000E+03 0.  1.
</event>
<event>
 4    1 -0.6963162E-004  0.3654810E+03  0.7818608E-02  0.1056434E+00
          5   -1    0    0  501    0  0.00000000000E+00  0.00000000000E+00  0.68946908427E+03  0.68948510366E+03  0.47000000000E+01 0. -1.
         -5   -1    0    0    0  501 -0.00000000000E+00 -0.00000000000E+00 -0.19745695283E+03  0.19751288115E+03  0.47000000000E+01 0.  1.
          6    1    1    2  502    0  0.12853301948E+03  0.29575599628E+03  0.30724147290E+03  0.47746588265E+03  0.17200000000E+03 0. -1.
         -6    1    1    2    0  502 -0.12853301948E+03 -0.29575599628E+03  0.18477065855E+03  0.40953210215E+03  0.17200000000E+03 0.  1.
</event>
<event>
 4    1 -0.6963162E-004  0.2000052E+03  0.7818608E-02  0.1149735E+00
         -5   -1    0    0    0  501 -0.00000000000E+00  0.00000000000E+00  0.20656549295E+03  0.20661895576E+03  0.47000000000E+01 0.  1.
          5   -1    0    0  501    0  0.00000000000E+00 -0.00000000000E+00 -0.14904468921E+04  0.14904543026E+04  0.47000000000E+01 0. -1.
          6    1    1    2  502    0  0.51998471258E+02  0.87830778495E+02 -0.14334448764E+04  0.14473307502E+04  0.17200000000E+03 0. -1.
         -6    1    1    2    0  502 -0.51998471258E+02 -0.87830778495E+02  0.14956347727E+03  0.24974250819E+03  0.17200000000E+03 0.  1.
</event>
<event>
 4    1 -0.6963162E-004  0.1905732E+03  0.7818608E-02  0.1157945E+00
          5   -1    0    0  501    0  0.00000000000E+00  0.00000000000E+00  0.51913037385E+03  0.51915164938E+03  0.47000000000E+01 0. -1.
         -5   -1    0    0    0  501 -0.00000000000E+00 -0.00000000000E+00 -0.38160229983E+03  0.38163124247E+03  0.47000000000E+01 0.  1.
          6    1    1    2  502    0  0.29322645851E+02 -0.76644274380E+02  0.47578677691E+03  0.51253411538E+03  0.17200000000E+03 0. -1.
         -6    1    1    2    0  502 -0.29322645851E+02  0.76644274380E+02 -0.33825870288E+03  0.38824877647E+03  0.17200000000E+03 0.  1.
</event>
<event>
 4    1 -0.6963162E-004  0.2707652E+03  0.7818608E-02  0.1100842E+00
          5   -1    0    0  501    0  0.00000000000E+00  0.00000000000E+00  0.15020744276E+04  0.15020817808E+04  0.47000000000E+01 0. -1.
         -5   -1    0    0    0  501 -0.00000000000E+00 -0.00000000000E+00 -0.38967404005E+03  0.38970238322E+03  0.47000000000E+01 0.  1.
          6    1    1    2  502    0  0.34365710090E+02 -0.20627353403E+03  0.14408762878E+04  0.14660962620E+04  0.17200000000E+03 0. -1.
         -6    1    1    2    0  502 -0.34365710090E+02  0.20627353403E+03 -0.32847590019E+03  0.42568790196E+03  0.17200000000E+03 0.  1.
</event>
<event>
 4    1 -0.6963162E-004  0.2012129E+03  0.7818608E-02  0.1148720E+00
          5   -1    0    0  501    0  0.00000000000E+00  0.00000000000E+00  0.13327444027E+03  0.13335728862E+03  0.47000000000E+01 0. -1.
         -5   -1    0    0    0  501 -0.00000000000E+00 -0.00000000000E+00 -0.31547591845E+03  0.31551092710E+03  0.47000000000E+01 0.  1.
          6    1    1    2  502    0  0.90388575868E+02  0.52273647506E+02 -0.47542667491E+02  0.20675331703E+03  0.17200000000E+03 0.  1.
         -6    1    1    2    0  502 -0.90388575868E+02 -0.52273647506E+02 -0.13465881069E+03  0.24211489869E+03  0.17200000000E+03 0.  1.
</event>
<event>
 4    1 -0.6963162E-004  0.1881971E+03  0.7818608E-02  0.1160098E+00
         -5   -1    0    0    0  501 -0.00000000000E+00  0.00000000000E+00  0.24061771016E+03  0.24066360847E+03  0.47000000000E+01 0.  1.
          5   -1    0    0  501    0  0.00000000000E+00 -0.00000000000E+00 -0.78526492178E+03  0.78527898697E+03  0.47000000000E+01 0. -1.
          6    1    1    2  502    0 -0.53614426187E+02 -0.54402710032E+02 -0.73473298816E+03  0.75845284985E+03  0.17200000000E+03 0. -1.
         -6    1    1    2    0  502  0.53614426187E+02  0.54402710032E+02  0.19008577654E+03  0.26748974559E+03  0.17200000000E+03 0.  1.
</event>
<event>
 4    1 -0.6963162E-004  0.2903954E+03  0.7818608E-02  0.1090143E+00
          5   -1    0    0  501    0  0.00000000000E+00  0.00000000000E+00  0.94395720966E+03  0.94396891033E+03  0.47000000000E+01 0. -1.
         -5   -1    0    0    0  501 -0.00000000000E+00 -0.00000000000E+00 -0.13156193526E+03  0.13164586135E+03  0.47000000000E+01 0.  1.
          6    1    1    2  502    0 -0.20641334277E+03  0.11017711102E+03  0.71101576828E+03  0.76803182656E+03  0.17200000000E+03 0. -1.
         -6    1    1    2    0  502  0.20641334277E+03 -0.11017711102E+03  0.10137950612E+03  0.30758294512E+03  0.17200000000E+03 0.  1.
</event>
<event>
 4    1 -0.6963162E-004  0.1753284E+03  0.7818608E-02  0.1172402E+00
         -5   -1    0    0    0  501 -0.00000000000E+00  0.00000000000E+00  0.19750396907E+03  0.19755988408E+03  0.47000000000E+01 0.  1.
          5   -1    0    0  501    0  0.00000000000E+00 -0.00000000000E+00 -0.51220294227E+03  0.51222450553E+03  0.47000000000E+01 0. -1.
          6    1    1    2  502    0  0.36995427837E+01  0.33798760623E+02 -0.45346942514E+03  0.48618367144E+03  0.17200000000E+03 0. -1.
         -6    1    1    2    0  502 -0.36995427837E+01 -0.33798760623E+02  0.13877045194E+03  0.22360071818E+03  0.17200000000E+03 0.  1.
</event>
<event>
 4    1 -0.6963162E-004  0.1723058E+03  0.7818608E-02  0.1175464E+00
          5   -1    0    0  501    0  0.00000000000E+00  0.00000000000E+00  0.33244256776E+03  0.33247578989E+03  0.47000000000E+01 0. -1.
         -5   -1    0    0    0  501 -0.00000000000E+00 -0.00000000000E+00 -0.39322406157E+03  0.39325214887E+03  0.47000000000E+01 0.  1.
          6    1    1    2  502    0  0.91801099315E+01  0.45831118817E+01  0.28862532664E+03  0.33614559124E+03  0.17200000000E+03 0. -1.
         -6    1    1    2    0  502 -0.91801099315E+01 -0.45831118817E+01 -0.34940682044E+03  0.38958234752E+03  0.17200000000E+03 0.  1.
</event>
<event>
 4    1 -0.6963162E-004  0.2321990E+03  0.7818608E-02  0.1125101E+00
          5   -1    0    0  501    0  0.00000000000E+00  0.00000000000E+00  0.51404732365E+03  0.51406880955E+03  0.47000000000E+01 0. -1.
         -5   -1    0    0    0  501 -0.00000000000E+00 -0.00000000000E+00 -0.18367012850E+03  0.18373025364E+03  0.47000000000E+01 0.  1.
          6    1    1    2  502    0 -0.15586142930E+03  0.62937658028E+01  0.39374188344E+03  0.45710946983E+03  0.17200000000E+03 0. -1.
         -6    1    1    2    0  502  0.15586142930E+03 -0.62937658028E+01 -0.63364688294E+02  0.24068959336E+03  0.17200000000E+03 0.  1.
</event>
<event>
 4    1 -0.6963162E-004  0.1981331E+03  0.7818608E-02  0.1151324E+00
         -5   -1    0    0    0  501 -0.00000000000E+00  0.00000000000E+00  0.32858325174E+03  0.32861686403E+03  0.47000000000E+01 0.  1.
          5   -1    0    0  501    0  0.00000000000E+00 -0.00000000000E+00 -0.27906935321E+03  0.27910892838E+03  0.47000000000E+01 0. -1.
          6    1    1    2  502    0  0.25507506875E+02 -0.94984765075E+02 -0.20505513183E+03  0.28513916882E+03  0.17200000000E+03 0. -1.
         -6    1    1    2    0  502 -0.25507506875E+02  0.94984765075E+02  0.25456903036E+03  0.32258662359E+03  0.17200000000E+03 0.  1.
</event>
<event>
 4    1 -0.6963162E-004  0.1904542E+03  0.7818608E-02  0.1158052E+00
         -5   -1    0    0    0  501 -0.00000000000E+00  0.00000000000E+00  0.18643145526E+04  0.18643204770E+04  0.47000000000E+01 0.  1.
          5   -1    0    0  501    0  0.00000000000E+00 -0.00000000000E+00 -0.19174297622E+02  0.19741927193E+02  0.47000000000E+01 0. -1.
          6    1    1    2  502    0 -0.17656031744E+02  0.79856472197E+02  0.94130605986E+03  0.96038007577E+03  0.17200000000E+03 0.  1.
         -6    1    1    2    0  502  0.17656031744E+02 -0.79856472197E+02  0.90383419508E+03  0.92368232840E+03  0.17200000000E+03 0.  1.
</event>
<event>
 4    1 -0.6963162E-004  0.2120526E+03  0.7818608E-02  0.1139951E+00
          5   -1    0    0  501    0  0.00000000000E+00  0.00000000000E+00  0.14117055652E+03  0.14124877355E+03  0.47000000000E+01 0. -1.
         -5   -1    0    0    0  501 -0.00000000000E+00 -0.00000000000E+00 -0.32071338222E+03  0.32074781922E+03  0.47000000000E+01 0.  1.
          6    1    1    2  502    0  0.11955995375E+03  0.32980558642E+02 -0.69906801087E+02  0.22327843744E+03  0.17200000000E+03 0.  1.
         -6    1    1    2    0  502 -0.11955995375E+03 -0.32980558642E+02 -0.10963602461E+03  0.23871815532E+03  0.17200000000E+03 0.  1.
</event>
<event>
 4    1 -0.6963162E-004  0.1972528E+03  0.7818608E-02  0.1152078E+00
          5   -1    0    0  501    0  0.00000000000E+00  0.00000000000E+00  0.33604944611E+03  0.33608231169E+03  0.47000000000E+01 0. -1.
         -5   -1    0    0    0  501 -0.00000000000E+00 -0.00000000000E+00 -0.11667757369E+03  0.11677219790E+03  0.47000000000E+01 0.  1.
          6    1    1    2  502    0 -0.47693676371E+02  0.83964228985E+02  0.13043886891E+03  0.23648039461E+03  0.17200000000E+03 0. -1.
         -6    1    1    2    0  502  0.47693676371E+02 -0.83964228985E+02  0.88933003513E+02  0.21637411497E+03  0.17200000000E+03 0.  1.
</event>
<event>
 4    1 -0.6963162E-004  0.2011462E+03  0.7818608E-02  0.1148776E+00
         -5   -1    0    0    0  501 -0.00000000000E+00  0.00000000000E+00  0.24054723273E+03  0.24059314449E+03  0.47000000000E+01 0.  1.
          5   -1    0    0  501    0  0.00000000000E+00 -0.00000000000E+00 -0.37299416759E+03  0.37302377814E+03  0.47000000000E+01 0. -1.
          6    1    1    2  502    0  0.30103697025E+02  0.99847718096E+02 -0.29358774036E+03  0.35588419559E+03  0.17200000000E+03 0. -1.
         -6    1    1    2    0  502 -0.30103697025E+02 -0.99847718096E+02  0.16114080550E+03  0.25773272703E+03  0.17200000000E+03 0.  1.
</event>
<event>
 4    1 -0.6963162E-004  0.2634550E+03  0.7818608E-02  0.1105085E+00
         -5   -1    0    0    0  501 -0.00000000000E+00  0.00000000000E+00  0.32878212923E+03  0.32881572119E+03  0.47000000000E+01 0.  1.
          5   -1    0    0  501    0  0.00000000000E+00 -0.00000000000E+00 -0.31671342924E+03  0.31674830112E+03  0.47000000000E+01 0. -1.
          6    1    1    2  502    0 -0.19873766709E+03 -0.18107420253E+02 -0.18039370916E+03  0.31929677307E+03  0.17200000000E+03 0. -1.
         -6    1    1    2    0  502  0.19873766709E+03  0.18107420253E+02  0.19246240915E+03  0.32626724924E+03  0.17200000000E+03 0.  1.
</event>
<event>
 4    1 -0.6963162E-004  0.1874754E+03  0.7818608E-02  0.1160758E+00
         -5   -1    0    0    0  501 -0.00000000000E+00  0.00000000000E+00  0.12577190296E+03  0.12585969003E+03  0.47000000000E+01 0.  1.
          5   -1    0    0  501    0  0.00000000000E+00 -0.00000000000E+00 -0.75410540212E+03  0.75412004847E+03  0.47000000000E+01 0. -1.
          6    1    1    2  502    0 -0.72984840353E+02 -0.15370476161E+02 -0.66328799895E+03  0.68927353642E+03  0.17200000000E+03 0. -1.
         -6    1    1    2    0  502  0.72984840353E+02  0.15370476161E+02  0.34954499782E+02  0.19070620209E+03  0.17200000000E+03 0.  1.
</event>
<event>
 4    1 -0.6963162E-004  0.1721081E+03  0.7818608E-02  0.1175667E+00
         -5   -1    0    0    0  501 -0.00000000000E+00  0.00000000000E+00  0.63004609277E+02  0.63179670703E+02  0.47000000000E+01 0.  1.
          5   -1    0    0  501    0  0.00000000000E+00 -0.00000000000E+00 -0.70351131173E+03  0.70352701138E+03  0.47000000000E+01 0. -1.
          6    1    1    2  502    0 -0.57563181628E+01 -0.20129998442E+01 -0.99094784503E+02  0.19859749163E+03  0.17200000000E+03 0.  1.
         -6    1    1    2    0  502  0.57563181628E+01  0.20129998442E+01 -0.54141191795E+03  0.56810919045E+03  0.17200000000E+03 0. -1.
</event>
<event>
 4    1 -0.6963162E-004  0.1848070E+03  0.7818608E-02  0.1163230E+00
         -5   -1    0    0    0  501 -0.00000000000E+00  0.00000000000E+00  0.79776492874E+03  0.79777877355E+03  0.47000000000E+01 0.  1.
          5   -1    0    0  501    0  0.00000000000E+00 -0.00000000000E+00 -0.42320382398E+03  0.42322992171E+03  0.47000000000E+01 0. -1.
          6    1    1    2  502    0 -0.18855324148E+02  0.64916266702E+02 -0.39152343263E+03  0.43294831473E+03  0.17200000000E+03 0. -1.
         -6    1    1    2    0  502  0.18855324148E+02 -0.64916266702E+02  0.76608453739E+03  0.78806038053E+03  0.17200000000E+03 0.  1.
</event>
<event>
 4    1 -0.6963162E-004  0.2186226E+03  0.7818608E-02  0.1134914E+00
         -5   -1    0    0    0  501 -0.00000000000E+00  0.00000000000E+00  0.23216294565E+03  0.23221051512E+03  0.47000000000E+01 0.  1.
          5   -1    0    0  501    0  0.00000000000E+00 -0.00000000000E+00 -0.44689228145E+03  0.44691699590E+03  0.47000000000E+01 0. -1.
          6    1    1    2  502    0  0.12309292422E+03 -0.55317200566E+02 -0.35676126131E+03  0.41841899843E+03  0.17200000000E+03 0. -1.
         -6    1    1    2    0  502 -0.12309292422E+03  0.55317200566E+02  0.14203192551E+03  0.26070851259E+03  0.17200000000E+03 0.  1.
</event>
<event>
 4    1 -0.6963162E-004  0.2009798E+03  0.7818608E-02  0.1148915E+00
         -5   -1    0    0    0  501 -0.00000000000E+00  0.00000000000E+00  0.26952896754E+02  0.27359617019E+02  0.47000000000E+01 0.  1.
          5   -1    0    0  501    0  0.00000000000E+00 -0.00000000000E+00 -0.15810542987E+04  0.15810612846E+04  0.47000000000E+01 0. -1.
          6    1    1    2  502    0 -0.65662500598E+02 -0.80605880782E+02 -0.97315956167E+03  0.99369633414E+03  0.17200000000E+03 0.  1.
         -6    1    1    2    0  502  0.65662500598E+02  0.80605880782E+02 -0.58094184031E+03  0.61472456744E+03  0.17200000000E+03 0.  1.
</event>
<event>
 4    1 -0.6963162E-004  0.1818652E+03  0.7818608E-02  0.1166010E+00
         -5   -1    0    0    0  501 -0.00000000000E+00  0.00000000000E+00  0.29050035962E+03  0.29053837774E+03  0.47000000000E+01 0.  1.
          5   -1    0    0  501    0  0.00000000000E+00 -0.00000000000E+00 -0.98157756591E+03  0.98158881814E+03  0.47000000000E+01 0. -1.
          6    1    1    2  502    0 -0.79417110811E+01 -0.58548158294E+02 -0.94358072361E+03  0.96094720957E+03  0.17200000000E+03 0. -1.
         -6    1    1    2    0  502  0.79417110811E+01  0.58548158294E+02  0.25250351733E+03  0.31117998631E+03  0.17200000000E+03 0.  1.
</event>
<event>
 4    1 -0.6963162E-004  0.1767879E+03  0.7818608E-02  0.1170948E+00
          5   -1    0    0  501    0  0.00000000000E+00  0.00000000000E+00  0.29063164545E+03  0.29066964640E+03  0.47000000000E+01 0. -1.
         -5   -1    0    0    0  501 -0.00000000000E+00 -0.00000000000E+00 -0.62785063400E+03  0.62786822552E+03  0.47000000000E+01 0.  1.
          6    1    1    2  502    0  0.34229912380E+02 -0.22322318048E+02  0.24948777263E+03  0.30577462530E+03  0.17200000000E+03 0. -1.
         -6    1    1    2    0  502 -0.34229912380E+02  0.22322318048E+02 -0.58670676119E+03  0.61276324662E+03  0.17200000000E+03 0.  1.
</event>
<event>
 4    1 -0.6963162E-004  0.1847710E+03  0.7818608E-02  0.1163264E+00
          5   -1    0    0  501    0  0.00000000000E+00  0.00000000000E+00  0.54047494782E+03  0.54049538316E+03  0.47000000000E+01 0. -1.
         -5   -1    0    0    0  501 -0.00000000000E+00 -0.00000000000E+00 -0.19262869496E+03  0.19268602472E+03  0.47000000000E+01 0.  1.
          6    1    1    2  502    0  0.31545139076E+02  0.59675873773E+02  0.47447553627E+03  0.50918301251E+03  0.17200000000E+03 0. -1.
         -6    1    1    2    0  502 -0.31545139076E+02 -0.59675873773E+02 -0.12662928341E+03  0.22399839537E+03  0.17200000000E+03 0.  1.
</event>
<event>
 4    1 -0.6963162E-004  0.1942400E+03  0.7818608E-02  0.1154692E+00
          5   -1    0    0  501    0  0.00000000000E+00  0.00000000000E+00  0.23483801077E+03  0.23488503848E+03  0.47000000000E+01 0. -1.
         -5   -1    0    0    0  501 -0.00000000000E+00 -0.00000000000E+00 -0.15210089374E+04  0.15210161990E+04  0.47000000000E+01 0.  1.
          6    1    1    2  502    0 -0.80409744358E+02  0.40981224235E+02  0.18721008986E+03  0.26977176552E+03  0.17200000000E+03 0. -1.
         -6    1    1    2    0  502  0.80409744358E+02 -0.40981224235E+02 -0.14733810165E+04  0.14861294720E+04  0.17200000000E+03 0.  1.
</event>
<event>
 4    1 -0.6963162E-004  0.1777827E+03  0.7818608E-02  0.1169966E+00
         -5   -1    0    0    0  501 -0.00000000000E+00  0.00000000000E+00  0.95902785917E+03  0.95903937597E+03  0.47000000000E+01 0.  1.
          5   -1    0    0  501    0  0.00000000000E+00 -0.00000000000E+00 -0.17877035955E+03  0.17883213205E+03  0.47000000000E+01 0. -1.
          6    1    1    2  502    0 -0.33736716761E+02 -0.29741022741E+02 -0.12370903994E+03  0.21658859862E+03  0.17200000000E+03 0. -1.
         -6    1    1    2    0  502  0.33736716761E+02  0.29741022741E+02  0.90396653956E+03  0.92128290939E+03  0.17200000000E+03 0.  1.
</event>
<event>
 4    1 -0.6963162E-004  0.2343364E+03  0.7818608E-02  0.1123624E+00
          5   -1    0    0  501    0  0.00000000000E+00  0.00000000000E+00  0.63777584502E+02  0.63950529981E+02  0.47000000000E+01 0. -1.
         -5   -1    0    0    0  501 -0.00000000000E+00 -0.00000000000E+00 -0.11843168943E+04  0.11843262204E+04  0.47000000000E+01 0.  1.
          6    1    1    2  502    0 -0.15014012243E+03  0.52796536570E+02 -0.23351771783E+03  0.33082329903E+03  0.17200000000E+03 0. -1.
         -6    1    1    2    0  502  0.15014012243E+03 -0.52796536570E+02 -0.88702159201E+03  0.91745345131E+03  0.17200000000E+03 0.  1.
</event>
<event>
 4    1 -0.6963162E-004  0.7396649E+03  0.7818608E-02  0.9651705E-01
          5   -1    0    0  501    0  0.00000000000E+00  0.00000000000E+00  0.21661028541E+03  0.21666126960E+03  0.47000000000E+01 0. -1.
         -5   -1    0    0    0  501 -0.00000000000E+00 -0.00000000000E+00 -0.25768587347E+04  0.25768630210E+04  0.47000000000E+01 0.  1.
          6    1    1    2  502    0  0.58881816342E+02 -0.71697492728E+03 -0.13774983821E+04  0.15635235551E+04  0.17200000000E+03 0. -1.
         -6    1    1    2    0  502 -0.58881816342E+02  0.71697492728E+03 -0.98275006727E+03  0.12300007355E+04  0.17200000000E+03 0.  1.
</event>
<event>
 4    1 -0.6963162E-004  0.1911727E+03  0.7818608E-02  0.1157408E+00
          5   -1    0    0  501    0  0.00000000000E+00  0.00000000000E+00  0.12758874585E+03  0.12767528370E+03  0.47000000000E+01 0. -1.
         -5   -1    0    0    0  501 -0.00000000000E+00 -0.00000000000E+00 -0.39717763942E+03  0.39720544716E+03  0.47000000000E+01 0.  1.
          6    1    1    2  502    0 -0.83290691224E+02  0.50646077328E+01  0.38845863642E+01  0.19121213222E+03  0.17200000000E+03 0. -1.
         -6    1    1    2    0  502  0.83290691224E+02 -0.50646077328E+01 -0.27347347993E+03  0.33366859864E+03  0.17200000000E+03 0.  1.
</event>
<event>
 4    1 -0.6963162E-004  0.1828733E+03  0.7818608E-02  0.1165051E+00
          5   -1    0    0  501    0  0.00000000000E+00  0.00000000000E+00  0.31534249534E+02  0.31882579784E+02  0.47000000000E+01 0. -1.
         -5   -1    0    0    0  501 -0.00000000000E+00 -0.00000000000E+00 -0.14440737309E+04  0.14440813794E+04  0.47000000000E+01 0.  1.
          6    1    1    2  502    0  0.30938828697E+02 -0.53864872088E+02 -0.32293181276E+03  0.37111668146E+03  0.17200000000E+03 0. -1.
         -6    1    1    2    0  502 -0.30938828697E+02  0.53864872088E+02 -0.10896076686E+04  0.11048472777E+04  0.17200000000E+03 0.  1.
</event>
<event>
 4    1 -0.6963162E-004  0.2421790E+03  0.7818608E-02  0.1118350E+00
         -5   -1    0    0    0  501 -0.00000000000E+00  0.00000000000E+00  0.65205286538E+03  0.65206980397E+03  0.47000000000E+01 0.  1.
          5   -1    0    0  501    0  0.00000000000E+00 -0.00000000000E+00 -0.26914020968E+03  0.26918124464E+03  0.47000000000E+01 0. -1.
          6    1    1    2  502    0 -0.13258550823E+03 -0.10718102862E+03 -0.18441149707E+03  0.30439824267E+03  0.17200000000E+03 0. -1.
         -6    1    1    2    0  502  0.13258550823E+03  0.10718102862E+03  0.56732415277E+03  0.61685280595E+03  0.17200000000E+03 0.  1.
</event>
<event>
 4    1 -0.6963162E-004  0.9698344E+03  0.7818608E-02  0.9342263E-01
         -5   -1    0    0    0  501 -0.00000000000E+00  0.00000000000E+00  0.12161535998E+04  0.12161626817E+04  0.47000000000E+01 0.  1.
          5   -1    0    0  501    0  0.00000000000E+00 -0.00000000000E+00 -0.16344652363E+04  0.16344719938E+04  0.47000000000E+01 0. -1.
          6    1    1    2  502    0 -0.39410483822E+03  0.86929631512E+03 -0.12436851865E+04  0.15771276264E+04  0.17200000000E+03 0. -1.
         -6    1    1    2    0  502  0.39410483822E+03 -0.86929631512E+03  0.82537355000E+03  0.12735070491E+04  0.17200000000E+03 0.  1.
</event>
<event>
 4    1 -0.6963162E-004  0.2103692E+03  0.7818608E-02  0.1141274E+00
         -5   -1    0    0    0  501 -0.00000000000E+00  0.00000000000E+00  0.46134073332E+03  0.46136467378E+03  0.47000000000E+01 0.  1.
          5   -1    0    0  501    0  0.00000000000E+00 -0.00000000000E+00 -0.73155574285E+03  0.73157084066E+03  0.47000000000E+01 0. -1.
          6    1    1    2  502    0 -0.67518933654E+02  0.10056037700E+03 -0.69109773977E+03  0.72240659032E+03  0.17200000000E+03 0. -1.
         -6    1    1    2    0  502  0.67518933654E+02 -0.10056037700E+03  0.42088273023E+03  0.47052892412E+03  0.17200000000E+03 0.  1.
</event>
<event>
 4    1 -0.6963162E-004  0.2220085E+03  0.7818608E-02  0.1132394E+00
         -5   -1    0    0    0  501 -0.00000000000E+00  0.00000000000E+00  0.33958368122E+02  0.34282076447E+02  0.47000000000E+01 0.  1.
          5   -1    0    0  501    0  0.00000000000E+00 -0.00000000000E+00 -0.15181086607E+04  0.15181159362E+04  0.47000000000E+01 0. -1.
          6    1    1    2  502    0  0.13068111049E+03 -0.51246829753E+02 -0.91331532294E+03  0.93991099010E+03  0.17200000000E+03 0. -1.
         -6    1    1    2    0  502 -0.13068111049E+03  0.51246829753E+02 -0.57083496961E+03  0.61248702250E+03  0.17200000000E+03 0.  1.
</event>
<event>
 4    1 -0.6963162E-004  0.1819982E+03  0.7818608E-02  0.1165883E+00
         -5   -1    0    0    0  501 -0.00000000000E+00  0.00000000000E+00  0.20953993840E+03  0.20959264249E+03  0.47000000000E+01 0.  1.
          5   -1    0    0  501    0  0.00000000000E+00 -0.00000000000E+00 -0.74146964994E+03  0.74148454588E+03  0.47000000000E+01 0. -1.
          6    1    1    2  502    0 -0.25987079731E+02  0.53516378804E+02 -0.68778948102E+03  0.71146166538E+03  0.17200000000E+03 0. -1.
         -6    1    1    2    0  502  0.25987079731E+02 -0.53516378804E+02  0.15585976948E+03  0.23961552298E+03  0.17200000000E+03 0.  1.
</event>
<event>
 4    1 -0.6963162E-004  0.1815648E+03  0.7818608E-02  0.1166297E+00
         -5   -1    0    0    0  501 -0.00000000000E+00  0.00000000000E+00  0.34281504508E+03  0.34284726211E+03  0.47000000000E+01 0.  1.
          5   -1    0    0  501    0  0.00000000000E+00 -0.00000000000E+00 -0.26126417129E+03  0.26130644309E+03  0.47000000000E+01 0. -1.
          6    1    1    2  502    0  0.47339850114E+02 -0.33774513184E+02 -0.19937627033E+03  0.26966029801E+03  0.17200000000E+03 0. -1.
         -6    1    1    2    0  502 -0.47339850114E+02  0.33774513184E+02  0.28092714412E+03  0.33449340719E+03  0.17200000000E+03 0.  1.
</event>
<event>
 4    1 -0.6963162E-004  0.2042823E+03  0.7818608E-02  0.1146176E+00
          5   -1    0    0  501    0  0.00000000000E+00  0.00000000000E+00  0.10066208001E+03  0.10077174382E+03  0.47000000000E+01 0. -1.
         -5   -1    0    0    0  501 -0.00000000000E+00 -0.00000000000E+00 -0.66532230640E+03  0.66533890717E+03  0.47000000000E+01 0.  1.
          6    1    1    2  502    0  0.29065220784E+02 -0.10631299833E+03 -0.47026346200E+02  0.20962518434E+03  0.17200000000E+03 0. -1.
         -6    1    1    2    0  502 -0.29065220784E+02  0.10631299833E+03 -0.51763388018E+03  0.55648546665E+03  0.17200000000E+03 0.  1.
</event>
<event>
 4    1 -0.6963162E-004  0.1777121E+03  0.7818608E-02  0.1170036E+00
          5   -1    0    0  501    0  0.00000000000E+00  0.00000000000E+00  0.14249920388E+03  0.14257669202E+03  0.47000000000E+01 0. -1.
         -5   -1    0    0    0  501 -0.00000000000E+00 -0.00000000000E+00 -0.22175215669E+03  0.22180195896E+03  0.47000000000E+01 0.  1.
          6    1    1    2  502    0  0.19232220537E+02 -0.40345106925E+02 -0.33059366313E+02  0.18076096830E+03  0.17200000000E+03 0.  1.
         -6    1    1    2    0  502 -0.19232220537E+02  0.40345106925E+02 -0.46193586497E+02  0.18361768268E+03  0.17200000000E+03 0. -1.
</event>
<event>
 4    1 -0.6963162E-004  0.1787948E+03  0.7818608E-02  0.1168975E+00
         -5   -1    0    0    0  501 -0.00000000000E+00  0.00000000000E+00  0.10165231880E+03  0.10176091547E+03  0.47000000000E+01 0.  1.
          5   -1    0    0  501    0  0.00000000000E+00 -0.00000000000E+00 -0.14338142793E+04  0.14338219825E+04  0.47000000000E+01 0. -1.
          6    1    1    2  502    0  0.46570478597E+02 -0.14654612565E+02 -0.13445252437E+04  0.13563611975E+04  0.17200000000E+03 0. -1.
         -6    1    1    2    0  502 -0.46570478597E+02  0.14654612565E+02  0.12363283213E+02  0.17922170047E+03  0.17200000000E+03 0.  1.
</event>
<event>
 4    1 -0.6963162E-004  0.1759191E+03  0.7818608E-02  0.1171812E+00
         -5   -1    0    0    0  501 -0.00000000000E+00  0.00000000000E+00  0.10786938903E+04  0.10787041295E+04  0.47000000000E+01 0.  1.
          5   -1    0    0  501    0  0.00000000000E+00 -0.00000000000E+00 -0.69835489312E+02  0.69993468034E+02  0.47000000000E+01 0. -1.
          6    1    1    2  502    0  0.15471014577E+02 -0.33528781762E+02  0.63373392745E+02  0.18698587756E+03  0.17200000000E+03 0. -1.
         -6    1    1    2    0  502 -0.15471014577E+02  0.33528781762E+02  0.94548500827E+03  0.96171171998E+03  0.17200000000E+03 0.  1.
</event>
<event>
 4    1 -0.6963162E-004  0.1742825E+03  0.7818608E-02  0.1173454E+00
         -5   -1    0    0    0  501 -0.00000000000E+00  0.00000000000E+00  0.14366317759E+03  0.14374003824E+03  0.47000000000E+01 0.  1.
          5   -1    0    0  501    0  0.00000000000E+00 -0.00000000000E+00 -0.54535234294E+03  0.54537259553E+03  0.47000000000E+01 0. -1.
          6    1    1    2  502    0 -0.27728674688E+02 -0.46367747357E+01 -0.47049712856E+03  0.50173890328E+03  0.17200000000E+03 0. -1.
         -6    1    1    2    0  502  0.27728674688E+02  0.46367747357E+01  0.68807963200E+02  0.18737373049E+03  0.17200000000E+03 0.  1.
</event>
<event>
 4    1 -0.6963162E-004  0.1787630E+03  0.7818608E-02  0.1169006E+00
          5   -1    0    0  501    0  0.00000000000E+00  0.00000000000E+00  0.75272351383E+03  0.75273818706E+03  0.47000000000E+01 0. -1.
         -5   -1    0    0    0  501 -0.00000000000E+00 -0.00000000000E+00 -0.53570330576E+03  0.53572392312E+03  0.47000000000E+01 0.  1.
          6    1    1    2  502    0 -0.98142011507E+01 -0.47706477102E+02  0.72668836439E+03  0.74835299521E+03  0.17200000000E+03 0. -1.
         -6    1    1    2    0  502  0.98142011507E+01  0.47706477102E+02 -0.50966815633E+03  0.54010911498E+03  0.17200000000E+03 0.  1.
</event>
<event>
 4    1 -0.6963162E-004  0.1917209E+03  0.7818608E-02  0.1156918E+00
         -5   -1    0    0    0  501 -0.00000000000E+00  0.00000000000E+00  0.58714959939E+02  0.58902771757E+02  0.47000000000E+01 0.  1.
          5   -1    0    0  501    0  0.00000000000E+00 -0.00000000000E+00 -0.22707989125E+04  0.22708037764E+04  0.47000000000E+01 0. -1.
          6    1    1    2  502    0  0.84613696745E+02  0.36626264759E+01 -0.20977278982E+04  0.21064707991E+04  0.17200000000E+03 0. -1.
         -6    1    1    2    0  502 -0.84613696745E+02 -0.36626264759E+01 -0.11435605438E+03  0.22323574912E+03  0.17200000000E+03 0.  1.
</event>
<event>
 4    1 -0.6963162E-004  0.1907837E+03  0.7818608E-02  0.1157756E+00
         -5   -1    0    0    0  501 -0.00000000000E+00  0.00000000000E+00  0.13384811649E+03  0.13393060998E+03  0.47000000000E+01 0.  1.
          5   -1    0    0  501    0  0.00000000000E+00 -0.00000000000E+00 -0.54158259744E+03  0.54160299099E+03  0.47000000000E+01 0. -1.
          6    1    1    2  502    0 -0.66456611156E+02  0.48968927189E+02 -0.44225562255E+03  0.48165181684E+03  0.17200000000E+03 0. -1.
         -6    1    1    2    0  502  0.66456611156E+02 -0.48968927189E+02  0.34521141602E+02  0.19388178412E+03  0.17200000000E+03 0.  1.
</event>
<event>
 4    1 -0.6963162E-004  0.1747165E+03  0.7818608E-02  0.1173017E+00
         -5   -1    0    0    0  501 -0.00000000000E+00  0.00000000000E+00  0.56023351532E+02  0.56220155789E+02  0.47000000000E+01 0.  1.
          5   -1    0    0  501    0  0.00000000000E+00 -0.00000000000E+00 -0.59364858701E+03  0.59366719200E+03  0.47000000000E+01 0. -1.
          6    1    1    2  502    0  0.30606246230E+02 -0.22634085447E+01 -0.36303625570E+03  0.40289103772E+03  0.17200000000E+03 0. -1.
         -6    1    1    2    0  502 -0.30606246230E+02  0.22634085447E+01 -0.17458897978E+03  0.24699631007E+03  0.17200000000E+03 0.  1.
</event>
<event>
 4    1 -0.6963162E-004  0.2448405E+03  0.7818608E-02  0.1116610E+00
          5   -1    0    0  501    0  0.00000000000E+00  0.00000000000E+00  0.45940235131E+03  0.45942639278E+03  0.47000000000E+01 0. -1.
         -5   -1    0    0    0  501 -0.00000000000E+00 -0.00000000000E+00 -0.31883594944E+03  0.31887058920E+03  0.47000000000E+01 0.  1.
          6    1    1    2  502    0 -0.17423465803E+03  0.22691760479E+01  0.36939577778E+03  0.44317051556E+03  0.17200000000E+03 0. -1.
         -6    1    1    2    0  502  0.17423465803E+03 -0.22691760479E+01 -0.22882937591E+03  0.33512646643E+03  0.17200000000E+03 0.  1.
</event>
<event>
 4    1 -0.6963162E-004  0.2821531E+03  0.7818608E-02  0.1094519E+00
         -5   -1    0    0    0  501 -0.00000000000E+00  0.00000000000E+00  0.49877583335E+03  0.49879797708E+03  0.47000000000E+01 0.  1.
          5   -1    0    0  501    0  0.00000000000E+00 -0.00000000000E+00 -0.49073786957E+03  0.49076037598E+03  0.47000000000E+01 0. -1.
          6    1    1    2  502    0 -0.51437234958E+02  0.21767076169E+03 -0.40241776705E+03  0.49147778065E+03  0.17200000000E+03 0. -1.
         -6    1    1    2    0  502  0.51437234958E+02 -0.21767076169E+03  0.41045573083E+03  0.49808057240E+03  0.17200000000E+03 0.  1.
</event>
<event>
 4    1 -0.6963162E-004  0.4556191E+03  0.7818608E-02  0.1026060E+00
         -5   -1    0    0    0  501 -0.00000000000E+00  0.00000000000E+00  0.70775930602E+03  0.70777491143E+03  0.47000000000E+01 0.  1.
          5   -1    0    0  501    0  0.00000000000E+00 -0.00000000000E+00 -0.41911379638E+03  0.41914014878E+03  0.47000000000E+01 0. -1.
          6    1    1    2  502    0 -0.14905609248E+03  0.39469868978E+03 -0.16441691776E+03  0.48437763910E+03  0.17200000000E+03 0. -1.
         -6    1    1    2    0  502  0.14905609248E+03 -0.39469868978E+03  0.45306242739E+03  0.64253742111E+03  0.17200000000E+03 0.  1.
</event>
<event>
 4    1 -0.6963162E-004  0.2076480E+03  0.7818608E-02  0.1143442E+00
         -5   -1    0    0    0  501 -0.00000000000E+00  0.00000000000E+00  0.27927114881E+03  0.27931069539E+03  0.47000000000E+01 0.  1.
          5   -1    0    0  501    0  0.00000000000E+00 -0.00000000000E+00 -0.15431883673E+03  0.15439039274E+03  0.47000000000E+01 0. -1.
          6    1    1    2  502    0  0.54705242602E+02 -0.10266951604E+03  0.64342846226E+02  0.21738835054E+03  0.17200000000E+03 0. -1.
         -6    1    1    2    0  502 -0.54705242602E+02  0.10266951604E+03  0.60609465854E+02  0.21631273759E+03  0.17200000000E+03 0.  1.
</event>
<event>
 4    1 -0.6963162E-004  0.2338336E+03  0.7818608E-02  0.1123970E+00
          5   -1    0    0  501    0  0.00000000000E+00  0.00000000000E+00  0.91855121713E+02  0.91975286816E+02  0.47000000000E+01 0. -1.
         -5   -1    0    0    0  501 -0.00000000000E+00 -0.00000000000E+00 -0.62331397012E+03  0.62333168967E+03  0.47000000000E+01 0.  1.
          6    1    1    2  502    0 -0.92983468281E+02 -0.12825057601E+03 -0.18917020025E+03  0.30077150843E+03  0.17200000000E+03 0. -1.
         -6    1    1    2    0  502  0.92983468281E+02  0.12825057601E+03 -0.34228864816E+03  0.41453546806E+03  0.17200000000E+03 0.  1.
</event>
<event>
 4    1 -0.6963162E-004  0.3791405E+03  0.7818608E-02  0.1051252E+00
          5   -1    0    0  501    0  0.00000000000E+00  0.00000000000E+00  0.64848244354E+03  0.64849947539E+03  0.47000000000E+01 0. -1.
         -5   -1    0    0    0  501 -0.00000000000E+00 -0.00000000000E+00 -0.67094806063E+03  0.67096452221E+03  0.47000000000E+01 0.  1.
          6    1    1    2  502    0  0.33713332659E+03  0.22464375795E+02  0.52863485885E+03  0.65054003879E+03  0.17200000000E+03 0. -1.
         -6    1    1    2    0  502 -0.33713332659E+03 -0.22464375795E+02 -0.55110047594E+03  0.66892395881E+03  0.17200000000E+03 0.  1.
</event>
<event>
 4    1 -0.6963162E-004  0.1762850E+03  0.7818608E-02  0.1171448E+00
          5   -1    0    0  501    0  0.00000000000E+00  0.00000000000E+00  0.41551876683E+03  0.41554534721E+03  0.47000000000E+01 0. -1.
         -5   -1    0    0    0  501 -0.00000000000E+00 -0.00000000000E+00 -0.23448814430E+03  0.23453524216E+03  0.47000000000E+01 0.  1.
          6    1    1    2  502    0 -0.26874261539E+02  0.27751854489E+02  0.35877321157E+03  0.39974317843E+03  0.17200000000E+03 0. -1.
         -6    1    1    2    0  502  0.26874261539E+02 -0.27751854489E+02 -0.17774258903E+03  0.25033741094E+03  0.17200000000E+03 0.  1.
</event>
<event>
 4    1 -0.6963162E-004  0.1805326E+03  0.7818608E-02  0.1167289E+00
          5   -1    0    0  501    0  0.00000000000E+00  0.00000000000E+00  0.10758085768E+03  0.10768347570E+03  0.47000000000E+01 0. -1.
         -5   -1    0    0    0  501 -0.00000000000E+00 -0.00000000000E+00 -0.35546502074E+03  0.35549609136E+03  0.47000000000E+01 0.  1.
          6    1    1    2  502    0  0.37422020127E+02 -0.40094918037E+02 -0.34722798136E+02  0.18384146092E+03  0.17200000000E+03 0. -1.
         -6    1    1    2    0  502 -0.37422020127E+02  0.40094918037E+02 -0.21316136493E+03  0.27933810614E+03  0.17200000000E+03 0.  1.
</event>
<event>
 4    1 -0.6963162E-004  0.1787958E+03  0.7818608E-02  0.1168974E+00
          5   -1    0    0  501    0  0.00000000000E+00  0.00000000000E+00  0.36184981436E+03  0.36188033679E+03  0.47000000000E+01 0. -1.
         -5   -1    0    0    0  501 -0.00000000000E+00 -0.00000000000E+00 -0.28290707242E+03  0.28294611081E+03  0.47000000000E+01 0.  1.
          6    1    1    2  502    0 -0.47023610443E+02  0.13142312565E+02  0.30685859234E+03  0.35514804802E+03  0.17200000000E+03 0. -1.
         -6    1    1    2    0  502  0.47023610443E+02 -0.13142312565E+02 -0.22791585040E+03  0.28967839958E+03  0.17200000000E+03 0.  1.
</event>
<event>
 4    1 -0.6963162E-004  0.1767699E+03  0.7818608E-02  0.1170966E+00
         -5   -1    0    0    0  501 -0.00000000000E+00  0.00000000000E+00  0.15550846206E+03  0.15557947092E+03  0.47000000000E+01 0.  1.
          5   -1    0    0  501    0  0.00000000000E+00 -0.00000000000E+00 -0.43416234789E+03  0.43418778694E+03  0.47000000000E+01 0. -1.
          6    1    1    2  502    0 -0.36894687542E+02  0.17388744967E+02 -0.35549430432E+03  0.39701862276E+03  0.17200000000E+03 0. -1.
         -6    1    1    2    0  502  0.36894687542E+02 -0.17388744967E+02  0.76840418482E+02  0.19274863510E+03  0.17200000000E+03 0.  1.
</event>
<event>
 4    1 -0.6963162E-004  0.2511308E+03  0.7818608E-02  0.1112592E+00
          5   -1    0    0  501    0  0.00000000000E+00  0.00000000000E+00  0.36744339723E+03  0.36747345506E+03  0.47000000000E+01 0. -1.
         -5   -1    0    0    0  501 -0.00000000000E+00 -0.00000000000E+00 -0.61230380880E+03  0.61232184697E+03  0.47000000000E+01 0.  1.
          6    1    1    2  502    0 -0.13340690316E+03  0.12524095508E+03  0.29317994813E+03  0.38603261601E+03  0.17200000000E+03 0. -1.
         -6    1    1    2    0  502  0.13340690316E+03 -0.12524095508E+03 -0.53804035970E+03  0.59376268601E+03  0.17200000000E+03 0.  1.
</event>
<event>
 4    1 -0.6963162E-004  0.2907140E+03  0.7818608E-02  0.1089977E+00
          5   -1    0    0  501    0  0.00000000000E+00  0.00000000000E+00  0.85346124482E+02  0.85475440707E+02  0.47000000000E+01 0. -1.
         -5   -1    0    0    0  501 -0.00000000000E+00 -0.00000000000E+00 -0.31142059579E+04  0.31142095046E+04  0.47000000000E+01 0.  1.
          6    1    1    2  502    0 -0.18877396018E+03 -0.13890656182E+03 -0.19296259614E+03  0.34892578648E+03  0.17200000000E+03 0. -1.
         -6    1    1    2    0  502  0.18877396018E+03  0.13890656182E+03 -0.28358972373E+04  0.28507591588E+04  0.17200000000E+03 0.  1.
</event>
<event>
 4    1 -0.6963162E-004  0.1912828E+03  0.7818608E-02  0.1157309E+00
         -5   -1    0    0    0  501 -0.00000000000E+00  0.00000000000E+00  0.41904208685E+03  0.41906844376E+03  0.47000000000E+01 0.  1.
          5   -1    0    0  501    0  0.00000000000E+00 -0.00000000000E+00 -0.19684153355E+03  0.19689763668E+03  0.47000000000E+01 0. -1.
          6    1    1    2  502    0 -0.42987393158E+02 -0.71813673645E+02 -0.11866225144E+03  0.22509964373E+03  0.17200000000E+03 0. -1.
         -6    1    1    2    0  502  0.42987393158E+02  0.71813673645E+02  0.34086280473E+03  0.39086643671E+03  0.17200000000E+03 0.  1.
</event>
<event>
 4    1 -0.6963162E-004  0.2247612E+03  0.7818608E-02  0.1130382E+00
         -5   -1    0    0    0  501 -0.00000000000E+00  0.00000000000E+00  0.32140410711E+03  0.32143847011E+03  0.47000000000E+01 0.  1.
          5   -1    0    0  501    0  0.00000000000E+00 -0.00000000000E+00 -0.11901419392E+04  0.11901512196E+04  0.47000000000E+01 0. -1.
          6    1    1    2  502    0 -0.10940569361E+03  0.94678334234E+02 -0.11384943232E+04  0.11604684040E+04  0.17200000000E+03 0. -1.
         -6    1    1    2    0  502  0.10940569361E+03 -0.94678334234E+02  0.26975649110E+03  0.35112128568E+03  0.17200000000E+03 0.  1.
</event>
<event>
 4    1 -0.6963162E-004  0.2160067E+03  0.7818608E-02  0.1136896E+00
          5   -1    0    0  501    0  0.00000000000E+00  0.00000000000E+00  0.81954393187E+02  0.82089052636E+02  0.47000000000E+01 0. -1.
         -5   -1    0    0    0  501 -0.00000000000E+00 -0.00000000000E+00 -0.10980532627E+04  0.10980633214E+04  0.47000000000E+01 0.  1.
          6    1    1    2  502    0  0.12185298096E+03  0.47188340151E+02 -0.98380367544E+02  0.23735539836E+03  0.17200000000E+03 0. -1.
         -6    1    1    2    0  502 -0.12185298096E+03 -0.47188340151E+02 -0.91771850200E+03  0.94279697567E+03  0.17200000000E+03 0.  1.
</event>
<event>
 4    1 -0.6963162E-004  0.3064995E+03  0.7818608E-02  0.1082036E+00
         -5   -1    0    0    0  501 -0.00000000000E+00  0.00000000000E+00  0.64210577608E+03  0.64212297706E+03  0.47000000000E+01 0.  1.
          5   -1    0    0  501    0  0.00000000000E+00 -0.00000000000E+00 -0.12865158270E+04  0.12865244121E+04  0.47000000000E+01 0. -1.
          6    1    1    2  502    0 -0.22933518589E+03  0.10845881252E+03 -0.12300445548E+04  0.12676559266E+04  0.17200000000E+03 0. -1.
         -6    1    1    2    0  502  0.22933518589E+03 -0.10845881252E+03  0.58563450388E+03  0.66099146261E+03  0.17200000000E+03 0.  1.
</event>
<event>
 4    1 -0.6963162E-004  0.2823450E+03  0.7818608E-02  0.1094415E+00
          5   -1    0    0  501    0  0.00000000000E+00  0.00000000000E+00  0.13469130797E+04  0.13469212799E+04  0.47000000000E+01 0. -1.
         -5   -1    0    0    0  501 -0.00000000000E+00 -0.00000000000E+00 -0.57786281982E+03  0.57788193304E+03  0.47000000000E+01 0.  1.
          6    1    1    2  502    0  0.19314013882E+02  0.22307329174E+03  0.12963115463E+04  0.13267035651E+04  0.17200000000E+03 0. -1.
         -6    1    1    2    0  502 -0.19314013882E+02 -0.22307329174E+03 -0.52726128640E+03  0.59809964785E+03  0.17200000000E+03 0.  1.
</event>
<event>
 4    1 -0.6963162E-004  0.1765967E+03  0.7818608E-02  0.1171138E+00
         -5   -1    0    0    0  501 -0.00000000000E+00  0.00000000000E+00  0.42168850691E+03  0.42171469841E+03  0.47000000000E+01 0.  1.
          5   -1    0    0  501    0  0.00000000000E+00 -0.00000000000E+00 -0.14282182803E+04  0.14282260137E+04  0.47000000000E+01 0. -1.
          6    1    1    2  502    0  0.35099482187E+02 -0.19246103597E+02 -0.14039698029E+04  0.14150327182E+04  0.17200000000E+03 0. -1.
         -6    1    1    2    0  502 -0.35099482187E+02  0.19246103597E+02  0.39744002947E+03  0.43490799393E+03  0.17200000000E+03 0.  1.
</event>
<event>
 4    1 -0.6963162E-004  0.1947104E+03  0.7818608E-02  0.1154280E+00
         -5   -1    0    0    0  501 -0.00000000000E+00  0.00000000000E+00  0.41451876962E+03  0.41454541412E+03  0.47000000000E+01 0.  1.
          5   -1    0    0  501    0  0.00000000000E+00 -0.00000000000E+00 -0.16490774939E+03  0.16497471263E+03  0.47000000000E+01 0. -1.
          6    1    1    2  502    0 -0.67172575375E+02  0.61773651481E+02 -0.68619514144E+02  0.20644799980E+03  0.17200000000E+03 0. -1.
         -6    1    1    2    0  502  0.67172575375E+02 -0.61773651481E+02  0.31823053437E+03  0.37307212695E+03  0.17200000000E+03 0.  1.
</event>
<event>
 4    1 -0.6963162E-004  0.1844233E+03  0.7818608E-02  0.1163589E+00
         -5   -1    0    0    0  501 -0.00000000000E+00  0.00000000000E+00  0.50255853044E+03  0.50258050750E+03  0.47000000000E+01 0.  1.
          5   -1    0    0  501    0  0.00000000000E+00 -0.00000000000E+00 -0.14404595726E+03  0.14412261378E+03  0.47000000000E+01 0. -1.
          6    1    1    2  502    0 -0.46705824543E+02  0.47397647078E+02 -0.56230086036E+02  0.19280506625E+03  0.17200000000E+03 0. -1.
         -6    1    1    2    0  502  0.46705824543E+02 -0.47397647078E+02  0.41474265922E+03  0.45389805504E+03  0.17200000000E+03 0.  1.
</event>
<event>
 4    1 -0.6963162E-004  0.1754369E+03  0.7818608E-02  0.1172294E+00
         -5   -1    0    0    0  501 -0.00000000000E+00  0.00000000000E+00  0.22758494681E+03  0.22763347296E+03  0.47000000000E+01 0.  1.
          5   -1    0    0  501    0  0.00000000000E+00 -0.00000000000E+00 -0.14984580215E+03  0.14991949314E+03  0.47000000000E+01 0. -1.
          6    1    1    2  502    0 -0.34551073046E+02  0.57020439332E+00 -0.20255918526E+02  0.17660238961E+03  0.17200000000E+03 0. -1.
         -6    1    1    2    0  502  0.34551073046E+02 -0.57020439332E+00  0.97995063183E+02  0.20095057649E+03  0.17200000000E+03 0.  1.
</event>
<event>
 4    1 -0.6963162E-004  0.1821455E+03  0.7818608E-02  0.1165743E+00
          5   -1    0    0  501    0  0.00000000000E+00  0.00000000000E+00  0.51442663979E+03  0.51444810984E+03  0.47000000000E+01 0. -1.
         -5   -1    0    0    0  501 -0.00000000000E+00 -0.00000000000E+00 -0.24456561302E+03  0.24461077056E+03  0.47000000000E+01 0.  1.
          6    1    1    2  502    0 -0.23274221173E+02 -0.55238461159E+02  0.46060751706E+03  0.49531430601E+03  0.17200000000E+03 0. -1.
         -6    1    1    2    0  502  0.23274221173E+02  0.55238461159E+02 -0.19074649030E+03  0.26374457440E+03  0.17200000000E+03 0.  1.
</event>
<event>
 4    1 -0.6963162E-004  0.1742082E+03  0.7818608E-02  0.1173529E+00
          5   -1    0    0  501    0  0.00000000000E+00  0.00000000000E+00  0.30164968367E+03  0.30168629677E+03  0.47000000000E+01 0. -1.
         -5   -1    0    0    0  501 -0.00000000000E+00 -0.00000000000E+00 -0.10978848925E+03  0.10988904573E+03  0.47000000000E+01 0.  1.
          6    1    1    2  502    0 -0.25905898684E+02  0.96637962404E+01  0.15571396730E+03  0.23365646611E+03  0.17200000000E+03 0. -1.
         -6    1    1    2    0  502  0.25905898684E+02 -0.96637962404E+01  0.36147227123E+02  0.17791887638E+03  0.17200000000E+03 0.  1.
</event>
<event>
 4    1 -0.6963162E-004  0.1850408E+03  0.7818608E-02  0.1163012E+00
         -5   -1    0    0    0  501 -0.00000000000E+00  0.00000000000E+00  0.50387477375E+03  0.50389669340E+03  0.47000000000E+01 0.  1.
          5   -1    0    0  501    0  0.00000000000E+00 -0.00000000000E+00 -0.20907004068E+03  0.20912286320E+03  0.47000000000E+01 0. -1.
          6    1    1    2  502    0  0.17144504799E+02 -0.66046630445E+02 -0.14551210694E+03  0.23540149682E+03  0.17200000000E+03 0. -1.
         -6    1    1    2    0  502 -0.17144504799E+02  0.66046630445E+02  0.44031684000E+03  0.47761805978E+03  0.17200000000E+03 0.  1.
</event>
<event>
 4    1 -0.6963162E-004  0.2138750E+03  0.7818608E-02  0.1138534E+00
          5   -1    0    0  501    0  0.00000000000E+00  0.00000000000E+00  0.18345111889E+03  0.18351131579E+03  0.47000000000E+01 0. -1.
         -5   -1    0    0    0  501 -0.00000000000E+00 -0.00000000000E+00 -0.36121534440E+03  0.36124592043E+03  0.47000000000E+01 0.  1.
          6    1    1    2  502    0  0.10632216510E+03 -0.69671535118E+02  0.62763140963E+02  0.22289400499E+03  0.17200000000E+03 0. -1.
         -6    1    1    2    0  502 -0.10632216510E+03  0.69671535118E+02 -0.24052736647E+03  0.32186323123E+03  0.17200000000E+03 0.  1.
</event>
<event>
 4    1 -0.6963162E-004  0.1837185E+03  0.7818608E-02  0.1164252E+00
          5   -1    0    0  501    0  0.00000000000E+00  0.00000000000E+00  0.22698470683E+03  0.22703336129E+03  0.47000000000E+01 0. -1.
         -5   -1    0    0    0  501 -0.00000000000E+00 -0.00000000000E+00 -0.82811887500E+03  0.82813221235E+03  0.47000000000E+01 0.  1.
          6    1    1    2  502    0 -0.49913971229E+02  0.40952070638E+02  0.17731588943E+03  0.25532998504E+03  0.17200000000E+03 0. -1.
         -6    1    1    2    0  502  0.49913971229E+02 -0.40952070638E+02 -0.77845005759E+03  0.79983558859E+03  0.17200000000E+03 0.  1.
</event>
<event>
 4    1 -0.6963162E-004  0.2343972E+03  0.7818608E-02  0.1123583E+00
         -5   -1    0    0    0  501 -0.00000000000E+00  0.00000000000E+00  0.63854929314E+03  0.63856658992E+03  0.47000000000E+01 0.  1.
          5   -1    0    0  501    0  0.00000000000E+00 -0.00000000000E+00 -0.96996798244E+03  0.96997936935E+03  0.47000000000E+01 0. -1.
          6    1    1    2  502    0 -0.91102067897E+02  0.13060812295E+03 -0.93348354114E+03  0.96246225388E+03  0.17200000000E+03 0. -1.
         -6    1    1    2    0  502  0.91102067897E+02 -0.13060812295E+03  0.60206485184E+03  0.64608370539E+03  0.17200000000E+03 0.  1.
</event>
<event>
 4    1 -0.6963162E-004  0.2221051E+03  0.7818608E-02  0.1132323E+00
         -5   -1    0    0    0  501 -0.00000000000E+00  0.00000000000E+00  0.77428585659E+03  0.77430012122E+03  0.47000000000E+01 0.  1.
          5   -1    0    0  501    0  0.00000000000E+00 -0.00000000000E+00 -0.22911829324E+03  0.22916649471E+03  0.47000000000E+01 0. -1.
          6    1    1    2  502    0 -0.23236784441E+02 -0.13858832843E+03 -0.15373542770E+03  0.27012081493E+03  0.17200000000E+03 0. -1.
         -6    1    1    2    0  502  0.23236784441E+02  0.13858832843E+03  0.69890299105E+03  0.73334580099E+03  0.17200000000E+03 0.  1.
</event>
<event>
 4    1 -0.6963162E-004  0.1825105E+03  0.7818608E-02  0.1165395E+00
         -5   -1    0    0    0  501 -0.00000000000E+00  0.00000000000E+00  0.52546267936E+03  0.52548369852E+03  0.47000000000E+01 0.  1.
          5   -1    0    0  501    0  0.00000000000E+00 -0.00000000000E+00 -0.14872709125E+03  0.14880133625E+03  0.47000000000E+01 0. -1.
          6    1    1    2  502    0 -0.59460042164E+02  0.13805009837E+02 -0.67048636211E+02  0.19443660799E+03  0.17200000000E+03 0. -1.
         -6    1    1    2    0  502  0.59460042164E+02 -0.13805009837E+02  0.44378422433E+03  0.47984842677E+03  0.17200000000E+03 0.  1.
</event>
<event>
 4    1 -0.6963162E-004  0.2197917E+03  0.7818608E-02  0.1134038E+00
         -5   -1    0    0    0  501 -0.00000000000E+00  0.00000000000E+00  0.23580047885E+04  0.23580094726E+04  0.47000000000E+01 0.  1.
          5   -1    0    0  501    0  0.00000000000E+00 -0.00000000000E+00 -0.67880994417E+02  0.68043511102E+02  0.47000000000E+01 0. -1.
          6    1    1    2  502    0  0.91776829095E+02 -0.10149590266E+03  0.13120496947E+03  0.25597489843E+03  0.17200000000E+03 0. -1.
         -6    1    1    2    0  502 -0.91776829095E+02  0.10149590266E+03  0.21589188246E+04  0.21700780852E+04  0.17200000000E+03 0.  1.
</event>
<event>
 4    1 -0.6963162E-004  0.2410851E+03  0.7818608E-02  0.1119072E+00
         -5   -1    0    0    0  501 -0.00000000000E+00  0.00000000000E+00  0.14601286100E+03  0.14608848543E+03  0.47000000000E+01 0.  1.
          5   -1    0    0  501    0  0.00000000000E+00 -0.00000000000E+00 -0.45458232612E+03  0.45460662250E+03  0.47000000000E+01 0. -1.
          6    1    1    2  502    0 -0.16358076205E+03 -0.42182617685E+02 -0.26035987854E+03  0.35483701230E+03  0.17200000000E+03 0.  1.
         -6    1    1    2    0  502  0.16358076205E+03  0.42182617685E+02 -0.48209586591E+02  0.24585809563E+03  0.17200000000E+03 0. -1.
</event>
<event>
 4    1 -0.6963162E-004  0.2570762E+03  0.7818608E-02  0.1108913E+00
         -5   -1    0    0    0  501 -0.00000000000E+00  0.00000000000E+00  0.92993031040E+03  0.92994218755E+03  0.47000000000E+01 0.  1.
          5   -1    0    0  501    0  0.00000000000E+00 -0.00000000000E+00 -0.13762494563E+03  0.13770517659E+03  0.47000000000E+01 0. -1.
          6    1    1    2  502    0  0.13699876314E+03  0.13317478411E+03  0.24843804037E+02  0.25827388335E+03  0.17200000000E+03 0. -1.
         -6    1    1    2    0  502 -0.13699876314E+03 -0.13317478411E+03  0.76746156072E+03  0.80937348079E+03  0.17200000000E+03 0.  1.
</event>
<event>
 4    1 -0.6963162E-004  0.1817758E+03  0.7818608E-02  0.1166095E+00
          5   -1    0    0  501    0  0.00000000000E+00  0.00000000000E+00  0.60137087841E+02  0.60320471931E+02  0.47000000000E+01 0. -1.
         -5   -1    0    0    0  501 -0.00000000000E+00 -0.00000000000E+00 -0.58525982856E+03  0.58527870022E+03  0.47000000000E+01 0.  1.
          6    1    1    2  502    0  0.70328068398E+01 -0.58386376350E+02 -0.18159001227E+03  0.25693843985E+03  0.17200000000E+03 0. -1.
         -6    1    1    2    0  502 -0.70328068398E+01  0.58386376350E+02 -0.34353272845E+03  0.38866073230E+03  0.17200000000E+03 0.  1.
</event>
<event>
 4    1 -0.6963162E-004  0.1733577E+03  0.7818608E-02  0.1174391E+00
         -5   -1    0    0    0  501 -0.00000000000E+00  0.00000000000E+00  0.44770307669E+03  0.44772774638E+03  0.47000000000E+01 0.  1.
          5   -1    0    0  501    0  0.00000000000E+00 -0.00000000000E+00 -0.93044550738E+02  0.93163181687E+02  0.47000000000E+01 0. -1.
          6    1    1    2  502    0  0.11434603324E+02  0.18388354955E+02  0.34421832180E+02  0.17674202749E+03  0.17200000000E+03 0. -1.
         -6    1    1    2    0  502 -0.11434603324E+02 -0.18388354955E+02  0.32023669377E+03  0.36414890057E+03  0.17200000000E+03 0.  1.
</event>
<event>
 4    1 -0.6963162E-004  0.1806836E+03  0.7818608E-02  0.1167143E+00
          5   -1    0    0  501    0  0.00000000000E+00  0.00000000000E+00  0.12295706579E+03  0.12304686110E+03  0.47000000000E+01 0. -1.
         -5   -1    0    0    0  501 -0.00000000000E+00 -0.00000000000E+00 -0.29343456507E+03  0.29347220307E+03  0.47000000000E+01 0.  1.
          6    1    1    2  502    0 -0.50432720561E+02  0.22784221000E+02 -0.20771539179E+02  0.18187368383E+03  0.17200000000E+03 0. -1.
         -6    1    1    2    0  502  0.50432720561E+02 -0.22784221000E+02 -0.14970596010E+03  0.23464538035E+03  0.17200000000E+03 0.  1.
</event>
<event>
 4    1 -0.6963162E-004  0.2263160E+03  0.7818608E-02  0.1129260E+00
         -5   -1    0    0    0  501 -0.00000000000E+00  0.00000000000E+00  0.11996728607E+04  0.11996820673E+04  0.47000000000E+01 0.  1.
          5   -1    0    0  501    0  0.00000000000E+00 -0.00000000000E+00 -0.19497705925E+03  0.19503369872E+03  0.47000000000E+01 0. -1.
          6    1    1    2  502    0  0.37836431189E+01  0.14703956883E+03 -0.11396542995E+03  0.25339114030E+03  0.17200000000E+03 0. -1.
         -6    1    1    2    0  502 -0.37836431189E+01 -0.14703956883E+03  0.11186612314E+04  0.11413246258E+04  0.17200000000E+03 0.  1.
</event>
<event>
 4    1 -0.6963162E-004  0.1866529E+03  0.7818608E-02  0.1161515E+00
          5   -1    0    0  501    0  0.00000000000E+00  0.00000000000E+00  0.97465772059E+03  0.97466905270E+03  0.47000000000E+01 0. -1.
         -5   -1    0    0    0  501 -0.00000000000E+00 -0.00000000000E+00 -0.14261509983E+03  0.14269252503E+03  0.47000000000E+01 0.  1.
          6    1    1    2  502    0 -0.43179186334E+02 -0.58231252045E+02  0.89967511861E+03  0.91883330364E+03  0.17200000000E+03 0. -1.
         -6    1    1    2    0  502  0.43179186334E+02  0.58231252045E+02 -0.67632497845E+02  0.19852827409E+03  0.17200000000E+03 0.  1.
</event>
<event>
 4    1 -0.6963162E-004  0.2036665E+03  0.7818608E-02  0.1146682E+00
         -5   -1    0    0    0  501 -0.00000000000E+00  0.00000000000E+00  0.42471363219E+03  0.42473963716E+03  0.47000000000E+01 0.  1.
          5   -1    0    0  501    0  0.00000000000E+00 -0.00000000000E+00 -0.11431170570E+03  0.11440828668E+03  0.47000000000E+01 0. -1.
          6    1    1    2  502    0  0.17005420070E+02  0.10773508002E+03  0.52126751731E+02  0.21023137260E+03  0.17200000000E+03 0. -1.
         -6    1    1    2    0  502 -0.17005420070E+02 -0.10773508002E+03  0.25827517476E+03  0.32891655123E+03  0.17200000000E+03 0.  1.
</event>
<event>
 4    1 -0.6963162E-004  0.1932918E+03  0.7818608E-02  0.1155525E+00
         -5   -1    0    0    0  501 -0.00000000000E+00  0.00000000000E+00  0.53502014591E+03  0.53504078959E+03  0.47000000000E+01 0.  1.
          5   -1    0    0  501    0  0.00000000000E+00 -0.00000000000E+00 -0.14984316996E+03  0.14991686224E+03  0.47000000000E+01 0. -1.
          6    1    1    2  502    0 -0.85435492009E+02 -0.21874312650E+02 -0.57714460382E+02  0.20172423698E+03  0.17200000000E+03 0. -1.
         -6    1    1    2    0  502  0.85435492009E+02  0.21874312650E+02  0.44289143633E+03  0.48323341485E+03  0.17200000000E+03 0.  1.
</event>
<event>
 4    1 -0.6963162E-004  0.2272616E+03  0.7818608E-02  0.1128582E+00
         -5   -1    0    0    0  501 -0.00000000000E+00  0.00000000000E+00  0.36786186826E+03  0.36789189189E+03  0.47000000000E+01 0.  1.
          5   -1    0    0  501    0  0.00000000000E+00 -0.00000000000E+00 -0.39178334162E+03  0.39181153221E+03  0.47000000000E+01 0. -1.
          6    1    1    2  502    0 -0.14796728185E+03 -0.13020313305E+02 -0.31624385981E+03  0.38943295177E+03  0.17200000000E+03 0. -1.
         -6    1    1    2    0  502  0.14796728185E+03  0.13020313305E+02  0.29232238645E+03  0.37027047233E+03  0.17200000000E+03 0.  1.
</event>
<event>
 4    1 -0.6963162E-004  0.2635543E+03  0.7818608E-02  0.1105026E+00
         -5   -1    0    0    0  501 -0.00000000000E+00  0.00000000000E+00  0.30288573512E+03  0.30292219883E+03  0.47000000000E+01 0.  1.
          5   -1    0    0  501    0  0.00000000000E+00 -0.00000000000E+00 -0.62899562173E+03  0.62901318122E+03  0.47000000000E+01 0. -1.
          6    1    1    2  502    0  0.16621064613E+02 -0.19899907289E+03 -0.53450177731E+03  0.59594717949E+03  0.17200000000E+03 0. -1.
         -6    1    1    2    0  502 -0.16621064613E+02  0.19899907289E+03  0.20839189070E+03  0.33598820055E+03  0.17200000000E+03 0.  1.
</event>
<event>
 4    1 -0.6963162E-004  0.1737580E+03  0.7818608E-02  0.1173985E+00
         -5   -1    0    0    0  501 -0.00000000000E+00  0.00000000000E+00  0.78803830102E+03  0.78805231671E+03  0.47000000000E+01 0.  1.
          5   -1    0    0  501    0  0.00000000000E+00 -0.00000000000E+00 -0.81765538264E+02  0.81900508226E+02  0.47000000000E+01 0. -1.
          6    1    1    2  502    0 -0.16205907338E+02 -0.18579528695E+02  0.35900588465E+02  0.17742796446E+03  0.17200000000E+03 0. -1.
         -6    1    1    2    0  502  0.16205907338E+02  0.18579528695E+02  0.67037217429E+03  0.69252486048E+03  0.17200000000E+03 0.  1.
</event>
<event>
 4    1 -0.6963162E-004  0.2016095E+03  0.7818608E-02  0.1148388E+00
         -5   -1    0    0    0  501 -0.00000000000E+00  0.00000000000E+00  0.83484901233E+02  0.83617095942E+02  0.47000000000E+01 0.  1.
          5   -1    0    0  501    0  0.00000000000E+00 -0.00000000000E+00 -0.62010763327E+03  0.62012544444E+03  0.47000000000E+01 0. -1.
          6    1    1    2  502    0 -0.10055843315E+03 -0.30828463168E+02 -0.43171752168E+03  0.47647288605E+03  0.17200000000E+03 0. -1.
         -6    1    1    2    0  502  0.10055843315E+03  0.30828463168E+02 -0.10490521036E+03  0.22726965433E+03  0.17200000000E+03 0.  1.
</event>
<event>
 4    1 -0.6963162E-004  0.3821291E+03  0.7818608E-02  0.1050150E+00
         -5   -1    0    0    0  501 -0.00000000000E+00  0.00000000000E+00  0.79228379099E+03  0.79229773158E+03  0.47000000000E+01 0.  1.
          5   -1    0    0  501    0  0.00000000000E+00 -0.00000000000E+00 -0.83012779013E+03  0.83014109520E+03  0.47000000000E+01 0. -1.
          6    1    1    2  502    0  0.34093351858E+03 -0.14246067495E+02 -0.73444616539E+03  0.82790928512E+03  0.17200000000E+03 0. -1.
         -6    1    1    2    0  502 -0.34093351858E+03  0.14246067495E+02  0.69660216625E+03  0.79452954165E+03  0.17200000000E+03 0.  1.
</event>
<event>
 4    1 -0.6963162E-004  0.1837512E+03  0.7818608E-02  0.1164221E+00
          5   -1    0    0  501    0  0.00000000000E+00  0.00000000000E+00  0.57801882006E+03  0.57803792812E+03  0.47000000000E+01 0. -1.
         -5   -1    0    0    0  501 -0.00000000000E+00 -0.00000000000E+00 -0.16638834648E+03  0.16645471410E+03  0.47000000000E+01 0.  1.
          6    1    1    2  502    0 -0.51563260154E+02 -0.39009509123E+02  0.50570917111E+03  0.53805787546E+03  0.17200000000E+03 0. -1.
         -6    1    1    2    0  502  0.51563260154E+02  0.39009509123E+02 -0.94078697526E+02  0.20643476676E+03  0.17200000000E+03 0.  1.
</event>
<event>
 4    1 -0.6963162E-004  0.1735747E+03  0.7818608E-02  0.1174170E+00
         -5   -1    0    0    0  501 -0.00000000000E+00  0.00000000000E+00  0.19864026211E+03  0.19869585736E+03  0.47000000000E+01 0.  1.
          5   -1    0    0  501    0  0.00000000000E+00 -0.00000000000E+00 -0.24279648221E+03  0.24284196872E+03  0.47000000000E+01 0. -1.
          6    1    1    2  502    0 -0.21197646522E+02 -0.97382293703E+01 -0.15737918437E+03  0.23429976740E+03  0.17200000000E+03 0. -1.
         -6    1    1    2    0  502  0.21197646522E+02  0.97382293703E+01  0.11322296427E+03  0.20723805868E+03  0.17200000000E+03 0.  1.
</event>
<event>
 4    1 -0.6963162E-004  0.2327566E+03  0.7818608E-02  0.1124714E+00
         -5   -1    0    0    0  501 -0.00000000000E+00  0.00000000000E+00  0.21354072734E+03  0.21359244423E+03  0.47000000000E+01 0.  1.
          5   -1    0    0  501    0  0.00000000000E+00 -0.00000000000E+00 -0.32533013401E+03  0.32536408237E+03  0.47000000000E+01 0. -1.
          6    1    1    2  502    0 -0.14041596053E+03 -0.69821041180E+02 -0.18241494288E+03  0.29572086695E+03  0.17200000000E+03 0. -1.
         -6    1    1    2    0  502  0.14041596053E+03  0.69821041180E+02  0.70625536202E+02  0.24323565965E+03  0.17200000000E+03 0.  1.
</event>
<event>
 4    1 -0.6963162E-004  0.2301746E+03  0.7818608E-02  0.1126517E+00
          5   -1    0    0  501    0  0.00000000000E+00  0.00000000000E+00  0.19067266556E+03  0.19073058326E+03  0.47000000000E+01 0. -1.
         -5   -1    0    0    0  501 -0.00000000000E+00 -0.00000000000E+00 -0.80760439299E+03  0.80761806912E+03  0.47000000000E+01 0.  1.
          6    1    1    2  502    0  0.78403315629E+02  0.13133650309E+03  0.95842202195E+02  0.24933127495E+03  0.17200000000E+03 0. -1.
         -6    1    1    2    0  502 -0.78403315629E+02 -0.13133650309E+03 -0.71277392963E+03  0.74901737744E+03  0.17200000000E+03 0.  1.
</event>
<event>
 4    1 -0.6963162E-004  0.2055969E+03  0.7818608E-02  0.1145101E+00
          5   -1    0    0  501    0  0.00000000000E+00  0.00000000000E+00  0.17831217983E+03  0.17837411100E+03  0.47000000000E+01 0. -1.
         -5   -1    0    0    0  501 -0.00000000000E+00 -0.00000000000E+00 -0.30540335894E+03  0.30543952209E+03  0.47000000000E+01 0.  1.
          6    1    1    2  502    0 -0.94594508919E+02 -0.61138971888E+02  0.50978710866E+02  0.21182285987E+03  0.17200000000E+03 0. -1.
         -6    1    1    2    0  502  0.94594508919E+02  0.61138971888E+02 -0.17806988998E+03  0.27199077322E+03  0.17200000000E+03 0.  1.
</event>
<event>
 4    1 -0.6963162E-004  0.2087123E+03  0.7818608E-02  0.1142590E+00
          5   -1    0    0  501    0  0.00000000000E+00  0.00000000000E+00  0.16185970943E+03  0.16192793316E+03  0.47000000000E+01 0. -1.
         -5   -1    0    0    0  501 -0.00000000000E+00 -0.00000000000E+00 -0.12140009576E+04  0.12140100556E+04  0.47000000000E+01 0.  1.
          6    1    1    2  502    0 -0.10489464291E+03 -0.54533740844E+02  0.80893515467E+02  0.22384051431E+03  0.17200000000E+03 0. -1.
         -6    1    1    2    0  502  0.10489464291E+03  0.54533740844E+02 -0.11330347637E+04  0.11520974745E+04  0.17200000000E+03 0.  1.
</event>
<event>
 4    1 -0.6963162E-004  0.1776182E+03  0.7818608E-02  0.1170128E+00
         -5   -1    0    0    0  501 -0.00000000000E+00  0.00000000000E+00  0.89364605041E+03  0.89365840981E+03  0.47000000000E+01 0.  1.
          5   -1    0    0  501    0  0.00000000000E+00 -0.00000000000E+00 -0.23569589168E+03  0.23574274825E+03  0.47000000000E+01 0. -1.
          6    1    1    2  502    0  0.44232348880E+02 -0.27763019978E+01 -0.19172743009E+03  0.26135725739E+03  0.17200000000E+03 0. -1.
         -6    1    1    2    0  502 -0.44232348880E+02  0.27763019978E+01  0.84967758883E+03  0.86804390067E+03  0.17200000000E+03 0.  1.
</event>
<event>
 4    1 -0.6963162E-004  0.4236611E+03  0.7818608E-02  0.1035881E+00
         -5   -1    0    0    0  501 -0.00000000000E+00  0.00000000000E+00  0.26701576128E+03  0.26705712268E+03  0.47000000000E+01 0.  1.
          5   -1    0    0  501    0  0.00000000000E+00 -0.00000000000E+00 -0.11515183885E+04  0.11515279802E+04  0.47000000000E+01 0. -1.
          6    1    1    2  502    0  0.37156463053E+03 -0.10883224577E+03 -0.89990455344E+03  0.99464412615E+03  0.17200000000E+03 0. -1.
         -6    1    1    2    0  502 -0.37156463053E+03  0.10883224577E+03  0.15401926210E+02  0.42394097668E+03  0.17200000000E+03 0.  1.
</event>
<event>
 4    1 -0.6963162E-004  0.4721135E+03  0.7818608E-02  0.1021325E+00
          5   -1    0    0  501    0  0.00000000000E+00  0.00000000000E+00  0.18004371002E+04  0.18004432348E+04  0.47000000000E+01 0. -1.
         -5   -1    0    0    0  501 -0.00000000000E+00 -0.00000000000E+00 -0.13233131353E+04  0.13233214818E+04  0.47000000000E+01 0.  1.
          6    1    1    2  502    0  0.40498081479E+03 -0.17116577792E+03  0.17255929715E+04  0.17890115392E+04  0.17200000000E+03 0. -1.
         -6    1    1    2    0  502 -0.40498081479E+03  0.17116577792E+03 -0.12484690067E+04  0.13347531774E+04  0.17200000000E+03 0.  1.
</event>
<event>
 4    1 -0.6963162E-004  0.2328273E+03  0.7818608E-02  0.1124665E+00
         -5   -1    0    0    0  501 -0.00000000000E+00  0.00000000000E+00  0.94720320093E+02  0.94836854854E+02  0.47000000000E+01 0.  1.
          5   -1    0    0  501    0  0.00000000000E+00 -0.00000000000E+00 -0.14389627985E+04  0.14389704741E+04  0.47000000000E+01 0. -1.
          6    1    1    2  502    0 -0.19048356906E+02 -0.15576168612E+03 -0.12674281878E+04  0.12886360052E+04  0.17200000000E+03 0. -1.
         -6    1    1    2    0  502  0.19048356906E+02  0.15576168612E+03 -0.76814290635E+02  0.24517132379E+03  0.17200000000E+03 0.  1.
</event>
<event>
 4    1 -0.6963162E-004  0.3145549E+03  0.7818608E-02  0.1078183E+00
         -5   -1    0    0    0  501 -0.00000000000E+00  0.00000000000E+00  0.55378035652E+03  0.55380030089E+03  0.47000000000E+01 0.  1.
          5   -1    0    0  501    0  0.00000000000E+00 -0.00000000000E+00 -0.45108911693E+03  0.45111360145E+03  0.47000000000E+01 0. -1.
          6    1    1    2  502    0  0.27431412568E+02  0.26193188700E+03 -0.33913363238E+03  0.46255423080E+03  0.17200000000E+03 0. -1.
         -6    1    1    2    0  502 -0.27431412568E+02 -0.26193188700E+03  0.44182487197E+03  0.54235967154E+03  0.17200000000E+03 0.  1.
</event>
<event>
 4    1 -0.6963162E-004  0.5993521E+03  0.7818608E-02  0.9906751E-01
         -5   -1    0    0    0  501 -0.00000000000E+00  0.00000000000E+00  0.31246569623E+03  0.31250104211E+03  0.47000000000E+01 0.  1.
          5   -1    0    0  501    0  0.00000000000E+00 -0.00000000000E+00 -0.11495383620E+04  0.11495479702E+04  0.47000000000E+01 0. -1.
          6    1    1    2  502    0 -0.17212821613E+03 -0.54773246003E+03 -0.41720242056E+03  0.73026079607E+03  0.17200000000E+03 0. -1.
         -6    1    1    2    0  502  0.17212821613E+03  0.54773246003E+03 -0.41987024521E+03  0.73178821620E+03  0.17200000000E+03 0.  1.
</event>
<event>
 4    1 -0.6963162E-004  0.1720491E+03  0.7818608E-02  0.1175728E+00
         -5   -1    0    0    0  501 -0.00000000000E+00  0.00000000000E+00  0.14175926003E+03  0.14183715241E+03  0.47000000000E+01 0.  1.
          5   -1    0    0  501    0  0.00000000000E+00 -0.00000000000E+00 -0.71182330800E+03  0.71183882432E+03  0.47000000000E+01 0. -1.
          6    1    1    2  502    0 -0.91213506832E+00 -0.40073453750E+01 -0.64387287028E+03  0.66646317520E+03  0.17200000000E+03 0. -1.
         -6    1    1    2    0  502  0.91213506832E+00  0.40073453750E+01  0.73808822308E+02  0.18721280153E+03  0.17200000000E+03 0.  1.
</event>
<event>
 4    1 -0.6963162E-004  0.1877267E+03  0.7818608E-02  0.1160528E+00
          5   -1    0    0  501    0  0.00000000000E+00  0.00000000000E+00  0.11749375245E+04  0.11749469250E+04  0.47000000000E+01 0. -1.
         -5   -1    0    0    0  501 -0.00000000000E+00 -0.00000000000E+00 -0.44003997910E+02  0.44254286031E+02  0.47000000000E+01 0.  1.
          6    1    1    2  502    0  0.11407126586E+02  0.74345009211E+02  0.91055466275E+03  0.92970484391E+03  0.17200000000E+03 0. -1.
         -6    1    1    2    0  502 -0.11407126586E+02 -0.74345009211E+02  0.22037886387E+03  0.28949636711E+03  0.17200000000E+03 0.  1.
</event>
<event>
 4    1 -0.6963162E-004  0.4524002E+03  0.7818608E-02  0.1027009E+00
          5   -1    0    0  501    0  0.00000000000E+00  0.00000000000E+00  0.74324748474E+03  0.74326234505E+03  0.47000000000E+01 0. -1.
         -5   -1    0    0    0  501 -0.00000000000E+00 -0.00000000000E+00 -0.90350617790E+03  0.90351840241E+03  0.47000000000E+01 0.  1.
          6    1    1    2  502    0 -0.40004817289E+03  0.12265151775E+03  0.60641923664E+03  0.75657797087E+03  0.17200000000E+03 0. -1.
         -6    1    1    2    0  502  0.40004817289E+03 -0.12265151775E+03 -0.76667792979E+03  0.89020277660E+03  0.17200000000E+03 0.  1.
</event>
<event>
 4    1 -0.6963162E-004  0.3107497E+03  0.7818608E-02  0.1079987E+00
          5   -1    0    0  501    0  0.00000000000E+00  0.00000000000E+00  0.74946823394E+03  0.74948297091E+03  0.47000000000E+01 0. -1.
         -5   -1    0    0    0  501 -0.00000000000E+00 -0.00000000000E+00 -0.45125702620E+03  0.45128150161E+03  0.47000000000E+01 0.  1.
          6    1    1    2  502    0  0.24745989823E+03 -0.75795652170E+02  0.65659546433E+03  0.72641791409E+03  0.17200000000E+03 0. -1.
         -6    1    1    2    0  502 -0.24745989823E+03  0.75795652170E+02 -0.35838425660E+03  0.47434655843E+03  0.17200000000E+03 0.  1.
</event>
<event>
 4    1 -0.6963162E-004  0.2211053E+03  0.7818608E-02  0.1133062E+00
          5   -1    0    0  501    0  0.00000000000E+00  0.00000000000E+00  0.62725983039E+03  0.62727743847E+03  0.47000000000E+01 0. -1.
         -5   -1    0    0    0  501 -0.00000000000E+00 -0.00000000000E+00 -0.43947271799E+03  0.43949784966E+03  0.47000000000E+01 0.  1.
          6    1    1    2  502    0  0.13074468958E+03 -0.47004090042E+02  0.57768222523E+03  0.61855016909E+03  0.17200000000E+03 0. -1.
         -6    1    1    2    0  502 -0.13074468958E+03  0.47004090042E+02 -0.38989511283E+03  0.44822511905E+03  0.17200000000E+03 0.  1.
</event>
<event>
 4    1 -0.6963162E-004  0.2161823E+03  0.7818608E-02  0.1136762E+00
          5   -1    0    0  501    0  0.00000000000E+00  0.00000000000E+00  0.10381378632E+04  0.10381485024E+04  0.47000000000E+01 0. -1.
         -5   -1    0    0    0  501 -0.00000000000E+00 -0.00000000000E+00 -0.84956161988E+02  0.85086070892E+02  0.47000000000E+01 0.  1.
          6    1    1    2  502    0 -0.11443956618E+03  0.63673838130E+02  0.86185307092E+03  0.88855246768E+03  0.17200000000E+03 0. -1.
         -6    1    1    2    0  502  0.11443956618E+03 -0.63673838130E+02  0.91328630273E+02  0.23468210558E+03  0.17200000000E+03 0.  1.
</event>
<event>
 4    1 -0.6963162E-004  0.2617358E+03  0.7818608E-02  0.1106105E+00
         -5   -1    0    0    0  501 -0.00000000000E+00  0.00000000000E+00  0.23380334303E+03  0.23385057882E+03  0.47000000000E+01 0.  1.
          5   -1    0    0  501    0  0.00000000000E+00 -0.00000000000E+00 -0.30043099174E+03  0.30046775334E+03  0.47000000000E+01 0. -1.
          6    1    1    2  502    0 -0.16676050720E+03  0.10541624975E+03  0.89512055149E+01  0.26188886298E+03  0.17200000000E+03 0. -1.
         -6    1    1    2    0  502  0.16676050720E+03 -0.10541624975E+03 -0.75578854224E+02  0.27242946918E+03  0.17200000000E+03 0.  1.
</event>
<event>
 4    1 -0.6963162E-004  0.2294648E+03  0.7818608E-02  0.1127017E+00
          5   -1    0    0  501    0  0.00000000000E+00  0.00000000000E+00  0.34767350410E+03  0.34770527096E+03  0.47000000000E+01 0. -1.
         -5   -1    0    0    0  501 -0.00000000000E+00 -0.00000000000E+00 -0.36148986445E+03  0.36152041727E+03  0.47000000000E+01 0.  1.
          6    1    1    2  502    0 -0.13849887416E+03 -0.62355144441E+02  0.26341787648E+03  0.34934664709E+03  0.17200000000E+03 0. -1.
         -6    1    1    2    0  502  0.13849887416E+03  0.62355144441E+02 -0.27723423683E+03  0.35987904114E+03  0.17200000000E+03 0.  1.
</event>
<event>
 4    1 -0.6963162E-004  0.1780797E+03  0.7818608E-02  0.1169675E+00
          5   -1    0    0  501    0  0.00000000000E+00  0.00000000000E+00  0.18946731226E+03  0.18952559831E+03  0.47000000000E+01 0. -1.
         -5   -1    0    0    0  501 -0.00000000000E+00 -0.00000000000E+00 -0.66278153949E+03  0.66279820389E+03  0.47000000000E+01 0.  1.
          6    1    1    2  502    0 -0.21223858760E-01  0.46134197731E+02  0.13180115695E+03  0.22154888766E+03  0.17200000000E+03 0. -1.
         -6    1    1    2    0  502  0.21223858760E-01 -0.46134197731E+02 -0.60511538418E+03  0.63077491455E+03  0.17200000000E+03 0.  1.
</event>
<event>
 4    1 -0.6963162E-004  0.1732632E+03  0.7818608E-02  0.1174487E+00
          5   -1    0    0  501    0  0.00000000000E+00  0.00000000000E+00  0.60823053057E+03  0.60824868954E+03  0.47000000000E+01 0. -1.
         -5   -1    0    0    0  501 -0.00000000000E+00 -0.00000000000E+00 -0.13744951215E+03  0.13752984545E+03  0.47000000000E+01 0.  1.
          6    1    1    2  502    0 -0.20847980727E+02  0.12287765588E+01  0.53395101194E+03  0.56135891490E+03  0.17200000000E+03 0. -1.
         -6    1    1    2    0  502  0.20847980727E+02 -0.12287765588E+01 -0.63169993514E+02  0.18441962009E+03  0.17200000000E+03 0.  1.
</event>
<event>
 4    1 -0.6963162E-004  0.1729585E+03  0.7818608E-02  0.1174797E+00
          5   -1    0    0  501    0  0.00000000000E+00  0.00000000000E+00  0.39151999633E+03  0.39154820587E+03  0.47000000000E+01 0. -1.
         -5   -1    0    0    0  501 -0.00000000000E+00 -0.00000000000E+00 -0.97475683277E+02  0.97588927806E+02  0.47000000000E+01 0.  1.
          6    1    1    2  502    0  0.15826675207E+02  0.89536661422E+01  0.26091300173E+03  0.31303393787E+03  0.17200000000E+03 0. -1.
         -6    1    1    2    0  502 -0.15826675207E+02 -0.89536661422E+01  0.33131311320E+02  0.17610319581E+03  0.17200000000E+03 0.  1.
</event>
<event>
 4    1 -0.6963162E-004  0.1839481E+03  0.7818608E-02  0.1164036E+00
          5   -1    0    0  501    0  0.00000000000E+00  0.00000000000E+00  0.98110590396E+02  0.98223102924E+02  0.47000000000E+01 0. -1.
         -5   -1    0    0    0  501 -0.00000000000E+00 -0.00000000000E+00 -0.42039797995E+03  0.42042425186E+03  0.47000000000E+01 0.  1.
          6    1    1    2  502    0  0.34481339449E+02  0.55352793425E+02 -0.51018982736E+02  0.19089219761E+03  0.17200000000E+03 0. -1.
         -6    1    1    2    0  502 -0.34481339449E+02 -0.55352793425E+02 -0.27126840682E+03  0.32775515717E+03  0.17200000000E+03 0.  1.
</event>
<event>
 4    1 -0.6963162E-004  0.1828916E+03  0.7818608E-02  0.1165034E+00
          5   -1    0    0  501    0  0.00000000000E+00  0.00000000000E+00  0.36918851757E+03  0.36921843332E+03  0.47000000000E+01 0. -1.
         -5   -1    0    0    0  501 -0.00000000000E+00 -0.00000000000E+00 -0.98981181256E+02  0.99092705296E+02  0.47000000000E+01 0.  1.
          6    1    1    2  502    0 -0.26242530759E+02 -0.56361820548E+02  0.20356367080E+03  0.27365579348E+03  0.17200000000E+03 0. -1.
         -6    1    1    2    0  502  0.26242530759E+02  0.56361820548E+02  0.66643665507E+02  0.19465534513E+03  0.17200000000E+03 0.  1.
</event>
<event>
 4    1 -0.6963162E-004  0.2050197E+03  0.7818608E-02  0.1145572E+00
          5   -1    0    0  501    0  0.00000000000E+00  0.00000000000E+00  0.30269744771E+03  0.30273393409E+03  0.47000000000E+01 0. -1.
         -5   -1    0    0    0  501 -0.00000000000E+00 -0.00000000000E+00 -0.28194226911E+03  0.28198144108E+03  0.47000000000E+01 0.  1.
          6    1    1    2  502    0 -0.10023179661E+03  0.49017003146E+02  0.21867283685E+03  0.29975137902E+03  0.17200000000E+03 0. -1.
         -6    1    1    2    0  502  0.10023179661E+03 -0.49017003146E+02 -0.19791765826E+03  0.28496399615E+03  0.17200000000E+03 0.  1.
</event>
<event>
 4    1 -0.6963162E-004  0.1996068E+03  0.7818608E-02  0.1150071E+00
         -5   -1    0    0    0  501 -0.00000000000E+00  0.00000000000E+00  0.39857172309E+03  0.39859943357E+03  0.47000000000E+01 0.  1.
          5   -1    0    0  501    0  0.00000000000E+00 -0.00000000000E+00 -0.23017432953E+03  0.23022230990E+03  0.47000000000E+01 0. -1.
          6    1    1    2  502    0  0.22512164119E+02  0.98752645462E+02 -0.15230329941E+03  0.25107603934E+03  0.17200000000E+03 0. -1.
         -6    1    1    2    0  502 -0.22512164119E+02 -0.98752645462E+02  0.32070069297E+03  0.37774570413E+03  0.17200000000E+03 0.  1.
</event>
<event>
 4    1 -0.6963162E-004  0.2600648E+03  0.7818608E-02  0.1107104E+00
         -5   -1    0    0    0  501 -0.00000000000E+00  0.00000000000E+00  0.53642825313E+03  0.53644884262E+03  0.47000000000E+01 0.  1.
          5   -1    0    0  501    0  0.00000000000E+00 -0.00000000000E+00 -0.50738659430E+03  0.50740836225E+03  0.47000000000E+01 0. -1.
          6    1    1    2  502    0 -0.11619707045E+03  0.15667790652E+03 -0.43794281448E+03  0.50934039141E+03  0.17200000000E+03 0. -1.
         -6    1    1    2    0  502  0.11619707045E+03 -0.15667790652E+03  0.46698447330E+03  0.53451681346E+03  0.17200000000E+03 0.  1.
</event>
<event>
 4    1 -0.6963162E-004  0.3208409E+03  0.7818608E-02  0.1075263E+00
         -5   -1    0    0    0  501 -0.00000000000E+00  0.00000000000E+00  0.29840011885E+03  0.29843713062E+03  0.47000000000E+01 0.  1.
          5   -1    0    0  501    0  0.00000000000E+00 -0.00000000000E+00 -0.53119569580E+03  0.53121648810E+03  0.47000000000E+01 0. -1.
          6    1    1    2  502    0  0.25804421448E+03  0.82268143160E+02 -0.36205021321E+03  0.48375533164E+03  0.17200000000E+03 0. -1.
         -6    1    1    2    0  502 -0.25804421448E+03 -0.82268143160E+02  0.12925463627E+03  0.34589828708E+03  0.17200000000E+03 0.  1.
</event>
<event>
 4    1 -0.6963162E-004  0.1953465E+03  0.7818608E-02  0.1153726E+00
          5   -1    0    0  501    0  0.00000000000E+00  0.00000000000E+00  0.88538745395E+02  0.88663405282E+02  0.47000000000E+01 0. -1.
         -5   -1    0    0    0  501 -0.00000000000E+00 -0.00000000000E+00 -0.63457596516E+03  0.63459337025E+03  0.47000000000E+01 0.  1.
          6    1    1    2  502    0 -0.21819984803E+02  0.90000892144E+02 -0.67995590937E+02  0.20684214443E+03  0.17200000000E+03 0. -1.
         -6    1    1    2    0  502  0.21819984803E+02 -0.90000892144E+02 -0.47804162883E+03  0.51641463111E+03  0.17200000000E+03 0.  1.
</event>
<event>
 4    1 -0.6963162E-004  0.3521671E+03  0.7818608E-02  0.1061729E+00
          5   -1    0    0  501    0  0.00000000000E+00  0.00000000000E+00  0.32723012883E+03  0.32726388009E+03  0.47000000000E+01 0. -1.
         -5   -1    0    0    0  501 -0.00000000000E+00 -0.00000000000E+00 -0.73666463333E+03  0.73667962643E+03  0.47000000000E+01 0.  1.
          6    1    1    2  502    0 -0.30682843635E+03 -0.17145214824E+02  0.16597521276E+03  0.38931917368E+03  0.17200000000E+03 0. -1.
         -6    1    1    2    0  502  0.30682843635E+03  0.17145214824E+02 -0.57540971726E+03  0.67462433284E+03  0.17200000000E+03 0. -1.
</event>
<event>
 4    1 -0.6963162E-004  0.1810579E+03  0.7818608E-02  0.1166783E+00
          5   -1    0    0  501    0  0.00000000000E+00  0.00000000000E+00  0.27586355428E+03  0.27590358928E+03  0.47000000000E+01 0. -1.
         -5   -1    0    0    0  501 -0.00000000000E+00 -0.00000000000E+00 -0.24708150840E+03  0.24712620620E+03  0.47000000000E+01 0.  1.
          6    1    1    2  502    0  0.54976677930E+02 -0.13248914745E+02  0.20282801411E+03  0.27188448313E+03  0.17200000000E+03 0. -1.
         -6    1    1    2    0  502 -0.54976677930E+02  0.13248914745E+02 -0.17404596823E+03  0.25114531235E+03  0.17200000000E+03 0.  1.
</event>
<event>
 4    1 -0.6963162E-004  0.1928901E+03  0.7818608E-02  0.1155880E+00
          5   -1    0    0  501    0  0.00000000000E+00  0.00000000000E+00  0.11506396166E+04  0.11506492156E+04  0.47000000000E+01 0. -1.
         -5   -1    0    0    0  501 -0.00000000000E+00 -0.00000000000E+00 -0.26569536538E+03  0.26573693229E+03  0.47000000000E+01 0.  1.
          6    1    1    2  502    0 -0.86704620845E+02  0.10242928861E+02  0.11061789025E+04  0.11228705950E+04  0.17200000000E+03 0. -1.
         -6    1    1    2    0  502  0.86704620845E+02 -0.10242928861E+02 -0.22123465124E+03  0.29351555287E+03  0.17200000000E+03 0.  1.
</event>
<event>
 4    1 -0.6963162E-004  0.2498870E+03  0.7818608E-02  0.1113376E+00
         -5   -1    0    0    0  501 -0.00000000000E+00  0.00000000000E+00  0.15523056026E+04  0.15523127178E+04  0.47000000000E+01 0.  1.
          5   -1    0    0  501    0  0.00000000000E+00 -0.00000000000E+00 -0.40088760500E+02  0.40363333837E+02  0.47000000000E+01 0. -1.
          6    1    1    2  502    0  0.12051339155E+02 -0.18087083553E+03  0.74563012370E+03  0.78638907373E+03  0.17200000000E+03 0. -1.
         -6    1    1    2    0  502 -0.12051339155E+02  0.18087083553E+03  0.76658671844E+03  0.80628697795E+03  0.17200000000E+03 0. -1.
</event>
<event>
 4    1 -0.6963162E-004  0.1950380E+03  0.7818608E-02  0.1153994E+00
         -5   -1    0    0    0  501 -0.00000000000E+00  0.00000000000E+00  0.11688926656E+04  0.11689021147E+04  0.47000000000E+01 0.  1.
          5   -1    0    0  501    0  0.00000000000E+00 -0.00000000000E+00 -0.98815896523E+02  0.98927606894E+02  0.47000000000E+01 0. -1.
          6    1    1    2  502    0 -0.82681460380E+02  0.40244207669E+02  0.15814319679E+02  0.19567808474E+03  0.17200000000E+03 0. -1.
         -6    1    1    2    0  502  0.82681460380E+02 -0.40244207669E+02  0.10542624494E+04  0.10721516368E+04  0.17200000000E+03 0.  1.
</event>
<event>
 4    1 -0.6963162E-004  0.3614260E+03  0.7818608E-02  0.1058021E+00
         -5   -1    0    0    0  501 -0.00000000000E+00  0.00000000000E+00  0.68058158212E+03  0.68059781069E+03  0.47000000000E+01 0.  1.
          5   -1    0    0  501    0  0.00000000000E+00 -0.00000000000E+00 -0.10814264699E+04  0.10814366833E+04  0.47000000000E+01 0. -1.
          6    1    1    2  502    0  0.29641972599E+03  0.11480456714E+03 -0.99944275119E+03  0.10627862229E+04  0.17200000000E+03 0. -1.
         -6    1    1    2    0  502 -0.29641972599E+03 -0.11480456714E+03  0.59859786337E+03  0.69924827109E+03  0.17200000000E+03 0.  1.
</event>
<event>
 4    1 -0.6963162E-004  0.2121639E+03  0.7818608E-02  0.1139864E+00
         -5   -1    0    0    0  501 -0.00000000000E+00  0.00000000000E+00  0.15712100282E+03  0.15719128324E+03  0.47000000000E+01 0.  1.
          5   -1    0    0  501    0  0.00000000000E+00 -0.00000000000E+00 -0.10526656563E+04  0.10526761486E+04  0.47000000000E+01 0. -1.
          6    1    1    2  502    0 -0.93106795437E+02 -0.82223166071E+02 -0.96389251319E+03  0.98696621085E+03  0.17200000000E+03 0. -1.
         -6    1    1    2    0  502  0.93106795437E+02  0.82223166071E+02  0.68347859738E+02  0.22290122101E+03  0.17200000000E+03 0.  1.
</event>
<event>
 4    1 -0.6963162E-004  0.1932627E+03  0.7818608E-02  0.1155551E+00
          5   -1    0    0  501    0  0.00000000000E+00  0.00000000000E+00  0.12120938475E+03  0.12130047383E+03  0.47000000000E+01 0. -1.
         -5   -1    0    0    0  501 -0.00000000000E+00 -0.00000000000E+00 -0.52391393193E+03  0.52393501321E+03  0.47000000000E+01 0.  1.
          6    1    1    2  502    0  0.75542015019E+02  0.45385834495E+02  0.57695755896E+01  0.19334879883E+03  0.17200000000E+03 0. -1.
         -6    1    1    2    0  502 -0.75542015019E+02 -0.45385834495E+02 -0.40847412278E+03  0.45188668821E+03  0.17200000000E+03 0.  1.
</event>
<event>
 4    1 -0.6963162E-004  0.2793496E+03  0.7818608E-02  0.1096045E+00
          5   -1    0    0  501    0  0.00000000000E+00  0.00000000000E+00  0.10044688198E+04  0.10044798156E+04  0.47000000000E+01 0. -1.
         -5   -1    0    0    0  501 -0.00000000000E+00 -0.00000000000E+00 -0.18389154275E+03  0.18395159552E+03  0.47000000000E+01 0.  1.
          6    1    1    2  502    0 -0.80354869366E+02 -0.20492751178E+03  0.86190220019E+03  0.90604171693E+03  0.17200000000E+03 0. -1.
         -6    1    1    2    0  502  0.80354869366E+02  0.20492751178E+03 -0.41324923145E+02  0.28238969420E+03  0.17200000000E+03 0.  1.
</event>
<event>
 4    1 -0.6963162E-004  0.2493026E+03  0.7818608E-02  0.1113746E+00
         -5   -1    0    0    0  501 -0.00000000000E+00  0.00000000000E+00  0.12653673815E+04  0.12653761101E+04  0.47000000000E+01 0.  1.
          5   -1    0    0  501    0  0.00000000000E+00 -0.00000000000E+00 -0.15743430021E+03  0.15750444084E+03  0.47000000000E+01 0. -1.
          6    1    1    2  502    0  0.14554914790E+03  0.10669220263E+03 -0.36185955545E+02  0.25191507286E+03  0.17200000000E+03 0. -1.
         -6    1    1    2    0  502 -0.14554914790E+03 -0.10669220263E+03  0.11441190368E+04  0.11709654781E+04  0.17200000000E+03 0.  1.
</event>
<event>
 4    1 -0.6963162E-004  0.2566008E+03  0.7818608E-02  0.1109203E+00
          5   -1    0    0  501    0  0.00000000000E+00  0.00000000000E+00  0.26232362748E+03  0.26236572858E+03  0.47000000000E+01 0. -1.
         -5   -1    0    0    0  501 -0.00000000000E+00 -0.00000000000E+00 -0.30517566604E+03  0.30521185616E+03  0.47000000000E+01 0.  1.
          6    1    1    2  502    0  0.16177964109E+03 -0.10043574833E+03  0.98217656469E+02  0.27475570942E+03  0.17200000000E+03 0. -1.
         -6    1    1    2    0  502 -0.16177964109E+03  0.10043574833E+03 -0.14106969503E+03  0.29282187533E+03  0.17200000000E+03 0.  1.
</event>
<event>
 4    1 -0.6963162E-004  0.2040171E+03  0.7818608E-02  0.1146393E+00
          5   -1    0    0  501    0  0.00000000000E+00  0.00000000000E+00  0.52005307974E+03  0.52007431753E+03  0.47000000000E+01 0. -1.
         -5   -1    0    0    0  501 -0.00000000000E+00 -0.00000000000E+00 -0.77173993670E+03  0.77175424838E+03  0.47000000000E+01 0.  1.
          6    1    1    2  502    0 -0.10784548585E+03  0.20207622179E+02  0.48566288384E+03  0.52677455667E+03  0.17200000000E+03 0. -1.
         -6    1    1    2    0  502  0.10784548585E+03 -0.20207622179E+02 -0.73734974079E+03  0.76505400924E+03  0.17200000000E+03 0.  1.
</event>
<event>
 4    1 -0.6963162E-004  0.1797851E+03  0.7818608E-02  0.1168011E+00
          5   -1    0    0  501    0  0.00000000000E+00  0.00000000000E+00  0.57347570458E+03  0.57349496401E+03  0.47000000000E+01 0. -1.
         -5   -1    0    0    0  501 -0.00000000000E+00 -0.00000000000E+00 -0.64191838313E+03  0.64193558914E+03  0.47000000000E+01 0.  1.
          6    1    1    2  502    0 -0.10358093255E+02  0.51297133140E+02  0.54620294583E+03  0.57503073309E+03  0.17200000000E+03 0. -1.
         -6    1    1    2    0  502  0.10358093255E+02 -0.51297133140E+02 -0.61464562438E+03  0.64039982006E+03  0.17200000000E+03 0.  1.
</event>
<event>
 4    1 -0.6963162E-004  0.4971389E+03  0.7818608E-02  0.1014528E+00
          5   -1    0    0  501    0  0.00000000000E+00  0.00000000000E+00  0.94386884216E+03  0.94388054393E+03  0.47000000000E+01 0. -1.
         -5   -1    0    0    0  501 -0.00000000000E+00 -0.00000000000E+00 -0.49543255341E+03  0.49545484656E+03  0.47000000000E+01 0.  1.
          6    1    1    2  502    0  0.26298427909E+03 -0.38523027040E+03  0.71838949340E+03  0.87363067512E+03  0.17200000000E+03 0. -1.
         -6    1    1    2    0  502 -0.26298427909E+03  0.38523027040E+03 -0.26995320465E+03  0.56570471536E+03  0.17200000000E+03 0.  1.
</event>
<event>
 4    1 -0.6963162E-004  0.1733223E+03  0.7818608E-02  0.1174427E+00
         -5   -1    0    0    0  501 -0.00000000000E+00  0.00000000000E+00  0.11877600862E+04  0.11877693851E+04  0.47000000000E+01 0.  1.
          5   -1    0    0  501    0  0.00000000000E+00 -0.00000000000E+00 -0.40967565031E+02  0.41236287231E+02  0.47000000000E+01 0. -1.
          6    1    1    2  502    0  0.14417387516E+02 -0.15771967115E+02  0.19220748864E+03  0.25881332017E+03  0.17200000000E+03 0. -1.
         -6    1    1    2    0  502 -0.14417387516E+02  0.15771967115E+02  0.95458503249E+03  0.97019235220E+03  0.17200000000E+03 0.  1.
</event>
<event>
 4    1 -0.6963162E-004  0.2510335E+03  0.7818608E-02  0.1112653E+00
         -5   -1    0    0    0  501 -0.00000000000E+00  0.00000000000E+00  0.76860788491E+02  0.77004355770E+02  0.47000000000E+01 0.  1.
          5   -1    0    0  501    0  0.00000000000E+00 -0.00000000000E+00 -0.11597292650E+04  0.11597387888E+04  0.47000000000E+01 0. -1.
          6    1    1    2  502    0 -0.92225651019E+02  0.15788677490E+03 -0.87659997665E+03  0.91183623719E+03  0.17200000000E+03 0. -1.
         -6    1    1    2    0  502  0.92225651019E+02 -0.15788677490E+03 -0.20626849990E+03  0.32490690735E+03  0.17200000000E+03 0.  1.
</event>
<event>
 4    1 -0.6963162E-004  0.2255488E+03  0.7818608E-02  0.1129813E+00
          5   -1    0    0  501    0  0.00000000000E+00  0.00000000000E+00  0.20166853418E+03  0.20172329483E+03  0.47000000000E+01 0. -1.
         -5   -1    0    0    0  501 -0.00000000000E+00 -0.00000000000E+00 -0.71863821959E+03  0.71865358877E+03  0.47000000000E+01 0.  1.
          6    1    1    2  502    0 -0.76163238147E+02 -0.12444838558E+03  0.11226191573E+03  0.25194240858E+03  0.17200000000E+03 0. -1.
         -6    1    1    2    0  502  0.76163238147E+02  0.12444838558E+03 -0.62923160114E+03  0.66843447502E+03  0.17200000000E+03 0.  1.
</event>
<event>
 4    1 -0.6963162E-004  0.1819235E+03  0.7818608E-02  0.1165954E+00
         -5   -1    0    0    0  501 -0.00000000000E+00  0.00000000000E+00  0.47881622615E+02  0.48111742686E+02  0.47000000000E+01 0.  1.
          5   -1    0    0  501    0  0.00000000000E+00 -0.00000000000E+00 -0.10460862103E+04  0.10460967687E+04  0.47000000000E+01 0. -1.
          6    1    1    2  502    0 -0.56558214484E+02  0.17701386011E+02 -0.81857363636E+03  0.83854574642E+03  0.17200000000E+03 0.  1.
         -6    1    1    2    0  502  0.56558214484E+02 -0.17701386011E+02 -0.17963095133E+03  0.25566276492E+03  0.17200000000E+03 0.  1.
</event>
<event>
 4    1 -0.6963162E-004  0.1969109E+03  0.7818608E-02  0.1152372E+00
          5   -1    0    0  501    0  0.00000000000E+00  0.00000000000E+00  0.12700568141E+03  0.12709261627E+03  0.47000000000E+01 0. -1.
         -5   -1    0    0    0  501 -0.00000000000E+00 -0.00000000000E+00 -0.81848383014E+03  0.81849732449E+03  0.47000000000E+01 0.  1.
          6    1    1    2  502    0  0.95288891254E+02 -0.10484702385E+02  0.28687231020E+02  0.19898959522E+03  0.17200000000E+03 0. -1.
         -6    1    1    2    0  502 -0.95288891254E+02  0.10484702385E+02 -0.72016537975E+03  0.74660034554E+03  0.17200000000E+03 0.  1.
</event>
<event>
 4    1 -0.6963162E-004  0.1874712E+03  0.7818608E-02  0.1160762E+00
         -5   -1    0    0    0  501 -0.00000000000E+00  0.00000000000E+00  0.49291204976E+03  0.49293445690E+03  0.47000000000E+01 0.  1.
          5   -1    0    0  501    0  0.00000000000E+00 -0.00000000000E+00 -0.18696128027E+03  0.18702034734E+03  0.47000000000E+01 0. -1.
          6    1    1    2  502    0  0.29137955117E+02  0.68647139067E+02 -0.11445164656E+03  0.21964660145E+03  0.17200000000E+03 0. -1.
         -6    1    1    2    0  502 -0.29137955117E+02 -0.68647139067E+02  0.42040241605E+03  0.46030820279E+03  0.17200000000E+03 0.  1.
</event>
<event>
 4    1 -0.6963162E-004  0.1831386E+03  0.7818608E-02  0.1164800E+00
         -5   -1    0    0    0  501 -0.00000000000E+00  0.00000000000E+00  0.45099214166E+03  0.45101663144E+03  0.47000000000E+01 0.  1.
          5   -1    0    0  501    0  0.00000000000E+00 -0.00000000000E+00 -0.16361172930E+03  0.16367922276E+03  0.47000000000E+01 0. -1.
          6    1    1    2  502    0  0.47157471440E+02 -0.41616270076E+02 -0.83337721837E+02  0.20120864029E+03  0.17200000000E+03 0. -1.
         -6    1    1    2    0  502 -0.47157471440E+02  0.41616270076E+02  0.37071813420E+03  0.41348721391E+03  0.17200000000E+03 0.  1.
</event>
<event>
 4    1 -0.6963162E-004  0.1825656E+03  0.7818608E-02  0.1165343E+00
          5   -1    0    0  501    0  0.00000000000E+00  0.00000000000E+00  0.33396115805E+03  0.33399422912E+03  0.47000000000E+01 0. -1.
         -5   -1    0    0    0  501 -0.00000000000E+00 -0.00000000000E+00 -0.23252259337E+03  0.23257008928E+03  0.47000000000E+01 0.  1.
          6    1    1    2  502    0 -0.52629961302E+02  0.31245742722E+02  0.26476310833E+03  0.32160490170E+03  0.17200000000E+03 0. -1.
         -6    1    1    2    0  502  0.52629961302E+02 -0.31245742722E+02 -0.16332454366E+03  0.24495941669E+03  0.17200000000E+03 0.  1.
</event>
<event>
 4    1 -0.6963162E-004  0.2261963E+03  0.7818608E-02  0.1129346E+00
          5   -1    0    0  501    0  0.00000000000E+00  0.00000000000E+00  0.37238933366E+03  0.37241899229E+03  0.47000000000E+01 0. -1.
         -5   -1    0    0    0  501 -0.00000000000E+00 -0.00000000000E+00 -0.61771621560E+03  0.61773409572E+03  0.47000000000E+01 0.  1.
          6    1    1    2  502    0 -0.14381322824E+03  0.29975164445E+02  0.31390234538E+03  0.38691011558E+03  0.17200000000E+03 0. -1.
         -6    1    1    2    0  502  0.14381322824E+03 -0.29975164445E+02 -0.55922922732E+03  0.60324297243E+03  0.17200000000E+03 0.  1.
</event>
<event>
 4    1 -0.6963162E-004  0.2210390E+03  0.7818608E-02  0.1133111E+00
          5   -1    0    0  501    0  0.00000000000E+00  0.00000000000E+00  0.19657441071E+03  0.19663059005E+03  0.47000000000E+01 0. -1.
         -5   -1    0    0    0  501 -0.00000000000E+00 -0.00000000000E+00 -0.55937710295E+03  0.55939684778E+03  0.47000000000E+01 0.  1.
          6    1    1    2  502    0 -0.12420258079E+03  0.62031915365E+02  0.10041172635E+03  0.24277717023E+03  0.17200000000E+03 0. -1.
         -6    1    1    2    0  502  0.12420258079E+03 -0.62031915365E+02 -0.46321441859E+03  0.51325026760E+03  0.17200000000E+03 0.  1.
</event>
<event>
 4    1 -0.6963162E-004  0.3376011E+03  0.7818608E-02  0.1067822E+00
          5   -1    0    0  501    0  0.00000000000E+00  0.00000000000E+00  0.49891732959E+03  0.49893946704E+03  0.47000000000E+01 0. -1.
         -5   -1    0    0    0  501 -0.00000000000E+00 -0.00000000000E+00 -0.34777282432E+03  0.34780458211E+03  0.47000000000E+01 0.  1.
          6    1    1    2  502    0  0.19345808392E+03 -0.21671284563E+03  0.32360118060E+03  0.46764539106E+03  0.17200000000E+03 0. -1.
         -6    1    1    2    0  502 -0.19345808392E+03  0.21671284563E+03 -0.17245667533E+03  0.37909865808E+03  0.17200000000E+03 0.  1.
</event>
<event>
 4    1 -0.6963162E-004  0.1739756E+03  0.7818608E-02  0.1173764E+00
         -5   -1    0    0    0  501 -0.00000000000E+00  0.00000000000E+00  0.57038153077E+03  0.57040089467E+03  0.47000000000E+01 0.  1.
          5   -1    0    0  501    0  0.00000000000E+00 -0.00000000000E+00 -0.92634850524E+02  0.92754005475E+02  0.47000000000E+01 0. -1.
          6    1    1    2  502    0 -0.26139953891E+02  0.45779596368E+00  0.22037679793E+02  0.17536580652E+03  0.17200000000E+03 0. -1.
         -6    1    1    2    0  502  0.26139953891E+02 -0.45779596368E+00  0.45570900045E+03  0.48778909362E+03  0.17200000000E+03 0.  1.
</event>
<event>
 4    1 -0.6963162E-004  0.4024111E+03  0.7818608E-02  0.1042948E+00
         -5   -1    0    0    0  501 -0.00000000000E+00  0.00000000000E+00  0.80196730986E+03  0.80198108213E+03  0.47000000000E+01 0.  1.
          5   -1    0    0  501    0  0.00000000000E+00 -0.00000000000E+00 -0.21054715715E+03  0.21059960917E+03  0.47000000000E+01 0. -1.
          6    1    1    2  502    0 -0.34576963978E+03 -0.11311077541E+03  0.19299833825E+03  0.44629928285E+03  0.17200000000E+03 0. -1.
         -6    1    1    2    0  502  0.34576963978E+03  0.11311077541E+03  0.39842181447E+03  0.56628140845E+03  0.17200000000E+03 0.  1.
</event>
<event>
 4    1 -0.6963162E-004  0.1813721E+03  0.7818608E-02  0.1166482E+00
         -5   -1    0    0    0  501 -0.00000000000E+00  0.00000000000E+00  0.33943067667E+03  0.33946321489E+03  0.47000000000E+01 0.  1.
          5   -1    0    0  501    0  0.00000000000E+00 -0.00000000000E+00 -0.17174910947E+03  0.17181340635E+03  0.47000000000E+01 0. -1.
          6    1    1    2  502    0 -0.57321008913E+02  0.51144037791E+01 -0.84949871024E+02  0.20028064254E+03  0.17200000000E+03 0. -1.
         -6    1    1    2    0  502  0.57321008913E+02 -0.51144037791E+01  0.25263143823E+03  0.31099597870E+03  0.17200000000E+03 0.  1.
</event>
<event>
 4    1 -0.6963162E-004  0.1797004E+03  0.7818608E-02  0.1168093E+00
         -5   -1    0    0    0  501 -0.00000000000E+00  0.00000000000E+00  0.62181400507E+03  0.62183176737E+03  0.47000000000E+01 0.  1.
          5   -1    0    0  501    0  0.00000000000E+00 -0.00000000000E+00 -0.76584831704E+02  0.76728915327E+02  0.47000000000E+01 0. -1.
          6    1    1    2  502    0 -0.42112048099E+02 -0.30574379289E+02  0.74199200675E+02  0.19441640529E+03  0.17200000000E+03 0. -1.
         -6    1    1    2    0  502  0.42112048099E+02  0.30574379289E+02  0.47102997269E+03  0.50414427741E+03  0.17200000000E+03 0.  1.
</event>
<event>
 4    1 -0.6963162E-004  0.2562495E+03  0.7818608E-02  0.1109418E+00
         -5   -1    0    0    0  501 -0.00000000000E+00  0.00000000000E+00  0.37580391756E+03  0.37583330674E+03  0.47000000000E+01 0.  1.
          5   -1    0    0  501    0  0.00000000000E+00 -0.00000000000E+00 -0.41941458994E+03  0.41944092344E+03  0.47000000000E+01 0. -1.
          6    1    1    2  502    0 -0.14979003234E+03 -0.11680229890E+03 -0.32553776685E+03  0.41429297419E+03  0.17200000000E+03 0. -1.
         -6    1    1    2    0  502  0.14979003234E+03  0.11680229890E+03  0.28192709448E+03  0.38098125599E+03  0.17200000000E+03 0.  1.
</event>
<event>
 4    1 -0.6963162E-004  0.2002240E+03  0.7818608E-02  0.1149550E+00
          5   -1    0    0  501    0  0.00000000000E+00  0.00000000000E+00  0.75640686864E+02  0.75786565493E+02  0.47000000000E+01 0. -1.
         -5   -1    0    0    0  501 -0.00000000000E+00 -0.00000000000E+00 -0.55135877215E+03  0.55137880411E+03  0.47000000000E+01 0.  1.
          6    1    1    2  502    0  0.94646434415E+02 -0.39340758339E+02 -0.17519422762E+03  0.26605010845E+03  0.17200000000E+03 0. -1.
         -6    1    1    2    0  502 -0.94646434415E+02  0.39340758339E+02 -0.30052385767E+03  0.36111526116E+03  0.17200000000E+03 0.  1.
</event>
<event>
 4    1 -0.6963162E-004  0.2325595E+03  0.7818608E-02  0.1124851E+00
          5   -1    0    0  501    0  0.00000000000E+00  0.00000000000E+00  0.10403489318E+03  0.10414100536E+03  0.47000000000E+01 0. -1.
         -5   -1    0    0    0  501 -0.00000000000E+00 -0.00000000000E+00 -0.71141132368E+03  0.71142684898E+03  0.47000000000E+01 0.  1.
          6    1    1    2  502    0  0.15565894796E+03  0.16438679207E+02 -0.91899553968E+02  0.25005892560E+03  0.17200000000E+03 0. -1.
         -6    1    1    2    0  502 -0.15565894796E+03 -0.16438679207E+02 -0.51547687653E+03  0.56550892875E+03  0.17200000000E+03 0.  1.
</event>
<event>
 4    1 -0.6963162E-004  0.1746762E+03  0.7818608E-02  0.1173057E+00
          5   -1    0    0  501    0  0.00000000000E+00  0.00000000000E+00  0.86287570334E+02  0.86415477747E+02  0.47000000000E+01 0. -1.
         -5   -1    0    0    0  501 -0.00000000000E+00 -0.00000000000E+00 -0.76080508444E+03  0.76081960181E+03  0.47000000000E+01 0.  1.
          6    1    1    2  502    0 -0.29728125537E+02  0.66342400434E+01 -0.27221518784E+02  0.17678457420E+03  0.17200000000E+03 0. -1.
         -6    1    1    2    0  502  0.29728125537E+02 -0.66342400434E+01 -0.64729599532E+03  0.67045050536E+03  0.17200000000E+03 0.  1.
</event>
<event>
 4    1 -0.6963162E-004  0.1903881E+03  0.7818608E-02  0.1158112E+00
         -5   -1    0    0    0  501 -0.00000000000E+00  0.00000000000E+00  0.57109351276E+03  0.57111285252E+03  0.47000000000E+01 0.  1.
          5   -1    0    0  501    0  0.00000000000E+00 -0.00000000000E+00 -0.28416577329E+03  0.28420463879E+03  0.47000000000E+01 0. -1.
          6    1    1    2  502    0  0.44814239637E+01 -0.81507884374E+02 -0.23342865112E+03  0.30122508783E+03  0.17200000000E+03 0. -1.
         -6    1    1    2    0  502 -0.44814239637E+01  0.81507884374E+02  0.52035639058E+03  0.55409240348E+03  0.17200000000E+03 0.  1.
</event>
<event>
 4    1 -0.6963162E-004  0.1936360E+03  0.7818608E-02  0.1155222E+00
          5   -1    0    0  501    0  0.00000000000E+00  0.00000000000E+00  0.15177339797E+03  0.15184615350E+03  0.47000000000E+01 0. -1.
         -5   -1    0    0    0  501 -0.00000000000E+00 -0.00000000000E+00 -0.29881580441E+03  0.29885276469E+03  0.47000000000E+01 0.  1.
          6    1    1    2  502    0  0.68285925017E+02  0.56990505597E+02  0.20399268440E+02  0.19470751253E+03  0.17200000000E+03 0. -1.
         -6    1    1    2    0  502 -0.68285925017E+02 -0.56990505597E+02 -0.16744167488E+03  0.25599140566E+03  0.17200000000E+03 0.  1.
</event>
<event>
 4    1 -0.6963162E-004  0.1751206E+03  0.7818608E-02  0.1172611E+00
          5   -1    0    0  501    0  0.00000000000E+00  0.00000000000E+00  0.17497103881E+03  0.17503415216E+03  0.47000000000E+01 0. -1.
         -5   -1    0    0    0  501 -0.00000000000E+00 -0.00000000000E+00 -0.20403321397E+03  0.20408734014E+03  0.47000000000E+01 0.  1.
          6    1    1    2  502    0 -0.31887260058E+02  0.81493447385E+01  0.56776655788E+02  0.18409453500E+03  0.17200000000E+03 0.  1.
         -6    1    1    2    0  502  0.31887260058E+02 -0.81493447385E+01 -0.85838830951E+02  0.19502695730E+03  0.17200000000E+03 0.  1.
</event>
<event>
 4    1 -0.6963162E-004  0.1979130E+03  0.7818608E-02  0.1151512E+00
         -5   -1    0    0    0  501 -0.00000000000E+00  0.00000000000E+00  0.52626910387E+03  0.52629009081E+03  0.47000000000E+01 0.  1.
          5   -1    0    0  501    0  0.00000000000E+00 -0.00000000000E+00 -0.82342414060E+02  0.82476439988E+02  0.47000000000E+01 0. -1.
          6    1    1    2  502    0  0.54074001772E+02  0.81618408793E+02  0.12711998439E+03  0.23522128465E+03  0.17200000000E+03 0.  1.
         -6    1    1    2    0  502 -0.54074001772E+02 -0.81618408793E+02  0.31680670542E+03  0.37354524615E+03  0.17200000000E+03 0.  1.
</event>
<event>
 4    1 -0.6963162E-004  0.1836559E+03  0.7818608E-02  0.1164311E+00
          5   -1    0    0  501    0  0.00000000000E+00  0.00000000000E+00  0.38812314022E+03  0.38815159664E+03  0.47000000000E+01 0. -1.
         -5   -1    0    0    0  501 -0.00000000000E+00 -0.00000000000E+00 -0.52991584800E+03  0.52993669053E+03  0.47000000000E+01 0.  1.
          6    1    1    2  502    0 -0.54889794112E+02  0.33654295295E+02  0.34882715390E+03  0.39422060371E+03  0.17200000000E+03 0. -1.
         -6    1    1    2    0  502  0.54889794112E+02 -0.33654295295E+02 -0.49061986169E+03  0.52386768346E+03  0.17200000000E+03 0.  1.
</event>
<event>
 4    1 -0.6963162E-004  0.2007998E+03  0.7818608E-02  0.1149066E+00
         -5   -1    0    0    0  501 -0.00000000000E+00  0.00000000000E+00  0.43794179124E+03  0.43796701076E+03  0.47000000000E+01 0.  1.
          5   -1    0    0  501    0  0.00000000000E+00 -0.00000000000E+00 -0.26061095277E+03  0.26065333050E+03  0.47000000000E+01 0. -1.
          6    1    1    2  502    0  0.17015765787E+02 -0.10221071763E+03 -0.19226211838E+03  0.27800231878E+03  0.17200000000E+03 0. -1.
         -6    1    1    2    0  502 -0.17015765787E+02  0.10221071763E+03  0.36959295686E+03  0.42061802249E+03  0.17200000000E+03 0.  1.
</event>
<event>
 4    1 -0.6963162E-004  0.3300721E+03  0.7818608E-02  0.1071105E+00
         -5   -1    0    0    0  501 -0.00000000000E+00  0.00000000000E+00  0.75736983197E+03  0.75738441519E+03  0.47000000000E+01 0.  1.
          5   -1    0    0  501    0  0.00000000000E+00 -0.00000000000E+00 -0.32502642274E+03  0.32506040281E+03  0.47000000000E+01 0. -1.
          6    1    1    2  502    0 -0.28170056491E+03  0.28925703196E+01 -0.18792545744E+03  0.37982042176E+03  0.17200000000E+03 0. -1.
         -6    1    1    2    0  502  0.28170056491E+03 -0.28925703196E+01  0.62026886667E+03  0.70262439624E+03  0.17200000000E+03 0.  1.
</event>
<event>
 4    1 -0.6963162E-004  0.1968256E+03  0.7818608E-02  0.1152445E+00
         -5   -1    0    0    0  501 -0.00000000000E+00  0.00000000000E+00  0.12085241681E+04  0.12085333074E+04  0.47000000000E+01 0.  1.
          5   -1    0    0  501    0  0.00000000000E+00 -0.00000000000E+00 -0.15772214842E+03  0.15779216109E+03  0.47000000000E+01 0. -1.
          6    1    1    2  502    0 -0.43427803486E+02 -0.85266359143E+02 -0.84420676584E+02  0.21416623626E+03  0.17200000000E+03 0. -1.
         -6    1    1    2    0  502  0.43427803486E+02  0.85266359143E+02  0.11352226963E+04  0.11521592322E+04  0.17200000000E+03 0.  1.
</event>
<event>
 4    1 -0.6963162E-004  0.1797341E+03  0.7818608E-02  0.1168061E+00
          5   -1    0    0  501    0  0.00000000000E+00  0.00000000000E+00  0.53431483566E+02  0.53637798576E+02  0.47000000000E+01 0. -1.
         -5   -1    0    0    0  501 -0.00000000000E+00 -0.00000000000E+00 -0.11715503527E+04  0.11715597804E+04  0.47000000000E+01 0.  1.
          6    1    1    2  502    0  0.14918346104E+02  0.49977798522E+02 -0.13242306850E+03  0.22324920261E+03  0.17200000000E+03 0. -1.
         -6    1    1    2    0  502 -0.14918346104E+02 -0.49977798522E+02 -0.98569580065E+03  0.10019483763E+04  0.17200000000E+03 0.  1.
</event>
<event>
 4    1 -0.6963162E-004  0.1833771E+03  0.7818608E-02  0.1164574E+00
          5   -1    0    0  501    0  0.00000000000E+00  0.00000000000E+00  0.10266445479E+03  0.10277198197E+03  0.47000000000E+01 0. -1.
         -5   -1    0    0    0  501 -0.00000000000E+00 -0.00000000000E+00 -0.82514659683E+03  0.82515998222E+03  0.47000000000E+01 0.  1.
          6    1    1    2  502    0  0.49552865266E+02  0.39845734689E+02 -0.86471749544E+00  0.18337916121E+03  0.17200000000E+03 0. -1.
         -6    1    1    2    0  502 -0.49552865266E+02 -0.39845734689E+02 -0.72161742454E+03  0.74455280298E+03  0.17200000000E+03 0.  1.
</event>
<event>
 4    1 -0.6963162E-004  0.2447594E+03  0.7818608E-02  0.1116662E+00
          5   -1    0    0  501    0  0.00000000000E+00  0.00000000000E+00  0.16794709165E+03  0.16801284354E+03  0.47000000000E+01 0. -1.
         -5   -1    0    0    0  501 -0.00000000000E+00 -0.00000000000E+00 -0.10691777620E+04  0.10691880923E+04  0.47000000000E+01 0.  1.
          6    1    1    2  502    0 -0.17413473450E+03  0.49517043242E+00  0.54393130473E+02  0.25073046005E+03  0.17200000000E+03 0. -1.
         -6    1    1    2    0  502  0.17413473450E+03 -0.49517043242E+00 -0.95562380083E+03  0.98647047583E+03  0.17200000000E+03 0.  1.
</event>
<event>
 4    1 -0.6963162E-004  0.1742856E+03  0.7818608E-02  0.1173451E+00
          5   -1    0    0  501    0  0.00000000000E+00  0.00000000000E+00  0.26906889316E+03  0.26910993899E+03  0.47000000000E+01 0. -1.
         -5   -1    0    0    0  501 -0.00000000000E+00 -0.00000000000E+00 -0.47769485799E+03  0.47771797889E+03  0.47000000000E+01 0.  1.
          6    1    1    2  502    0  0.22221304089E+02 -0.17253167169E+02  0.22201738995E+03  0.28225375033E+03  0.17200000000E+03 0. -1.
         -6    1    1    2    0  502 -0.22221304089E+02  0.17253167169E+02 -0.43064335479E+03  0.46457416755E+03  0.17200000000E+03 0.  1.
</event>
<event>
 4    1 -0.6963162E-004  0.1836172E+03  0.7818608E-02  0.1164348E+00
         -5   -1    0    0    0  501 -0.00000000000E+00  0.00000000000E+00  0.57278291259E+03  0.57280219531E+03  0.47000000000E+01 0.  1.
          5   -1    0    0  501    0  0.00000000000E+00 -0.00000000000E+00 -0.11637088910E+03  0.11646576248E+03  0.47000000000E+01 0. -1.
          6    1    1    2  502    0  0.91764034625E+01 -0.63616560532E+02 -0.14138749933E+02  0.18416073795E+03  0.17200000000E+03 0. -1.
         -6    1    1    2    0  502 -0.91764034625E+01  0.63616560532E+02  0.47055077343E+03  0.50510721983E+03  0.17200000000E+03 0.  1.
</event>
<event>
 4    1 -0.6963162E-004  0.3562157E+03  0.7818608E-02  0.1060092E+00
         -5   -1    0    0    0  501 -0.00000000000E+00  0.00000000000E+00  0.44312295120E+03  0.44314787586E+03  0.47000000000E+01 0.  1.
          5   -1    0    0  501    0  0.00000000000E+00 -0.00000000000E+00 -0.36253004313E+03  0.36256050829E+03  0.47000000000E+01 0. -1.
          6    1    1    2  502    0 -0.49456071138E+02 -0.30799303727E+03 -0.14441809184E+03  0.38437767786E+03  0.17200000000E+03 0. -1.
         -6    1    1    2    0  502  0.49456071138E+02  0.30799303727E+03  0.22501099992E+03  0.42133070630E+03  0.17200000000E+03 0.  1.
</event>
<event>
 4    1 -0.6963162E-004  0.1759606E+03  0.7818608E-02  0.1171771E+00
          5   -1    0    0  501    0  0.00000000000E+00  0.00000000000E+00  0.22837647684E+03  0.22842483485E+03  0.47000000000E+01 0. -1.
         -5   -1    0    0    0  501 -0.00000000000E+00 -0.00000000000E+00 -0.40366786087E+03  0.40369522154E+03  0.47000000000E+01 0.  1.
          6    1    1    2  502    0 -0.36949351289E+02 -0.35887690536E+01  0.16994409086E+03  0.24462855075E+03  0.17200000000E+03 0. -1.
         -6    1    1    2    0  502  0.36949351289E+02  0.35887690536E+01 -0.34523547489E+03  0.38749150564E+03  0.17200000000E+03 0.  1.
</event>
<event>
 4    1 -0.6963162E-004  0.2171479E+03  0.7818608E-02  0.1136027E+00
         -5   -1    0    0    0  501 -0.00000000000E+00  0.00000000000E+00  0.50782804213E+03  0.50784979116E+03  0.47000000000E+01 0.  1.
          5   -1    0    0  501    0  0.00000000000E+00 -0.00000000000E+00 -0.17412177981E+03  0.17418520088E+03  0.47000000000E+01 0. -1.
          6    1    1    2  502    0 -0.39882897983E+00  0.13254823207E+03 -0.66167455736E+02  0.22700512128E+03  0.17200000000E+03 0. -1.
         -6    1    1    2    0  502  0.39882897983E+00 -0.13254823207E+03  0.39987371805E+03  0.45502987076E+03  0.17200000000E+03 0.  1.
</event>
<event>
 4    1 -0.6963162E-004  0.1971811E+03  0.7818608E-02  0.1152139E+00
          5   -1    0    0  501    0  0.00000000000E+00  0.00000000000E+00  0.22919700914E+02  0.23396638434E+02  0.47000000000E+01 0. -1.
         -5   -1    0    0    0  501 -0.00000000000E+00 -0.00000000000E+00 -0.22045703494E+04  0.22045753595E+04  0.47000000000E+01 0.  1.
          6    1    1    2  502    0  0.64034319054E+02  0.72083307896E+02 -0.54667030961E+03  0.58114440951E+03  0.17200000000E+03 0. -1.
         -6    1    1    2    0  502 -0.64034319054E+02 -0.72083307896E+02 -0.16349803389E+04  0.16468275884E+04  0.17200000000E+03 0.  1.
</event>
<event>
 4    1 -0.6963162E-004  0.1839158E+03  0.7818608E-02  0.1164066E+00
          5   -1    0    0  501    0  0.00000000000E+00  0.00000000000E+00  0.49044846923E+03  0.49047098892E+03  0.47000000000E+01 0. -1.
         -5   -1    0    0    0  501 -0.00000000000E+00 -0.00000000000E+00 -0.88391372412E+02  0.88516239848E+02  0.47000000000E+01 0.  1.
          6    1    1    2  502    0 -0.35097353382E+02  0.54856274408E+02  0.33697189700E+03  0.38389463974E+03  0.17200000000E+03 0. -1.
         -6    1    1    2    0  502  0.35097353382E+02 -0.54856274408E+02  0.65085199819E+02  0.19509258902E+03  0.17200000000E+03 0.  1.
</event>
<event>
 4    1 -0.6963162E-004  0.2101873E+03  0.7818608E-02  0.1141418E+00
          5   -1    0    0  501    0  0.00000000000E+00  0.00000000000E+00  0.34768811923E+03  0.34771988475E+03  0.47000000000E+01 0. -1.
         -5   -1    0    0    0  501 -0.00000000000E+00 -0.00000000000E+00 -0.12791989097E+03  0.12800620495E+03  0.47000000000E+01 0.  1.
          6    1    1    2  502    0 -0.11630607335E+03  0.32673859358E+02  0.13023040892E+03  0.24726229634E+03  0.17200000000E+03 0. -1.
         -6    1    1    2    0  502  0.11630607335E+03 -0.32673859358E+02  0.89537819340E+02  0.22846379336E+03  0.17200000000E+03 0.  1.
</event>
<event>
 4    1 -0.6963162E-004  0.2273735E+03  0.7818608E-02  0.1128502E+00
          5   -1    0    0  501    0  0.00000000000E+00  0.00000000000E+00  0.21196146039E+03  0.21201356251E+03  0.47000000000E+01 0. -1.
         -5   -1    0    0    0  501 -0.00000000000E+00 -0.00000000000E+00 -0.27859057958E+03  0.27863022275E+03  0.47000000000E+01 0.  1.
          6    1    1    2  502    0 -0.65205354929E+02  0.13365249550E+03  0.53361793328E+02  0.23355129811E+03  0.17200000000E+03 0. -1.
         -6    1    1    2    0  502  0.65205354929E+02 -0.13365249550E+03 -0.11999091252E+03  0.25709248715E+03  0.17200000000E+03 0.  1.
</event>
<event>
 4    1 -0.6963162E-004  0.2531228E+03  0.7818608E-02  0.1111347E+00
         -5   -1    0    0    0  501 -0.00000000000E+00  0.00000000000E+00  0.98273296159E+03  0.98274420059E+03  0.47000000000E+01 0.  1.
          5   -1    0    0  501    0  0.00000000000E+00 -0.00000000000E+00 -0.33638322103E+03  0.33641605401E+03  0.47000000000E+01 0. -1.
          6    1    1    2  502    0  0.18522928839E+03  0.13313237179E+02 -0.26905306427E+03  0.36940585127E+03  0.17200000000E+03 0. -1.
         -6    1    1    2    0  502 -0.18522928839E+03 -0.13313237179E+02  0.91540280483E+03  0.94975440333E+03  0.17200000000E+03 0.  1.
</event>
<event>
 4    1 -0.6963162E-004  0.1936372E+03  0.7818608E-02  0.1155221E+00
         -5   -1    0    0    0  501 -0.00000000000E+00  0.00000000000E+00  0.87530365882E+03  0.87531627721E+03  0.47000000000E+01 0.  1.
          5   -1    0    0  501    0  0.00000000000E+00 -0.00000000000E+00 -0.23934926086E+03  0.23939540236E+03  0.47000000000E+01 0. -1.
          6    1    1    2  502    0  0.71673761521E+02  0.52671169740E+02 -0.18705461629E+03  0.26923003118E+03  0.17200000000E+03 0. -1.
         -6    1    1    2    0  502 -0.71673761521E+02 -0.52671169740E+02  0.82300901426E+03  0.84548164839E+03  0.17200000000E+03 0.  1.
</event>
<event>
 4    1 -0.6963162E-004  0.4105984E+03  0.7818608E-02  0.1040170E+00
          5   -1    0    0  501    0  0.00000000000E+00  0.00000000000E+00  0.86347064776E+02  0.86474884189E+02  0.47000000000E+01 0. -1.
         -5   -1    0    0    0  501 -0.00000000000E+00 -0.00000000000E+00 -0.30633050069E+04  0.30633086125E+04  0.47000000000E+01 0.  1.
          6    1    1    2  502    0 -0.22760529239E+02 -0.37214110917E+03 -0.53945684151E+03  0.67794153928E+03  0.17200000000E+03 0. -1.
         -6    1    1    2    0  502  0.22760529239E+02  0.37214110917E+03 -0.24375011006E+04  0.24718419574E+04  0.17200000000E+03 0.  1.
</event>
<event>
 4    1 -0.6963162E-004  0.2372943E+03  0.7818608E-02  0.1121609E+00
          5   -1    0    0  501    0  0.00000000000E+00  0.00000000000E+00  0.12401128668E+03  0.12410031919E+03  0.47000000000E+01 0. -1.
         -5   -1    0    0    0  501 -0.00000000000E+00 -0.00000000000E+00 -0.24865662978E+04  0.24865707397E+04  0.47000000000E+01 0.  1.
          6    1    1    2  502    0  0.49856660435E+01 -0.16340046122E+03 -0.10729915092E+01  0.23729668962E+03  0.17200000000E+03 0. -1.
         -6    1    1    2    0  502 -0.49856660435E+01  0.16340046122E+03 -0.23614820197E+04  0.23733743693E+04  0.17200000000E+03 0.  1.
</event>
<event>
 4    1 -0.6963162E-004  0.2698350E+03  0.7818608E-02  0.1101374E+00
         -5   -1    0    0    0  501 -0.00000000000E+00  0.00000000000E+00  0.51692385779E+02  0.51905613834E+02  0.47000000000E+01 0.  1.
          5   -1    0    0  501    0  0.00000000000E+00 -0.00000000000E+00 -0.20053003741E+04  0.20053058820E+04  0.47000000000E+01 0. -1.
          6    1    1    2  502    0  0.18484742427E+02  0.20708749402E+03 -0.15393596948E+04  0.15628305045E+04  0.17200000000E+03 0. -1.
         -6    1    1    2    0  502 -0.18484742427E+02 -0.20708749402E+03 -0.41424829353E+03  0.49438099131E+03  0.17200000000E+03 0.  1.
</event>
<event>
 4    1 -0.6963162E-004  0.1898223E+03  0.7818608E-02  0.1158622E+00
         -5   -1    0    0    0  501 -0.00000000000E+00  0.00000000000E+00  0.38079526789E+03  0.38082427187E+03  0.47000000000E+01 0.  1.
          5   -1    0    0  501    0  0.00000000000E+00 -0.00000000000E+00 -0.62610540019E+03  0.62612304074E+03  0.47000000000E+01 0. -1.
          6    1    1    2  502    0 -0.60696355279E+01 -0.80072861156E+02 -0.58652981024E+03  0.61648172874E+03  0.17200000000E+03 0. -1.
         -6    1    1    2    0  502  0.60696355279E+01  0.80072861156E+02  0.34121967795E+03  0.39046558387E+03  0.17200000000E+03 0.  1.
</event>
<event>
 4    1 -0.6963162E-004  0.2123182E+03  0.7818608E-02  0.1139743E+00
         -5   -1    0    0    0  501 -0.00000000000E+00  0.00000000000E+00  0.30211174805E+03  0.30214830516E+03  0.47000000000E+01 0.  1.
          5   -1    0    0  501    0  0.00000000000E+00 -0.00000000000E+00 -0.35109096362E+03  0.35112242130E+03  0.47000000000E+01 0. -1.
          6    1    1    2  502    0  0.12433117108E+03  0.60648191641E+01 -0.27219266161E+03  0.34520699177E+03  0.17200000000E+03 0. -1.
         -6    1    1    2    0  502 -0.12433117108E+03 -0.60648191641E+01  0.22321344604E+03  0.30806373468E+03  0.17200000000E+03 0.  1.
</event>
<event>
 4    1 -0.6963162E-004  0.1839829E+03  0.7818608E-02  0.1164003E+00
         -5   -1    0    0    0  501 -0.00000000000E+00  0.00000000000E+00  0.21257412864E+03  0.21262608063E+03  0.47000000000E+01 0.  1.
          5   -1    0    0  501    0  0.00000000000E+00 -0.00000000000E+00 -0.17251617384E+03  0.17258018495E+03  0.47000000000E+01 0. -1.
          6    1    1    2  502    0  0.57499777527E+02  0.30975809072E+02 -0.33601098579E+02  0.18702609173E+03  0.17200000000E+03 0. -1.
         -6    1    1    2    0  502 -0.57499777527E+02 -0.30975809072E+02  0.73659053372E+02  0.19818017385E+03  0.17200000000E+03 0.  1.
</event>
<event>
 4    1 -0.6963162E-004  0.1898320E+03  0.7818608E-02  0.1158613E+00
          5   -1    0    0  501    0  0.00000000000E+00  0.00000000000E+00  0.12183777207E+04  0.12183867860E+04  0.47000000000E+01 0. -1.
         -5   -1    0    0    0  501 -0.00000000000E+00 -0.00000000000E+00 -0.17594656326E+03  0.17600932680E+03  0.47000000000E+01 0.  1.
          6    1    1    2  502    0  0.68515905744E+02 -0.41925435849E+02  0.11571336251E+04  0.11726015511E+04  0.17200000000E+03 0. -1.
         -6    1    1    2    0  502 -0.68515905744E+02  0.41925435849E+02 -0.11470246760E+03  0.22179456167E+03  0.17200000000E+03 0.  1.
</event>
<event>
 4    1 -0.6963162E-004  0.1731689E+03  0.7818608E-02  0.1174583E+00
          5   -1    0    0  501    0  0.00000000000E+00  0.00000000000E+00  0.43125718859E+03  0.43128279900E+03  0.47000000000E+01 0. -1.
         -5   -1    0    0    0  501 -0.00000000000E+00 -0.00000000000E+00 -0.39144468174E+03  0.39147289672E+03  0.47000000000E+01 0.  1.
          6    1    1    2  502    0  0.13280463113E+02 -0.15070134410E+02  0.39296640015E+03  0.42942993759E+03  0.17200000000E+03 0. -1.
         -6    1    1    2    0  502 -0.13280463113E+02  0.15070134410E+02 -0.35315389330E+03  0.39332575813E+03  0.17200000000E+03 0.  1.
</event>
<event>
 4    1 -0.6963162E-004  0.1886395E+03  0.7818608E-02  0.1159694E+00
          5   -1    0    0  501    0  0.00000000000E+00  0.00000000000E+00  0.14390178905E+03  0.14397852233E+03  0.47000000000E+01 0. -1.
         -5   -1    0    0    0  501 -0.00000000000E+00 -0.00000000000E+00 -0.51138329622E+03  0.51140489405E+03  0.47000000000E+01 0.  1.
          6    1    1    2  502    0 -0.32495839727E+02 -0.70319724034E+02  0.51798577884E+02  0.19562192070E+03  0.17200000000E+03 0. -1.
         -6    1    1    2    0  502  0.32495839727E+02  0.70319724034E+02 -0.41928008505E+03  0.45976149568E+03  0.17200000000E+03 0.  1.
</event>
<event>
 4    1 -0.6963162E-004  0.2357321E+03  0.7818608E-02  0.1122669E+00
         -5   -1    0    0    0  501 -0.00000000000E+00  0.00000000000E+00  0.37332878016E+03  0.37335836417E+03  0.47000000000E+01 0.  1.
          5   -1    0    0  501    0  0.00000000000E+00 -0.00000000000E+00 -0.32607837752E+03  0.32611224798E+03  0.47000000000E+01 0. -1.
          6    1    1    2  502    0  0.45457851700E+02 -0.15465832153E+03 -0.23423218644E+03  0.33231661088E+03  0.17200000000E+03 0. -1.
         -6    1    1    2    0  502 -0.45457851700E+02  0.15465832153E+03  0.28148258908E+03  0.36715400128E+03  0.17200000000E+03 0.  1.
</event>
<event>
 4    1 -0.6963162E-004  0.1911195E+03  0.7818608E-02  0.1157455E+00
          5   -1    0    0  501    0  0.00000000000E+00  0.00000000000E+00  0.40660485814E+02  0.40931224103E+02  0.47000000000E+01 0. -1.
         -5   -1    0    0    0  501 -0.00000000000E+00 -0.00000000000E+00 -0.95285980153E+03  0.95287139288E+03  0.47000000000E+01 0.  1.
          6    1    1    2  502    0  0.61210637981E+02  0.56532536821E+02 -0.33375191767E+03  0.38459980821E+03  0.17200000000E+03 0. -1.
         -6    1    1    2    0  502 -0.61210637981E+02 -0.56532536821E+02 -0.57844739804E+03  0.60920280878E+03  0.17200000000E+03 0.  1.
</event>
<event>
 4    1 -0.6963162E-004  0.1935789E+03  0.7818608E-02  0.1155272E+00
          5   -1    0    0  501    0  0.00000000000E+00  0.00000000000E+00  0.12127774116E+03  0.12136877894E+03  0.47000000000E+01 0. -1.
         -5   -1    0    0    0  501 -0.00000000000E+00 -0.00000000000E+00 -0.85873736343E+03  0.85875022524E+03  0.47000000000E+01 0.  1.
          6    1    1    2  502    0 -0.77763063682E+02 -0.42914978693E+02  0.23429480867E+02  0.19499161531E+03  0.17200000000E+03 0. -1.
         -6    1    1    2    0  502  0.77763063682E+02  0.42914978693E+02 -0.76088910313E+03  0.78512738886E+03  0.17200000000E+03 0.  1.
</event>
<event>
 4    1 -0.6963162E-004  0.4630454E+03  0.7818608E-02  0.1023902E+00
          5   -1    0    0  501    0  0.00000000000E+00  0.00000000000E+00  0.56455592234E+03  0.56457548605E+03  0.47000000000E+01 0. -1.
         -5   -1    0    0    0  501 -0.00000000000E+00 -0.00000000000E+00 -0.41791385043E+03  0.41794027849E+03  0.47000000000E+01 0.  1.
          6    1    1    2  502    0  0.16506825272E+03 -0.39696285764E+03  0.22177378454E+03  0.51341469585E+03  0.17200000000E+03 0. -1.
         -6    1    1    2    0  502 -0.16506825272E+03  0.39696285764E+03 -0.75131712633E+02  0.46910106869E+03  0.17200000000E+03 0.  1.
</event>
<event>
 4    1 -0.6963162E-004  0.1896356E+03  0.7818608E-02  0.1158790E+00
          5   -1    0    0  501    0  0.00000000000E+00  0.00000000000E+00  0.39085257617E+03  0.39088083389E+03  0.47000000000E+01 0. -1.
         -5   -1    0    0    0  501 -0.00000000000E+00 -0.00000000000E+00 -0.14047445586E+03  0.14055306026E+03  0.47000000000E+01 0.  1.
          6    1    1    2  502    0 -0.79353083568E+02  0.89869905447E+01  0.28134296794E+03  0.33928681595E+03  0.17200000000E+03 0.  1.
         -6    1    1    2    0  502  0.79353083568E+02 -0.89869905447E+01 -0.30964847631E+02  0.19214707820E+03  0.17200000000E+03 0.  1.
</event>
<event>
 4    1 -0.6963162E-004  0.2097189E+03  0.7818608E-02  0.1141789E+00
         -5   -1    0    0    0  501 -0.00000000000E+00  0.00000000000E+00  0.11521340753E+04  0.11521436618E+04  0.47000000000E+01 0.  1.
          5   -1    0    0  501    0  0.00000000000E+00 -0.00000000000E+00 -0.11046401998E+03  0.11056396207E+03  0.47000000000E+01 0. -1.
          6    1    1    2  502    0  0.61857588612E+02 -0.10281857154E+03  0.10021212335E+02  0.20995819731E+03  0.17200000000E+03 0. -1.
         -6    1    1    2    0  502 -0.61857588612E+02  0.10281857154E+03  0.10316488430E+04  0.10527494266E+04  0.17200000000E+03 0.  1.
</event>
<event>
 4    1 -0.6963162E-004  0.2203819E+03  0.7818608E-02  0.1133599E+00
          5   -1    0    0  501    0  0.00000000000E+00  0.00000000000E+00  0.87136255665E+02  0.87262919108E+02  0.47000000000E+01 0. -1.
         -5   -1    0    0    0  501 -0.00000000000E+00 -0.00000000000E+00 -0.24929840617E+04  0.24929884921E+04  0.47000000000E+01 0.  1.
          6    1    1    2  502    0 -0.13570939876E+03  0.23814600147E+02 -0.66006378476E+02  0.23005438073E+03  0.17200000000E+03 0. -1.
         -6    1    1    2    0  502  0.13570939876E+03 -0.23814600147E+02 -0.23398414276E+04  0.23501970305E+04  0.17200000000E+03 0.  1.
</event>
<event>
 4    1 -0.6963162E-004  0.1890369E+03  0.7818608E-02  0.1159333E+00
         -5   -1    0    0    0  501 -0.00000000000E+00  0.00000000000E+00  0.20095435819E+03  0.20100931341E+03  0.47000000000E+01 0.  1.
          5   -1    0    0  501    0  0.00000000000E+00 -0.00000000000E+00 -0.43127896752E+03  0.43130457663E+03  0.47000000000E+01 0. -1.
          6    1    1    2  502    0 -0.78314360473E+02 -0.42216412218E+01 -0.35755348426E+03  0.40444957092E+03  0.17200000000E+03 0. -1.
         -6    1    1    2    0  502  0.78314360473E+02  0.42216412218E+01  0.12722887493E+03  0.22786431912E+03  0.17200000000E+03 0.  1.
</event>
<event>
 4    1 -0.6963162E-004  0.2004278E+03  0.7818608E-02  0.1149379E+00
          5   -1    0    0  501    0  0.00000000000E+00  0.00000000000E+00  0.41508220058E+03  0.41510880891E+03  0.47000000000E+01 0. -1.
         -5   -1    0    0    0  501 -0.00000000000E+00 -0.00000000000E+00 -0.10344900455E+03  0.10355571709E+03  0.47000000000E+01 0.  1.
          6    1    1    2  502    0 -0.59597654246E+02 -0.83877456993E+02  0.22204908381E+03  0.29912723681E+03  0.17200000000E+03 0. -1.
         -6    1    1    2    0  502  0.59597654246E+02  0.83877456993E+02  0.89584112223E+02  0.21953728919E+03  0.17200000000E+03 0. -1.
</event>
<event>
 4    1 -0.6963162E-004  0.1917255E+03  0.7818608E-02  0.1156914E+00
         -5   -1    0    0    0  501 -0.00000000000E+00  0.00000000000E+00  0.60745550421E+02  0.60927103131E+02  0.47000000000E+01 0.  1.
          5   -1    0    0  501    0  0.00000000000E+00 -0.00000000000E+00 -0.60507208997E+03  0.60509034372E+03  0.47000000000E+01 0. -1.
          6    1    1    2  502    0  0.83714391268E+02 -0.12906155746E+02 -0.28597001457E+03  0.34429277860E+03  0.17200000000E+03 0. -1.
         -6    1    1    2    0  502 -0.83714391268E+02  0.12906155746E+02 -0.25835652498E+03  0.32172466825E+03  0.17200000000E+03 0. -1.
</event>
<event>
 4    1 -0.6963162E-004  0.1972838E+03  0.7818608E-02  0.1152051E+00
          5   -1    0    0  501    0  0.00000000000E+00  0.00000000000E+00  0.26367316034E+03  0.26371504600E+03  0.47000000000E+01 0. -1.
         -5   -1    0    0    0  501 -0.00000000000E+00 -0.00000000000E+00 -0.33862009572E+03  0.33865271182E+03  0.47000000000E+01 0.  1.
          6    1    1    2  502    0 -0.58236368929E+02  0.77106459012E+02  0.18875398553E+03  0.27303653188E+03  0.17200000000E+03 0. -1.
         -6    1    1    2    0  502  0.58236368929E+02 -0.77106459012E+02 -0.26370092091E+03  0.32933122594E+03  0.17200000000E+03 0.  1.
</event>
<event>
 4    1 -0.6963162E-004  0.2034238E+03  0.7818608E-02  0.1146882E+00
         -5   -1    0    0    0  501 -0.00000000000E+00  0.00000000000E+00  0.25031199852E+03  0.25035611956E+03  0.47000000000E+01 0.  1.
          5   -1    0    0  501    0  0.00000000000E+00 -0.00000000000E+00 -0.12857140709E+04  0.12857226615E+04  0.47000000000E+01 0. -1.
          6    1    1    2  502    0 -0.42598387388E+02  0.99913058672E+02 -0.12346710433E+04  0.12513168372E+04  0.17200000000E+03 0. -1.
         -6    1    1    2    0  502  0.42598387388E+02 -0.99913058672E+02  0.19926897087E+03  0.28476194383E+03  0.17200000000E+03 0.  1.
</event>
<event>
 4    1 -0.6963162E-004  0.2228070E+03  0.7818608E-02  0.1131807E+00
         -5   -1    0    0    0  501 -0.00000000000E+00  0.00000000000E+00  0.35286696003E+03  0.35289825939E+03  0.47000000000E+01 0.  1.
          5   -1    0    0  501    0  0.00000000000E+00 -0.00000000000E+00 -0.86569109832E+03  0.86570385682E+03  0.47000000000E+01 0. -1.
          6    1    1    2  502    0  0.42562344616E+02  0.13508300546E+03 -0.81401505128E+03  0.84395703401E+03  0.17200000000E+03 0. -1.
         -6    1    1    2    0  502 -0.42562344616E+02 -0.13508300546E+03  0.30119091299E+03  0.37464508219E+03  0.17200000000E+03 0.  1.
</event>
<event>
 4    1 -0.6963162E-004  0.1871066E+03  0.7818608E-02  0.1161097E+00
         -5   -1    0    0    0  501 -0.00000000000E+00  0.00000000000E+00  0.38777691553E+02  0.39061481823E+02  0.47000000000E+01 0.  1.
          5   -1    0    0  501    0  0.00000000000E+00 -0.00000000000E+00 -0.96358751914E+03  0.96359898144E+03  0.47000000000E+01 0. -1.
          6    1    1    2  502    0 -0.56953905222E+02  0.46702534493E+02 -0.59194896257E+03  0.62081595367E+03  0.17200000000E+03 0.  1.
         -6    1    1    2    0  502  0.56953905222E+02 -0.46702534493E+02 -0.33286086502E+03  0.38184450960E+03  0.17200000000E+03 0.  1.
</event>
<event>
 4    1 -0.6963162E-004  0.1752609E+03  0.7818608E-02  0.1172470E+00
         -5   -1    0    0    0  501 -0.00000000000E+00  0.00000000000E+00  0.35919190744E+03  0.35922265570E+03  0.47000000000E+01 0.  1.
          5   -1    0    0  501    0  0.00000000000E+00 -0.00000000000E+00 -0.30532909708E+03  0.30536526902E+03  0.47000000000E+01 0. -1.
          6    1    1    2  502    0 -0.33028745324E+02 -0.64415443501E+01 -0.25502566249E+03  0.30944220791E+03  0.17200000000E+03 0. -1.
         -6    1    1    2    0  502  0.33028745324E+02  0.64415443501E+01  0.30888847284E+03  0.35514571681E+03  0.17200000000E+03 0.  1.
</event>
<event>
 4    1 -0.6963162E-004  0.2081128E+03  0.7818608E-02  0.1143069E+00
          5   -1    0    0  501    0  0.00000000000E+00  0.00000000000E+00  0.43670525978E+03  0.43673055071E+03  0.47000000000E+01 0. -1.
         -5   -1    0    0    0  501 -0.00000000000E+00 -0.00000000000E+00 -0.12926899494E+03  0.12935440871E+03  0.47000000000E+01 0.  1.
          6    1    1    2  502    0 -0.76964962774E+02 -0.88336587969E+02  0.29040574717E+03  0.35727644235E+03  0.17200000000E+03 0. -1.
         -6    1    1    2    0  502  0.76964962774E+02  0.88336587969E+02  0.17030517674E+02  0.20880851707E+03  0.17200000000E+03 0.  1.
</event>
<event>
 4    1 -0.6963162E-004  0.2051555E+03  0.7818608E-02  0.1145461E+00
         -5   -1    0    0    0  501 -0.00000000000E+00  0.00000000000E+00  0.12097038546E+04  0.12097129849E+04  0.47000000000E+01 0.  1.
          5   -1    0    0  501    0  0.00000000000E+00 -0.00000000000E+00 -0.21405327078E+03  0.21410486386E+03  0.47000000000E+01 0. -1.
          6    1    1    2  502    0 -0.86862696897E+02  0.70424789020E+02 -0.15367259228E+03  0.25632800206E+03  0.17200000000E+03 0. -1.
         -6    1    1    2    0  502  0.86862696897E+02 -0.70424789020E+02  0.11493231762E+04  0.11674898468E+04  0.17200000000E+03 0.  1.
</event>
<event>
 4    1 -0.6963162E-004  0.2886292E+03  0.7818608E-02  0.1091067E+00
         -5   -1    0    0    0  501 -0.00000000000E+00  0.00000000000E+00  0.58385401926E+03  0.58387293635E+03  0.47000000000E+01 0.  1.
          5   -1    0    0  501    0  0.00000000000E+00 -0.00000000000E+00 -0.21112796471E+03  0.21118027248E+03  0.47000000000E+01 0. -1.
          6    1    1    2  502    0  0.21207818507E+03  0.93518344585E+02 -0.40030329961E+02  0.29139194339E+03  0.17200000000E+03 0. -1.
         -6    1    1    2    0  502 -0.21207818507E+03 -0.93518344585E+02  0.41275638451E+03  0.50366126544E+03  0.17200000000E+03 0.  1.
</event>
<event>
 4    1 -0.6963162E-004  0.2515340E+03  0.7818608E-02  0.1112339E+00
         -5   -1    0    0    0  501 -0.00000000000E+00  0.00000000000E+00  0.29255798692E+03  0.29259573769E+03  0.47000000000E+01 0.  1.
          5   -1    0    0  501    0  0.00000000000E+00 -0.00000000000E+00 -0.55790004414E+03  0.55791984124E+03  0.47000000000E+01 0. -1.
          6    1    1    2  502    0  0.54729862113E+02 -0.17518567018E+03 -0.46546646384E+03  0.52908260773E+03  0.17200000000E+03 0. -1.
         -6    1    1    2    0  502 -0.54729862113E+02  0.17518567018E+03  0.20012440662E+03  0.32143297119E+03  0.17200000000E+03 0.  1.
</event>
<event>
 4    1 -0.6963162E-004  0.1816989E+03  0.7818608E-02  0.1166169E+00
         -5   -1    0    0    0  501 -0.00000000000E+00  0.00000000000E+00  0.37621459889E+02  0.37913905684E+02  0.47000000000E+01 0.  1.
          5   -1    0    0  501    0  0.00000000000E+00 -0.00000000000E+00 -0.24390662264E+04  0.24390707547E+04  0.47000000000E+01 0. -1.
          6    1    1    2  502    0 -0.51226220296E+02  0.28396649922E+02 -0.21927920792E+04  0.22003071600E+04  0.17200000000E+03 0. -1.
         -6    1    1    2    0  502  0.51226220296E+02 -0.28396649922E+02 -0.20865268725E+03  0.27667750047E+03  0.17200000000E+03 0.  1.
</event>
<event>
 4    1 -0.6963162E-004  0.2075703E+03  0.7818608E-02  0.1143505E+00
         -5   -1    0    0    0  501 -0.00000000000E+00  0.00000000000E+00  0.55014598577E+03  0.55016606190E+03  0.47000000000E+01 0.  1.
          5   -1    0    0  501    0  0.00000000000E+00 -0.00000000000E+00 -0.87059743698E+02  0.87186518298E+02  0.47000000000E+01 0. -1.
          6    1    1    2  502    0  0.97233361179E+02 -0.63616820507E+02  0.13011201262E+03  0.24497869745E+03  0.17200000000E+03 0. -1.
         -6    1    1    2    0  502 -0.97233361179E+02  0.63616820507E+02  0.33297422945E+03  0.39237388274E+03  0.17200000000E+03 0. -1.
</event>
<event>
 4    1 -0.6963162E-004  0.2260497E+03  0.7818608E-02  0.1129451E+00
         -5   -1    0    0    0  501 -0.00000000000E+00  0.00000000000E+00  0.25968850058E+03  0.25973102882E+03  0.47000000000E+01 0.  1.
          5   -1    0    0  501    0  0.00000000000E+00 -0.00000000000E+00 -0.22729891302E+03  0.22734750022E+03  0.47000000000E+01 0. -1.
          6    1    1    2  502    0 -0.11936822918E+03 -0.85238987546E+02 -0.73169384195E+02  0.23759675486E+03  0.17200000000E+03 0. -1.
         -6    1    1    2    0  502  0.11936822918E+03  0.85238987546E+02  0.10555897176E+03  0.24948177419E+03  0.17200000000E+03 0.  1.
</event>
<event>
 4    1 -0.6963162E-004  0.1859340E+03  0.7818608E-02  0.1162181E+00
         -5   -1    0    0    0  501 -0.00000000000E+00  0.00000000000E+00  0.16470045170E+03  0.16476749919E+03  0.47000000000E+01 0.  1.
          5   -1    0    0  501    0  0.00000000000E+00 -0.00000000000E+00 -0.85583898676E+03  0.85585189213E+03  0.47000000000E+01 0. -1.
          6    1    1    2  502    0  0.62865266192E+02 -0.32177765158E+02 -0.78892493904E+03  0.81053933261E+03  0.17200000000E+03 0. -1.
         -6    1    1    2    0  502 -0.62865266192E+02  0.32177765158E+02  0.97786403986E+02  0.21008005871E+03  0.17200000000E+03 0.  1.
</event>
<event>
 4    1 -0.6963162E-004  0.2039319E+03  0.7818608E-02  0.1146463E+00
         -5   -1    0    0    0  501 -0.00000000000E+00  0.00000000000E+00  0.10560901617E+04  0.10561006200E+04  0.47000000000E+01 0.  1.
          5   -1    0    0  501    0  0.00000000000E+00 -0.00000000000E+00 -0.10103971505E+03  0.10114896943E+03  0.47000000000E+01 0. -1.
          6    1    1    2  502    0  0.29278532316E+02  0.10557934129E+03  0.25415667225E+02  0.20550957618E+03  0.17200000000E+03 0. -1.
         -6    1    1    2    0  502 -0.29278532316E+02 -0.10557934129E+03  0.92963477939E+03  0.95174001324E+03  0.17200000000E+03 0.  1.
</event>
<event>
 4    1 -0.6963162E-004  0.1729537E+03  0.7818608E-02  0.1174802E+00
         -5   -1    0    0    0  501 -0.00000000000E+00  0.00000000000E+00  0.35504410833E+03  0.35507521578E+03  0.47000000000E+01 0.  1.
          5   -1    0    0  501    0  0.00000000000E+00 -0.00000000000E+00 -0.55161325938E+03  0.55163328210E+03  0.47000000000E+01 0. -1.
          6    1    1    2  502    0  0.15296089650E+02  0.97467085424E+01 -0.51558766583E+03  0.54382314206E+03  0.17200000000E+03 0. -1.
         -6    1    1    2    0  502 -0.15296089650E+02 -0.97467085424E+01  0.31901851479E+03  0.36288535581E+03  0.17200000000E+03 0.  1.
</event>
<event>
 4    1 -0.6963162E-004  0.1852993E+03  0.7818608E-02  0.1162771E+00
          5   -1    0    0  501    0  0.00000000000E+00  0.00000000000E+00  0.74688700596E+02  0.74836434955E+02  0.47000000000E+01 0. -1.
         -5   -1    0    0    0  501 -0.00000000000E+00 -0.00000000000E+00 -0.48947929887E+03  0.48950186314E+03  0.47000000000E+01 0.  1.
          6    1    1    2  502    0  0.27384016052E+02 -0.63261023820E+02 -0.13711769061E+03  0.23051486405E+03  0.17200000000E+03 0. -1.
         -6    1    1    2    0  502 -0.27384016052E+02  0.63261023820E+02 -0.27767290766E+03  0.33382343405E+03  0.17200000000E+03 0.  1.
</event>
<event>
 4    1 -0.6963162E-004  0.2350065E+03  0.7818608E-02  0.1123165E+00
          5   -1    0    0  501    0  0.00000000000E+00  0.00000000000E+00  0.66439331907E+03  0.66440994305E+03  0.47000000000E+01 0. -1.
         -5   -1    0    0    0  501 -0.00000000000E+00 -0.00000000000E+00 -0.83860756811E+02  0.83992359968E+02  0.47000000000E+01 0.  1.
          6    1    1    2  502    0 -0.12436908045E+03 -0.10087801706E+03  0.32722140688E+03  0.40286708927E+03  0.17200000000E+03 0. -1.
         -6    1    1    2    0  502  0.12436908045E+03  0.10087801706E+03  0.25331115538E+03  0.34553521375E+03  0.17200000000E+03 0.  1.
</event>
<event>
 4    1 -0.6963162E-004  0.1791095E+03  0.7818608E-02  0.1168668E+00
         -5   -1    0    0    0  501 -0.00000000000E+00  0.00000000000E+00  0.15415106352E+03  0.15422269737E+03  0.47000000000E+01 0.  1.
          5   -1    0    0  501    0  0.00000000000E+00 -0.00000000000E+00 -0.52149689485E+03  0.52151807384E+03  0.47000000000E+01 0. -1.
          6    1    1    2  502    0 -0.46877506500E+02  0.17282972031E+02 -0.44562489726E+03  0.48027257968E+03  0.17200000000E+03 0. -1.
         -6    1    1    2    0  502  0.46877506500E+02 -0.17282972031E+02  0.78279065920E+02  0.19546819153E+03  0.17200000000E+03 0.  1.
</event>
<event>
 4    1 -0.6963162E-004  0.1759204E+03  0.7818608E-02  0.1171811E+00
          5   -1    0    0  501    0  0.00000000000E+00  0.00000000000E+00  0.54555930130E+02  0.54758008659E+02  0.47000000000E+01 0. -1.
         -5   -1    0    0    0  501 -0.00000000000E+00 -0.00000000000E+00 -0.13638745747E+04  0.13638826729E+04  0.47000000000E+01 0.  1.
          6    1    1    2  502    0 -0.14787350115E+02  0.33842765855E+02 -0.11217739292E+03  0.20864267542E+03  0.17200000000E+03 0. -1.
         -6    1    1    2    0  502  0.14787350115E+02 -0.33842765855E+02 -0.11971412516E+04  0.12099980061E+04  0.17200000000E+03 0.  1.
</event>
<event>
 4    1 -0.6963162E-004  0.2942842E+03  0.7818608E-02  0.1088133E+00
         -5   -1    0    0    0  501 -0.00000000000E+00  0.00000000000E+00  0.32564311205E+03  0.32567702778E+03  0.47000000000E+01 0.  1.
          5   -1    0    0  501    0  0.00000000000E+00 -0.00000000000E+00 -0.32755487837E+03  0.32758859618E+03  0.47000000000E+01 0. -1.
          6    1    1    2  502    0  0.21914942614E+03  0.94830040116E+02 -0.14267759877E+03  0.32704755721E+03  0.17200000000E+03 0. -1.
         -6    1    1    2    0  502 -0.21914942614E+03 -0.94830040116E+02  0.14076583244E+03  0.32621806675E+03  0.17200000000E+03 0.  1.
</event>
<event>
 4    1 -0.6963162E-004  0.2939106E+03  0.7818608E-02  0.1088325E+00
          5   -1    0    0  501    0  0.00000000000E+00  0.00000000000E+00  0.19094753122E+04  0.19094810965E+04  0.47000000000E+01 0. -1.
         -5   -1    0    0    0  501 -0.00000000000E+00 -0.00000000000E+00 -0.22888258408E+03  0.22893083518E+03  0.47000000000E+01 0.  1.
          6    1    1    2  502    0 -0.19707758316E+03  0.13401446292E+03  0.17980405372E+04  0.18219037361E+04  0.17200000000E+03 0. -1.
         -6    1    1    2    0  502  0.19707758316E+03 -0.13401446292E+03 -0.11744780906E+03  0.31650819564E+03  0.17200000000E+03 0.  1.
</event>
<event>
 4    1 -0.6963162E-004  0.1940637E+03  0.7818608E-02  0.1154846E+00
         -5   -1    0    0    0  501 -0.00000000000E+00  0.00000000000E+00  0.71743891907E+03  0.71745431394E+03  0.47000000000E+01 0.  1.
          5   -1    0    0  501    0  0.00000000000E+00 -0.00000000000E+00 -0.95947051669E+02  0.96062098270E+02  0.47000000000E+01 0. -1.
          6    1    1    2  502    0 -0.19915473555E+02 -0.87636215894E+02  0.36881206408E+02  0.19753722639E+03  0.17200000000E+03 0. -1.
         -6    1    1    2    0  502  0.19915473555E+02  0.87636215894E+02  0.58461066099E+03  0.61597918582E+03  0.17200000000E+03 0.  1.
</event>
<event>
 4    1 -0.6963162E-004  0.1850835E+03  0.7818608E-02  0.1162972E+00
         -5   -1    0    0    0  501 -0.00000000000E+00  0.00000000000E+00  0.12289588849E+04  0.12289678722E+04  0.47000000000E+01 0.  1.
          5   -1    0    0  501    0  0.00000000000E+00 -0.00000000000E+00 -0.17355930029E+03  0.17362292682E+03  0.47000000000E+01 0. -1.
          6    1    1    2  502    0 -0.56022676526E+02 -0.39158379550E+02 -0.11483245052E+03  0.21781278812E+03  0.17200000000E+03 0. -1.
         -6    1    1    2    0  502  0.56022676526E+02  0.39158379550E+02  0.11702320352E+04  0.11847780109E+04  0.17200000000E+03 0.  1.
</event>
<event>
 4    1 -0.6963162E-004  0.1983172E+03  0.7818608E-02  0.1151167E+00
         -5   -1    0    0    0  501 -0.00000000000E+00  0.00000000000E+00  0.12558188108E+04  0.12558276058E+04  0.47000000000E+01 0.  1.
          5   -1    0    0  501    0  0.00000000000E+00 -0.00000000000E+00 -0.31489326605E+02  0.31838148345E+02  0.47000000000E+01 0. -1.
          6    1    1    2  502    0 -0.98579129934E+02 -0.52800683220E+01  0.54403575046E+03  0.57905493846E+03  0.17200000000E+03 0. -1.
         -6    1    1    2    0  502  0.98579129934E+02  0.52800683220E+01  0.68029373372E+03  0.70861081569E+03  0.17200000000E+03 0.  1.
</event>
<event>
 4    1 -0.6963162E-004  0.5042574E+03  0.7818608E-02  0.1012674E+00
          5   -1    0    0  501    0  0.00000000000E+00  0.00000000000E+00  0.48181739665E+03  0.48184031973E+03  0.47000000000E+01 0. -1.
         -5   -1    0    0    0  501 -0.00000000000E+00 -0.00000000000E+00 -0.17360631102E+04  0.17360694723E+04  0.47000000000E+01 0.  1.
          6    1    1    2  502    0 -0.16131148232E+03 -0.44572429315E+03  0.29805641395E+03  0.58575862412E+03  0.17200000000E+03 0. -1.
         -6    1    1    2    0  502  0.16131148232E+03  0.44572429315E+03 -0.15523021275E+04  0.16321511679E+04  0.17200000000E+03 0.  1.
</event>
<event>
 4    1 -0.6963162E-004  0.2006415E+03  0.7818608E-02  0.1149199E+00
         -5   -1    0    0    0  501 -0.00000000000E+00  0.00000000000E+00  0.47043672302E+03  0.47046020062E+03  0.47000000000E+01 0.  1.
          5   -1    0    0  501    0  0.00000000000E+00 -0.00000000000E+00 -0.11179406826E+03  0.11189282237E+03  0.47000000000E+01 0. -1.
          6    1    1    2  502    0  0.71901703293E+02 -0.74183301238E+02  0.38150507071E+02  0.20423632955E+03  0.17200000000E+03 0. -1.
         -6    1    1    2    0  502 -0.71901703293E+02  0.74183301238E+02  0.32049214769E+03  0.37811669343E+03  0.17200000000E+03 0.  1.
</event>
<event>
 4    1 -0.6963162E-004  0.1812205E+03  0.7818608E-02  0.1166627E+00
         -5   -1    0    0    0  501 -0.00000000000E+00  0.00000000000E+00  0.24468197993E+03  0.24472711600E+03  0.47000000000E+01 0.  1.
          5   -1    0    0  501    0  0.00000000000E+00 -0.00000000000E+00 -0.16029899044E+03  0.16036787813E+03  0.47000000000E+01 0. -1.
          6    1    1    2  502    0  0.56870073450E+02 -0.47613163833E+01 -0.39631429264E+02  0.18550343817E+03  0.17200000000E+03 0. -1.
         -6    1    1    2    0  502 -0.56870073450E+02  0.47613163833E+01  0.12401441876E+03  0.21959155596E+03  0.17200000000E+03 0.  1.
</event>
<event>
 4    1 -0.6963162E-004  0.1910428E+03  0.7818608E-02  0.1157524E+00
          5   -1    0    0  501    0  0.00000000000E+00  0.00000000000E+00  0.10412512071E+03  0.10423114104E+03  0.47000000000E+01 0. -1.
         -5   -1    0    0    0  501 -0.00000000000E+00 -0.00000000000E+00 -0.35191733084E+03  0.35194871465E+03  0.47000000000E+01 0.  1.
          6    1    1    2  502    0  0.80197235850E+02  0.21948979075E+02 -0.13976032844E+03  0.23670721097E+03  0.17200000000E+03 0.  1.
         -6    1    1    2    0  502 -0.80197235850E+02 -0.21948979075E+02 -0.10803188168E+03  0.21947264472E+03  0.17200000000E+03 0. -1.
</event>
<event>
 4    1 -0.6963162E-004  0.2105458E+03  0.7818608E-02  0.1141134E+00
          5   -1    0    0  501    0  0.00000000000E+00  0.00000000000E+00  0.76519359852E+03  0.76520803264E+03  0.47000000000E+01 0. -1.
         -5   -1    0    0    0  501 -0.00000000000E+00 -0.00000000000E+00 -0.18992165584E+03  0.18997980250E+03  0.47000000000E+01 0.  1.
          6    1    1    2  502    0 -0.78397978698E-01  0.12143123883E+03  0.68580131063E+03  0.71739319036E+03  0.17200000000E+03 0. -1.
         -6    1    1    2    0  502  0.78397978698E-01 -0.12143123883E+03 -0.11052936795E+03  0.23779464479E+03  0.17200000000E+03 0.  1.
</event>
<event>
 4    1 -0.6963162E-004  0.1864694E+03  0.7818608E-02  0.1161685E+00
          5   -1    0    0  501    0  0.00000000000E+00  0.00000000000E+00  0.34420523610E+03  0.34423732302E+03  0.47000000000E+01 0. -1.
         -5   -1    0    0    0  501 -0.00000000000E+00 -0.00000000000E+00 -0.88697357406E+03  0.88698602643E+03  0.47000000000E+01 0.  1.
          6    1    1    2  502    0  0.68350471407E+01  0.71694631719E+02  0.30811535260E+03  0.36014706523E+03  0.17200000000E+03 0. -1.
         -6    1    1    2    0  502 -0.68350471407E+01 -0.71694631719E+02 -0.85088369055E+03  0.87107628422E+03  0.17200000000E+03 0.  1.
</event>
<event>
 4    1 -0.6963162E-004  0.1926982E+03  0.7818608E-02  0.1156050E+00
         -5   -1    0    0    0  501 -0.00000000000E+00  0.00000000000E+00  0.11066377457E+04  0.11066477263E+04  0.47000000000E+01 0.  1.
          5   -1    0    0  501    0  0.00000000000E+00 -0.00000000000E+00 -0.19890900409E+03  0.19896452424E+03  0.47000000000E+01 0. -1.
          6    1    1    2  502    0  0.69474672206E+02  0.52171642340E+02 -0.14135033096E+03  0.23898227216E+03  0.17200000000E+03 0. -1.
         -6    1    1    2    0  502 -0.69474672206E+02 -0.52171642340E+02  0.10490790725E+04  0.10666299784E+04  0.17200000000E+03 0.  1.
</event>
<event>
 4    1 -0.6963162E-004  0.2058124E+03  0.7818608E-02  0.1144926E+00
          5   -1    0    0  501    0  0.00000000000E+00  0.00000000000E+00  0.63287974439E+03  0.63289719612E+03  0.47000000000E+01 0. -1.
         -5   -1    0    0    0  501 -0.00000000000E+00 -0.00000000000E+00 -0.28559268541E+03  0.28563135676E+03  0.47000000000E+01 0.  1.
          6    1    1    2  502    0  0.11287309077E+03 -0.58662215420E+01  0.57551370313E+03  0.61120763221E+03  0.17200000000E+03 0. -1.
         -6    1    1    2    0  502 -0.11287309077E+03  0.58662215420E+01 -0.22822664416E+03  0.30732092067E+03  0.17200000000E+03 0.  1.
</event>
<event>
 4    1 -0.6963162E-004  0.1975635E+03  0.7818608E-02  0.1151811E+00
          5   -1    0    0  501    0  0.00000000000E+00  0.00000000000E+00  0.72365099401E+02  0.72517567605E+02  0.47000000000E+01 0. -1.
         -5   -1    0    0    0  501 -0.00000000000E+00 -0.00000000000E+00 -0.10022577736E+04  0.10022687936E+04  0.47000000000E+01 0.  1.
          6    1    1    2  502    0  0.95761995268E+02  0.16642214863E+02 -0.99479698430E+02  0.22119569040E+03  0.17200000000E+03 0. -1.
         -6    1    1    2    0  502 -0.95761995268E+02 -0.16642214863E+02 -0.83041297574E+03  0.85359067083E+03  0.17200000000E+03 0.  1.
</event>
<event>
 4    1 -0.6963162E-004  0.1813300E+03  0.7818608E-02  0.1166522E+00
          5   -1    0    0  501    0  0.00000000000E+00  0.00000000000E+00  0.25760325856E+03  0.25764613100E+03  0.47000000000E+01 0. -1.
         -5   -1    0    0    0  501 -0.00000000000E+00 -0.00000000000E+00 -0.29830906763E+03  0.29834609070E+03  0.47000000000E+01 0.  1.
          6    1    1    2  502    0  0.44429449820E+01 -0.57243635523E+02  0.18994229307E+03  0.26259978725E+03  0.17200000000E+03 0. -1.
         -6    1    1    2    0  502 -0.44429449820E+01  0.57243635523E+02 -0.23064810214E+03  0.29339243445E+03  0.17200000000E+03 0.  1.
</event>
<event>
 4    1 -0.6963162E-004  0.1746059E+03  0.7818608E-02  0.1173128E+00
          5   -1    0    0  501    0  0.00000000000E+00  0.00000000000E+00  0.65785722784E+03  0.65787401698E+03  0.47000000000E+01 0. -1.
         -5   -1    0    0    0  501 -0.00000000000E+00 -0.00000000000E+00 -0.17109601974E+03  0.17116056197E+03  0.47000000000E+01 0.  1.
          6    1    1    2  502    0  0.27861555204E+02  0.11267993256E+02  0.59735509627E+03  0.62235066077E+03  0.17200000000E+03 0. -1.
         -6    1    1    2    0  502 -0.27861555204E+02 -0.11267993256E+02 -0.11059388817E+03  0.20668391817E+03  0.17200000000E+03 0.  1.
</event>
<event>
 4    1 -0.6963162E-004  0.2639142E+03  0.7818608E-02  0.1104814E+00
         -5   -1    0    0    0  501 -0.00000000000E+00  0.00000000000E+00  0.10680499880E+04  0.10680603292E+04  0.47000000000E+01 0.  1.
          5   -1    0    0  501    0  0.00000000000E+00 -0.00000000000E+00 -0.40166059486E+03  0.40168809226E+03  0.47000000000E+01 0. -1.
          6    1    1    2  502    0  0.10880230574E+03  0.16801424201E+03 -0.33938669151E+03  0.42992331133E+03  0.17200000000E+03 0. -1.
         -6    1    1    2    0  502 -0.10880230574E+03 -0.16801424201E+03  0.10057760846E+04  0.10398251101E+04  0.17200000000E+03 0.  1.
</event>
<event>
 4    1 -0.6963162E-004  0.1872467E+03  0.7818608E-02  0.1160968E+00
          5   -1    0    0  501    0  0.00000000000E+00  0.00000000000E+00  0.14118486238E+04  0.14118564469E+04  0.47000000000E+01 0. -1.
         -5   -1    0    0    0  501 -0.00000000000E+00 -0.00000000000E+00 -0.40566619823E+03  0.40569342413E+03  0.47000000000E+01 0.  1.
          6    1    1    2  502    0  0.63953524148E+02 -0.37246299625E+02  0.13836122816E+04  0.13962250126E+04  0.17200000000E+03 0. -1.
         -6    1    1    2    0  502 -0.63953524148E+02  0.37246299625E+02 -0.37742985600E+03  0.42132485838E+03  0.17200000000E+03 0.  1.
</event>
<event>
 4    1 -0.6963162E-004  0.2160854E+03  0.7818608E-02  0.1136836E+00
          5   -1    0    0  501    0  0.00000000000E+00  0.00000000000E+00  0.13029360559E+04  0.13029445329E+04  0.47000000000E+01 0. -1.
         -5   -1    0    0    0  501 -0.00000000000E+00 -0.00000000000E+00 -0.79020332859E+03  0.79021730588E+03  0.47000000000E+01 0.  1.
          6    1    1    2  502    0 -0.12952317744E+03 -0.18238754193E+02  0.12789406313E+04  0.12970667077E+04  0.17200000000E+03 0. -1.
         -6    1    1    2    0  502  0.12952317744E+03  0.18238754193E+02 -0.76620790400E+03  0.79609513112E+03  0.17200000000E+03 0.  1.
</event>
<event>
 4    1 -0.6963162E-004  0.1852074E+03  0.7818608E-02  0.1162856E+00
          5   -1    0    0  501    0  0.00000000000E+00  0.00000000000E+00  0.12071339959E+04  0.12071431456E+04  0.47000000000E+01 0. -1.
         -5   -1    0    0    0  501 -0.00000000000E+00 -0.00000000000E+00 -0.58861041956E+02  0.59048389141E+02  0.47000000000E+01 0.  1.
          6    1    1    2  502    0  0.42899253244E+02  0.53641778396E+02  0.10298253482E+04  0.10463469951E+04  0.17200000000E+03 0. -1.
         -6    1    1    2    0  502 -0.42899253244E+02 -0.53641778396E+02  0.11844760569E+03  0.21984453965E+03  0.17200000000E+03 0.  1.
</event>
<event>
 4    1 -0.6963162E-004  0.2067159E+03  0.7818608E-02  0.1144193E+00
          5   -1    0    0  501    0  0.00000000000E+00  0.00000000000E+00  0.10815809896E+04  0.10815912015E+04  0.47000000000E+01 0. -1.
         -5   -1    0    0    0  501 -0.00000000000E+00 -0.00000000000E+00 -0.64948091312E+02  0.65117928139E+02  0.47000000000E+01 0.  1.
          6    1    1    2  502    0 -0.45402357892E+02  0.10529053781E+03  0.86756146323E+03  0.89184884590E+03  0.17200000000E+03 0. -1.
         -6    1    1    2    0  502  0.45402357892E+02 -0.10529053781E+03  0.14907143507E+03  0.25486028370E+03  0.17200000000E+03 0.  1.
</event>
<event>
 4    1 -0.6963162E-004  0.1896710E+03  0.7818608E-02  0.1158758E+00
         -5   -1    0    0    0  501 -0.00000000000E+00  0.00000000000E+00  0.66428337601E+03  0.66430000274E+03  0.47000000000E+01 0.  1.
          5   -1    0    0  501    0  0.00000000000E+00 -0.00000000000E+00 -0.45509722555E+03  0.45512149445E+03  0.47000000000E+01 0. -1.
          6    1    1    2  502    0  0.68126910444E+02  0.41830531394E+02 -0.42076331275E+03  0.46153746829E+03  0.17200000000E+03 0. -1.
         -6    1    1    2    0  502 -0.68126910444E+02 -0.41830531394E+02  0.62994946320E+03  0.65788402889E+03  0.17200000000E+03 0.  1.
</event>
<event>
 4    1 -0.6963162E-004  0.1822777E+03  0.7818608E-02  0.1165617E+00
          5   -1    0    0  501    0  0.00000000000E+00  0.00000000000E+00  0.53488639619E+03  0.53490704504E+03  0.47000000000E+01 0. -1.
         -5   -1    0    0    0  501 -0.00000000000E+00 -0.00000000000E+00 -0.30292501081E+03  0.30296146978E+03  0.47000000000E+01 0.  1.
          6    1    1    2  502    0  0.22146724341E+02 -0.56130802804E+02  0.48950830110E+03  0.52234425551E+03  0.17200000000E+03 0. -1.
         -6    1    1    2    0  502 -0.22146724341E+02  0.56130802804E+02 -0.25754691571E+03  0.31552425931E+03  0.17200000000E+03 0.  1.
</event>
<event>
 4    1 -0.6963162E-004  0.1747403E+03  0.7818608E-02  0.1172993E+00
         -5   -1    0    0    0  501 -0.00000000000E+00  0.00000000000E+00  0.77903031731E+02  0.78044681772E+02  0.47000000000E+01 0.  1.
          5   -1    0    0  501    0  0.00000000000E+00 -0.00000000000E+00 -0.11907282912E+04  0.11907375670E+04  0.47000000000E+01 0. -1.
          6    1    1    2  502    0 -0.27874495039E+02 -0.13159315845E+02 -0.10761375071E+04  0.10902321263E+04  0.17200000000E+03 0. -1.
         -6    1    1    2    0  502  0.27874495039E+02  0.13159315845E+02 -0.36687752414E+02  0.17855012250E+03  0.17200000000E+03 0.  1.
</event>
<event>
 4    1 -0.6963162E-004  0.2309956E+03  0.7818608E-02  0.1125941E+00
         -5   -1    0    0    0  501 -0.00000000000E+00  0.00000000000E+00  0.13649305284E+03  0.13657394874E+03  0.47000000000E+01 0.  1.
          5   -1    0    0  501    0  0.00000000000E+00 -0.00000000000E+00 -0.51898698876E+03  0.51900827017E+03  0.47000000000E+01 0. -1.
          6    1    1    2  502    0  0.14636712693E+03  0.48493719424E+02 -0.35419035362E+03  0.42285905839E+03  0.17200000000E+03 0. -1.
         -6    1    1    2    0  502 -0.14636712693E+03 -0.48493719424E+02 -0.28303582302E+02  0.23272316051E+03  0.17200000000E+03 0.  1.
</event>
<event>
 4    1 -0.6963162E-004  0.1764160E+03  0.7818608E-02  0.1171317E+00
         -5   -1    0    0    0  501 -0.00000000000E+00  0.00000000000E+00  0.32687951617E+03  0.32691330363E+03  0.47000000000E+01 0.  1.
          5   -1    0    0  501    0  0.00000000000E+00 -0.00000000000E+00 -0.32748182094E+03  0.32751554627E+03  0.47000000000E+01 0. -1.
          6    1    1    2  502    0 -0.26330832695E+02 -0.29074109537E+02 -0.27588532634E+03  0.32746805934E+03  0.17200000000E+03 0. -1.
         -6    1    1    2    0  502  0.26330832695E+02  0.29074109537E+02  0.27528302157E+03  0.32696079056E+03  0.17200000000E+03 0.  1.
</event>
<event>
 4    1 -0.6963162E-004  0.2122527E+03  0.7818608E-02  0.1139794E+00
          5   -1    0    0  501    0  0.00000000000E+00  0.00000000000E+00  0.61133196612E+03  0.61135003296E+03  0.47000000000E+01 0. -1.
         -5   -1    0    0    0  501 -0.00000000000E+00 -0.00000000000E+00 -0.50927404942E+03  0.50929573669E+03  0.47000000000E+01 0.  1.
          6    1    1    2  502    0  0.12411305474E+03 -0.79465341205E+01  0.56923139396E+03  0.60751590731E+03  0.17200000000E+03 0. -1.
         -6    1    1    2    0  502 -0.12411305474E+03  0.79465341205E+01 -0.46717347727E+03  0.51312986234E+03  0.17200000000E+03 0.  1.
</event>
<event>
 4    1 -0.6963162E-004  0.1723696E+03  0.7818608E-02  0.1175399E+00
          5   -1    0    0  501    0  0.00000000000E+00  0.00000000000E+00  0.18052003204E+03  0.18058120602E+03  0.47000000000E+01 0. -1.
         -5   -1    0    0    0  501 -0.00000000000E+00 -0.00000000000E+00 -0.36722846778E+03  0.36725854320E+03  0.47000000000E+01 0.  1.
          6    1    1    2  502    0 -0.95711672324E+01  0.59717587251E+01  0.11015584223E+03  0.20456191904E+03  0.17200000000E+03 0. -1.
         -6    1    1    2    0  502  0.95711672324E+01 -0.59717587251E+01 -0.29686427798E+03  0.34327783017E+03  0.17200000000E+03 0.  1.
</event>
<event>
 4    1 -0.6963162E-004  0.1799395E+03  0.7818608E-02  0.1167862E+00
          5   -1    0    0  501    0  0.00000000000E+00  0.00000000000E+00  0.26702113273E+03  0.26706249329E+03  0.47000000000E+01 0. -1.
         -5   -1    0    0    0  501 -0.00000000000E+00 -0.00000000000E+00 -0.14675848657E+03  0.14683372698E+03  0.47000000000E+01 0.  1.
          6    1    1    2  502    0 -0.12151276856E+02 -0.51444824904E+02  0.14652374362E+03  0.23205049231E+03  0.17200000000E+03 0.  1.
         -6    1    1    2    0  502  0.12151276856E+02  0.51444824904E+02 -0.26261097456E+02  0.18184572796E+03  0.17200000000E+03 0.  1.
</event>
<event>
 4    1 -0.6963162E-004  0.1901801E+03  0.7818608E-02  0.1158299E+00
          5   -1    0    0  501    0  0.00000000000E+00  0.00000000000E+00  0.11569134609E+04  0.11569230078E+04  0.47000000000E+01 0. -1.
         -5   -1    0    0    0  501 -0.00000000000E+00 -0.00000000000E+00 -0.59792435962E+02  0.59976873862E+02  0.47000000000E+01 0.  1.
          6    1    1    2  502    0 -0.74971239297E+02 -0.31044736580E+02  0.96924261770E+03  0.98772451340E+03  0.17200000000E+03 0. -1.
         -6    1    1    2    0  502  0.74971239297E+02  0.31044736580E+02  0.12787840724E+03  0.22917536829E+03  0.17200000000E+03 0.  1.
</event>
<event>
 4    1 -0.6963162E-004  0.2048983E+03  0.7818608E-02  0.1145671E+00
         -5   -1    0    0    0  501 -0.00000000000E+00  0.00000000000E+00  0.35496036657E+03  0.35499148136E+03  0.47000000000E+01 0.  1.
          5   -1    0    0  501    0  0.00000000000E+00 -0.00000000000E+00 -0.46100916150E+03  0.46103311918E+03  0.47000000000E+01 0. -1.
          6    1    1    2  502    0 -0.10691318210E+03 -0.31126865242E+02 -0.40483327750E+03  0.45373262261E+03  0.17200000000E+03 0. -1.
         -6    1    1    2    0  502  0.10691318210E+03  0.31126865242E+02  0.29878448258E+03  0.36229197794E+03  0.17200000000E+03 0.  1.
</event>
