<event>
 4    1  0.1241325E+000  0.1722006E+03  0.7818608E-02  0.1175572E+00
         21   -1    0    0  503  502  0.00000000000E+00  0.00000000000E+00  0.46622089218E+02  0.46622089218E+02  0.00000000000E+00 0. -1.
         21   -1    0    0  501  503 -0.00000000000E+00 -0.00000000000E+00 -0.70937646539E+03  0.70937646539E+03  0.00000000000E+00 0. -1.
          6    1    1    2  501    0 -0.23223208926E+01 -0.79789351383E+01 -0.45292344632E+03  0.48455412990E+03  0.17200000000E+03 0. -1.
         -6    1    1    2    0  502  0.23223208926E+01  0.79789351383E+01 -0.20983092985E+03  0.27144442470E+03  0.17200000000E+03 0. -1.
</event>
<event>
 4    1  0.1241325E+000  0.1834045E+03  0.7818608E-02  0.1164548E+00
         21   -1    0    0  503  502  0.00000000000E+00  0.00000000000E+00  0.63226298050E+03  0.63226298050E+03  0.00000000000E+00 0.  1.
         21   -1    0    0  501  503 -0.00000000000E+00 -0.00000000000E+00 -0.16768317091E+03  0.16768317091E+03  0.00000000000E+00 0. -1.
          6    1    1    2  501    0 -0.42730494840E+02  0.47194251916E+02 -0.98197138365E+02  0.20803814695E+03  0.17200000000E+03 0. -1.
         -6    1    1    2    0  502  0.42730494840E+02 -0.47194251916E+02  0.56277694796E+03  0.59190800447E+03  0.17200000000E+03 0.  1.
</event>
<event>
 4    1  0.1241325E+000  0.1990972E+03  0.7818608E-02  0.1150503E+00
         21   -1    0    0  501  502  0.00000000000E+00  0.00000000000E+00  0.88007560810E+02  0.88007560810E+02  0.00000000000E+00 0.  1.
         21   -1    0    0  502  503 -0.00000000000E+00 -0.00000000000E+00 -0.47542016455E+03  0.47542016455E+03  0.00000000000E+00 0.  1.
          6    1    1    2  501    0 -0.10001168141E+03 -0.73059105036E+01 -0.25831712448E+03  0.32614022988E+03  0.17200000000E+03 0. -1.
         -6    1    1    2    0  503  0.10001168141E+03  0.73059105036E+01 -0.12909547926E+03  0.23728749548E+03  0.17200000000E+03 0. -1.
</event>
<event>
 4    1  0.1241325E+000  0.2222475E+03  0.7818608E-02  0.1132218E+00
         21   -1    0    0  501  502  0.00000000000E+00  0.00000000000E+00  0.34512798900E+03  0.34512798900E+03  0.00000000000E+00 0.  1.
         21   -1    0    0  502  503 -0.00000000000E+00 -0.00000000000E+00 -0.16991101956E+03  0.16991101956E+03  0.00000000000E+00 0.  1.
          6    1    1    2  501    0  0.13394704770E+03 -0.43221861158E+02  0.18986999922E+03  0.29230901025E+03  0.17200000000E+03 0.  1.
         -6    1    1    2    0  503 -0.13394704770E+03  0.43221861158E+02 -0.14653029784E+02  0.22272999832E+03  0.17200000000E+03 0.  1.
</event>
<event>
 4    1  0.1241325E+000  0.2124230E+03  0.7818608E-02  0.1139662E+00
         21   -1    0    0  503  502  0.00000000000E+00  0.00000000000E+00  0.24179261393E+03  0.24179261393E+03  0.00000000000E+00 0.  1.
         21   -1    0    0  501  503 -0.00000000000E+00 -0.00000000000E+00 -0.57389152019E+03  0.57389152019E+03  0.00000000000E+00 0. -1.
          6    1    1    2  501    0  0.19095081083E+02 -0.12318639558E+03 -0.50108006878E+03  0.54424695269E+03  0.17200000000E+03 0. -1.
         -6    1    1    2    0  502 -0.19095081083E+02  0.12318639558E+03  0.16898116253E+03  0.27143718144E+03  0.17200000000E+03 0.  1.
</event>
<event>
 4    1  0.1241325E+000  0.2077333E+03  0.7818608E-02  0.1143374E+00
         21   -1    0    0  501  502  0.00000000000E+00  0.00000000000E+00  0.87034852845E+03  0.87034852845E+03  0.00000000000E+00 0. -1.
         21   -1    0    0  502  503 -0.00000000000E+00 -0.00000000000E+00 -0.83342170548E+02  0.83342170548E+02  0.00000000000E+00 0. -1.
          6    1    1    2  501    0 -0.95320880782E+02 -0.66955470939E+02  0.69699799151E+03  0.72729588584E+03  0.17200000000E+03 0. -1.
         -6    1    1    2    0  503  0.95320880782E+02  0.66955470939E+02  0.90008366396E+02  0.22639481315E+03  0.17200000000E+03 0. -1.
</event>
<event>
 4    1  0.1241325E+000  0.2125262E+03  0.7818608E-02  0.1139581E+00
         21   -1    0    0  501  502  0.00000000000E+00  0.00000000000E+00  0.81225299151E+03  0.81225299151E+03  0.00000000000E+00 0. -1.
         21   -1    0    0  502  503 -0.00000000000E+00 -0.00000000000E+00 -0.12131424246E+03  0.12131424246E+03  0.00000000000E+00 0. -1.
          6    1    1    2  501    0 -0.63581607261E+02  0.10742788278E+03  0.68899934090E+03  0.72103222019E+03  0.17200000000E+03 0. -1.
         -6    1    1    2    0  503  0.63581607261E+02 -0.10742788278E+03  0.19394081448E+01  0.21253501379E+03  0.17200000000E+03 0. -1.
</event>
<event>
 4    1  0.1241325E+000  0.2495689E+03  0.7818608E-02  0.1113578E+00
         21   -1    0    0  501  502  0.00000000000E+00  0.00000000000E+00  0.68112866647E+03  0.68112866647E+03  0.00000000000E+00 0. -1.
         21   -1    0    0  502  503 -0.00000000000E+00 -0.00000000000E+00 -0.94489080933E+02  0.94489080933E+02  0.00000000000E+00 0.  1.
          6    1    1    2  501    0 -0.84772662079E+02  0.15973176792E+03  0.36294675057E+03  0.44047132218E+03  0.17200000000E+03 0.  1.
         -6    1    1    2    0  503  0.84772662079E+02 -0.15973176792E+03  0.22369283497E+03  0.33514642522E+03  0.17200000000E+03 0. -1.
</event>
<event>
 4    1  0.1241325E+000  0.2048526E+03  0.7818608E-02  0.1145708E+00
         21   -1    0    0  503  502  0.00000000000E+00  0.00000000000E+00  0.12090791778E+03  0.12090791778E+03  0.00000000000E+00 0. -1.
         21   -1    0    0  501  503 -0.00000000000E+00 -0.00000000000E+00 -0.36278274759E+03  0.36278274759E+03  0.00000000000E+00 0. -1.
          6    1    1    2  501    0 -0.87479732925E+02  0.68759623433E+02 -0.17125469544E+03  0.26700704147E+03  0.17200000000E+03 0.  1.
         -6    1    1    2    0  502  0.87479732925E+02 -0.68759623433E+02 -0.70620134366E+02  0.21668362390E+03  0.17200000000E+03 0.  1.
</event>
<event>
 4    1  0.1241325E+000  0.2448620E+03  0.7818608E-02  0.1116596E+00
         21   -1    0    0  501  502  0.00000000000E+00  0.00000000000E+00  0.16007744777E+03  0.16007744777E+03  0.00000000000E+00 0.  1.
         21   -1    0    0  502  503 -0.00000000000E+00 -0.00000000000E+00 -0.38900742789E+03  0.38900742789E+03  0.00000000000E+00 0.  1.
          6    1    1    2  501    0  0.16652485293E+03 -0.51408675598E+02 -0.16738760431E+03  0.29660746559E+03  0.17200000000E+03 0.  1.
         -6    1    1    2    0  503 -0.16652485293E+03  0.51408675598E+02 -0.61542375815E+02  0.25247741006E+03  0.17200000000E+03 0.  1.
</event>
<event>
 4    1  0.1241325E+000  0.2616409E+03  0.7818608E-02  0.1106161E+00
         21   -1    0    0  503  502  0.00000000000E+00  0.00000000000E+00  0.39216848791E+03  0.39216848791E+03  0.00000000000E+00 0. -1.
         21   -1    0    0  501  503 -0.00000000000E+00 -0.00000000000E+00 -0.17927129853E+03  0.17927129853E+03  0.00000000000E+00 0.  1.
          6    1    1    2  501    0 -0.19265431884E+03 -0.41907901846E+02  0.60117808619E+02  0.26845876726E+03  0.17200000000E+03 0. -1.
         -6    1    1    2    0  502  0.19265431884E+03  0.41907901846E+02  0.15277938076E+03  0.30298101919E+03  0.17200000000E+03 0. -1.
</event>
<event>
 4    1  0.1241325E+000  0.1953605E+03  0.7818608E-02  0.1153713E+00
         21   -1    0    0  501  502  0.00000000000E+00  0.00000000000E+00  0.80751795857E+02  0.80751795857E+02  0.00000000000E+00 0. -1.
         21   -1    0    0  502  503 -0.00000000000E+00 -0.00000000000E+00 -0.54082625214E+03  0.54082625214E+03  0.00000000000E+00 0.  1.
          6    1    1    2  501    0  0.88353889755E+02  0.27844629059E+02 -0.11967598750E+03  0.22910276119E+03  0.17200000000E+03 0. -1.
         -6    1    1    2    0  503 -0.88353889755E+02 -0.27844629059E+02 -0.34039846878E+03  0.39247528681E+03  0.17200000000E+03 0. -1.
</event>
<event>
 4    1  0.1241325E+000  0.2435088E+03  0.7818608E-02  0.1117477E+00
         21   -1    0    0  503  502  0.00000000000E+00  0.00000000000E+00  0.25643581308E+03  0.25643581308E+03  0.00000000000E+00 0.  1.
         21   -1    0    0  501  503 -0.00000000000E+00 -0.00000000000E+00 -0.37363726303E+03  0.37363726303E+03  0.00000000000E+00 0. -1.
          6    1    1    2  501    0  0.13613381749E+03 -0.10573613171E+03 -0.25309042054E+03  0.35121404696E+03  0.17200000000E+03 0. -1.
         -6    1    1    2    0  502 -0.13613381749E+03  0.10573613171E+03  0.13588897059E+03  0.27885902915E+03  0.17200000000E+03 0.  1.
</event>
<event>
 4    1  0.1241325E+000  0.2041704E+03  0.7818608E-02  0.1146267E+00
         21   -1    0    0  503  502  0.00000000000E+00  0.00000000000E+00  0.46374372221E+03  0.46374372221E+03  0.00000000000E+00 0. -1.
         21   -1    0    0  501  503 -0.00000000000E+00 -0.00000000000E+00 -0.94814243979E+02  0.94814243979E+02  0.00000000000E+00 0.  1.
          6    1    1    2  501    0  0.10034854162E+02 -0.10954847756E+03  0.12081376012E+03  0.23723729021E+03  0.17200000000E+03 0. -1.
         -6    1    1    2    0  502 -0.10034854162E+02  0.10954847756E+03  0.24811571811E+03  0.32132067597E+03  0.17200000000E+03 0. -1.
</event>
<event>
 4    1  0.1241325E+000  0.2129791E+03  0.7818608E-02  0.1139228E+00
         21   -1    0    0  503  502  0.00000000000E+00  0.00000000000E+00  0.48122576795E+03  0.48122576795E+03  0.00000000000E+00 0. -1.
         21   -1    0    0  501  503 -0.00000000000E+00 -0.00000000000E+00 -0.16373943292E+03  0.16373943292E+03  0.00000000000E+00 0. -1.
          6    1    1    2  501    0 -0.12509291038E+03  0.11306622146E+02  0.36881097352E+03  0.42588919935E+03  0.17200000000E+03 0. -1.
         -6    1    1    2    0  502  0.12509291038E+03 -0.11306622146E+02 -0.51324638489E+02  0.21907600153E+03  0.17200000000E+03 0. -1.
</event>
<event>
 4    1  0.1241325E+000  0.1909992E+03  0.7818608E-02  0.1157563E+00
         21   -1    0    0  501  502  0.00000000000E+00  0.00000000000E+00  0.29957993400E+03  0.29957993400E+03  0.00000000000E+00 0. -1.
         21   -1    0    0  502  503 -0.00000000000E+00 -0.00000000000E+00 -0.96084637527E+03  0.96084637527E+03  0.00000000000E+00 0.  1.
          6    1    1    2  501    0  0.58842173959E+02  0.58602990584E+02  0.25829245237E+03  0.32124087986E+03  0.17200000000E+03 0. -1.
         -6    1    1    2    0  503 -0.58842173959E+02 -0.58602990584E+02 -0.91955889364E+03  0.93918542941E+03  0.17200000000E+03 0.  1.
</event>
<event>
 4    1  0.1241325E+000  0.1980263E+03  0.7818608E-02  0.1151415E+00
         21   -1    0    0  501  502  0.00000000000E+00  0.00000000000E+00  0.52627200745E+02  0.52627200745E+02  0.00000000000E+00 0. -1.
         21   -1    0    0  502  503 -0.00000000000E+00 -0.00000000000E+00 -0.88857874621E+03  0.88857874621E+03  0.00000000000E+00 0. -1.
          6    1    1    2  501    0  0.17015254705E+02  0.96648330219E+02 -0.22889555456E+03  0.30266746360E+03  0.17200000000E+03 0. -1.
         -6    1    1    2    0  503 -0.17015254705E+02 -0.96648330219E+02 -0.60705599091E+03  0.63853848336E+03  0.17200000000E+03 0. -1.
</event>
<event>
 4    1  0.1241325E+000  0.1848566E+03  0.7818608E-02  0.1163184E+00
         21   -1    0    0  501  502  0.00000000000E+00  0.00000000000E+00  0.63728889232E+02  0.63728889232E+02  0.00000000000E+00 0.  1.
         21   -1    0    0  502  503 -0.00000000000E+00 -0.00000000000E+00 -0.53895845058E+03  0.53895845058E+03  0.00000000000E+00 0.  1.
          6    1    1    2  501    0  0.16922365314E+02  0.65586494483E+02 -0.21608852830E+03  0.28436984152E+03  0.17200000000E+03 0.  1.
         -6    1    1    2    0  503 -0.16922365314E+02 -0.65586494483E+02 -0.25914103305E+03  0.31831749829E+03  0.17200000000E+03 0.  1.
</event>
<event>
 4    1  0.1241325E+000  0.2364738E+03  0.7818608E-02  0.1122164E+00
         21   -1    0    0  503  502  0.00000000000E+00  0.00000000000E+00  0.13123245987E+03  0.13123245987E+03  0.00000000000E+00 0. -1.
         21   -1    0    0  501  503 -0.00000000000E+00 -0.00000000000E+00 -0.58306631560E+03  0.58306631560E+03  0.00000000000E+00 0.  1.
          6    1    1    2  501    0  0.15851484454E+03  0.34769580071E+02 -0.41121715179E+03  0.47436212493E+03  0.17200000000E+03 0.  1.
         -6    1    1    2    0  502 -0.15851484454E+03 -0.34769580071E+02 -0.40616703937E+02  0.23993665055E+03  0.17200000000E+03 0. -1.
</event>
<event>
 4    1  0.1241325E+000  0.1853740E+03  0.7818608E-02  0.1162701E+00
         21   -1    0    0  501  502  0.00000000000E+00  0.00000000000E+00  0.61728072456E+02  0.61728072456E+02  0.00000000000E+00 0. -1.
         21   -1    0    0  502  503 -0.00000000000E+00 -0.00000000000E+00 -0.55724086907E+03  0.55724086907E+03  0.00000000000E+00 0. -1.
          6    1    1    2  501    0  0.14755851118E+02  0.67540948423E+02 -0.23804210807E+03  0.30170773950E+03  0.17200000000E+03 0. -1.
         -6    1    1    2    0  503 -0.14755851118E+02 -0.67540948423E+02 -0.25747068854E+03  0.31726120203E+03  0.17200000000E+03 0. -1.
</event>
<event>
 4    1  0.1241325E+000  0.1802118E+03  0.7818608E-02  0.1167598E+00
         21   -1    0    0  503  502  0.00000000000E+00  0.00000000000E+00  0.27346829782E+03  0.27346829782E+03  0.00000000000E+00 0.  1.
         21   -1    0    0  501  503 -0.00000000000E+00 -0.00000000000E+00 -0.52444577090E+03  0.52444577090E+03  0.00000000000E+00 0.  1.
          6    1    1    2  501    0 -0.47301536879E+02  0.25589869566E+02 -0.47637981183E+03  0.50932700884E+03  0.17200000000E+03 0.  1.
         -6    1    1    2    0  502  0.47301536879E+02 -0.25589869566E+02  0.22540233875E+03  0.28858705988E+03  0.17200000000E+03 0.  1.
</event>
<event>
 4    1  0.1241325E+000  0.1749795E+03  0.7818608E-02  0.1172752E+00
         21   -1    0    0  501  502  0.00000000000E+00  0.00000000000E+00  0.52330964314E+02  0.52330964314E+02  0.00000000000E+00 0.  1.
         21   -1    0    0  502  503 -0.00000000000E+00 -0.00000000000E+00 -0.66255934005E+03  0.66255934005E+03  0.00000000000E+00 0.  1.
          6    1    1    2  501    0 -0.27621335335E+02  0.16458994857E+02 -0.42734706810E+03  0.46178279883E+03  0.17200000000E+03 0.  1.
         -6    1    1    2    0  503  0.27621335335E+02 -0.16458994857E+02 -0.18288130764E+03  0.25310750554E+03  0.17200000000E+03 0.  1.
</event>
<event>
 4    1  0.1241325E+000  0.1735943E+03  0.7818608E-02  0.1174151E+00
         21   -1    0    0  503  502  0.00000000000E+00  0.00000000000E+00  0.47666703812E+03  0.47666703812E+03  0.00000000000E+00 0.  1.
         21   -1    0    0  501  503 -0.00000000000E+00 -0.00000000000E+00 -0.66177056041E+02  0.66177056041E+02  0.00000000000E+00 0.  1.
          6    1    1    2  501    0  0.52252449863E+01 -0.22884041779E+02  0.14787207263E+03  0.22803756800E+03  0.17200000000E+03 0. -1.
         -6    1    1    2    0  502 -0.52252449863E+01  0.22884041779E+02  0.26261790945E+03  0.31480652616E+03  0.17200000000E+03 0. -1.
</event>
<event>
 4    1  0.1241325E+000  0.2576145E+03  0.7818608E-02  0.1108585E+00
         21   -1    0    0  501  502  0.00000000000E+00  0.00000000000E+00  0.15804385897E+03  0.15804385897E+03  0.00000000000E+00 0. -1.
         21   -1    0    0  502  503 -0.00000000000E+00 -0.00000000000E+00 -0.51608570126E+03  0.51608570126E+03  0.00000000000E+00 0. -1.
          6    1    1    2  501    0 -0.89332614566E+02  0.16970833081E+03 -0.33518462677E+02  0.25978591361E+03  0.17200000000E+03 0.  1.
         -6    1    1    2    0  503  0.89332614566E+02 -0.16970833081E+03 -0.32452337962E+03  0.41434364662E+03  0.17200000000E+03 0.  1.
</event>
<event>
 4    1  0.1241325E+000  0.1830361E+03  0.7818608E-02  0.1164897E+00
         21   -1    0    0  503  502  0.00000000000E+00  0.00000000000E+00  0.47365624545E+03  0.47365624545E+03  0.00000000000E+00 0. -1.
         21   -1    0    0  501  503 -0.00000000000E+00 -0.00000000000E+00 -0.13668525850E+03  0.13668525850E+03  0.00000000000E+00 0. -1.
          6    1    1    2  501    0 -0.56339117709E+02  0.27278717832E+02 -0.43498553359E+02  0.18813385866E+03  0.17200000000E+03 0. -1.
         -6    1    1    2    0  502  0.56339117709E+02 -0.27278717832E+02  0.38046954031E+03  0.42220764528E+03  0.17200000000E+03 0. -1.
</event>
<event>
 4    1  0.1241325E+000  0.1881533E+03  0.7818608E-02  0.1160138E+00
         21   -1    0    0  501  502  0.00000000000E+00  0.00000000000E+00  0.10157703951E+03  0.10157703951E+03  0.00000000000E+00 0.  1.
         21   -1    0    0  502  503 -0.00000000000E+00 -0.00000000000E+00 -0.35151738985E+03  0.35151738985E+03  0.00000000000E+00 0.  1.
          6    1    1    2  501    0  0.76169503064E+02 -0.39859190722E+01 -0.14588819659E+03  0.23808621685E+03  0.17200000000E+03 0.  1.
         -6    1    1    2    0  503 -0.76169503064E+02  0.39859190722E+01 -0.10405215375E+03  0.21500821251E+03  0.17200000000E+03 0.  1.
</event>
<event>
 4    1  0.1241325E+000  0.1762729E+03  0.7818608E-02  0.1171460E+00
         21   -1    0    0  501  502  0.00000000000E+00  0.00000000000E+00  0.94922211713E+03  0.94922211713E+03  0.00000000000E+00 0.  1.
         21   -1    0    0  502  503 -0.00000000000E+00 -0.00000000000E+00 -0.45014746202E+02  0.45014746202E+02  0.00000000000E+00 0.  1.
          6    1    1    2  501    0  0.21034648604E+02 -0.32337145728E+02  0.71175412018E+03  0.73325716841E+03  0.17200000000E+03 0.  1.
         -6    1    1    2    0  503 -0.21034648604E+02  0.32337145728E+02  0.19245325074E+03  0.26097969492E+03  0.17200000000E+03 0.  1.
</event>
<event>
 4    1  0.1241325E+000  0.1862305E+03  0.7818608E-02  0.1161906E+00
         21   -1    0    0  501  502  0.00000000000E+00  0.00000000000E+00  0.74875777547E+02  0.74875777547E+02  0.00000000000E+00 0. -1.
         21   -1    0    0  502  503 -0.00000000000E+00 -0.00000000000E+00 -0.54767061919E+03  0.54767061919E+03  0.00000000000E+00 0. -1.
          6    1    1    2  501    0  0.31355848104E+02 -0.64145231202E+02 -0.11414498729E+03  0.21842819877E+03  0.17200000000E+03 0.  1.
         -6    1    1    2    0  503 -0.31355848104E+02  0.64145231202E+02 -0.35864985436E+03  0.40411819796E+03  0.17200000000E+03 0.  1.
</event>
<event>
 4    1  0.1241325E+000  0.2267391E+03  0.7818608E-02  0.1128956E+00
         21   -1    0    0  503  502  0.00000000000E+00  0.00000000000E+00  0.79686769621E+03  0.79686769621E+03  0.00000000000E+00 0. -1.
         21   -1    0    0  501  503 -0.00000000000E+00 -0.00000000000E+00 -0.68325823979E+02  0.68325823979E+02  0.00000000000E+00 0.  1.
          6    1    1    2  501    0 -0.12927046480E+03 -0.71524530382E+02  0.26211801901E+03  0.34657822697E+03  0.17200000000E+03 0. -1.
         -6    1    1    2    0  502  0.12927046480E+03  0.71524530382E+02  0.46642385321E+03  0.51861529322E+03  0.17200000000E+03 0. -1.
</event>
<event>
 4    1  0.1241325E+000  0.2836901E+03  0.7818608E-02  0.1093690E+00
         21   -1    0    0  503  502  0.00000000000E+00  0.00000000000E+00  0.87582277243E+03  0.87582277243E+03  0.00000000000E+00 0. -1.
         21   -1    0    0  501  503 -0.00000000000E+00 -0.00000000000E+00 -0.92309541078E+02  0.92309541078E+02  0.00000000000E+00 0.  1.
          6    1    1    2  501    0 -0.17801985043E+03 -0.13858212221E+03  0.35915460219E+03  0.45768122095E+03  0.17200000000E+03 0. -1.
         -6    1    1    2    0  502  0.17801985043E+03  0.13858212221E+03  0.42435862917E+03  0.51045109256E+03  0.17200000000E+03 0. -1.
</event>
<event>
 4    1  0.1241325E+000  0.1847374E+03  0.7818608E-02  0.1163295E+00
         21   -1    0    0  503  502  0.00000000000E+00  0.00000000000E+00  0.47379828085E+03  0.47379828085E+03  0.00000000000E+00 0.  1.
         21   -1    0    0  501  503 -0.00000000000E+00 -0.00000000000E+00 -0.77173214820E+02  0.77173214820E+02  0.00000000000E+00 0.  1.
          6    1    1    2  501    0 -0.53380413164E+02 -0.41163729722E+02  0.12719730813E+03  0.22429239031E+03  0.17200000000E+03 0.  1.
         -6    1    1    2    0  502  0.53380413164E+02  0.41163729722E+02  0.26942775790E+03  0.32667910537E+03  0.17200000000E+03 0.  1.
</event>
<event>
 4    1  0.1241325E+000  0.1956834E+03  0.7818608E-02  0.1153433E+00
         21   -1    0    0  503  502  0.00000000000E+00  0.00000000000E+00  0.11787367696E+04  0.11787367696E+04  0.00000000000E+00 0. -1.
         21   -1    0    0  501  503 -0.00000000000E+00 -0.00000000000E+00 -0.30844437762E+03  0.30844437762E+03  0.00000000000E+00 0. -1.
          6    1    1    2  501    0 -0.50005111938E+02 -0.78787512164E+02 -0.26819741166E+03  0.33199673931E+03  0.17200000000E+03 0. -1.
         -6    1    1    2    0  502  0.50005111938E+02  0.78787512164E+02  0.11384898036E+04  0.11551844079E+04  0.17200000000E+03 0. -1.
</event>
<event>
 4    1  0.1241325E+000  0.1806407E+03  0.7818608E-02  0.1167184E+00
         21   -1    0    0  503  502  0.00000000000E+00  0.00000000000E+00  0.32864258071E+03  0.32864258071E+03  0.00000000000E+00 0.  1.
         21   -1    0    0  501  503 -0.00000000000E+00 -0.00000000000E+00 -0.12686345128E+03  0.12686345128E+03  0.00000000000E+00 0.  1.
          6    1    1    2  501    0 -0.30763715892E+02  0.45832874289E+02 -0.52893210038E+01  0.18071811060E+03  0.17200000000E+03 0.  1.
         -6    1    1    2    0  502  0.30763715892E+02 -0.45832874289E+02  0.20706845043E+03  0.27478792139E+03  0.17200000000E+03 0.  1.
</event>
<event>
 4    1  0.1241325E+000  0.2570555E+03  0.7818608E-02  0.1108925E+00
         21   -1    0    0  503  502  0.00000000000E+00  0.00000000000E+00  0.28479430157E+03  0.28479430157E+03  0.00000000000E+00 0.  1.
         21   -1    0    0  501  503 -0.00000000000E+00 -0.00000000000E+00 -0.85653567274E+03  0.85653567274E+03  0.00000000000E+00 0.  1.
          6    1    1    2  501    0 -0.25315444839E+02 -0.18934801829E+03 -0.77315305239E+03  0.81476572473E+03  0.17200000000E+03 0. -1.
         -6    1    1    2    0  502  0.25315444839E+02  0.18934801829E+03  0.20141168121E+03  0.32656424958E+03  0.17200000000E+03 0. -1.
</event>
<event>
 4    1  0.1241325E+000  0.2061605E+03  0.7818608E-02  0.1144643E+00
         21   -1    0    0  501  502  0.00000000000E+00  0.00000000000E+00  0.12359558111E+03  0.12359558111E+03  0.00000000000E+00 0.  1.
         21   -1    0    0  502  503 -0.00000000000E+00 -0.00000000000E+00 -0.35713261791E+03  0.35713261791E+03  0.00000000000E+00 0. -1.
          6    1    1    2  501    0 -0.93111145402E+02  0.65180266558E+02 -0.70467357601E+02  0.21787106516E+03  0.17200000000E+03 0.  1.
         -6    1    1    2    0  503  0.93111145402E+02 -0.65180266558E+02 -0.16306967920E+03  0.26285713386E+03  0.17200000000E+03 0. -1.
</event>
<event>
 4    1  0.1241325E+000  0.1858988E+03  0.7818608E-02  0.1162213E+00
         21   -1    0    0  501  502  0.00000000000E+00  0.00000000000E+00  0.64659029960E+02  0.64659029960E+02  0.00000000000E+00 0. -1.
         21   -1    0    0  502  503 -0.00000000000E+00 -0.00000000000E+00 -0.57091983613E+03  0.57091983613E+03  0.00000000000E+00 0. -1.
          6    1    1    2  501    0  0.70422630963E+02 -0.38750308022E+01 -0.17283420725E+03  0.25383070344E+03  0.17200000000E+03 0. -1.
         -6    1    1    2    0  503 -0.70422630963E+02  0.38750308022E+01 -0.33342659892E+03  0.38174816265E+03  0.17200000000E+03 0. -1.
</event>
<event>
 4    1  0.1241325E+000  0.2024006E+03  0.7818608E-02  0.1147729E+00
         21   -1    0    0  501  502  0.00000000000E+00  0.00000000000E+00  0.21082200557E+02  0.21082200557E+02  0.00000000000E+00 0.  1.
         21   -1    0    0  502  503 -0.00000000000E+00 -0.00000000000E+00 -0.19908454610E+04  0.19908454610E+04  0.00000000000E+00 0.  1.
          6    1    1    2  501    0  0.45967049230E+02 -0.96275735863E+02 -0.11405780385E+04  0.11583972759E+04  0.17200000000E+03 0.  1.
         -6    1    1    2    0  503 -0.45967049230E+02  0.96275735863E+02 -0.82918522191E+03  0.85353038561E+03  0.17200000000E+03 0.  1.
</event>
<event>
 4    1  0.1241325E+000  0.1773181E+03  0.7818608E-02  0.1170424E+00
         21   -1    0    0  501  502  0.00000000000E+00  0.00000000000E+00  0.19991424208E+03  0.19991424208E+03  0.00000000000E+00 0.  1.
         21   -1    0    0  502  503 -0.00000000000E+00 -0.00000000000E+00 -0.17118115160E+03  0.17118115160E+03  0.00000000000E+00 0.  1.
          6    1    1    2  501    0 -0.39808803055E+02  0.16521489151E+02  0.67249582757E+02  0.18964231275E+03  0.17200000000E+03 0. -1.
         -6    1    1    2    0  503  0.39808803055E+02 -0.16521489151E+02 -0.38516492276E+02  0.18145308094E+03  0.17200000000E+03 0. -1.
</event>
<event>
 4    1  0.1241325E+000  0.1897091E+03  0.7818608E-02  0.1158724E+00
         21   -1    0    0  503  502  0.00000000000E+00  0.00000000000E+00  0.79772809642E+02  0.79772809642E+02  0.00000000000E+00 0. -1.
         21   -1    0    0  501  503 -0.00000000000E+00 -0.00000000000E+00 -0.54364605625E+03  0.54364605625E+03  0.00000000000E+00 0. -1.
          6    1    1    2  501    0  0.79135595875E+02  0.11962887426E+02 -0.36051026846E+03  0.40737845657E+03  0.17200000000E+03 0.  1.
         -6    1    1    2    0  502 -0.79135595875E+02 -0.11962887426E+02 -0.10336297815E+03  0.21604040933E+03  0.17200000000E+03 0.  1.
</event>
<event>
 4    1  0.1241325E+000  0.1957983E+03  0.7818608E-02  0.1153333E+00
         21   -1    0    0  501  502  0.00000000000E+00  0.00000000000E+00  0.35496555521E+03  0.35496555521E+03  0.00000000000E+00 0. -1.
         21   -1    0    0  502  503 -0.00000000000E+00 -0.00000000000E+00 -0.13244491141E+03  0.13244491141E+03  0.00000000000E+00 0. -1.
          6    1    1    2  501    0  0.93417480408E+02  0.51149764556E+01  0.21595478526E+03  0.29150207188E+03  0.17200000000E+03 0.  1.
         -6    1    1    2    0  503 -0.93417480408E+02 -0.51149764556E+01  0.65658585356E+01  0.19590839474E+03  0.17200000000E+03 0.  1.
</event>
<event>
 4    1  0.1241325E+000  0.1780303E+03  0.7818608E-02  0.1169723E+00
         21   -1    0    0  501  502  0.00000000000E+00  0.00000000000E+00  0.13030649871E+03  0.13030649871E+03  0.00000000000E+00 0.  1.
         21   -1    0    0  502  503 -0.00000000000E+00 -0.00000000000E+00 -0.34329786579E+03  0.34329786579E+03  0.00000000000E+00 0. -1.
          6    1    1    2  501    0 -0.44165729390E+02  0.12655652610E+02  0.21351749654E+02  0.17930609139E+03  0.17200000000E+03 0.  1.
         -6    1    1    2    0  503  0.44165729390E+02 -0.12655652610E+02 -0.23434311673E+03  0.29429827311E+03  0.17200000000E+03 0.  1.
</event>
<event>
 4    1  0.1241325E+000  0.2022948E+03  0.7818608E-02  0.1147817E+00
         21   -1    0    0  501  502  0.00000000000E+00  0.00000000000E+00  0.30035869042E+03  0.30035869042E+03  0.00000000000E+00 0.  1.
         21   -1    0    0  502  503 -0.00000000000E+00 -0.00000000000E+00 -0.18197035925E+03  0.18197035925E+03  0.00000000000E+00 0. -1.
          6    1    1    2  501    0  0.98450004457E+02 -0.40580349356E+02  0.18008100902E+03  0.27083636746E+03  0.17200000000E+03 0.  1.
         -6    1    1    2    0  503 -0.98450004457E+02  0.40580349356E+02 -0.61692677843E+02  0.21149268222E+03  0.17200000000E+03 0. -1.
</event>
<event>
 4    1  0.1241325E+000  0.2606570E+03  0.7818608E-02  0.1106749E+00
         21   -1    0    0  501  502  0.00000000000E+00  0.00000000000E+00  0.86988840166E+02  0.86988840166E+02  0.00000000000E+00 0.  1.
         21   -1    0    0  502  503 -0.00000000000E+00 -0.00000000000E+00 -0.92356745165E+03  0.92356745165E+03  0.00000000000E+00 0. -1.
          6    1    1    2  501    0 -0.18572266327E+03  0.62170384190E+02 -0.21979858882E+03  0.34095965153E+03  0.17200000000E+03 0. -1.
         -6    1    1    2    0  503  0.18572266327E+03 -0.62170384190E+02 -0.61678002266E+03  0.66959664028E+03  0.17200000000E+03 0. -1.
</event>
<event>
 4    1  0.1241325E+000  0.3209276E+03  0.7818608E-02  0.1075223E+00
         21   -1    0    0  503  502  0.00000000000E+00  0.00000000000E+00  0.10550118717E+03  0.10550118717E+03  0.00000000000E+00 0.  1.
         21   -1    0    0  501  503 -0.00000000000E+00 -0.00000000000E+00 -0.11087042815E+04  0.11087042815E+04  0.00000000000E+00 0.  1.
          6    1    1    2  501    0 -0.24798116314E+03  0.10915994241E+03 -0.71144847344E+03  0.78048285097E+03  0.17200000000E+03 0.  1.
         -6    1    1    2    0  502  0.24798116314E+03 -0.10915994241E+03 -0.29175462091E+03  0.43372261772E+03  0.17200000000E+03 0.  1.
</event>
<event>
 4    1  0.1241325E+000  0.1871508E+03  0.7818608E-02  0.1161057E+00
         21   -1    0    0  501  502  0.00000000000E+00  0.00000000000E+00  0.15572880600E+03  0.15572880600E+03  0.00000000000E+00 0. -1.
         21   -1    0    0  502  503 -0.00000000000E+00 -0.00000000000E+00 -0.23120959476E+03  0.23120959476E+03  0.00000000000E+00 0. -1.
          6    1    1    2  501    0  0.27715201330E+02  0.68361339323E+02 -0.58126712535E+01  0.18724100044E+03  0.17200000000E+03 0. -1.
         -6    1    1    2    0  503 -0.27715201330E+02 -0.68361339323E+02 -0.69668117507E+02  0.19969740032E+03  0.17200000000E+03 0. -1.
</event>
<event>
 4    1  0.1241325E+000  0.1745890E+03  0.7818608E-02  0.1173145E+00
         21   -1    0    0  503  502  0.00000000000E+00  0.00000000000E+00  0.24594696480E+03  0.24594696480E+03  0.00000000000E+00 0.  1.
         21   -1    0    0  501  503 -0.00000000000E+00 -0.00000000000E+00 -0.12839144038E+03  0.12839144038E+03  0.00000000000E+00 0.  1.
          6    1    1    2  501    0  0.29695173417E+02  0.39389030193E+01  0.23905193360E+02  0.17621798021E+03  0.17200000000E+03 0. -1.
         -6    1    1    2    0  502 -0.29695173417E+02 -0.39389030193E+01  0.93650331063E+02  0.19812042497E+03  0.17200000000E+03 0. -1.
</event>
<event>
 4    1  0.1241325E+000  0.1934509E+03  0.7818608E-02  0.1155385E+00
         21   -1    0    0  501  502  0.00000000000E+00  0.00000000000E+00  0.71102290233E+02  0.71102290233E+02  0.00000000000E+00 0.  1.
         21   -1    0    0  502  503 -0.00000000000E+00 -0.00000000000E+00 -0.61619385683E+03  0.61619385683E+03  0.00000000000E+00 0. -1.
          6    1    1    2  501    0  0.64578692715E+02 -0.60570957936E+02 -0.40378040855E+03  0.44772968053E+03  0.17200000000E+03 0. -1.
         -6    1    1    2    0  503 -0.64578692715E+02  0.60570957936E+02 -0.14131115804E+03  0.23956646653E+03  0.17200000000E+03 0.  1.
</event>
<event>
 4    1  0.1241325E+000  0.2656076E+03  0.7818608E-02  0.1103820E+00
         21   -1    0    0  501  502  0.00000000000E+00  0.00000000000E+00  0.45818271779E+03  0.45818271779E+03  0.00000000000E+00 0.  1.
         21   -1    0    0  502  503 -0.00000000000E+00 -0.00000000000E+00 -0.40381638275E+03  0.40381638275E+03  0.00000000000E+00 0. -1.
          6    1    1    2  501    0  0.17296326241E+03  0.10510515327E+03  0.36619862813E+03  0.45238127573E+03  0.17200000000E+03 0.  1.
         -6    1    1    2    0  503 -0.17296326241E+03 -0.10510515327E+03 -0.31183229309E+03  0.40961782481E+03  0.17200000000E+03 0. -1.
</event>
<event>
 4    1  0.1241325E+000  0.2010111E+03  0.7818608E-02  0.1148889E+00
         21   -1    0    0  503  502  0.00000000000E+00  0.00000000000E+00  0.12124879088E+03  0.12124879088E+03  0.00000000000E+00 0. -1.
         21   -1    0    0  501  503 -0.00000000000E+00 -0.00000000000E+00 -0.87608839711E+03  0.87608839711E+03  0.00000000000E+00 0. -1.
          6    1    1    2  501    0  0.88827797431E+02  0.54139451188E+02 -0.76995232825E+03  0.79575878603E+03  0.17200000000E+03 0. -1.
         -6    1    1    2    0  502 -0.88827797431E+02 -0.54139451188E+02  0.15112722022E+02  0.20157840196E+03  0.17200000000E+03 0. -1.
</event>
<event>
 4    1  0.1241325E+000  0.3042491E+03  0.7818608E-02  0.1083136E+00
         21   -1    0    0  503  502  0.00000000000E+00  0.00000000000E+00  0.27338263618E+03  0.27338263618E+03  0.00000000000E+00 0.  1.
         21   -1    0    0  501  503 -0.00000000000E+00 -0.00000000000E+00 -0.35360387197E+03  0.35360387197E+03  0.00000000000E+00 0. -1.
          6    1    1    2  501    0  0.25039754953E+03 -0.16870204535E+02 -0.10468526642E+03  0.32175540651E+03  0.17200000000E+03 0. -1.
         -6    1    1    2    0  502 -0.25039754953E+03  0.16870204535E+02  0.24464030642E+02  0.30523110164E+03  0.17200000000E+03 0.  1.
</event>
<event>
 4    1  0.1241325E+000  0.2123178E+03  0.7818608E-02  0.1139744E+00
         21   -1    0    0  501  502  0.00000000000E+00  0.00000000000E+00  0.13634076884E+04  0.13634076884E+04  0.00000000000E+00 0.  1.
         21   -1    0    0  502  503 -0.00000000000E+00 -0.00000000000E+00 -0.53868052600E+02  0.53868052600E+02  0.00000000000E+00 0.  1.
          6    1    1    2  501    0 -0.16705422245E+01  0.12446712576E+03  0.10951616368E+04  0.11155527181E+04  0.17200000000E+03 0.  1.
         -6    1    1    2    0  503  0.16705422245E+01 -0.12446712576E+03  0.21437799903E+03  0.30172302294E+03  0.17200000000E+03 0.  1.
</event>
<event>
 4    1  0.1241325E+000  0.1872812E+03  0.7818608E-02  0.1160937E+00
         21   -1    0    0  501  502  0.00000000000E+00  0.00000000000E+00  0.42252895625E+03  0.42252895625E+03  0.00000000000E+00 0. -1.
         21   -1    0    0  502  503 -0.00000000000E+00 -0.00000000000E+00 -0.85218143601E+02  0.85218143601E+02  0.00000000000E+00 0. -1.
          6    1    1    2  501    0 -0.13243033511E+02  0.72903051613E+02  0.20951940129E+03  0.28102066185E+03  0.17200000000E+03 0. -1.
         -6    1    1    2    0  503  0.13243033511E+02 -0.72903051613E+02  0.12779141137E+03  0.22672643800E+03  0.17200000000E+03 0. -1.
</event>
<event>
 4    1  0.1241325E+000  0.2314471E+03  0.7818608E-02  0.1125625E+00
         21   -1    0    0  503  502  0.00000000000E+00  0.00000000000E+00  0.11698450090E+03  0.11698450090E+03  0.00000000000E+00 0.  1.
         21   -1    0    0  501  503 -0.00000000000E+00 -0.00000000000E+00 -0.14403795615E+04  0.14403795615E+04  0.00000000000E+00 0.  1.
          6    1    1    2  501    0  0.11058161573E+03  0.10842270938E+03 -0.13048032238E+04  0.13251713966E+04  0.17200000000E+03 0.  1.
         -6    1    1    2    0  502 -0.11058161573E+03 -0.10842270938E+03 -0.18591836819E+02  0.23219266578E+03  0.17200000000E+03 0.  1.
</event>
<event>
 4    1  0.1241325E+000  0.1771783E+03  0.7818608E-02  0.1170562E+00
         21   -1    0    0  501  502  0.00000000000E+00  0.00000000000E+00  0.72790513734E+03  0.72790513734E+03  0.00000000000E+00 0.  1.
         21   -1    0    0  502  503 -0.00000000000E+00 -0.00000000000E+00 -0.51769007640E+02  0.51769007640E+02  0.00000000000E+00 0.  1.
          6    1    1    2  501    0 -0.40225563718E+02  0.13785783306E+02  0.49734877037E+03  0.52796585418E+03  0.17200000000E+03 0.  1.
         -6    1    1    2    0  503  0.40225563718E+02 -0.13785783306E+02  0.17878735933E+03  0.25170829079E+03  0.17200000000E+03 0.  1.
</event>
<event>
 4    1  0.1241325E+000  0.1908380E+03  0.7818608E-02  0.1157708E+00
         21   -1    0    0  501  502  0.00000000000E+00  0.00000000000E+00  0.30304659326E+04  0.30304659326E+04  0.00000000000E+00 0. -1.
         21   -1    0    0  502  503 -0.00000000000E+00 -0.00000000000E+00 -0.15364804811E+02  0.15364804811E+02  0.00000000000E+00 0. -1.
          6    1    1    2  501    0  0.82648476061E+02 -0.20890273514E+01  0.22183530740E+04  0.22265465402E+04  0.17200000000E+03 0. -1.
         -6    1    1    2    0  503 -0.82648476061E+02  0.20890273514E+01  0.79674805382E+03  0.81928419727E+03  0.17200000000E+03 0. -1.
</event>
<event>
 4    1  0.1241325E+000  0.1781301E+03  0.7818608E-02  0.1169625E+00
         21   -1    0    0  501  502  0.00000000000E+00  0.00000000000E+00  0.26561167418E+02  0.26561167418E+02  0.00000000000E+00 0.  1.
         21   -1    0    0  502  503 -0.00000000000E+00 -0.00000000000E+00 -0.13016018773E+04  0.13016018773E+04  0.00000000000E+00 0.  1.
          6    1    1    2  501    0  0.42585666583E+02 -0.18242993945E+02 -0.44712807212E+03  0.48130433065E+03  0.17200000000E+03 0.  1.
         -6    1    1    2    0  503 -0.42585666583E+02  0.18242993945E+02 -0.82791263780E+03  0.84685871410E+03  0.17200000000E+03 0.  1.
</event>
<event>
 4    1  0.1241325E+000  0.2367195E+03  0.7818608E-02  0.1121998E+00
         21   -1    0    0  501  502  0.00000000000E+00  0.00000000000E+00  0.49527465760E+03  0.49527465760E+03  0.00000000000E+00 0. -1.
         21   -1    0    0  502  503 -0.00000000000E+00 -0.00000000000E+00 -0.12506061628E+03  0.12506061628E+03  0.00000000000E+00 0. -1.
          6    1    1    2  501    0  0.12384850888E+03 -0.10542145301E+03  0.28086115989E+03  0.36731339078E+03  0.17200000000E+03 0. -1.
         -6    1    1    2    0  503 -0.12384850888E+03  0.10542145301E+03  0.89352881427E+02  0.25302188310E+03  0.17200000000E+03 0. -1.
</event>
<event>
 4    1  0.1241325E+000  0.1850411E+03  0.7818608E-02  0.1163012E+00
         21   -1    0    0  503  502  0.00000000000E+00  0.00000000000E+00  0.17136103664E+03  0.17136103664E+03  0.00000000000E+00 0. -1.
         21   -1    0    0  501  503 -0.00000000000E+00 -0.00000000000E+00 -0.21301823024E+03  0.21301823024E+03  0.00000000000E+00 0. -1.
          6    1    1    2  501    0 -0.45032093695E+02 -0.51267169978E+02 -0.68679465211E+02  0.19737548258E+03  0.17200000000E+03 0. -1.
         -6    1    1    2    0  502  0.45032093695E+02  0.51267169978E+02  0.27022271606E+02  0.18700378430E+03  0.17200000000E+03 0. -1.
</event>
<event>
 4    1  0.1241325E+000  0.3102838E+03  0.7818608E-02  0.1080210E+00
         21   -1    0    0  503  502  0.00000000000E+00  0.00000000000E+00  0.10968636406E+03  0.10968636406E+03  0.00000000000E+00 0.  1.
         21   -1    0    0  501  503 -0.00000000000E+00 -0.00000000000E+00 -0.11563942018E+04  0.11563942018E+04  0.00000000000E+00 0. -1.
          6    1    1    2  501    0 -0.83553605068E+02  0.24435801100E+03 -0.83410429735E+03  0.88994720142E+03  0.17200000000E+03 0.  1.
         -6    1    1    2    0  502  0.83553605068E+02 -0.24435801100E+03 -0.21260354041E+03  0.37613336445E+03  0.17200000000E+03 0. -1.
</event>
<event>
 4    1  0.1241325E+000  0.2119717E+03  0.7818608E-02  0.1140014E+00
         21   -1    0    0  503  502  0.00000000000E+00  0.00000000000E+00  0.23933531669E+03  0.23933531669E+03  0.00000000000E+00 0.  1.
         21   -1    0    0  501  503 -0.00000000000E+00 -0.00000000000E+00 -0.18787599228E+03  0.18787599228E+03  0.00000000000E+00 0. -1.
          6    1    1    2  501    0  0.11453381486E+03  0.47222905674E+02  0.31548058249E+02  0.21430650374E+03  0.17200000000E+03 0.  1.
         -6    1    1    2    0  502 -0.11453381486E+03 -0.47222905674E+02  0.19911266169E+02  0.21290480523E+03  0.17200000000E+03 0.  1.
</event>
<event>
 4    1  0.1241325E+000  0.1762246E+03  0.7818608E-02  0.1171508E+00
         21   -1    0    0  503  502  0.00000000000E+00  0.00000000000E+00  0.40429454131E+03  0.40429454131E+03  0.00000000000E+00 0. -1.
         21   -1    0    0  501  503 -0.00000000000E+00 -0.00000000000E+00 -0.77121011879E+02  0.77121011879E+02  0.00000000000E+00 0. -1.
          6    1    1    2  501    0 -0.60054818668E+01  0.37881796531E+02  0.14837592795E+03  0.23037038073E+03  0.17200000000E+03 0. -1.
         -6    1    1    2    0  502  0.60054818668E+01 -0.37881796531E+02  0.17879760148E+03  0.25104517246E+03  0.17200000000E+03 0. -1.
</event>
<event>
 4    1  0.1241325E+000  0.1833803E+03  0.7818608E-02  0.1164571E+00
         21   -1    0    0  503  502  0.00000000000E+00  0.00000000000E+00  0.32867393870E+03  0.32867393870E+03  0.00000000000E+00 0.  1.
         21   -1    0    0  501  503 -0.00000000000E+00 -0.00000000000E+00 -0.24154843103E+03  0.24154843103E+03  0.00000000000E+00 0.  1.
          6    1    1    2  501    0  0.41127437886E+02 -0.48506297264E+02 -0.17290023750E+03  0.25203733681E+03  0.17200000000E+03 0.  1.
         -6    1    1    2    0  502 -0.41127437886E+02  0.48506297264E+02  0.26002574517E+03  0.31818503292E+03  0.17200000000E+03 0.  1.
</event>
<event>
 4    1  0.1241325E+000  0.2310484E+03  0.7818608E-02  0.1125904E+00
         21   -1    0    0  501  502  0.00000000000E+00  0.00000000000E+00  0.17358416738E+03  0.17358416738E+03  0.00000000000E+00 0.  1.
         21   -1    0    0  502  503 -0.00000000000E+00 -0.00000000000E+00 -0.31042412080E+03  0.31042412080E+03  0.00000000000E+00 0. -1.
          6    1    1    2  501    0 -0.14219144740E+03 -0.59841181988E+02 -0.45077054181E+02  0.23540457852E+03  0.17200000000E+03 0. -1.
         -6    1    1    2    0  503  0.14219144740E+03  0.59841181988E+02 -0.91762899247E+02  0.24860370966E+03  0.17200000000E+03 0. -1.
</event>
<event>
 4    1  0.1241325E+000  0.1818259E+03  0.7818608E-02  0.1166048E+00
         21   -1    0    0  501  502  0.00000000000E+00  0.00000000000E+00  0.39619330664E+02  0.39619330664E+02  0.00000000000E+00 0.  1.
         21   -1    0    0  502  503 -0.00000000000E+00 -0.00000000000E+00 -0.87750685736E+03  0.87750685736E+03  0.00000000000E+00 0.  1.
          6    1    1    2  501    0 -0.52700267474E+02 -0.26445121809E+02 -0.31737614687E+03  0.36577080428E+03  0.17200000000E+03 0. -1.
         -6    1    1    2    0  503  0.52700267474E+02  0.26445121809E+02 -0.52051137982E+03  0.55135538374E+03  0.17200000000E+03 0. -1.
</event>
<event>
 4    1  0.1241325E+000  0.1757767E+03  0.7818608E-02  0.1171954E+00
         21   -1    0    0  503  502  0.00000000000E+00  0.00000000000E+00  0.77564555003E+02  0.77564555003E+02  0.00000000000E+00 0.  1.
         21   -1    0    0  501  503 -0.00000000000E+00 -0.00000000000E+00 -0.59598657463E+03  0.59598657463E+03  0.00000000000E+00 0.  1.
          6    1    1    2  501    0 -0.21189447402E+02 -0.29401598784E+02 -0.45314841115E+03  0.48604622128E+03  0.17200000000E+03 0.  1.
         -6    1    1    2    0  502  0.21189447402E+02  0.29401598784E+02 -0.65273608474E+02  0.18750490835E+03  0.17200000000E+03 0.  1.
</event>
<event>
 4    1  0.1241325E+000  0.2069357E+03  0.7818608E-02  0.1144016E+00
         21   -1    0    0  503  502  0.00000000000E+00  0.00000000000E+00  0.28677260981E+02  0.28677260981E+02  0.00000000000E+00 0.  1.
         21   -1    0    0  501  503 -0.00000000000E+00 -0.00000000000E+00 -0.18156947135E+04  0.18156947135E+04  0.00000000000E+00 0.  1.
          6    1    1    2  501    0 -0.40767256463E+02  0.10759372836E+03 -0.50489034843E+03  0.54565249337E+03  0.17200000000E+03 0.  1.
         -6    1    1    2    0  502  0.40767256463E+02 -0.10759372836E+03 -0.12821271041E+04  0.12987194811E+04  0.17200000000E+03 0.  1.
</event>
<event>
 4    1  0.1241325E+000  0.1943664E+03  0.7818608E-02  0.1154581E+00
         21   -1    0    0  501  502  0.00000000000E+00  0.00000000000E+00  0.44187703638E+03  0.44187703638E+03  0.00000000000E+00 0.  1.
         21   -1    0    0  502  503 -0.00000000000E+00 -0.00000000000E+00 -0.93540293801E+02  0.93540293801E+02  0.00000000000E+00 0.  1.
          6    1    1    2  501    0 -0.12792560637E+01 -0.90513216325E+02  0.25267998794E+03  0.31878747643E+03  0.17200000000E+03 0.  1.
         -6    1    1    2    0  503  0.12792560637E+01  0.90513216325E+02  0.95656754638E+02  0.21662985374E+03  0.17200000000E+03 0.  1.
</event>
<event>
 4    1  0.1241325E+000  0.1839345E+03  0.7818608E-02  0.1164049E+00
         21   -1    0    0  503  502  0.00000000000E+00  0.00000000000E+00  0.23360590040E+03  0.23360590040E+03  0.00000000000E+00 0. -1.
         21   -1    0    0  501  503 -0.00000000000E+00 -0.00000000000E+00 -0.14490723379E+03  0.14490723379E+03  0.00000000000E+00 0. -1.
          6    1    1    2  501    0 -0.61872515667E+02 -0.20486404783E+02  0.39832221235E+02  0.18819805213E+03  0.17200000000E+03 0. -1.
         -6    1    1    2    0  502  0.61872515667E+02  0.20486404783E+02  0.48866445376E+02  0.19031508206E+03  0.17200000000E+03 0. -1.
</event>
<event>
 4    1  0.1241325E+000  0.2022839E+03  0.7818608E-02  0.1147826E+00
         21   -1    0    0  501  502  0.00000000000E+00  0.00000000000E+00  0.57704566676E+03  0.57704566676E+03  0.00000000000E+00 0. -1.
         21   -1    0    0  502  503 -0.00000000000E+00 -0.00000000000E+00 -0.10890916208E+03  0.10890916208E+03  0.00000000000E+00 0. -1.
          6    1    1    2  501    0 -0.78950312754E+02 -0.71425616902E+02  0.43665719810E+03  0.48123619906E+03  0.17200000000E+03 0. -1.
         -6    1    1    2    0  503  0.78950312754E+02  0.71425616902E+02  0.31479306583E+02  0.20471862977E+03  0.17200000000E+03 0. -1.
</event>
<event>
 4    1  0.1241325E+000  0.1801809E+03  0.7818608E-02  0.1167628E+00
         21   -1    0    0  501  502  0.00000000000E+00  0.00000000000E+00  0.12021830301E+03  0.12021830301E+03  0.00000000000E+00 0. -1.
         21   -1    0    0  502  503 -0.00000000000E+00 -0.00000000000E+00 -0.29557088076E+03  0.29557088076E+03  0.00000000000E+00 0. -1.
          6    1    1    2  501    0 -0.85303571773E+01  0.52994157700E+02 -0.26589626741E+02  0.18213224864E+03  0.17200000000E+03 0. -1.
         -6    1    1    2    0  503  0.85303571773E+01 -0.52994157700E+02 -0.14876295100E+03  0.23365693513E+03  0.17200000000E+03 0. -1.
</event>
<event>
 4    1  0.1241325E+000  0.1761872E+03  0.7818608E-02  0.1171545E+00
         21   -1    0    0  501  502  0.00000000000E+00  0.00000000000E+00  0.16082237388E+03  0.16082237388E+03  0.00000000000E+00 0.  1.
         21   -1    0    0  502  503 -0.00000000000E+00 -0.00000000000E+00 -0.26882739932E+03  0.26882739932E+03  0.00000000000E+00 0. -1.
          6    1    1    2  501    0 -0.12876866252E+02  0.35946248057E+02  0.60075885382E+02  0.18614794771E+03  0.17200000000E+03 0.  1.
         -6    1    1    2    0  503  0.12876866252E+02 -0.35946248057E+02 -0.16808091082E+03  0.24350182549E+03  0.17200000000E+03 0. -1.
</event>
<event>
 4    1  0.1241325E+000  0.2741079E+03  0.7818608E-02  0.1098951E+00
         21   -1    0    0  503  502  0.00000000000E+00  0.00000000000E+00  0.82538119055E+02  0.82538119055E+02  0.00000000000E+00 0.  1.
         21   -1    0    0  501  503 -0.00000000000E+00 -0.00000000000E+00 -0.92271873594E+03  0.92271873594E+03  0.00000000000E+00 0. -1.
          6    1    1    2  501    0  0.76901790435E+02 -0.19909111696E+03 -0.47838123245E+03  0.55134722434E+03  0.17200000000E+03 0. -1.
         -6    1    1    2    0  502 -0.76901790435E+02  0.19909111696E+03 -0.36179938444E+03  0.45390963066E+03  0.17200000000E+03 0. -1.
</event>
<event>
 4    1  0.1241325E+000  0.1859257E+03  0.7818608E-02  0.1162188E+00
         21   -1    0    0  501  502  0.00000000000E+00  0.00000000000E+00  0.14962665389E+04  0.14962665389E+04  0.00000000000E+00 0. -1.
         21   -1    0    0  502  503 -0.00000000000E+00 -0.00000000000E+00 -0.23104481083E+02  0.23104481083E+02  0.00000000000E+00 0.  1.
          6    1    1    2  501    0 -0.55570842860E+02 -0.43545901363E+02  0.73066312961E+03  0.75394759305E+03  0.17200000000E+03 0.  1.
         -6    1    1    2    0  503  0.55570842860E+02  0.43545901363E+02  0.74249892819E+03  0.76542342691E+03  0.17200000000E+03 0. -1.
</event>
<event>
 4    1  0.1241325E+000  0.1804338E+03  0.7818608E-02  0.1167384E+00
         21   -1    0    0  501  502  0.00000000000E+00  0.00000000000E+00  0.11320869644E+03  0.11320869644E+03  0.00000000000E+00 0. -1.
         21   -1    0    0  502  503 -0.00000000000E+00 -0.00000000000E+00 -0.45711610298E+03  0.45711610298E+03  0.00000000000E+00 0. -1.
          6    1    1    2  501    0 -0.52081883844E+02 -0.16118804573E+02  0.17114043631E+01  0.18044186707E+03  0.17200000000E+03 0. -1.
         -6    1    1    2    0  503  0.52081883844E+02  0.16118804573E+02 -0.34561881090E+03  0.38988293235E+03  0.17200000000E+03 0. -1.
</event>
<event>
 4    1  0.1241325E+000  0.1731203E+03  0.7818608E-02  0.1174632E+00
         21   -1    0    0  501  502  0.00000000000E+00  0.00000000000E+00  0.12075189923E+03  0.12075189923E+03  0.00000000000E+00 0.  1.
         21   -1    0    0  502  503 -0.00000000000E+00 -0.00000000000E+00 -0.24821682309E+03  0.24821682309E+03  0.00000000000E+00 0.  1.
          6    1    1    2  501    0 -0.17285644482E+02 -0.93718234420E+01 -0.65250055510E+02  0.18500863311E+03  0.17200000000E+03 0.  1.
         -6    1    1    2    0  503  0.17285644482E+02  0.93718234420E+01 -0.62214868352E+02  0.18396008921E+03  0.17200000000E+03 0.  1.
</event>
<event>
 4    1  0.1241325E+000  0.1940755E+03  0.7818608E-02  0.1154836E+00
         21   -1    0    0  503  502  0.00000000000E+00  0.00000000000E+00  0.10163026992E+04  0.10163026992E+04  0.00000000000E+00 0.  1.
         21   -1    0    0  501  503 -0.00000000000E+00 -0.00000000000E+00 -0.40323288130E+02  0.40323288130E+02  0.00000000000E+00 0.  1.
          6    1    1    2  501    0  0.89887426002E+02  0.12432805506E+01  0.33772122992E+03  0.38951370225E+03  0.17200000000E+03 0. -1.
         -6    1    1    2    0  502 -0.89887426002E+02 -0.12432805506E+01  0.63825818110E+03  0.66711228504E+03  0.17200000000E+03 0. -1.
</event>
<event>
 4    1  0.1241325E+000  0.1737925E+03  0.7818608E-02  0.1173950E+00
         21   -1    0    0  503  502  0.00000000000E+00  0.00000000000E+00  0.24032518201E+03  0.24032518201E+03  0.00000000000E+00 0.  1.
         21   -1    0    0  501  503 -0.00000000000E+00 -0.00000000000E+00 -0.13228986205E+03  0.13228986205E+03  0.00000000000E+00 0.  1.
          6    1    1    2  501    0 -0.12123292498E+01  0.24867227990E+02  0.95665587166E+02  0.19838284537E+03  0.17200000000E+03 0.  1.
         -6    1    1    2    0  502  0.12123292498E+01 -0.24867227990E+02  0.12369732799E+02  0.17423219869E+03  0.17200000000E+03 0.  1.
</event>
<event>
 4    1  0.1241325E+000  0.4219984E+03  0.7818608E-02  0.1036418E+00
         21   -1    0    0  501  502  0.00000000000E+00  0.00000000000E+00  0.96012437451E+02  0.96012437451E+02  0.00000000000E+00 0. -1.
         21   -1    0    0  502  503 -0.00000000000E+00 -0.00000000000E+00 -0.22892756283E+04  0.22892756283E+04  0.00000000000E+00 0.  1.
          6    1    1    2  501    0 -0.30119805748E+02  0.38417637301E+03 -0.57705371580E+03  0.71489417342E+03  0.17200000000E+03 0.  1.
         -6    1    1    2    0  503  0.30119805748E+02 -0.38417637301E+03 -0.16162094750E+04  0.16703938923E+04  0.17200000000E+03 0.  1.
</event>
<event>
 4    1  0.1241325E+000  0.2040390E+03  0.7818608E-02  0.1146375E+00
         21   -1    0    0  503  502  0.00000000000E+00  0.00000000000E+00  0.86840418509E+03  0.86840418509E+03  0.00000000000E+00 0. -1.
         21   -1    0    0  501  503 -0.00000000000E+00 -0.00000000000E+00 -0.50279186164E+02  0.50279186164E+02  0.00000000000E+00 0. -1.
          6    1    1    2  501    0  0.96993127548E+02 -0.51383430083E+02  0.31000049913E+03  0.37112293535E+03  0.17200000000E+03 0. -1.
         -6    1    1    2    0  502 -0.96993127548E+02  0.51383430083E+02  0.50812449979E+03  0.54756043590E+03  0.17200000000E+03 0. -1.
</event>
<event>
 4    1  0.1241325E+000  0.1846822E+03  0.7818608E-02  0.1163347E+00
         21   -1    0    0  501  502  0.00000000000E+00  0.00000000000E+00  0.32273644117E+03  0.32273644117E+03  0.00000000000E+00 0.  1.
         21   -1    0    0  502  503 -0.00000000000E+00 -0.00000000000E+00 -0.12750679633E+03  0.12750679633E+03  0.00000000000E+00 0.  1.
          6    1    1    2  501    0  0.67063793191E+02  0.50950613847E+01  0.19075202443E+03  0.26550677361E+03  0.17200000000E+03 0. -1.
         -6    1    1    2    0  503 -0.67063793191E+02 -0.50950613847E+01  0.44776204099E+01  0.18473646389E+03  0.17200000000E+03 0. -1.
</event>
<event>
 4    1  0.1241325E+000  0.1786386E+03  0.7818608E-02  0.1169127E+00
         21   -1    0    0  503  502  0.00000000000E+00  0.00000000000E+00  0.33491768029E+02  0.33491768029E+02  0.00000000000E+00 0.  1.
         21   -1    0    0  501  503 -0.00000000000E+00 -0.00000000000E+00 -0.95888834764E+03  0.95888834764E+03  0.00000000000E+00 0.  1.
          6    1    1    2  501    0  0.37142180405E+02  0.30792853175E+02 -0.50216004549E+03  0.53298822938E+03  0.17200000000E+03 0. -1.
         -6    1    1    2    0  502 -0.37142180405E+02 -0.30792853175E+02 -0.42323653412E+03  0.45939188629E+03  0.17200000000E+03 0. -1.
</event>
<event>
 4    1  0.1241325E+000  0.2085196E+03  0.7818608E-02  0.1142744E+00
         21   -1    0    0  501  502  0.00000000000E+00  0.00000000000E+00  0.31696295651E+02  0.31696295651E+02  0.00000000000E+00 0.  1.
         21   -1    0    0  502  503 -0.00000000000E+00 -0.00000000000E+00 -0.16742852699E+04  0.16742852699E+04  0.00000000000E+00 0.  1.
          6    1    1    2  501    0  0.63282543594E+02  0.99457196263E+02 -0.45872228646E+03  0.50389140726E+03  0.17200000000E+03 0. -1.
         -6    1    1    2    0  503 -0.63282543594E+02 -0.99457196263E+02 -0.11838666877E+04  0.12020901583E+04  0.17200000000E+03 0. -1.
</event>
<event>
 4    1  0.1241325E+000  0.2025705E+03  0.7818608E-02  0.1147588E+00
         21   -1    0    0  503  502  0.00000000000E+00  0.00000000000E+00  0.25859395766E+02  0.25859395766E+02  0.00000000000E+00 0.  1.
         21   -1    0    0  501  503 -0.00000000000E+00 -0.00000000000E+00 -0.18011200192E+04  0.18011200192E+04  0.00000000000E+00 0.  1.
          6    1    1    2  501    0 -0.33421288895E+02  0.10165535320E+03 -0.12027100198E+04  0.12196500257E+04  0.17200000000E+03 0. -1.
         -6    1    1    2    0  502  0.33421288895E+02 -0.10165535320E+03 -0.57255060368E+03  0.60732938935E+03  0.17200000000E+03 0. -1.
</event>
<event>
 4    1  0.1241325E+000  0.4150013E+03  0.7818608E-02  0.1038706E+00
         21   -1    0    0  503  502  0.00000000000E+00  0.00000000000E+00  0.41149678560E+03  0.41149678560E+03  0.00000000000E+00 0.  1.
         21   -1    0    0  501  503 -0.00000000000E+00 -0.00000000000E+00 -0.82942871685E+03  0.82942871685E+03  0.00000000000E+00 0. -1.
          6    1    1    2  501    0 -0.24363777540E+03 -0.28858748740E+03 -0.64567336455E+03  0.76754165827E+03  0.17200000000E+03 0. -1.
         -6    1    1    2    0  502  0.24363777540E+03  0.28858748740E+03  0.22774143331E+03  0.47338384418E+03  0.17200000000E+03 0. -1.
</event>
<event>
 4    1  0.1241325E+000  0.2102037E+03  0.7818608E-02  0.1141405E+00
         21   -1    0    0  501  502  0.00000000000E+00  0.00000000000E+00  0.81739809668E+02  0.81739809668E+02  0.00000000000E+00 0. -1.
         21   -1    0    0  502  503 -0.00000000000E+00 -0.00000000000E+00 -0.55615754371E+03  0.55615754371E+03  0.00000000000E+00 0.  1.
          6    1    1    2  501    0 -0.87866339100E+02 -0.82952390729E+02 -0.29061551090E+03  0.35866832569E+03  0.17200000000E+03 0.  1.
         -6    1    1    2    0  503  0.87866339100E+02  0.82952390729E+02 -0.18380222314E+03  0.27922902769E+03  0.17200000000E+03 0.  1.
</event>
<event>
 4    1  0.1241325E+000  0.1988540E+03  0.7818608E-02  0.1150709E+00
         21   -1    0    0  503  502  0.00000000000E+00  0.00000000000E+00  0.31606499653E+02  0.31606499653E+02  0.00000000000E+00 0. -1.
         21   -1    0    0  501  503 -0.00000000000E+00 -0.00000000000E+00 -0.15063616251E+04  0.15063616251E+04  0.00000000000E+00 0. -1.
          6    1    1    2  501    0  0.30537378571E+02  0.95007331210E+02 -0.10539292264E+04  0.10725249362E+04  0.17200000000E+03 0.  1.
         -6    1    1    2    0  502 -0.30537378571E+02 -0.95007331210E+02 -0.42082589900E+03  0.46544318852E+03  0.17200000000E+03 0.  1.
</event>
<event>
 4    1  0.1241325E+000  0.1755295E+03  0.7818608E-02  0.1172201E+00
         21   -1    0    0  501  502  0.00000000000E+00  0.00000000000E+00  0.11944912264E+02  0.11944912264E+02  0.00000000000E+00 0. -1.
         21   -1    0    0  502  503 -0.00000000000E+00 -0.00000000000E+00 -0.25901327468E+04  0.25901327468E+04  0.00000000000E+00 0. -1.
          6    1    1    2  501    0 -0.25065061169E+02 -0.24461083393E+02 -0.13728781175E+04  0.13840538022E+04  0.17200000000E+03 0. -1.
         -6    1    1    2    0  503  0.25065061169E+02  0.24461083393E+02 -0.12053097171E+04  0.12180238569E+04  0.17200000000E+03 0. -1.
</event>
<event>
 4    1  0.1241325E+000  0.1926843E+03  0.7818608E-02  0.1156062E+00
         21   -1    0    0  501  502  0.00000000000E+00  0.00000000000E+00  0.28083661373E+03  0.28083661373E+03  0.00000000000E+00 0. -1.
         21   -1    0    0  502  503 -0.00000000000E+00 -0.00000000000E+00 -0.14829520055E+03  0.14829520055E+03  0.00000000000E+00 0. -1.
          6    1    1    2  501    0 -0.82618890875E+02 -0.26783412398E+02  0.13695371136E+03  0.23639702063E+03  0.17200000000E+03 0. -1.
         -6    1    1    2    0  503  0.82618890875E+02  0.26783412398E+02 -0.44122981730E+01  0.19273479365E+03  0.17200000000E+03 0. -1.
</event>
<event>
 4    1  0.1241325E+000  0.1720880E+03  0.7818608E-02  0.1175688E+00
         21   -1    0    0  503  502  0.00000000000E+00  0.00000000000E+00  0.91067275053E+02  0.91067275053E+02  0.00000000000E+00 0.  1.
         21   -1    0    0  501  503 -0.00000000000E+00 -0.00000000000E+00 -0.32687569746E+03  0.32687569746E+03  0.00000000000E+00 0.  1.
          6    1    1    2  501    0  0.54742127844E+01  0.54871377736E+00 -0.13290598917E+03  0.21743566876E+03  0.17200000000E+03 0. -1.
         -6    1    1    2    0  502 -0.54742127844E+01 -0.54871377736E+00 -0.10290243324E+03  0.20050730376E+03  0.17200000000E+03 0. -1.
</event>
<event>
 4    1  0.1241325E+000  0.1891927E+03  0.7818608E-02  0.1159191E+00
         21   -1    0    0  501  502  0.00000000000E+00  0.00000000000E+00  0.13529665800E+03  0.13529665800E+03  0.00000000000E+00 0.  1.
         21   -1    0    0  502  503 -0.00000000000E+00 -0.00000000000E+00 -0.26912286716E+03  0.26912286716E+03  0.00000000000E+00 0.  1.
          6    1    1    2  501    0  0.51041519229E+02  0.60038628619E+02 -0.93247276468E+02  0.21092398674E+03  0.17200000000E+03 0. -1.
         -6    1    1    2    0  503 -0.51041519229E+02 -0.60038628619E+02 -0.40578932696E+02  0.19349553843E+03  0.17200000000E+03 0. -1.
</event>
<event>
 4    1  0.1241325E+000  0.2734729E+03  0.7818608E-02  0.1099308E+00
         21   -1    0    0  503  502  0.00000000000E+00  0.00000000000E+00  0.35202998032E+03  0.35202998032E+03  0.00000000000E+00 0.  1.
         21   -1    0    0  501  503 -0.00000000000E+00 -0.00000000000E+00 -0.21414858340E+03  0.21414858340E+03  0.00000000000E+00 0. -1.
          6    1    1    2  501    0  0.16309469156E+03 -0.13639489063E+03  0.94180724633E+02  0.28923598237E+03  0.17200000000E+03 0. -1.
         -6    1    1    2    0  502 -0.16309469156E+03  0.13639489063E+03  0.43700672282E+02  0.27694258135E+03  0.17200000000E+03 0.  1.
</event>
<event>
 4    1  0.1241325E+000  0.1913849E+03  0.7818608E-02  0.1157218E+00
         21   -1    0    0  501  502  0.00000000000E+00  0.00000000000E+00  0.80694095291E+02  0.80694095291E+02  0.00000000000E+00 0.  1.
         21   -1    0    0  502  503 -0.00000000000E+00 -0.00000000000E+00 -0.51041583435E+03  0.51041583435E+03  0.00000000000E+00 0.  1.
          6    1    1    2  501    0 -0.71115097244E+02  0.44573765930E+02 -0.11652599811E+03  0.22406803855E+03  0.17200000000E+03 0.  1.
         -6    1    1    2    0  503  0.71115097244E+02 -0.44573765930E+02 -0.31319574095E+03  0.36704189109E+03  0.17200000000E+03 0.  1.
</event>
<event>
 4    1  0.1241325E+000  0.5229216E+03  0.7818608E-02  0.1007963E+00
         21   -1    0    0  501  502  0.00000000000E+00  0.00000000000E+00  0.17166476936E+04  0.17166476936E+04  0.00000000000E+00 0.  1.
         21   -1    0    0  502  503 -0.00000000000E+00 -0.00000000000E+00 -0.18136760407E+03  0.18136760407E+03  0.00000000000E+00 0. -1.
          6    1    1    2  501    0 -0.39445602189E+03 -0.29709840222E+03  0.43654460110E+03  0.68118881564E+03  0.17200000000E+03 0. -1.
         -6    1    1    2    0  503  0.39445602189E+03  0.29709840222E+03  0.10987354884E+04  0.12168264820E+04  0.17200000000E+03 0.  1.
</event>
<event>
 4    1  0.1241325E+000  0.2006069E+03  0.7818608E-02  0.1149228E+00
         21   -1    0    0  503  502  0.00000000000E+00  0.00000000000E+00  0.58787946486E+03  0.58787946486E+03  0.00000000000E+00 0. -1.
         21   -1    0    0  501  503 -0.00000000000E+00 -0.00000000000E+00 -0.72220592930E+02  0.72220592930E+02  0.00000000000E+00 0. -1.
          6    1    1    2  501    0  0.55767840955E+02  0.86885308659E+02  0.33319684293E+03  0.38892575780E+03  0.17200000000E+03 0. -1.
         -6    1    1    2    0  502 -0.55767840955E+02 -0.86885308659E+02  0.18246202900E+03  0.27117429999E+03  0.17200000000E+03 0. -1.
</event>
<event>
 4    1  0.1241325E+000  0.1787709E+03  0.7818608E-02  0.1168998E+00
         21   -1    0    0  503  502  0.00000000000E+00  0.00000000000E+00  0.11013380617E+04  0.11013380617E+04  0.00000000000E+00 0.  1.
         21   -1    0    0  501  503 -0.00000000000E+00 -0.00000000000E+00 -0.38297637571E+02  0.38297637571E+02  0.00000000000E+00 0.  1.
          6    1    1    2  501    0 -0.44321693506E+02  0.20263657677E+02  0.25103688173E+03  0.30818589249E+03  0.17200000000E+03 0.  1.
         -6    1    1    2    0  502  0.44321693506E+02 -0.20263657677E+02  0.81200354236E+03  0.83144980675E+03  0.17200000000E+03 0.  1.
</event>
<event>
 4    1  0.1241325E+000  0.1996611E+03  0.7818608E-02  0.1150025E+00
         21   -1    0    0  503  502  0.00000000000E+00  0.00000000000E+00  0.29225685832E+03  0.29225685832E+03  0.00000000000E+00 0. -1.
         21   -1    0    0  501  503 -0.00000000000E+00 -0.00000000000E+00 -0.14278384790E+03  0.14278384790E+03  0.00000000000E+00 0. -1.
          6    1    1    2  501    0 -0.45862486873E+02  0.90427728067E+02  0.12072184631E+03  0.23332017890E+03  0.17200000000E+03 0.  1.
         -6    1    1    2    0  502  0.45862486873E+02 -0.90427728067E+02  0.28751164108E+02  0.20172052732E+03  0.17200000000E+03 0.  1.
</event>
<event>
 4    1  0.1241325E+000  0.1813693E+03  0.7818608E-02  0.1166484E+00
         21   -1    0    0  503  502  0.00000000000E+00  0.00000000000E+00  0.78837138150E+03  0.78837138150E+03  0.00000000000E+00 0.  1.
         21   -1    0    0  501  503 -0.00000000000E+00 -0.00000000000E+00 -0.43021495111E+02  0.43021495111E+02  0.00000000000E+00 0.  1.
          6    1    1    2  501    0  0.12752109086E+02  0.56108936559E+02  0.30051237983E+03  0.35100216450E+03  0.17200000000E+03 0.  1.
         -6    1    1    2    0  502 -0.12752109086E+02 -0.56108936559E+02  0.44483750656E+03  0.48039071212E+03  0.17200000000E+03 0.  1.
</event>
<event>
 4    1  0.1241325E+000  0.1840196E+03  0.7818608E-02  0.1163969E+00
         21   -1    0    0  501  502  0.00000000000E+00  0.00000000000E+00  0.81792320854E+03  0.81792320854E+03  0.00000000000E+00 0. -1.
         21   -1    0    0  502  503 -0.00000000000E+00 -0.00000000000E+00 -0.73848982960E+02  0.73848982960E+02  0.00000000000E+00 0. -1.
          6    1    1    2  501    0 -0.51734722415E+02  0.40033953719E+02  0.66759501539E+03  0.69249281840E+03  0.17200000000E+03 0. -1.
         -6    1    1    2    0  503  0.51734722415E+02 -0.40033953719E+02  0.76479210189E+02  0.19927937310E+03  0.17200000000E+03 0. -1.
</event>
<event>
 4    1  0.1241325E+000  0.1801396E+03  0.7818608E-02  0.1167668E+00
         21   -1    0    0  503  502  0.00000000000E+00  0.00000000000E+00  0.18374790605E+03  0.18374790605E+03  0.00000000000E+00 0. -1.
         21   -1    0    0  501  503 -0.00000000000E+00 -0.00000000000E+00 -0.19523971180E+03  0.19523971180E+03  0.00000000000E+00 0. -1.
          6    1    1    2  501    0 -0.40492705114E+02  0.35022893719E+02 -0.64293128501E+02  0.19126910002E+03  0.17200000000E+03 0. -1.
         -6    1    1    2    0  502  0.40492705114E+02 -0.35022893719E+02  0.52801322744E+02  0.18771851783E+03  0.17200000000E+03 0. -1.
</event>
<event>
 4    1  0.1241325E+000  0.2182489E+03  0.7818608E-02  0.1135195E+00
         21   -1    0    0  501  502  0.00000000000E+00  0.00000000000E+00  0.25157757363E+03  0.25157757363E+03  0.00000000000E+00 0. -1.
         21   -1    0    0  502  503 -0.00000000000E+00 -0.00000000000E+00 -0.19458748368E+03  0.19458748368E+03  0.00000000000E+00 0.  1.
          6    1    1    2  501    0 -0.67222284443E+02 -0.11631746994E+03 -0.81542736808E+01  0.21840119395E+03  0.17200000000E+03 0.  1.
         -6    1    1    2    0  503  0.67222284443E+02  0.11631746994E+03  0.65144363626E+02  0.22776386336E+03  0.17200000000E+03 0. -1.
</event>
<event>
 4    1  0.1241325E+000  0.2065424E+03  0.7818608E-02  0.1144334E+00
         21   -1    0    0  503  502  0.00000000000E+00  0.00000000000E+00  0.47861714917E+03  0.47861714917E+03  0.00000000000E+00 0. -1.
         21   -1    0    0  501  503 -0.00000000000E+00 -0.00000000000E+00 -0.10796929462E+03  0.10796929462E+03  0.00000000000E+00 0. -1.
          6    1    1    2  501    0 -0.11027298925E+03  0.30259704340E+02  0.62814668645E+02  0.21588298790E+03  0.17200000000E+03 0. -1.
         -6    1    1    2    0  502  0.11027298925E+03 -0.30259704340E+02  0.30783318591E+03  0.37070345589E+03  0.17200000000E+03 0. -1.
</event>
<event>
 4    1  0.1241325E+000  0.2302129E+03  0.7818608E-02  0.1126490E+00
         21   -1    0    0  503  502  0.00000000000E+00  0.00000000000E+00  0.20920220075E+04  0.20920220075E+04  0.00000000000E+00 0. -1.
         21   -1    0    0  501  503 -0.00000000000E+00 -0.00000000000E+00 -0.34185437035E+02  0.34185437035E+02  0.00000000000E+00 0. -1.
          6    1    1    2  501    0 -0.95103039441E+02  0.11987239489E+03  0.48794317814E+03  0.53952435001E+03  0.17200000000E+03 0. -1.
         -6    1    1    2    0  502  0.95103039441E+02 -0.11987239489E+03  0.15698933923E+04  0.15866830945E+04  0.17200000000E+03 0. -1.
</event>
<event>
 4    1  0.1241325E+000  0.2016091E+03  0.7818608E-02  0.1148388E+00
         21   -1    0    0  501  502  0.00000000000E+00  0.00000000000E+00  0.48331609281E+03  0.48331609281E+03  0.00000000000E+00 0.  1.
         21   -1    0    0  502  503 -0.00000000000E+00 -0.00000000000E+00 -0.92156710777E+02  0.92156710777E+02  0.00000000000E+00 0. -1.
          6    1    1    2  501    0 -0.10517575758E+03  0.54361596012E+00  0.28066338558E+03  0.34556934399E+03  0.17200000000E+03 0. -1.
         -6    1    1    2    0  503  0.10517575758E+03 -0.54361596012E+00  0.11049599645E+03  0.22990345959E+03  0.17200000000E+03 0. -1.
</event>
<event>
 4    1  0.1241325E+000  0.2425762E+03  0.7818608E-02  0.1118088E+00
         21   -1    0    0  503  502  0.00000000000E+00  0.00000000000E+00  0.32134983357E+03  0.32134983357E+03  0.00000000000E+00 0.  1.
         21   -1    0    0  501  503 -0.00000000000E+00 -0.00000000000E+00 -0.48323874578E+03  0.48323874578E+03  0.00000000000E+00 0. -1.
          6    1    1    2  501    0 -0.44511377049E+01 -0.17099528150E+03 -0.39798508422E+03  0.46608510616E+03  0.17200000000E+03 0. -1.
         -6    1    1    2    0  502  0.44511377049E+01  0.17099528150E+03  0.23609617201E+03  0.33850347319E+03  0.17200000000E+03 0.  1.
</event>
<event>
 4    1  0.1241325E+000  0.2675343E+03  0.7818608E-02  0.1102699E+00
         21   -1    0    0  503  502  0.00000000000E+00  0.00000000000E+00  0.82319563439E+02  0.82319563439E+02  0.00000000000E+00 0. -1.
         21   -1    0    0  501  503 -0.00000000000E+00 -0.00000000000E+00 -0.87356510971E+03  0.87356510971E+03  0.00000000000E+00 0.  1.
          6    1    1    2  501    0 -0.20221880976E+03  0.33138544841E+02 -0.42833569164E+03  0.50502086581E+03  0.17200000000E+03 0.  1.
         -6    1    1    2    0  502  0.20221880976E+03 -0.33138544841E+02 -0.36290985463E+03  0.45086380734E+03  0.17200000000E+03 0. -1.
</event>
<event>
 4    1  0.1241325E+000  0.1987952E+03  0.7818608E-02  0.1150760E+00
         21   -1    0    0  501  502  0.00000000000E+00  0.00000000000E+00  0.21041442670E+03  0.21041442670E+03  0.00000000000E+00 0.  1.
         21   -1    0    0  502  503 -0.00000000000E+00 -0.00000000000E+00 -0.20383137907E+03  0.20383137907E+03  0.00000000000E+00 0. -1.
          6    1    1    2  501    0  0.12906447507E+02 -0.98837984899E+02  0.61346586446E+02  0.20804549338E+03  0.17200000000E+03 0.  1.
         -6    1    1    2    0  503 -0.12906447507E+02  0.98837984899E+02 -0.54763538815E+02  0.20620031239E+03  0.17200000000E+03 0.  1.
</event>
<event>
 4    1  0.1241325E+000  0.2175212E+03  0.7818608E-02  0.1135745E+00
         21   -1    0    0  501  502  0.00000000000E+00  0.00000000000E+00  0.50349196540E+02  0.50349196540E+02  0.00000000000E+00 0. -1.
         21   -1    0    0  502  503 -0.00000000000E+00 -0.00000000000E+00 -0.99393097536E+03  0.99393097536E+03  0.00000000000E+00 0.  1.
          6    1    1    2  501    0  0.12909915253E+03 -0.32632770261E+02 -0.59370269146E+03  0.63229611317E+03  0.17200000000E+03 0. -1.
         -6    1    1    2    0  503 -0.12909915253E+03  0.32632770261E+02 -0.34987908735E+03  0.41198405873E+03  0.17200000000E+03 0.  1.
</event>
<event>
 4    1  0.1241325E+000  0.2204283E+03  0.7818608E-02  0.1133564E+00
         21   -1    0    0  503  502  0.00000000000E+00  0.00000000000E+00  0.78595562262E+02  0.78595562262E+02  0.00000000000E+00 0.  1.
         21   -1    0    0  501  503 -0.00000000000E+00 -0.00000000000E+00 -0.72990831951E+03  0.72990831951E+03  0.00000000000E+00 0.  1.
          6    1    1    2  501    0  0.13133731344E+03 -0.41894415362E+02 -0.48379558682E+03  0.53164537219E+03  0.17200000000E+03 0.  1.
         -6    1    1    2    0  502 -0.13133731344E+03  0.41894415362E+02 -0.16751717043E+03  0.27685850958E+03  0.17200000000E+03 0.  1.
</event>
<event>
 4    1  0.1241325E+000  0.2536327E+03  0.7818608E-02  0.1111030E+00
         21   -1    0    0  503  502  0.00000000000E+00  0.00000000000E+00  0.11851530295E+04  0.11851530295E+04  0.00000000000E+00 0. -1.
         21   -1    0    0  501  503 -0.00000000000E+00 -0.00000000000E+00 -0.54311145625E+02  0.54311145625E+02  0.00000000000E+00 0. -1.
          6    1    1    2  501    0 -0.11898573952E+03 -0.14348490690E+03  0.55046363226E+03  0.60608558402E+03  0.17200000000E+03 0. -1.
         -6    1    1    2    0  502  0.11898573952E+03  0.14348490690E+03  0.58037825158E+03  0.63337859107E+03  0.17200000000E+03 0. -1.
</event>
<event>
 4    1  0.1241325E+000  0.1860418E+03  0.7818608E-02  0.1162081E+00
         21   -1    0    0  501  502  0.00000000000E+00  0.00000000000E+00  0.45909587328E+02  0.45909587328E+02  0.00000000000E+00 0. -1.
         21   -1    0    0  502  503 -0.00000000000E+00 -0.00000000000E+00 -0.16748706394E+04  0.16748706394E+04  0.00000000000E+00 0.  1.
          6    1    1    2  501    0  0.51122368301E+02 -0.49132924215E+02 -0.17647254197E+03  0.25642562051E+03  0.17200000000E+03 0. -1.
         -6    1    1    2    0  503 -0.51122368301E+02  0.49132924215E+02 -0.14524885101E+04  0.14643546062E+04  0.17200000000E+03 0.  1.
</event>
<event>
 4    1  0.1241325E+000  0.1912804E+03  0.7818608E-02  0.1157312E+00
         21   -1    0    0  501  502  0.00000000000E+00  0.00000000000E+00  0.15467631582E+03  0.15467631582E+03  0.00000000000E+00 0. -1.
         21   -1    0    0  502  503 -0.00000000000E+00 -0.00000000000E+00 -0.26511753617E+03  0.26511753617E+03  0.00000000000E+00 0. -1.
          6    1    1    2  501    0  0.69227122456E+02  0.47029827900E+02  0.13683795894E+02  0.19176925057E+03  0.17200000000E+03 0. -1.
         -6    1    1    2    0  503 -0.69227122456E+02 -0.47029827900E+02 -0.12412501624E+03  0.22802460142E+03  0.17200000000E+03 0. -1.
</event>
<event>
 4    1  0.1241325E+000  0.2297454E+03  0.7818608E-02  0.1126819E+00
         21   -1    0    0  503  502  0.00000000000E+00  0.00000000000E+00  0.12878811859E+03  0.12878811859E+03  0.00000000000E+00 0.  1.
         21   -1    0    0  501  503 -0.00000000000E+00 -0.00000000000E+00 -0.41171129954E+03  0.41171129954E+03  0.00000000000E+00 0.  1.
          6    1    1    2  501    0 -0.15208240250E+03  0.83604073918E+01 -0.15966495950E+03  0.27977822083E+03  0.17200000000E+03 0.  1.
         -6    1    1    2    0  502  0.15208240250E+03 -0.83604073918E+01 -0.12325822145E+03  0.26072119729E+03  0.17200000000E+03 0.  1.
</event>
<event>
 4    1  0.1241325E+000  0.2788244E+03  0.7818608E-02  0.1096333E+00
         21   -1    0    0  501  502  0.00000000000E+00  0.00000000000E+00  0.12854684322E+04  0.12854684322E+04  0.00000000000E+00 0.  1.
         21   -1    0    0  502  503 -0.00000000000E+00 -0.00000000000E+00 -0.19990451089E+03  0.19990451089E+03  0.00000000000E+00 0. -1.
          6    1    1    2  501    0 -0.18542171316E+03 -0.11737900645E+03  0.11630313002E+04  0.11959869765E+04  0.17200000000E+03 0.  1.
         -6    1    1    2    0  503  0.18542171316E+03  0.11737900645E+03 -0.77467378833E+02  0.28938596658E+03  0.17200000000E+03 0. -1.
</event>
<event>
 4    1  0.1241325E+000  0.1757856E+03  0.7818608E-02  0.1171945E+00
         21   -1    0    0  503  502  0.00000000000E+00  0.00000000000E+00  0.36744963967E+03  0.36744963967E+03  0.00000000000E+00 0.  1.
         21   -1    0    0  501  503 -0.00000000000E+00 -0.00000000000E+00 -0.94245175381E+02  0.94245175381E+02  0.00000000000E+00 0.  1.
          6    1    1    2  501    0 -0.17165335005E+02 -0.31967730101E+02  0.60842640825E+02  0.18601723425E+03  0.17200000000E+03 0.  1.
         -6    1    1    2    0  502  0.17165335005E+02  0.31967730101E+02  0.21236182347E+03  0.27567758081E+03  0.17200000000E+03 0.  1.
</event>
<event>
 4    1  0.1241325E+000  0.3234319E+03  0.7818608E-02  0.1074081E+00
         21   -1    0    0  501  502  0.00000000000E+00  0.00000000000E+00  0.16117648755E+03  0.16117648755E+03  0.00000000000E+00 0. -1.
         21   -1    0    0  502  503 -0.00000000000E+00 -0.00000000000E+00 -0.69271963209E+03  0.69271963209E+03  0.00000000000E+00 0.  1.
          6    1    1    2  501    0  0.27074445225E+03  0.41492672957E+02 -0.15854784538E+03  0.36020219268E+03  0.17200000000E+03 0. -1.
         -6    1    1    2    0  503 -0.27074445225E+03 -0.41492672957E+02 -0.37299529915E+03  0.49369392697E+03  0.17200000000E+03 0.  1.
</event>
<event>
 4    1  0.1241325E+000  0.1881099E+03  0.7818608E-02  0.1160177E+00
         21   -1    0    0  503  502  0.00000000000E+00  0.00000000000E+00  0.16442991105E+02  0.16442991105E+02  0.00000000000E+00 0. -1.
         21   -1    0    0  501  503 -0.00000000000E+00 -0.00000000000E+00 -0.24514334124E+04  0.24514334124E+04  0.00000000000E+00 0. -1.
          6    1    1    2  501    0 -0.48790620780E+02  0.58487707373E+02 -0.16487486969E+04  0.16594449680E+04  0.17200000000E+03 0. -1.
         -6    1    1    2    0  502  0.48790620780E+02 -0.58487707373E+02 -0.78624172448E+03  0.80843143550E+03  0.17200000000E+03 0. -1.
</event>
<event>
 4    1  0.1241325E+000  0.2818184E+03  0.7818608E-02  0.1094700E+00
         21   -1    0    0  501  502  0.00000000000E+00  0.00000000000E+00  0.50922693819E+03  0.50922693819E+03  0.00000000000E+00 0. -1.
         21   -1    0    0  502  503 -0.00000000000E+00 -0.00000000000E+00 -0.16017652725E+03  0.16017652725E+03  0.00000000000E+00 0.  1.
          6    1    1    2  501    0 -0.10823843232E+02  0.22298089979E+03  0.22879678669E+03  0.36300083588E+03  0.17200000000E+03 0. -1.
         -6    1    1    2    0  503  0.10823843232E+02 -0.22298089979E+03  0.12025362425E+03  0.30640262955E+03  0.17200000000E+03 0. -1.
</event>
<event>
 4    1  0.1241325E+000  0.2074386E+03  0.7818608E-02  0.1143611E+00
         21   -1    0    0  503  502  0.00000000000E+00  0.00000000000E+00  0.15813942570E+03  0.15813942570E+03  0.00000000000E+00 0.  1.
         21   -1    0    0  501  503 -0.00000000000E+00 -0.00000000000E+00 -0.38814068381E+03  0.38814068381E+03  0.00000000000E+00 0. -1.
          6    1    1    2  501    0  0.19032283323E+02  0.11438773599E+03 -0.26434318904E+03  0.33601801075E+03  0.17200000000E+03 0. -1.
         -6    1    1    2    0  502 -0.19032283323E+02 -0.11438773599E+03  0.34341930930E+02  0.21026209876E+03  0.17200000000E+03 0.  1.
</event>
<event>
 4    1  0.1241325E+000  0.2081347E+03  0.7818608E-02  0.1143052E+00
         21   -1    0    0  501  502  0.00000000000E+00  0.00000000000E+00  0.12051528483E+04  0.12051528483E+04  0.00000000000E+00 0. -1.
         21   -1    0    0  502  503 -0.00000000000E+00 -0.00000000000E+00 -0.84386295877E+02  0.84386295877E+02  0.00000000000E+00 0. -1.
          6    1    1    2  501    0  0.70317152265E+01 -0.11698975919E+03  0.71873384066E+02  0.22019498657E+03  0.17200000000E+03 0. -1.
         -6    1    1    2    0  503 -0.70317152265E+01  0.11698975919E+03  0.10488931684E+04  0.10693441576E+04  0.17200000000E+03 0. -1.
</event>
<event>
 4    1  0.1241325E+000  0.1789177E+03  0.7818608E-02  0.1168855E+00
         21   -1    0    0  501  502  0.00000000000E+00  0.00000000000E+00  0.53979915846E+03  0.53979915846E+03  0.00000000000E+00 0. -1.
         21   -1    0    0  502  503 -0.00000000000E+00 -0.00000000000E+00 -0.13559368148E+03  0.13559368148E+03  0.00000000000E+00 0. -1.
          6    1    1    2  501    0 -0.39926059185E+02  0.28869547029E+02  0.45540750743E+03  0.48929289671E+03  0.17200000000E+03 0. -1.
         -6    1    1    2    0  503  0.39926059185E+02 -0.28869547029E+02 -0.51202030446E+02  0.18609994323E+03  0.17200000000E+03 0. -1.
</event>
<event>
 4    1  0.1241325E+000  0.2542508E+03  0.7818608E-02  0.1110647E+00
         21   -1    0    0  501  502  0.00000000000E+00  0.00000000000E+00  0.41893210111E+02  0.41893210111E+02  0.00000000000E+00 0. -1.
         21   -1    0    0  502  503 -0.00000000000E+00 -0.00000000000E+00 -0.23160353801E+04  0.23160353801E+04  0.00000000000E+00 0. -1.
          6    1    1    2  501    0 -0.10105465765E+03  0.15763069523E+03 -0.45596837026E+03  0.52206382233E+03  0.17200000000E+03 0.  1.
         -6    1    1    2    0  503  0.10105465765E+03 -0.15763069523E+03 -0.18181737998E+04  0.18358647679E+04  0.17200000000E+03 0.  1.
</event>
<event>
 4    1  0.1241325E+000  0.1844453E+03  0.7818608E-02  0.1163569E+00
         21   -1    0    0  503  502  0.00000000000E+00  0.00000000000E+00  0.37094379306E+03  0.37094379306E+03  0.00000000000E+00 0. -1.
         21   -1    0    0  501  503 -0.00000000000E+00 -0.00000000000E+00 -0.15641645311E+03  0.15641645311E+03  0.00000000000E+00 0.  1.
          6    1    1    2  501    0  0.30275797253E+02 -0.59325001258E+02 -0.62327218237E+02  0.19469145283E+03  0.17200000000E+03 0.  1.
         -6    1    1    2    0  502 -0.30275797253E+02  0.59325001258E+02  0.27685455818E+03  0.33266879333E+03  0.17200000000E+03 0. -1.
</event>
<event>
 4    1  0.1241325E+000  0.1878947E+03  0.7818608E-02  0.1160374E+00
         21   -1    0    0  501  502  0.00000000000E+00  0.00000000000E+00  0.11579812549E+03  0.11579812549E+03  0.00000000000E+00 0.  1.
         21   -1    0    0  502  503 -0.00000000000E+00 -0.00000000000E+00 -0.49049389642E+03  0.49049389642E+03  0.00000000000E+00 0.  1.
          6    1    1    2  501    0 -0.73983238977E+02  0.15713395991E+02 -0.86399166564E+00  0.18789671882E+03  0.17200000000E+03 0.  1.
         -6    1    1    2    0  503  0.73983238977E+02 -0.15713395991E+02 -0.37383177926E+03  0.41839530309E+03  0.17200000000E+03 0.  1.
</event>
<event>
 4    1  0.1241325E+000  0.1987476E+03  0.7818608E-02  0.1150800E+00
         21   -1    0    0  503  502  0.00000000000E+00  0.00000000000E+00  0.17160869464E+03  0.17160869464E+03  0.00000000000E+00 0.  1.
         21   -1    0    0  501  503 -0.00000000000E+00 -0.00000000000E+00 -0.61141188805E+03  0.61141188805E+03  0.00000000000E+00 0.  1.
          6    1    1    2  501    0 -0.41024818718E+02  0.90739094693E+02 -0.52905337588E+03  0.56515315941E+03  0.17200000000E+03 0.  1.
         -6    1    1    2    0  502  0.41024818718E+02 -0.90739094693E+02  0.89250182476E+02  0.21786742328E+03  0.17200000000E+03 0.  1.
</event>
<event>
 4    1  0.1241325E+000  0.1784029E+03  0.7818608E-02  0.1169358E+00
         21   -1    0    0  503  502  0.00000000000E+00  0.00000000000E+00  0.22717199701E+02  0.22717199701E+02  0.00000000000E+00 0. -1.
         21   -1    0    0  501  503 -0.00000000000E+00 -0.00000000000E+00 -0.15270505601E+04  0.15270505601E+04  0.00000000000E+00 0. -1.
          6    1    1    2  501    0 -0.24891798810E+02 -0.40298808421E+02 -0.97476491829E+03  0.99095622585E+03  0.17200000000E+03 0.  1.
         -6    1    1    2    0  502  0.24891798810E+02  0.40298808421E+02 -0.52956844212E+03  0.55881153397E+03  0.17200000000E+03 0.  1.
</event>
<event>
 4    1  0.1241325E+000  0.1760710E+03  0.7818608E-02  0.1171661E+00
         21   -1    0    0  501  502  0.00000000000E+00  0.00000000000E+00  0.68759737164E+02  0.68759737164E+02  0.00000000000E+00 0. -1.
         21   -1    0    0  502  503 -0.00000000000E+00 -0.00000000000E+00 -0.45971447720E+03  0.45971447720E+03  0.00000000000E+00 0. -1.
          6    1    1    2  501    0  0.33328804717E+02  0.17498645912E+02 -0.15880556031E+03  0.23710802985E+03  0.17200000000E+03 0. -1.
         -6    1    1    2    0  503 -0.33328804717E+02 -0.17498645912E+02 -0.23214917972E+03  0.29136618451E+03  0.17200000000E+03 0. -1.
</event>
<event>
 4    1  0.1241325E+000  0.1883661E+03  0.7818608E-02  0.1159943E+00
         21   -1    0    0  503  502  0.00000000000E+00  0.00000000000E+00  0.11814822509E+04  0.11814822509E+04  0.00000000000E+00 0. -1.
         21   -1    0    0  501  503 -0.00000000000E+00 -0.00000000000E+00 -0.66034626853E+02  0.66034626853E+02  0.00000000000E+00 0.  1.
          6    1    1    2  501    0 -0.26851911560E+02 -0.71949649211E+02  0.10182986479E+04  0.10355741951E+04  0.17200000000E+03 0. -1.
         -6    1    1    2    0  502  0.26851911560E+02  0.71949649211E+02  0.97148976142E+02  0.21194268268E+03  0.17200000000E+03 0.  1.
</event>
<event>
 4    1  0.1241325E+000  0.2424035E+03  0.7818608E-02  0.1118202E+00
         21   -1    0    0  501  502  0.00000000000E+00  0.00000000000E+00  0.12462239700E+03  0.12462239700E+03  0.00000000000E+00 0. -1.
         21   -1    0    0  502  503 -0.00000000000E+00 -0.00000000000E+00 -0.50269335952E+03  0.50269335952E+03  0.00000000000E+00 0. -1.
          6    1    1    2  501    0 -0.16267495574E+03  0.52079766750E+02 -0.26716886688E+03  0.36074734477E+03  0.17200000000E+03 0. -1.
         -6    1    1    2    0  503  0.16267495574E+03 -0.52079766750E+02 -0.11090209564E+03  0.26656841176E+03  0.17200000000E+03 0. -1.
</event>
<event>
 4    1  0.1241325E+000  0.2497664E+03  0.7818608E-02  0.1113453E+00
         21   -1    0    0  503  502  0.00000000000E+00  0.00000000000E+00  0.42726307697E+03  0.42726307697E+03  0.00000000000E+00 0.  1.
         21   -1    0    0  501  503 -0.00000000000E+00 -0.00000000000E+00 -0.14671671355E+03  0.14671671355E+03  0.00000000000E+00 0. -1.
          6    1    1    2  501    0 -0.11620732627E+03  0.13890676214E+03  0.16023909704E+03  0.29674871435E+03  0.17200000000E+03 0.  1.
         -6    1    1    2    0  502  0.11620732627E+03 -0.13890676214E+03  0.12030726638E+03  0.27723107617E+03  0.17200000000E+03 0. -1.
</event>
<event>
 4    1  0.1241325E+000  0.2388583E+03  0.7818608E-02  0.1120556E+00
         21   -1    0    0  503  502  0.00000000000E+00  0.00000000000E+00  0.60568517395E+03  0.60568517395E+03  0.00000000000E+00 0.  1.
         21   -1    0    0  501  503 -0.00000000000E+00 -0.00000000000E+00 -0.16735741255E+03  0.16735741255E+03  0.00000000000E+00 0. -1.
          6    1    1    2  501    0  0.13159266548E+03  0.10076028903E+03 -0.36395177468E+02  0.24161513694E+03  0.17200000000E+03 0. -1.
         -6    1    1    2    0  502 -0.13159266548E+03 -0.10076028903E+03  0.47472293887E+03  0.53142744956E+03  0.17200000000E+03 0.  1.
</event>
<event>
 4    1  0.1241325E+000  0.3144650E+03  0.7818608E-02  0.1078225E+00
         21   -1    0    0  501  502  0.00000000000E+00  0.00000000000E+00  0.15085341240E+03  0.15085341240E+03  0.00000000000E+00 0. -1.
         21   -1    0    0  502  503 -0.00000000000E+00 -0.00000000000E+00 -0.68093264493E+03  0.68093264493E+03  0.00000000000E+00 0.  1.
          6    1    1    2  501    0 -0.59312035596E+02 -0.25648847720E+03 -0.34537513711E+03  0.46708911552E+03  0.17200000000E+03 0. -1.
         -6    1    1    2    0  503  0.59312035596E+02  0.25648847720E+03 -0.18470409542E+03  0.36469694181E+03  0.17200000000E+03 0. -1.
</event>
<event>
 4    1  0.1241325E+000  0.2277575E+03  0.7818608E-02  0.1128228E+00
         21   -1    0    0  501  502  0.00000000000E+00  0.00000000000E+00  0.32370305223E+02  0.32370305223E+02  0.00000000000E+00 0. -1.
         21   -1    0    0  502  503 -0.00000000000E+00 -0.00000000000E+00 -0.41035359834E+04  0.41035359834E+04  0.00000000000E+00 0. -1.
          6    1    1    2  501    0  0.11903553506E+03  0.90111131166E+02 -0.42114480957E+03  0.47878640874E+03  0.17200000000E+03 0. -1.
         -6    1    1    2    0  503 -0.11903553506E+03 -0.90111131166E+02 -0.36500208687E+04  0.36571198799E+04  0.17200000000E+03 0. -1.
</event>
<event>
 4    1  0.1241325E+000  0.2146688E+03  0.7818608E-02  0.1137921E+00
         21   -1    0    0  503  502  0.00000000000E+00  0.00000000000E+00  0.17462069016E+03  0.17462069016E+03  0.00000000000E+00 0. -1.
         21   -1    0    0  501  503 -0.00000000000E+00 -0.00000000000E+00 -0.28345555235E+03  0.28345555235E+03  0.00000000000E+00 0. -1.
          6    1    1    2  501    0 -0.66854667319E+02 -0.10967744513E+03 -0.11457385253E+03  0.24333075473E+03  0.17200000000E+03 0.  1.
         -6    1    1    2    0  502  0.66854667319E+02  0.10967744513E+03  0.57389903361E+01  0.21474548778E+03  0.17200000000E+03 0.  1.
</event>
<event>
 4    1  0.1241325E+000  0.1993089E+03  0.7818608E-02  0.1150323E+00
         21   -1    0    0  503  502  0.00000000000E+00  0.00000000000E+00  0.31186223653E+03  0.31186223653E+03  0.00000000000E+00 0. -1.
         21   -1    0    0  501  503 -0.00000000000E+00 -0.00000000000E+00 -0.14148592427E+03  0.14148592427E+03  0.00000000000E+00 0. -1.
          6    1    1    2  501    0 -0.10059001925E+03 -0.46551158190E+01  0.15676867823E+03  0.25357531534E+03  0.17200000000E+03 0. -1.
         -6    1    1    2    0  502  0.10059001925E+03  0.46551158190E+01  0.13607634032E+02  0.19977284545E+03  0.17200000000E+03 0. -1.
</event>
<event>
 4    1  0.1241325E+000  0.1884758E+03  0.7818608E-02  0.1159843E+00
         21   -1    0    0  501  502  0.00000000000E+00  0.00000000000E+00  0.99824903484E+03  0.99824903484E+03  0.00000000000E+00 0.  1.
         21   -1    0    0  502  503 -0.00000000000E+00 -0.00000000000E+00 -0.55306419830E+02  0.55306419830E+02  0.00000000000E+00 0.  1.
          6    1    1    2  501    0  0.76469826037E+02  0.95646491557E+01  0.78603169689E+03  0.80831240577E+03  0.17200000000E+03 0.  1.
         -6    1    1    2    0  503 -0.76469826037E+02 -0.95646491557E+01  0.15691091812E+03  0.24524304890E+03  0.17200000000E+03 0.  1.
</event>
<event>
 4    1  0.1241325E+000  0.1792282E+03  0.7818608E-02  0.1168552E+00
         21   -1    0    0  501  502  0.00000000000E+00  0.00000000000E+00  0.33026712636E+04  0.33026712636E+04  0.00000000000E+00 0.  1.
         21   -1    0    0  502  503 -0.00000000000E+00 -0.00000000000E+00 -0.97918825511E+01  0.97918825511E+01  0.00000000000E+00 0. -1.
          6    1    1    2  501    0 -0.35818397608E+02  0.35437192642E+02  0.17819902905E+04  0.17909807781E+04  0.17200000000E+03 0.  1.
         -6    1    1    2    0  503  0.35818397608E+02 -0.35437192642E+02  0.15108890905E+04  0.15214823680E+04  0.17200000000E+03 0.  1.
</event>
<event>
 4    1  0.1241325E+000  0.2468555E+03  0.7818608E-02  0.1115308E+00
         21   -1    0    0  501  502  0.00000000000E+00  0.00000000000E+00  0.55246082422E+02  0.55246082422E+02  0.00000000000E+00 0.  1.
         21   -1    0    0  502  503 -0.00000000000E+00 -0.00000000000E+00 -0.11112838564E+04  0.11112838564E+04  0.00000000000E+00 0. -1.
          6    1    1    2  501    0  0.97776415651E+02 -0.14762593849E+03 -0.57831006511E+03  0.62879263400E+03  0.17200000000E+03 0. -1.
         -6    1    1    2    0  503 -0.97776415651E+02  0.14762593849E+03 -0.47772770887E+03  0.53773730481E+03  0.17200000000E+03 0. -1.
</event>
<event>
 4    1  0.1241325E+000  0.1737817E+03  0.7818608E-02  0.1173961E+00
         21   -1    0    0  503  502  0.00000000000E+00  0.00000000000E+00  0.16514428686E+03  0.16514428686E+03  0.00000000000E+00 0. -1.
         21   -1    0    0  501  503 -0.00000000000E+00 -0.00000000000E+00 -0.49531400332E+03  0.49531400332E+03  0.00000000000E+00 0. -1.
          6    1    1    2  501    0 -0.24045919269E+02 -0.61528763433E+01 -0.42736212769E+03  0.46134417987E+03  0.17200000000E+03 0. -1.
         -6    1    1    2    0  502  0.24045919269E+02  0.61528763433E+01  0.97192411226E+02  0.19911411030E+03  0.17200000000E+03 0. -1.
</event>
<event>
 4    1  0.1241325E+000  0.1824280E+03  0.7818608E-02  0.1165474E+00
         21   -1    0    0  501  502  0.00000000000E+00  0.00000000000E+00  0.32859821457E+03  0.32859821457E+03  0.00000000000E+00 0. -1.
         21   -1    0    0  502  503 -0.00000000000E+00 -0.00000000000E+00 -0.10316758481E+03  0.10316758481E+03  0.00000000000E+00 0. -1.
          6    1    1    2  501    0 -0.50208124120E+02  0.34280208757E+02  0.83503846397E+02  0.20063120596E+03  0.17200000000E+03 0. -1.
         -6    1    1    2    0  503  0.50208124120E+02 -0.34280208757E+02  0.14192678336E+03  0.23113459342E+03  0.17200000000E+03 0. -1.
</event>
<event>
 4    1  0.1241325E+000  0.1740737E+03  0.7818608E-02  0.1173665E+00
         21   -1    0    0  501  502  0.00000000000E+00  0.00000000000E+00  0.33015193837E+02  0.33015193837E+02  0.00000000000E+00 0. -1.
         21   -1    0    0  502  503 -0.00000000000E+00 -0.00000000000E+00 -0.12804142750E+04  0.12804142750E+04  0.00000000000E+00 0. -1.
          6    1    1    2  501    0  0.24893211746E+02 -0.98992061142E+01 -0.27422292107E+03  0.32480744560E+03  0.17200000000E+03 0. -1.
         -6    1    1    2    0  503 -0.24893211746E+02  0.98992061142E+01 -0.97317616013E+03  0.98862202328E+03  0.17200000000E+03 0. -1.
</event>
<event>
 4    1  0.1241325E+000  0.1992485E+03  0.7818608E-02  0.1150375E+00
         21   -1    0    0  503  502  0.00000000000E+00  0.00000000000E+00  0.27444905425E+03  0.27444905425E+03  0.00000000000E+00 0.  1.
         21   -1    0    0  501  503 -0.00000000000E+00 -0.00000000000E+00 -0.15068918748E+03  0.15068918748E+03  0.00000000000E+00 0.  1.
          6    1    1    2  501    0 -0.19163921476E+02  0.98735502543E+02  0.10442316626E+03  0.22495366856E+03  0.17200000000E+03 0.  1.
         -6    1    1    2    0  502  0.19163921476E+02 -0.98735502543E+02  0.19336700507E+02  0.20018457317E+03  0.17200000000E+03 0.  1.
</event>
<event>
 4    1  0.1241325E+000  0.1788004E+03  0.7818608E-02  0.1168969E+00
         21   -1    0    0  501  502  0.00000000000E+00  0.00000000000E+00  0.24247081057E+03  0.24247081057E+03  0.00000000000E+00 0.  1.
         21   -1    0    0  502  503 -0.00000000000E+00 -0.00000000000E+00 -0.14283163942E+03  0.14283163942E+03  0.00000000000E+00 0. -1.
          6    1    1    2  501    0  0.48842231593E+02 -0.10203767743E+00 -0.36011246149E+01  0.17883663522E+03  0.17200000000E+03 0. -1.
         -6    1    1    2    0  503 -0.48842231593E+02  0.10203767743E+00  0.10324029576E+03  0.20646581477E+03  0.17200000000E+03 0.  1.
</event>
<event>
 4    1  0.1241325E+000  0.2192545E+03  0.7818608E-02  0.1134440E+00
         21   -1    0    0  503  502  0.00000000000E+00  0.00000000000E+00  0.15937261240E+04  0.15937261240E+04  0.00000000000E+00 0.  1.
         21   -1    0    0  501  503 -0.00000000000E+00 -0.00000000000E+00 -0.35331010255E+02  0.35331010255E+02  0.00000000000E+00 0.  1.
          6    1    1    2  501    0 -0.21610972947E+02 -0.13424412828E+03  0.46769279519E+03  0.51653564330E+03  0.17200000000E+03 0. -1.
         -6    1    1    2    0  502  0.21610972947E+02  0.13424412828E+03  0.10907023185E+04  0.11125214909E+04  0.17200000000E+03 0. -1.
</event>
<event>
 4    1  0.1241325E+000  0.3082446E+03  0.7818608E-02  0.1081190E+00
         21   -1    0    0  503  502  0.00000000000E+00  0.00000000000E+00  0.34302676535E+03  0.34302676535E+03  0.00000000000E+00 0.  1.
         21   -1    0    0  501  503 -0.00000000000E+00 -0.00000000000E+00 -0.41824535462E+03  0.41824535462E+03  0.00000000000E+00 0.  1.
          6    1    1    2  501    0 -0.25042475719E+03  0.52136405959E+02 -0.25881575763E+03  0.40249268346E+03  0.17200000000E+03 0.  1.
         -6    1    1    2    0  502  0.25042475719E+03 -0.52136405959E+02  0.18359716836E+03  0.35877943652E+03  0.17200000000E+03 0.  1.
</event>
<event>
 4    1  0.1241325E+000  0.1836585E+03  0.7818608E-02  0.1164309E+00
         21   -1    0    0  503  502  0.00000000000E+00  0.00000000000E+00  0.23031878778E+03  0.23031878778E+03  0.00000000000E+00 0.  1.
         21   -1    0    0  501  503 -0.00000000000E+00 -0.00000000000E+00 -0.19709200970E+03  0.19709200970E+03  0.00000000000E+00 0.  1.
          6    1    1    2  501    0  0.11003769009E+02  0.63445610064E+02  0.12493919957E+03  0.22212661245E+03  0.17200000000E+03 0.  1.
         -6    1    1    2    0  502 -0.11003769009E+02 -0.63445610064E+02 -0.91712421491E+02  0.20528418503E+03  0.17200000000E+03 0.  1.
</event>
<event>
 4    1  0.1241325E+000  0.2093784E+03  0.7818608E-02  0.1142059E+00
         21   -1    0    0  501  502  0.00000000000E+00  0.00000000000E+00  0.84383780027E+02  0.84383780027E+02  0.00000000000E+00 0.  1.
         21   -1    0    0  502  503 -0.00000000000E+00 -0.00000000000E+00 -0.67317039851E+03  0.67317039851E+03  0.00000000000E+00 0.  1.
          6    1    1    2  501    0 -0.31847780214E+02 -0.11506973136E+03 -0.11343287005E+03  0.23813093077E+03  0.17200000000E+03 0. -1.
         -6    1    1    2    0  503  0.31847780214E+02  0.11506973136E+03 -0.47535374843E+03  0.51942324777E+03  0.17200000000E+03 0. -1.
</event>
<event>
 4    1  0.1241325E+000  0.2650175E+03  0.7818608E-02  0.1104166E+00
         21   -1    0    0  501  502  0.00000000000E+00  0.00000000000E+00  0.15137128838E+03  0.15137128838E+03  0.00000000000E+00 0. -1.
         21   -1    0    0  502  503 -0.00000000000E+00 -0.00000000000E+00 -0.50431202143E+03  0.50431202143E+03  0.00000000000E+00 0.  1.
          6    1    1    2  501    0  0.40047364966E+02  0.19760184707E+03 -0.83765444508E+02  0.27794051719E+03  0.17200000000E+03 0. -1.
         -6    1    1    2    0  503 -0.40047364966E+02 -0.19760184707E+03 -0.26917528855E+03  0.37774279261E+03  0.17200000000E+03 0.  1.
</event>
<event>
 4    1  0.1241325E+000  0.1750676E+03  0.7818608E-02  0.1172664E+00
         21   -1    0    0  501  502  0.00000000000E+00  0.00000000000E+00  0.24934421377E+04  0.24934421377E+04  0.00000000000E+00 0.  1.
         21   -1    0    0  502  503 -0.00000000000E+00 -0.00000000000E+00 -0.26854859891E+02  0.26854859891E+02  0.00000000000E+00 0.  1.
          6    1    1    2  501    0  0.32533577396E+02 -0.24982748902E+01  0.21612721010E+04  0.21683509332E+04  0.17200000000E+03 0.  1.
         -6    1    1    2    0  503 -0.32533577396E+02  0.24982748902E+01  0.30531517681E+03  0.35194606437E+03  0.17200000000E+03 0.  1.
</event>
<event>
 4    1  0.1241325E+000  0.2266630E+03  0.7818608E-02  0.1129011E+00
         21   -1    0    0  501  502  0.00000000000E+00  0.00000000000E+00  0.47284850693E+02  0.47284850693E+02  0.00000000000E+00 0.  1.
         21   -1    0    0  502  503 -0.00000000000E+00 -0.00000000000E+00 -0.10873876917E+04  0.10873876917E+04  0.00000000000E+00 0.  1.
          6    1    1    2  501    0 -0.11866315851E+03 -0.87813261528E+02 -0.53604281522E+03  0.58199485723E+03  0.17200000000E+03 0.  1.
         -6    1    1    2    0  503  0.11866315851E+03  0.87813261528E+02 -0.50406002580E+03  0.55267768518E+03  0.17200000000E+03 0.  1.
</event>
<event>
 4    1  0.1241325E+000  0.2925712E+03  0.7818608E-02  0.1089014E+00
         21   -1    0    0  503  502  0.00000000000E+00  0.00000000000E+00  0.13176837505E+03  0.13176837505E+03  0.00000000000E+00 0. -1.
         21   -1    0    0  501  503 -0.00000000000E+00 -0.00000000000E+00 -0.65182466974E+03  0.65182466974E+03  0.00000000000E+00 0.  1.
          6    1    1    2  501    0 -0.16934594389E+03 -0.16533564421E+03 -0.28287079778E+03  0.40695676944E+03  0.17200000000E+03 0. -1.
         -6    1    1    2    0  502  0.16934594389E+03  0.16533564421E+03 -0.23718549691E+03  0.37663627534E+03  0.17200000000E+03 0.  1.
</event>
<event>
 4    1  0.1241325E+000  0.2117265E+03  0.7818608E-02  0.1140206E+00
         21   -1    0    0  503  502  0.00000000000E+00  0.00000000000E+00  0.38386985657E+03  0.38386985657E+03  0.00000000000E+00 0.  1.
         21   -1    0    0  501  503 -0.00000000000E+00 -0.00000000000E+00 -0.22500098714E+03  0.22500098714E+03  0.00000000000E+00 0.  1.
          6    1    1    2  501    0  0.27937413258E+02 -0.12026476580E+03 -0.13170035889E+03  0.24934533780E+03  0.17200000000E+03 0.  1.
         -6    1    1    2    0  502 -0.27937413258E+02  0.12026476580E+03  0.29056922832E+03  0.35952550591E+03  0.17200000000E+03 0.  1.
</event>
<event>
 4    1  0.1241325E+000  0.1929444E+03  0.7818608E-02  0.1155832E+00
         21   -1    0    0  501  502  0.00000000000E+00  0.00000000000E+00  0.53967781684E+03  0.53967781684E+03  0.00000000000E+00 0.  1.
         21   -1    0    0  502  503 -0.00000000000E+00 -0.00000000000E+00 -0.83199892487E+02  0.83199892487E+02  0.00000000000E+00 0. -1.
          6    1    1    2  501    0 -0.80487244070E+02  0.34137424838E+02  0.35698771475E+03  0.40579279037E+03  0.17200000000E+03 0.  1.
         -6    1    1    2    0  503  0.80487244070E+02 -0.34137424838E+02  0.99490209602E+02  0.21708491896E+03  0.17200000000E+03 0. -1.
</event>
<event>
 4    1  0.1241325E+000  0.1780662E+03  0.7818608E-02  0.1169688E+00
         21   -1    0    0  501  502  0.00000000000E+00  0.00000000000E+00  0.70697178102E+02  0.70697178102E+02  0.00000000000E+00 0.  1.
         21   -1    0    0  502  503 -0.00000000000E+00 -0.00000000000E+00 -0.50523586468E+03  0.50523586468E+03  0.00000000000E+00 0.  1.
          6    1    1    2  501    0  0.39887562432E+02 -0.23077372594E+02 -0.31376977460E+03  0.36077562863E+03  0.17200000000E+03 0.  1.
         -6    1    1    2    0  503 -0.39887562432E+02  0.23077372594E+02 -0.12076891197E+03  0.21515741415E+03  0.17200000000E+03 0.  1.
</event>
<event>
 4    1  0.1241325E+000  0.1902635E+03  0.7818608E-02  0.1158224E+00
         21   -1    0    0  501  502  0.00000000000E+00  0.00000000000E+00  0.10886989465E+04  0.10886989465E+04  0.00000000000E+00 0.  1.
         21   -1    0    0  502  503 -0.00000000000E+00 -0.00000000000E+00 -0.33699086367E+02  0.33699086367E+02  0.00000000000E+00 0.  1.
          6    1    1    2  501    0 -0.37371780500E+02 -0.72246339431E+02  0.59222213361E+03  0.62203475713E+03  0.17200000000E+03 0.  1.
         -6    1    1    2    0  503  0.37371780500E+02  0.72246339431E+02  0.46277772649E+03  0.50036327571E+03  0.17200000000E+03 0.  1.
</event>
<event>
 4    1  0.1241325E+000  0.2686926E+03  0.7818608E-02  0.1102030E+00
         21   -1    0    0  501  502  0.00000000000E+00  0.00000000000E+00  0.86917959293E+02  0.86917959293E+02  0.00000000000E+00 0. -1.
         21   -1    0    0  502  503 -0.00000000000E+00 -0.00000000000E+00 -0.11589494523E+04  0.11589494523E+04  0.00000000000E+00 0. -1.
          6    1    1    2  501    0  0.20578918552E+03  0.16202526445E+02 -0.20445344316E+03  0.33763430092E+03  0.17200000000E+03 0. -1.
         -6    1    1    2    0  503 -0.20578918552E+03 -0.16202526445E+02 -0.86757804984E+03  0.90823311066E+03  0.17200000000E+03 0. -1.
</event>
<event>
 4    1  0.1241325E+000  0.3473543E+03  0.7818608E-02  0.1063706E+00
         21   -1    0    0  503  502  0.00000000000E+00  0.00000000000E+00  0.17179555205E+04  0.17179555205E+04  0.00000000000E+00 0. -1.
         21   -1    0    0  501  503 -0.00000000000E+00 -0.00000000000E+00 -0.17190713114E+03  0.17190713114E+03  0.00000000000E+00 0.  1.
          6    1    1    2  501    0  0.23622876873E+03  0.18779508645E+03  0.46314086392E+02  0.35042833828E+03  0.17200000000E+03 0.  1.
         -6    1    1    2    0  502 -0.23622876873E+03 -0.18779508645E+03  0.14997343030E+04  0.15394343134E+04  0.17200000000E+03 0. -1.
</event>
<event>
 4    1  0.1241325E+000  0.2017059E+03  0.7818608E-02  0.1148308E+00
         21   -1    0    0  501  502  0.00000000000E+00  0.00000000000E+00  0.50919421935E+02  0.50919421935E+02  0.00000000000E+00 0. -1.
         21   -1    0    0  502  503 -0.00000000000E+00 -0.00000000000E+00 -0.80525325080E+03  0.80525325080E+03  0.00000000000E+00 0. -1.
          6    1    1    2  501    0 -0.47907711059E+02 -0.93840834242E+02 -0.41485343567E+03  0.46129017336E+03  0.17200000000E+03 0. -1.
         -6    1    1    2    0  503  0.47907711059E+02  0.93840834242E+02 -0.33948039320E+03  0.39488249938E+03  0.17200000000E+03 0. -1.
</event>
<event>
 4    1  0.1241325E+000  0.2760622E+03  0.7818608E-02  0.1097859E+00
         21   -1    0    0  503  502  0.00000000000E+00  0.00000000000E+00  0.23196679292E+03  0.23196679292E+03  0.00000000000E+00 0.  1.
         21   -1    0    0  501  503 -0.00000000000E+00 -0.00000000000E+00 -0.40331391992E+03  0.40331391992E+03  0.00000000000E+00 0. -1.
          6    1    1    2  501    0 -0.20721581708E+03  0.60728587816E+02  0.51095954854E+02  0.28075105134E+03  0.17200000000E+03 0.  1.
         -6    1    1    2    0  502  0.20721581708E+03 -0.60728587816E+02 -0.22244308185E+03  0.35452966150E+03  0.17200000000E+03 0. -1.
</event>
<event>
 4    1  0.1241325E+000  0.1929253E+03  0.7818608E-02  0.1155849E+00
         21   -1    0    0  501  502  0.00000000000E+00  0.00000000000E+00  0.94073335809E+02  0.94073335809E+02  0.00000000000E+00 0. -1.
         21   -1    0    0  502  503 -0.00000000000E+00 -0.00000000000E+00 -0.39579116024E+03  0.39579116024E+03  0.00000000000E+00 0. -1.
          6    1    1    2  501    0 -0.74164896146E+02  0.46214200473E+02 -0.14624530499E+03  0.24209063050E+03  0.17200000000E+03 0. -1.
         -6    1    1    2    0  503  0.74164896146E+02 -0.46214200473E+02 -0.15547251944E+03  0.24777386554E+03  0.17200000000E+03 0. -1.
</event>
<event>
 4    1  0.1241325E+000  0.2608266E+03  0.7818608E-02  0.1106648E+00
         21   -1    0    0  501  502  0.00000000000E+00  0.00000000000E+00  0.40062045804E+03  0.40062045804E+03  0.00000000000E+00 0. -1.
         21   -1    0    0  502  503 -0.00000000000E+00 -0.00000000000E+00 -0.17181542948E+03  0.17181542948E+03  0.00000000000E+00 0. -1.
          6    1    1    2  501    0  0.13181131216E+03 -0.14516294435E+03  0.14530265618E+03  0.29856886026E+03  0.17200000000E+03 0. -1.
         -6    1    1    2    0  503 -0.13181131216E+03  0.14516294435E+03  0.83502372373E+02  0.27386702726E+03  0.17200000000E+03 0. -1.
</event>
<event>
 4    1  0.1241325E+000  0.1915543E+03  0.7818608E-02  0.1157067E+00
         21   -1    0    0  503  502  0.00000000000E+00  0.00000000000E+00  0.22509450837E+03  0.22509450837E+03  0.00000000000E+00 0. -1.
         21   -1    0    0  501  503 -0.00000000000E+00 -0.00000000000E+00 -0.16503412990E+03  0.16503412990E+03  0.00000000000E+00 0. -1.
          6    1    1    2  501    0  0.11926772759E+02  0.83467387197E+02  0.84367939971E+01  0.19174001180E+03  0.17200000000E+03 0. -1.
         -6    1    1    2    0  502 -0.11926772759E+02 -0.83467387197E+02  0.51623584474E+02  0.19838862646E+03  0.17200000000E+03 0. -1.
</event>
<event>
 4    1  0.1241325E+000  0.2065855E+03  0.7818608E-02  0.1144299E+00
         21   -1    0    0  503  502  0.00000000000E+00  0.00000000000E+00  0.96818860867E+03  0.96818860867E+03  0.00000000000E+00 0.  1.
         21   -1    0    0  501  503 -0.00000000000E+00 -0.00000000000E+00 -0.84080261764E+02  0.84080261764E+02  0.00000000000E+00 0.  1.
          6    1    1    2  501    0 -0.11406428205E+03  0.91060404163E+01  0.79158250696E+02  0.22123202540E+03  0.17200000000E+03 0.  1.
         -6    1    1    2    0  502  0.11406428205E+03 -0.91060404163E+01  0.80495009621E+03  0.83103684503E+03  0.17200000000E+03 0.  1.
</event>
<event>
 4    1  0.1241325E+000  0.2448633E+03  0.7818608E-02  0.1116595E+00
         21   -1    0    0  503  502  0.00000000000E+00  0.00000000000E+00  0.15003127551E+03  0.15003127551E+03  0.00000000000E+00 0. -1.
         21   -1    0    0  501  503 -0.00000000000E+00 -0.00000000000E+00 -0.46357054123E+03  0.46357054123E+03  0.00000000000E+00 0. -1.
          6    1    1    2  501    0 -0.47786700473E+02  0.16760209590E+03 -0.27070629804E+03  0.36502045298E+03  0.17200000000E+03 0. -1.
         -6    1    1    2    0  502  0.47786700473E+02 -0.16760209590E+03 -0.42832967678E+02  0.24858136377E+03  0.17200000000E+03 0. -1.
</event>
<event>
 4    1  0.1241325E+000  0.1832307E+03  0.7818608E-02  0.1164712E+00
         21   -1    0    0  501  502  0.00000000000E+00  0.00000000000E+00  0.23172446934E+03  0.23172446934E+03  0.00000000000E+00 0. -1.
         21   -1    0    0  502  503 -0.00000000000E+00 -0.00000000000E+00 -0.15714773199E+03  0.15714773199E+03  0.00000000000E+00 0. -1.
          6    1    1    2  501    0  0.13463262389E+02 -0.61710883488E+02  0.91602066042E+02  0.20485221766E+03  0.17200000000E+03 0. -1.
         -6    1    1    2    0  503 -0.13463262389E+02  0.61710883488E+02 -0.17025328688E+02  0.18401998368E+03  0.17200000000E+03 0. -1.
</event>
<event>
 4    1  0.1241325E+000  0.1948825E+03  0.7818608E-02  0.1154130E+00
         21   -1    0    0  501  502  0.00000000000E+00  0.00000000000E+00  0.27641419049E+03  0.27641419049E+03  0.00000000000E+00 0.  1.
         21   -1    0    0  502  503 -0.00000000000E+00 -0.00000000000E+00 -0.21026842990E+03  0.21026842990E+03  0.00000000000E+00 0. -1.
          6    1    1    2  501    0 -0.65055585007E+02  0.64521059200E+02  0.17632456438E+03  0.26281086017E+03  0.17200000000E+03 0.  1.
         -6    1    1    2    0  503  0.65055585007E+02 -0.64521059200E+02 -0.11017880378E+03  0.22387176022E+03  0.17200000000E+03 0. -1.
</event>
<event>
 4    1  0.1241325E+000  0.1813952E+03  0.7818608E-02  0.1166460E+00
         21   -1    0    0  501  502  0.00000000000E+00  0.00000000000E+00  0.78217312373E+02  0.78217312373E+02  0.00000000000E+00 0. -1.
         21   -1    0    0  502  503 -0.00000000000E+00 -0.00000000000E+00 -0.51019627632E+03  0.51019627632E+03  0.00000000000E+00 0. -1.
          6    1    1    2  501    0  0.14881002587E+02  0.55666538609E+02 -0.92751990219E+02  0.20373301021E+03  0.17200000000E+03 0. -1.
         -6    1    1    2    0  503 -0.14881002587E+02 -0.55666538609E+02 -0.33922697373E+03  0.38468057848E+03  0.17200000000E+03 0. -1.
</event>
<event>
 4    1  0.1241325E+000  0.2448001E+03  0.7818608E-02  0.1116636E+00
         21   -1    0    0  501  502  0.00000000000E+00  0.00000000000E+00  0.81902557250E+03  0.81902557250E+03  0.00000000000E+00 0. -1.
         21   -1    0    0  502  503 -0.00000000000E+00 -0.00000000000E+00 -0.79178968528E+02  0.79178968528E+02  0.00000000000E+00 0.  1.
          6    1    1    2  501    0  0.53405713533E+02 -0.16580380942E+03  0.49365632808E+03  0.55102054745E+03  0.17200000000E+03 0. -1.
         -6    1    1    2    0  503 -0.53405713533E+02  0.16580380942E+03  0.24619027589E+03  0.34718399358E+03  0.17200000000E+03 0.  1.
</event>
<event>
 4    1  0.1241325E+000  0.1892238E+03  0.7818608E-02  0.1159163E+00
         21   -1    0    0  503  502  0.00000000000E+00  0.00000000000E+00  0.25297318157E+03  0.25297318157E+03  0.00000000000E+00 0.  1.
         21   -1    0    0  501  503 -0.00000000000E+00 -0.00000000000E+00 -0.22244934294E+03  0.22244934294E+03  0.00000000000E+00 0. -1.
          6    1    1    2  501    0 -0.78539338609E+02 -0.72962191074E+01 -0.12810047516E+03  0.22850688011E+03  0.17200000000E+03 0. -1.
         -6    1    1    2    0  502  0.78539338609E+02  0.72962191074E+01  0.15862431379E+03  0.24691564439E+03  0.17200000000E+03 0.  1.
</event>
<event>
 4    1  0.1241325E+000  0.1892069E+03  0.7818608E-02  0.1159179E+00
         21   -1    0    0  501  502  0.00000000000E+00  0.00000000000E+00  0.32769469398E+03  0.32769469398E+03  0.00000000000E+00 0. -1.
         21   -1    0    0  502  503 -0.00000000000E+00 -0.00000000000E+00 -0.22409785299E+03  0.22409785299E+03  0.00000000000E+00 0. -1.
          6    1    1    2  501    0  0.47610458662E+02 -0.62836926060E+02 -0.14571497898E+03  0.23881392369E+03  0.17200000000E+03 0. -1.
         -6    1    1    2    0  503 -0.47610458662E+02  0.62836926060E+02  0.24931181997E+03  0.31297862328E+03  0.17200000000E+03 0. -1.
</event>
<event>
 4    1  0.1241325E+000  0.4962553E+03  0.7818608E-02  0.1014761E+00
         21   -1    0    0  501  502  0.00000000000E+00  0.00000000000E+00  0.19749902176E+03  0.19749902176E+03  0.00000000000E+00 0.  1.
         21   -1    0    0  502  503 -0.00000000000E+00 -0.00000000000E+00 -0.13027363240E+04  0.13027363240E+04  0.00000000000E+00 0. -1.
          6    1    1    2  501    0  0.19547868963E+03 -0.42246109252E+03 -0.39737757755E+03  0.63575013325E+03  0.17200000000E+03 0.  1.
         -6    1    1    2    0  503 -0.19547868963E+03  0.42246109252E+03 -0.70785972466E+03  0.86448521247E+03  0.17200000000E+03 0. -1.
</event>
<event>
 4    1  0.1241325E+000  0.1806115E+03  0.7818608E-02  0.1167213E+00
         21   -1    0    0  503  502  0.00000000000E+00  0.00000000000E+00  0.17964610736E+03  0.17964610736E+03  0.00000000000E+00 0.  1.
         21   -1    0    0  501  503 -0.00000000000E+00 -0.00000000000E+00 -0.18705172077E+03  0.18705172077E+03  0.00000000000E+00 0.  1.
          6    1    1    2  501    0 -0.20443052622E+02  0.51172152028E+02  0.27650134021E+02  0.18271572854E+03  0.17200000000E+03 0.  1.
         -6    1    1    2    0  502  0.20443052622E+02 -0.51172152028E+02 -0.35055747429E+02  0.18398209960E+03  0.17200000000E+03 0.  1.
</event>
<event>
 4    1  0.1241325E+000  0.2066645E+03  0.7818608E-02  0.1144235E+00
         21   -1    0    0  501  502  0.00000000000E+00  0.00000000000E+00  0.30787997989E+03  0.30787997989E+03  0.00000000000E+00 0.  1.
         21   -1    0    0  502  503 -0.00000000000E+00 -0.00000000000E+00 -0.18028395110E+03  0.18028395110E+03  0.00000000000E+00 0.  1.
          6    1    1    2  501    0  0.34271384268E+02 -0.10932376796E+03 -0.53393684340E+02  0.21345046158E+03  0.17200000000E+03 0.  1.
         -6    1    1    2    0  503 -0.34271384268E+02  0.10932376796E+03  0.18098971313E+03  0.27471346942E+03  0.17200000000E+03 0.  1.
</event>
<event>
 4    1  0.1241325E+000  0.4749139E+03  0.7818608E-02  0.1020542E+00
         21   -1    0    0  503  502  0.00000000000E+00  0.00000000000E+00  0.17698547246E+04  0.17698547246E+04  0.00000000000E+00 0. -1.
         21   -1    0    0  501  503 -0.00000000000E+00 -0.00000000000E+00 -0.13218132919E+03  0.13218132919E+03  0.00000000000E+00 0.  1.
          6    1    1    2  501    0 -0.14559937936E+03 -0.41804305896E+03  0.63864383059E+03  0.79587004012E+03  0.17200000000E+03 0.  1.
         -6    1    1    2    0  502  0.14559937936E+03  0.41804305896E+03  0.99902956486E+03  0.11061660137E+04  0.17200000000E+03 0. -1.
</event>
<event>
 4    1  0.1241325E+000  0.1849156E+03  0.7818608E-02  0.1163129E+00
         21   -1    0    0  503  502  0.00000000000E+00  0.00000000000E+00  0.40210050636E+02  0.40210050636E+02  0.00000000000E+00 0.  1.
         21   -1    0    0  501  503 -0.00000000000E+00 -0.00000000000E+00 -0.10943496451E+04  0.10943496451E+04  0.00000000000E+00 0.  1.
          6    1    1    2  501    0  0.53214934515E+02  0.42165903024E+02 -0.79491746637E+03  0.81614188164E+03  0.17200000000E+03 0.  1.
         -6    1    1    2    0  502 -0.53214934515E+02 -0.42165903024E+02 -0.25922212806E+03  0.31841781406E+03  0.17200000000E+03 0.  1.
</event>
<event>
 4    1  0.1241325E+000  0.2261454E+03  0.7818608E-02  0.1129383E+00
         21   -1    0    0  501  502  0.00000000000E+00  0.00000000000E+00  0.74427902868E+03  0.74427902868E+03  0.00000000000E+00 0. -1.
         21   -1    0    0  502  503 -0.00000000000E+00 -0.00000000000E+00 -0.53811263108E+03  0.53811263108E+03  0.00000000000E+00 0. -1.
          6    1    1    2  501    0 -0.70414386512E+02 -0.12883933162E+03  0.70194332424E+03  0.73747283994E+03  0.17200000000E+03 0. -1.
         -6    1    1    2    0  503  0.70414386512E+02  0.12883933162E+03 -0.49577692664E+03  0.54491881982E+03  0.17200000000E+03 0. -1.
</event>
<event>
 4    1  0.1241325E+000  0.1916585E+03  0.7818608E-02  0.1156974E+00
         21   -1    0    0  501  502  0.00000000000E+00  0.00000000000E+00  0.23667348430E+03  0.23667348430E+03  0.00000000000E+00 0. -1.
         21   -1    0    0  502  503 -0.00000000000E+00 -0.00000000000E+00 -0.17511013430E+03  0.17511013430E+03  0.00000000000E+00 0. -1.
          6    1    1    2  501    0  0.66076853119E+02  0.52752615783E+02  0.10019810239E+03  0.21626985160E+03  0.17200000000E+03 0. -1.
         -6    1    1    2    0  503 -0.66076853119E+02 -0.52752615783E+02 -0.38634752398E+02  0.19551376699E+03  0.17200000000E+03 0. -1.
</event>
<event>
 4    1  0.1241325E+000  0.1833547E+03  0.7818608E-02  0.1164595E+00
         21   -1    0    0  501  502  0.00000000000E+00  0.00000000000E+00  0.37147485598E+03  0.37147485598E+03  0.00000000000E+00 0.  1.
         21   -1    0    0  502  503 -0.00000000000E+00 -0.00000000000E+00 -0.21144388955E+03  0.21144388955E+03  0.00000000000E+00 0.  1.
          6    1    1    2  501    0 -0.36858546271E+02  0.51734017910E+02  0.30044516327E+03  0.35197479622E+03  0.17200000000E+03 0.  1.
         -6    1    1    2    0  503  0.36858546271E+02 -0.51734017910E+02 -0.14041419685E+03  0.23094394930E+03  0.17200000000E+03 0.  1.
</event>
<event>
 4    1  0.1241325E+000  0.1758266E+03  0.7818608E-02  0.1171904E+00
         21   -1    0    0  501  502  0.00000000000E+00  0.00000000000E+00  0.33144179830E+02  0.33144179830E+02  0.00000000000E+00 0. -1.
         21   -1    0    0  502  503 -0.00000000000E+00 -0.00000000000E+00 -0.11459174446E+04  0.11459174446E+04  0.00000000000E+00 0. -1.
          6    1    1    2  501    0 -0.31862240507E+02 -0.17770136510E+02 -0.30211490267E+03  0.34955456589E+03  0.17200000000E+03 0. -1.
         -6    1    1    2    0  503  0.31862240507E+02  0.17770136510E+02 -0.81065836215E+03  0.82950705859E+03  0.17200000000E+03 0. -1.
</event>
<event>
 4    1  0.1241325E+000  0.1733114E+03  0.7818608E-02  0.1174438E+00
         21   -1    0    0  503  502  0.00000000000E+00  0.00000000000E+00  0.77965498660E+03  0.77965498660E+03  0.00000000000E+00 0. -1.
         21   -1    0    0  501  503 -0.00000000000E+00 -0.00000000000E+00 -0.57994798373E+02  0.57994798373E+02  0.00000000000E+00 0. -1.
          6    1    1    2  501    0 -0.68566204057E+01  0.20145157304E+02  0.60349649376E+03  0.62788920885E+03  0.17200000000E+03 0. -1.
         -6    1    1    2    0  502  0.68566204057E+01 -0.20145157304E+02  0.11816369447E+03  0.20976057612E+03  0.17200000000E+03 0. -1.
</event>
<event>
 4    1  0.1241325E+000  0.1999797E+03  0.7818608E-02  0.1149756E+00
         21   -1    0    0  501  502  0.00000000000E+00  0.00000000000E+00  0.59918438131E+03  0.59918438131E+03  0.00000000000E+00 0.  1.
         21   -1    0    0  502  503 -0.00000000000E+00 -0.00000000000E+00 -0.78443172543E+02  0.78443172543E+02  0.00000000000E+00 0.  1.
          6    1    1    2  501    0  0.91354218798E+02 -0.45412371772E+02  0.39121758618E+03  0.43936667664E+03  0.17200000000E+03 0. -1.
         -6    1    1    2    0  503 -0.91354218798E+02  0.45412371772E+02  0.12952362258E+03  0.23826087721E+03  0.17200000000E+03 0. -1.
</event>
<event>
 4    1  0.1241325E+000  0.1895705E+03  0.7818608E-02  0.1158849E+00
         21   -1    0    0  501  502  0.00000000000E+00  0.00000000000E+00  0.68729002432E+02  0.68729002432E+02  0.00000000000E+00 0.  1.
         21   -1    0    0  502  503 -0.00000000000E+00 -0.00000000000E+00 -0.52332413064E+03  0.52332413064E+03  0.00000000000E+00 0.  1.
          6    1    1    2  501    0  0.79244871196E+02 -0.85565620399E+01 -0.23592937105E+03  0.30265431186E+03  0.17200000000E+03 0. -1.
         -6    1    1    2    0  503 -0.79244871196E+02  0.85565620399E+01 -0.21866575716E+03  0.28939882121E+03  0.17200000000E+03 0. -1.
</event>
<event>
 4    1  0.1241325E+000  0.2386345E+03  0.7818608E-02  0.1120706E+00
         21   -1    0    0  503  502  0.00000000000E+00  0.00000000000E+00  0.14746649011E+04  0.14746649011E+04  0.00000000000E+00 0.  1.
         21   -1    0    0  501  503 -0.00000000000E+00 -0.00000000000E+00 -0.58895549572E+02  0.58895549572E+02  0.00000000000E+00 0.  1.
          6    1    1    2  501    0 -0.10314826328E+03 -0.12931684000E+03  0.25794594907E+03  0.35140079961E+03  0.17200000000E+03 0.  1.
         -6    1    1    2    0  502  0.10314826328E+03  0.12931684000E+03  0.11578234025E+04  0.11821596511E+04  0.17200000000E+03 0.  1.
</event>
<event>
 4    1  0.1241325E+000  0.3617031E+03  0.7818608E-02  0.1057912E+00
         21   -1    0    0  503  502  0.00000000000E+00  0.00000000000E+00  0.18645425378E+04  0.18645425378E+04  0.00000000000E+00 0.  1.
         21   -1    0    0  501  503 -0.00000000000E+00 -0.00000000000E+00 -0.70217614941E+03  0.70217614941E+03  0.00000000000E+00 0. -1.
          6    1    1    2  501    0  0.31164460893E+03 -0.64208548001E+02 -0.63636726811E+03  0.73197841487E+03  0.17200000000E+03 0. -1.
         -6    1    1    2    0  502 -0.31164460893E+03  0.64208548001E+02  0.17987336565E+04  0.18347402724E+04  0.17200000000E+03 0.  1.
</event>
<event>
 4    1  0.1241325E+000  0.1939760E+03  0.7818608E-02  0.1154923E+00
         21   -1    0    0  501  502  0.00000000000E+00  0.00000000000E+00  0.18349214547E+03  0.18349214547E+03  0.00000000000E+00 0.  1.
         21   -1    0    0  502  503 -0.00000000000E+00 -0.00000000000E+00 -0.24248340047E+03  0.24248340047E+03  0.00000000000E+00 0.  1.
          6    1    1    2  501    0 -0.58110597324E+02 -0.68307045683E+02  0.54178613641E+02  0.20140013949E+03  0.17200000000E+03 0. -1.
         -6    1    1    2    0  503  0.58110597324E+02  0.68307045683E+02 -0.11316986865E+03  0.22457540645E+03  0.17200000000E+03 0. -1.
</event>
<event>
 4    1  0.1241325E+000  0.1907152E+03  0.7818608E-02  0.1157818E+00
         21   -1    0    0  501  502  0.00000000000E+00  0.00000000000E+00  0.28151138218E+03  0.28151138218E+03  0.00000000000E+00 0. -1.
         21   -1    0    0  502  503 -0.00000000000E+00 -0.00000000000E+00 -0.11589293521E+04  0.11589293521E+04  0.00000000000E+00 0. -1.
          6    1    1    2  501    0 -0.75370299121E+02 -0.33280535317E+02  0.24017835584E+03  0.30668863467E+03  0.17200000000E+03 0. -1.
         -6    1    1    2    0  503  0.75370299121E+02  0.33280535317E+02 -0.11175963258E+04  0.11337520996E+04  0.17200000000E+03 0. -1.
</event>
<event>
 4    1  0.1241325E+000  0.2538119E+03  0.7818608E-02  0.1110919E+00
         21   -1    0    0  503  502  0.00000000000E+00  0.00000000000E+00  0.60216584951E+03  0.60216584951E+03  0.00000000000E+00 0. -1.
         21   -1    0    0  501  503 -0.00000000000E+00 -0.00000000000E+00 -0.22164993363E+03  0.22164993363E+03  0.00000000000E+00 0.  1.
          6    1    1    2  501    0  0.16534126047E+03 -0.86595276876E+02 -0.10601271444E+03  0.27506212028E+03  0.17200000000E+03 0.  1.
         -6    1    1    2    0  502 -0.16534126047E+03  0.86595276876E+02  0.48652863032E+03  0.54875366287E+03  0.17200000000E+03 0. -1.
</event>
<event>
 4    1  0.1241325E+000  0.2002188E+03  0.7818608E-02  0.1149555E+00
         21   -1    0    0  503  502  0.00000000000E+00  0.00000000000E+00  0.44225490997E+02  0.44225490997E+02  0.00000000000E+00 0. -1.
         21   -1    0    0  501  503 -0.00000000000E+00 -0.00000000000E+00 -0.10598152937E+04  0.10598152937E+04  0.00000000000E+00 0. -1.
          6    1    1    2  501    0  0.10151352518E+03 -0.14091908658E+02 -0.71779687684E+03  0.74519791605E+03  0.17200000000E+03 0. -1.
         -6    1    1    2    0  502 -0.10151352518E+03  0.14091908658E+02 -0.29779292586E+03  0.35884286864E+03  0.17200000000E+03 0. -1.
</event>
<event>
 4    1  0.1241325E+000  0.1743305E+03  0.7818608E-02  0.1173406E+00
         21   -1    0    0  503  502  0.00000000000E+00  0.00000000000E+00  0.27716064146E+03  0.27716064146E+03  0.00000000000E+00 0.  1.
         21   -1    0    0  501  503 -0.00000000000E+00 -0.00000000000E+00 -0.11329402338E+03  0.11329402338E+03  0.00000000000E+00 0.  1.
          6    1    1    2  501    0  0.96562396785E+01  0.26718826396E+02  0.46928662570E+02  0.18053652821E+03  0.17200000000E+03 0.  1.
         -6    1    1    2    0  502 -0.96562396785E+01 -0.26718826396E+02  0.11693795551E+03  0.20991813663E+03  0.17200000000E+03 0.  1.
</event>
<event>
 4    1  0.1241325E+000  0.1813014E+03  0.7818608E-02  0.1166549E+00
         21   -1    0    0  501  502  0.00000000000E+00  0.00000000000E+00  0.18841523589E+03  0.18841523589E+03  0.00000000000E+00 0.  1.
         21   -1    0    0  502  503 -0.00000000000E+00 -0.00000000000E+00 -0.33239561694E+03  0.33239561694E+03  0.00000000000E+00 0.  1.
          6    1    1    2  501    0  0.17899637486E+02  0.54459289076E+02  0.10751111585E+03  0.21078152486E+03  0.17200000000E+03 0.  1.
         -6    1    1    2    0  503 -0.17899637486E+02 -0.54459289076E+02 -0.25149149690E+03  0.31002932797E+03  0.17200000000E+03 0.  1.
</event>
<event>
 4    1  0.1241325E+000  0.1851267E+03  0.7818608E-02  0.1162932E+00
         21   -1    0    0  501  502  0.00000000000E+00  0.00000000000E+00  0.38015038052E+02  0.38015038052E+02  0.00000000000E+00 0. -1.
         21   -1    0    0  502  503 -0.00000000000E+00 -0.00000000000E+00 -0.10076267939E+04  0.10076267939E+04  0.00000000000E+00 0. -1.
          6    1    1    2  501    0  0.66052230813E+02  0.18027673929E+02 -0.65445187846E+03  0.68013171919E+03  0.17200000000E+03 0.  1.
         -6    1    1    2    0  503 -0.66052230813E+02 -0.18027673929E+02 -0.31515987743E+03  0.36551011281E+03  0.17200000000E+03 0.  1.
</event>
<event>
 4    1  0.1241325E+000  0.1920652E+03  0.7818608E-02  0.1156612E+00
         21   -1    0    0  501  502  0.00000000000E+00  0.00000000000E+00  0.21238113249E+03  0.21238113249E+03  0.00000000000E+00 0. -1.
         21   -1    0    0  502  503 -0.00000000000E+00 -0.00000000000E+00 -0.17433856562E+03  0.17433856562E+03  0.00000000000E+00 0. -1.
          6    1    1    2  501    0 -0.81860682972E+02 -0.24573422202E+02  0.30791506947E+02  0.19451771486E+03  0.17200000000E+03 0. -1.
         -6    1    1    2    0  503  0.81860682972E+02  0.24573422202E+02  0.72510599218E+01  0.19220198325E+03  0.17200000000E+03 0. -1.
</event>
<event>
 4    1  0.1241325E+000  0.1721919E+03  0.7818608E-02  0.1175581E+00
         21   -1    0    0  503  502  0.00000000000E+00  0.00000000000E+00  0.27703630269E+03  0.27703630269E+03  0.00000000000E+00 0.  1.
         21   -1    0    0  501  503 -0.00000000000E+00 -0.00000000000E+00 -0.11499322933E+03  0.11499322933E+03  0.00000000000E+00 0.  1.
          6    1    1    2  501    0  0.56614124665E+01  0.58318323735E+01  0.29426393946E+02  0.17468822090E+03  0.17200000000E+03 0.  1.
         -6    1    1    2    0  502 -0.56614124665E+01 -0.58318323735E+01  0.13261667942E+03  0.21734131112E+03  0.17200000000E+03 0.  1.
</event>
<event>
 4    1  0.1241325E+000  0.1769353E+03  0.7818608E-02  0.1170803E+00
         21   -1    0    0  501  502  0.00000000000E+00  0.00000000000E+00  0.25586496471E+03  0.25586496471E+03  0.00000000000E+00 0. -1.
         21   -1    0    0  502  503 -0.00000000000E+00 -0.00000000000E+00 -0.28158346724E+03  0.28158346724E+03  0.00000000000E+00 0. -1.
          6    1    1    2  501    0 -0.22240439819E+02  0.35034921192E+02 -0.21493539743E+03  0.27839415930E+03  0.17200000000E+03 0. -1.
         -6    1    1    2    0  503  0.22240439819E+02 -0.35034921192E+02  0.18921689490E+03  0.25905427266E+03  0.17200000000E+03 0. -1.
</event>
<event>
 4    1  0.1241325E+000  0.1815136E+03  0.7818608E-02  0.1166346E+00
         21   -1    0    0  501  502  0.00000000000E+00  0.00000000000E+00  0.12794517117E+03  0.12794517117E+03  0.00000000000E+00 0.  1.
         21   -1    0    0  502  503 -0.00000000000E+00 -0.00000000000E+00 -0.56571114157E+03  0.56571114157E+03  0.00000000000E+00 0.  1.
          6    1    1    2  501    0  0.54785134557E+02 -0.19020815796E+02  0.37113424768E+02  0.18526901711E+03  0.17200000000E+03 0.  1.
         -6    1    1    2    0  503 -0.54785134557E+02  0.19020815796E+02 -0.47487939517E+03  0.50838729563E+03  0.17200000000E+03 0.  1.
</event>
<event>
 4    1  0.1241325E+000  0.2413517E+03  0.7818608E-02  0.1118896E+00
         21   -1    0    0  501  502  0.00000000000E+00  0.00000000000E+00  0.68935756507E+03  0.68935756507E+03  0.00000000000E+00 0. -1.
         21   -1    0    0  502  503 -0.00000000000E+00 -0.00000000000E+00 -0.15597227212E+03  0.15597227212E+03  0.00000000000E+00 0. -1.
          6    1    1    2  501    0 -0.87135608348E+02  0.14516889587E+03  0.55280835451E+03  0.60319789405E+03  0.17200000000E+03 0. -1.
         -6    1    1    2    0  503  0.87135608348E+02 -0.14516889587E+03 -0.19423061560E+02  0.24213194315E+03  0.17200000000E+03 0. -1.
</event>
<event>
 4    1  0.1241325E+000  0.2111683E+03  0.7818608E-02  0.1140644E+00
         21   -1    0    0  503  502  0.00000000000E+00  0.00000000000E+00  0.27912299703E+03  0.27912299703E+03  0.00000000000E+00 0. -1.
         21   -1    0    0  501  503 -0.00000000000E+00 -0.00000000000E+00 -0.26691854250E+03  0.26691854250E+03  0.00000000000E+00 0. -1.
          6    1    1    2  501    0 -0.80165215983E+02 -0.92636929627E+02 -0.16688907515E+03  0.26915427916E+03  0.17200000000E+03 0. -1.
         -6    1    1    2    0  502  0.80165215983E+02  0.92636929627E+02  0.17909352967E+03  0.27688726037E+03  0.17200000000E+03 0. -1.
</event>
<event>
 4    1  0.1241325E+000  0.2866515E+03  0.7818608E-02  0.1092111E+00
         21   -1    0    0  501  502  0.00000000000E+00  0.00000000000E+00  0.86361670769E+03  0.86361670769E+03  0.00000000000E+00 0.  1.
         21   -1    0    0  502  503 -0.00000000000E+00 -0.00000000000E+00 -0.16307032152E+03  0.16307032152E+03  0.00000000000E+00 0. -1.
          6    1    1    2  501    0  0.13018524682E+03 -0.18877728909E+03  0.68158394917E+03  0.73940904993E+03  0.17200000000E+03 0.  1.
         -6    1    1    2    0  503 -0.13018524682E+03  0.18877728909E+03  0.18962437003E+02  0.28727797928E+03  0.17200000000E+03 0. -1.
</event>
<event>
 4    1  0.1241325E+000  0.2114586E+03  0.7818608E-02  0.1140416E+00
         21   -1    0    0  501  502  0.00000000000E+00  0.00000000000E+00  0.28644724357E+03  0.28644724357E+03  0.00000000000E+00 0. -1.
         21   -1    0    0  502  503 -0.00000000000E+00 -0.00000000000E+00 -0.15646589401E+03  0.15646589401E+03  0.00000000000E+00 0.  1.
          6    1    1    2  501    0  0.70403251511E+02  0.10086684320E+03  0.54298013467E+02  0.21831860238E+03  0.17200000000E+03 0. -1.
         -6    1    1    2    0  503 -0.70403251511E+02 -0.10086684320E+03  0.75683336094E+02  0.22459453520E+03  0.17200000000E+03 0. -1.
</event>
<event>
 4    1  0.1241325E+000  0.2010906E+03  0.7818608E-02  0.1148822E+00
         21   -1    0    0  503  502  0.00000000000E+00  0.00000000000E+00  0.19551756880E+03  0.19551756880E+03  0.00000000000E+00 0.  1.
         21   -1    0    0  501  503 -0.00000000000E+00 -0.00000000000E+00 -0.20684587599E+03  0.20684587599E+03  0.00000000000E+00 0.  1.
          6    1    1    2  501    0  0.94629841041E+02  0.43573261000E+02 -0.78020316470E+01  0.20124191310E+03  0.17200000000E+03 0. -1.
         -6    1    1    2    0  502 -0.94629841041E+02 -0.43573261000E+02 -0.35262755496E+01  0.20112153169E+03  0.17200000000E+03 0. -1.
</event>
<event>
 4    1  0.1241325E+000  0.1997706E+03  0.7818608E-02  0.1149933E+00
         21   -1    0    0  503  502  0.00000000000E+00  0.00000000000E+00  0.14772926195E+04  0.14772926195E+04  0.00000000000E+00 0.  1.
         21   -1    0    0  501  503 -0.00000000000E+00 -0.00000000000E+00 -0.60739756246E+02  0.60739756246E+02  0.00000000000E+00 0.  1.
          6    1    1    2  501    0 -0.64925745623E+02 -0.78159780526E+02  0.13524734661E+03  0.24124706942E+03  0.17200000000E+03 0.  1.
         -6    1    1    2    0  502  0.64925745623E+02  0.78159780526E+02  0.12813055166E+04  0.12967853063E+04  0.17200000000E+03 0.  1.
</event>
<event>
 4    1  0.1241325E+000  0.1787992E+03  0.7818608E-02  0.1168970E+00
         21   -1    0    0  501  502  0.00000000000E+00  0.00000000000E+00  0.12608684686E+03  0.12608684686E+03  0.00000000000E+00 0. -1.
         21   -1    0    0  502  503 -0.00000000000E+00 -0.00000000000E+00 -0.34530629887E+03  0.34530629887E+03  0.00000000000E+00 0. -1.
          6    1    1    2  501    0 -0.72101244503E+01 -0.48303052507E+02  0.11889010698E+02  0.17919408291E+03  0.17200000000E+03 0. -1.
         -6    1    1    2    0  503  0.72101244503E+01  0.48303052507E+02 -0.23110846271E+03  0.29219906282E+03  0.17200000000E+03 0. -1.
</event>
<event>
 4    1  0.1241325E+000  0.1746259E+03  0.7818608E-02  0.1173108E+00
         21   -1    0    0  501  502  0.00000000000E+00  0.00000000000E+00  0.31820081340E+02  0.31820081340E+02  0.00000000000E+00 0. -1.
         21   -1    0    0  502  503 -0.00000000000E+00 -0.00000000000E+00 -0.12567632641E+04  0.12567632641E+04  0.00000000000E+00 0.  1.
          6    1    1    2  501    0 -0.18216997862E+02  0.24049127352E+02 -0.92643392040E+03  0.94274812564E+03  0.17200000000E+03 0.  1.
         -6    1    1    2    0  503  0.18216997862E+02 -0.24049127352E+02 -0.29850926237E+03  0.34583521981E+03  0.17200000000E+03 0. -1.
</event>
<event>
 4    1  0.1241325E+000  0.2463063E+03  0.7818608E-02  0.1115662E+00
         21   -1    0    0  503  502  0.00000000000E+00  0.00000000000E+00  0.18312622762E+03  0.18312622762E+03  0.00000000000E+00 0.  1.
         21   -1    0    0  501  503 -0.00000000000E+00 -0.00000000000E+00 -0.35398272573E+03  0.35398272573E+03  0.00000000000E+00 0. -1.
          6    1    1    2  501    0 -0.72116354202E+02 -0.16087890569E+03 -0.17423065983E+02  0.24692175698E+03  0.17200000000E+03 0.  1.
         -6    1    1    2    0  502  0.72116354202E+02  0.16087890569E+03 -0.15343343213E+03  0.29018719637E+03  0.17200000000E+03 0. -1.
</event>
<event>
 4    1  0.1241325E+000  0.1822946E+03  0.7818608E-02  0.1165601E+00
         21   -1    0    0  501  502  0.00000000000E+00  0.00000000000E+00  0.18154741010E+03  0.18154741010E+03  0.00000000000E+00 0.  1.
         21   -1    0    0  502  503 -0.00000000000E+00 -0.00000000000E+00 -0.19259882878E+03  0.19259882878E+03  0.00000000000E+00 0.  1.
          6    1    1    2  501    0 -0.60073331174E+02 -0.62055750036E+01  0.36139850878E+02  0.18584241470E+03  0.17200000000E+03 0.  1.
         -6    1    1    2    0  503  0.60073331174E+02  0.62055750036E+01 -0.47191269556E+02  0.18830382418E+03  0.17200000000E+03 0.  1.
</event>
<event>
 4    1  0.1241325E+000  0.1823980E+03  0.7818608E-02  0.1165502E+00
         21   -1    0    0  503  502  0.00000000000E+00  0.00000000000E+00  0.80622576174E+02  0.80622576174E+02  0.00000000000E+00 0.  1.
         21   -1    0    0  501  503 -0.00000000000E+00 -0.00000000000E+00 -0.41917880028E+03  0.41917880028E+03  0.00000000000E+00 0.  1.
          6    1    1    2  501    0  0.96064772569E+00 -0.60696739401E+02 -0.20046260658E+03  0.27102448903E+03  0.17200000000E+03 0.  1.
         -6    1    1    2    0  502 -0.96064772569E+00  0.60696739401E+02 -0.13809361753E+03  0.22877688743E+03  0.17200000000E+03 0.  1.
</event>
<event>
 4    1  0.1241325E+000  0.1729385E+03  0.7818608E-02  0.1174818E+00
         21   -1    0    0  503  502  0.00000000000E+00  0.00000000000E+00  0.85180553220E+03  0.85180553220E+03  0.00000000000E+00 0. -1.
         21   -1    0    0  501  503 -0.00000000000E+00 -0.00000000000E+00 -0.47085827901E+02  0.47085827901E+02  0.00000000000E+00 0. -1.
          6    1    1    2  501    0  0.26078436773E+01 -0.17801997171E+02  0.17570374345E+03  0.24653502269E+03  0.17200000000E+03 0. -1.
         -6    1    1    2    0  502 -0.26078436773E+01  0.17801997171E+02  0.62901596085E+03  0.65235633740E+03  0.17200000000E+03 0. -1.
</event>
<event>
 4    1  0.1241325E+000  0.2351018E+03  0.7818608E-02  0.1123100E+00
         21   -1    0    0  503  502  0.00000000000E+00  0.00000000000E+00  0.49405898754E+03  0.49405898754E+03  0.00000000000E+00 0.  1.
         21   -1    0    0  501  503 -0.00000000000E+00 -0.00000000000E+00 -0.11324667300E+03  0.11324667300E+03  0.00000000000E+00 0.  1.
          6    1    1    2  501    0 -0.76359138052E+02  0.14091890597E+03  0.15698759784E+03  0.28269765103E+03  0.17200000000E+03 0. -1.
         -6    1    1    2    0  502  0.76359138052E+02 -0.14091890597E+03  0.22382471670E+03  0.32460800950E+03  0.17200000000E+03 0. -1.
</event>
<event>
 4    1  0.1241325E+000  0.1849447E+03  0.7818608E-02  0.1163101E+00
         21   -1    0    0  501  502  0.00000000000E+00  0.00000000000E+00  0.50659942016E+02  0.50659942016E+02  0.00000000000E+00 0. -1.
         21   -1    0    0  502  503 -0.00000000000E+00 -0.00000000000E+00 -0.77596187127E+03  0.77596187127E+03  0.00000000000E+00 0.  1.
          6    1    1    2  501    0 -0.45485160971E+02 -0.50513958795E+02 -0.21369814667E+03  0.28261538846E+03  0.17200000000E+03 0. -1.
         -6    1    1    2    0  503  0.45485160971E+02  0.50513958795E+02 -0.51160378259E+03  0.54400642483E+03  0.17200000000E+03 0.  1.
</event>
<event>
 4    1  0.1241325E+000  0.1874472E+03  0.7818608E-02  0.1160784E+00
         21   -1    0    0  501  502  0.00000000000E+00  0.00000000000E+00  0.25272620715E+03  0.25272620715E+03  0.00000000000E+00 0.  1.
         21   -1    0    0  502  503 -0.00000000000E+00 -0.00000000000E+00 -0.20827735225E+03  0.20827735225E+03  0.00000000000E+00 0.  1.
          6    1    1    2  501    0  0.68244425804E+02  0.29919075055E+02  0.15513383952E+03  0.24331658568E+03  0.17200000000E+03 0. -1.
         -6    1    1    2    0  503 -0.68244425804E+02 -0.29919075055E+02 -0.11068498462E+03  0.21768697372E+03  0.17200000000E+03 0. -1.
</event>
<event>
 4    1  0.1241325E+000  0.2297921E+03  0.7818608E-02  0.1126786E+00
         21   -1    0    0  503  502  0.00000000000E+00  0.00000000000E+00  0.70328196204E+02  0.70328196204E+02  0.00000000000E+00 0.  1.
         21   -1    0    0  501  503 -0.00000000000E+00 -0.00000000000E+00 -0.79080568460E+03  0.79080568460E+03  0.00000000000E+00 0.  1.
          6    1    1    2  501    0 -0.94267102745E+02 -0.11972513194E+03 -0.45704723538E+03  0.51156286930E+03  0.17200000000E+03 0.  1.
         -6    1    1    2    0  502  0.94267102745E+02  0.11972513194E+03 -0.26343025301E+03  0.34957101150E+03  0.17200000000E+03 0.  1.
</event>
<event>
 4    1  0.1241325E+000  0.2878850E+03  0.7818608E-02  0.1091459E+00
         21   -1    0    0  503  502  0.00000000000E+00  0.00000000000E+00  0.14548403891E+04  0.14548403891E+04  0.00000000000E+00 0. -1.
         21   -1    0    0  501  503 -0.00000000000E+00 -0.00000000000E+00 -0.57066683030E+02  0.57066683030E+02  0.00000000000E+00 0.  1.
          6    1    1    2  501    0  0.90374746303E+02  0.21242928802E+03  0.66728176507E+03  0.72673430576E+03  0.17200000000E+03 0.  1.
         -6    1    1    2    0  502 -0.90374746303E+02 -0.21242928802E+03  0.73049194103E+03  0.78517276639E+03  0.17200000000E+03 0.  1.
</event>
<event>
 4    1  0.1241325E+000  0.2040644E+03  0.7818608E-02  0.1146354E+00
         21   -1    0    0  503  502  0.00000000000E+00  0.00000000000E+00  0.25854510840E+03  0.25854510840E+03  0.00000000000E+00 0.  1.
         21   -1    0    0  501  503 -0.00000000000E+00 -0.00000000000E+00 -0.16773410737E+03  0.16773410737E+03  0.00000000000E+00 0.  1.
          6    1    1    2  501    0  0.10342177658E+03 -0.36908297855E+02  0.29021875849E+01  0.20408505338E+03  0.17200000000E+03 0.  1.
         -6    1    1    2    0  502 -0.10342177658E+03  0.36908297855E+02  0.87908813447E+02  0.22219416239E+03  0.17200000000E+03 0.  1.
</event>
<event>
 4    1  0.1241325E+000  0.2779453E+03  0.7818608E-02  0.1096816E+00
         21   -1    0    0  501  502  0.00000000000E+00  0.00000000000E+00  0.37902613897E+03  0.37902613897E+03  0.00000000000E+00 0.  1.
         21   -1    0    0  502  503 -0.00000000000E+00 -0.00000000000E+00 -0.20644675985E+03  0.20644675985E+03  0.00000000000E+00 0. -1.
          6    1    1    2  501    0 -0.16940745332E+03 -0.13773418409E+03  0.53277253984E+02  0.28300540012E+03  0.17200000000E+03 0. -1.
         -6    1    1    2    0  503  0.16940745332E+03  0.13773418409E+03  0.11930212513E+03  0.30246749870E+03  0.17200000000E+03 0. -1.
</event>
<event>
 4    1  0.1241325E+000  0.1910694E+03  0.7818608E-02  0.1157500E+00
         21   -1    0    0  503  502  0.00000000000E+00  0.00000000000E+00  0.21866035870E+03  0.21866035870E+03  0.00000000000E+00 0. -1.
         21   -1    0    0  501  503 -0.00000000000E+00 -0.00000000000E+00 -0.22548941490E+03  0.22548941490E+03  0.00000000000E+00 0. -1.
          6    1    1    2  501    0 -0.55013053861E+02 -0.62426575888E+02 -0.11655651482E+03  0.22381450940E+03  0.17200000000E+03 0.  1.
         -6    1    1    2    0  502  0.55013053861E+02  0.62426575888E+02  0.10972745862E+03  0.22033526419E+03  0.17200000000E+03 0.  1.
</event>
<event>
 4    1  0.1241325E+000  0.2210853E+03  0.7818608E-02  0.1133076E+00
         21   -1    0    0  503  502  0.00000000000E+00  0.00000000000E+00  0.39390770892E+03  0.39390770892E+03  0.00000000000E+00 0.  1.
         21   -1    0    0  501  503 -0.00000000000E+00 -0.00000000000E+00 -0.14512439999E+03  0.14512439999E+03  0.00000000000E+00 0.  1.
          6    1    1    2  501    0 -0.82552757368E+02  0.11171282548E+03  0.21776049856E+02  0.22215514730E+03  0.17200000000E+03 0.  1.
         -6    1    1    2    0  502  0.82552757368E+02 -0.11171282548E+03  0.22700725907E+03  0.31687696161E+03  0.17200000000E+03 0.  1.
</event>
<event>
 4    1  0.1241325E+000  0.2114802E+03  0.7818608E-02  0.1140399E+00
         21   -1    0    0  503  502  0.00000000000E+00  0.00000000000E+00  0.31332971657E+03  0.31332971657E+03  0.00000000000E+00 0.  1.
         21   -1    0    0  501  503 -0.00000000000E+00 -0.00000000000E+00 -0.15005769835E+03  0.15005769835E+03  0.00000000000E+00 0.  1.
          6    1    1    2  501    0 -0.10264076354E+03  0.67858289603E+02  0.30462047099E+02  0.21366284216E+03  0.17200000000E+03 0. -1.
         -6    1    1    2    0  502  0.10264076354E+03 -0.67858289603E+02  0.13280997112E+03  0.24972457275E+03  0.17200000000E+03 0. -1.
</event>
<event>
 4    1  0.1241325E+000  0.1844233E+03  0.7818608E-02  0.1163590E+00
         21   -1    0    0  503  502  0.00000000000E+00  0.00000000000E+00  0.71271381439E+03  0.71271381439E+03  0.00000000000E+00 0.  1.
         21   -1    0    0  501  503 -0.00000000000E+00 -0.00000000000E+00 -0.11103669187E+03  0.11103669187E+03  0.00000000000E+00 0.  1.
          6    1    1    2  501    0 -0.57489794394E+02 -0.33509355121E+02 -0.10179445762E+02  0.18470401852E+03  0.17200000000E+03 0. -1.
         -6    1    1    2    0  502  0.57489794394E+02  0.33509355121E+02  0.61185656828E+03  0.63904648774E+03  0.17200000000E+03 0. -1.
</event>
<event>
 4    1  0.1241325E+000  0.2494966E+03  0.7818608E-02  0.1113623E+00
         21   -1    0    0  501  502  0.00000000000E+00  0.00000000000E+00  0.10560077960E+03  0.10560077960E+03  0.00000000000E+00 0.  1.
         21   -1    0    0  502  503 -0.00000000000E+00 -0.00000000000E+00 -0.10238225871E+04  0.10238225871E+04  0.00000000000E+00 0. -1.
          6    1    1    2  501    0 -0.11031946454E+02  0.18039642666E+03 -0.91290994523E+02  0.26567389837E+03  0.17200000000E+03 0.  1.
         -6    1    1    2    0  503  0.11031946454E+02 -0.18039642666E+03 -0.82693081294E+03  0.86374946829E+03  0.17200000000E+03 0. -1.
</event>
<event>
 4    1  0.1241325E+000  0.1748384E+03  0.7818608E-02  0.1172894E+00
         21   -1    0    0  501  502  0.00000000000E+00  0.00000000000E+00  0.45118612483E+02  0.45118612483E+02  0.00000000000E+00 0.  1.
         21   -1    0    0  502  503 -0.00000000000E+00 -0.00000000000E+00 -0.67817507370E+03  0.67817507370E+03  0.00000000000E+00 0.  1.
          6    1    1    2  501    0 -0.24678370358E+02 -0.19376295122E+02 -0.32782485220E+03  0.37153411216E+03  0.17200000000E+03 0. -1.
         -6    1    1    2    0  503  0.24678370358E+02  0.19376295122E+02 -0.30523160902E+03  0.35175957403E+03  0.17200000000E+03 0. -1.
</event>
<event>
 4    1  0.1241325E+000  0.1771792E+03  0.7818608E-02  0.1170561E+00
         21   -1    0    0  501  502  0.00000000000E+00  0.00000000000E+00  0.40765457055E+03  0.40765457055E+03  0.00000000000E+00 0. -1.
         21   -1    0    0  502  503 -0.00000000000E+00 -0.00000000000E+00 -0.10118173336E+03  0.10118173336E+03  0.00000000000E+00 0. -1.
          6    1    1    2  501    0 -0.22175841048E+02 -0.36286544713E+02  0.27759418366E+03  0.32931901260E+03  0.17200000000E+03 0. -1.
         -6    1    1    2    0  503  0.22175841048E+02  0.36286544713E+02  0.28878653523E+02  0.17951729132E+03  0.17200000000E+03 0. -1.
</event>
<event>
 4    1  0.1241325E+000  0.1989637E+03  0.7818608E-02  0.1150616E+00
         21   -1    0    0  503  502  0.00000000000E+00  0.00000000000E+00  0.29704878149E+04  0.29704878149E+04  0.00000000000E+00 0.  1.
         21   -1    0    0  501  503 -0.00000000000E+00 -0.00000000000E+00 -0.13482944630E+02  0.13482944630E+02  0.00000000000E+00 0.  1.
          6    1    1    2  501    0  0.97679091450E+02 -0.21479483312E+02  0.16391524804E+04  0.16511836443E+04  0.17200000000E+03 0.  1.
         -6    1    1    2    0  502 -0.97679091450E+02  0.21479483312E+02  0.13178523898E+04  0.13327871152E+04  0.17200000000E+03 0.  1.
</event>
<event>
 4    1  0.1241325E+000  0.3497705E+03  0.7818608E-02  0.1062709E+00
         21   -1    0    0  501  502  0.00000000000E+00  0.00000000000E+00  0.91083047372E+03  0.91083047372E+03  0.00000000000E+00 0. -1.
         21   -1    0    0  502  503 -0.00000000000E+00 -0.00000000000E+00 -0.45598168294E+03  0.45598168294E+03  0.00000000000E+00 0.  1.
          6    1    1    2  501    0  0.13354629247E+03  0.27371661644E+03  0.80141830865E+03  0.87442021007E+03  0.17200000000E+03 0. -1.
         -6    1    1    2    0  503 -0.13354629247E+03 -0.27371661644E+03 -0.34656951787E+03  0.49239194659E+03  0.17200000000E+03 0.  1.
</event>
<event>
 4    1  0.1241325E+000  0.2485534E+03  0.7818608E-02  0.1114222E+00
         21   -1    0    0  503  502  0.00000000000E+00  0.00000000000E+00  0.23581503216E+03  0.23581503216E+03  0.00000000000E+00 0. -1.
         21   -1    0    0  501  503 -0.00000000000E+00 -0.00000000000E+00 -0.26347528897E+03  0.26347528897E+03  0.00000000000E+00 0.  1.
          6    1    1    2  501    0  0.10805388371E+03 -0.14324506886E+03  0.49775247671E+01  0.24860323267E+03  0.17200000000E+03 0.  1.
         -6    1    1    2    0  502 -0.10805388371E+03  0.14324506886E+03 -0.32637781580E+02  0.25068708847E+03  0.17200000000E+03 0.  1.
</event>
<event>
 4    1  0.1241325E+000  0.2155103E+03  0.7818608E-02  0.1137275E+00
         21   -1    0    0  503  502  0.00000000000E+00  0.00000000000E+00  0.83548083993E+03  0.83548083993E+03  0.00000000000E+00 0.  1.
         21   -1    0    0  501  503 -0.00000000000E+00 -0.00000000000E+00 -0.60543631508E+02  0.60543631508E+02  0.00000000000E+00 0.  1.
          6    1    1    2  501    0 -0.12559630982E+03  0.32958235686E+02  0.25932355546E+03  0.33718449662E+03  0.17200000000E+03 0.  1.
         -6    1    1    2    0  502  0.12559630982E+03 -0.32958235686E+02  0.51561365295E+03  0.55883997482E+03  0.17200000000E+03 0.  1.
</event>
<event>
 4    1  0.1241325E+000  0.1790746E+03  0.7818608E-02  0.1168702E+00
         21   -1    0    0  503  502  0.00000000000E+00  0.00000000000E+00  0.29114048175E+03  0.29114048175E+03  0.00000000000E+00 0. -1.
         21   -1    0    0  501  503 -0.00000000000E+00 -0.00000000000E+00 -0.11118074348E+03  0.11118074348E+03  0.00000000000E+00 0. -1.
          6    1    1    2  501    0 -0.13459198000E+02  0.47985164180E+02  0.10939376802E+03  0.20984451976E+03  0.17200000000E+03 0. -1.
         -6    1    1    2    0  502  0.13459198000E+02 -0.47985164180E+02  0.70565970249E+02  0.19247670547E+03  0.17200000000E+03 0. -1.
</event>
<event>
 4    1  0.1241325E+000  0.1768479E+03  0.7818608E-02  0.1170889E+00
         21   -1    0    0  501  502  0.00000000000E+00  0.00000000000E+00  0.55887111455E+03  0.55887111455E+03  0.00000000000E+00 0.  1.
         21   -1    0    0  502  503 -0.00000000000E+00 -0.00000000000E+00 -0.71654598291E+02  0.71654598291E+02  0.00000000000E+00 0.  1.
          6    1    1    2  501    0 -0.22710536059E+02  0.34284164150E+02  0.39114746217E+03  0.42926857504E+03  0.17200000000E+03 0.  1.
         -6    1    1    2    0  503  0.22710536059E+02 -0.34284164150E+02  0.96069054086E+02  0.20125713779E+03  0.17200000000E+03 0.  1.
</event>
<event>
 4    1  0.1241325E+000  0.2009656E+03  0.7818608E-02  0.1148927E+00
         21   -1    0    0  503  502  0.00000000000E+00  0.00000000000E+00  0.47693026268E+03  0.47693026268E+03  0.00000000000E+00 0. -1.
         21   -1    0    0  501  503 -0.00000000000E+00 -0.00000000000E+00 -0.98405763163E+02  0.98405763163E+02  0.00000000000E+00 0. -1.
          6    1    1    2  501    0  0.16698183811E+02 -0.10258828709E+03  0.81832318969E+02  0.21698782090E+03  0.17200000000E+03 0. -1.
         -6    1    1    2    0  502 -0.16698183811E+02  0.10258828709E+03  0.29669218054E+03  0.35834820494E+03  0.17200000000E+03 0. -1.
</event>
<event>
 4    1  0.1241325E+000  0.1755876E+03  0.7818608E-02  0.1172143E+00
         21   -1    0    0  501  502  0.00000000000E+00  0.00000000000E+00  0.58637170238E+03  0.58637170238E+03  0.00000000000E+00 0.  1.
         21   -1    0    0  502  503 -0.00000000000E+00 -0.00000000000E+00 -0.72538542774E+02  0.72538542774E+02  0.00000000000E+00 0. -1.
          6    1    1    2  501    0  0.30665450807E+02  0.17511092733E+02  0.42973259303E+03  0.46422097082E+03  0.17200000000E+03 0.  1.
         -6    1    1    2    0  503 -0.30665450807E+02 -0.17511092733E+02  0.84100566584E+02  0.19468927434E+03  0.17200000000E+03 0. -1.
</event>
<event>
 4    1  0.1241325E+000  0.1790561E+03  0.7818608E-02  0.1168720E+00
         21   -1    0    0  503  502  0.00000000000E+00  0.00000000000E+00  0.11884849017E+04  0.11884849017E+04  0.00000000000E+00 0.  1.
         21   -1    0    0  501  503 -0.00000000000E+00 -0.00000000000E+00 -0.27739027755E+02  0.27739027755E+02  0.00000000000E+00 0.  1.
          6    1    1    2  501    0  0.19464868251E+02 -0.45806006294E+02  0.68120246077E+03  0.70434214971E+03  0.17200000000E+03 0. -1.
         -6    1    1    2    0  502 -0.19464868251E+02  0.45806006294E+02  0.47954341317E+03  0.51188177973E+03  0.17200000000E+03 0. -1.
</event>
<event>
 4    1  0.1241325E+000  0.2515974E+03  0.7818608E-02  0.1112299E+00
         21   -1    0    0  503  502  0.00000000000E+00  0.00000000000E+00  0.37585357813E+02  0.37585357813E+02  0.00000000000E+00 0. -1.
         21   -1    0    0  501  503 -0.00000000000E+00 -0.00000000000E+00 -0.16897125137E+04  0.16897125137E+04  0.00000000000E+00 0.  1.
          6    1    1    2  501    0 -0.74593085929E+02 -0.16778898503E+03 -0.77673566498E+03  0.81646773679E+03  0.17200000000E+03 0.  1.
         -6    1    1    2    0  502  0.74593085929E+02  0.16778898503E+03 -0.87539149090E+03  0.91083013472E+03  0.17200000000E+03 0.  1.
</event>
<event>
 4    1  0.1241325E+000  0.1826793E+03  0.7818608E-02  0.1165235E+00
         21   -1    0    0  503  502  0.00000000000E+00  0.00000000000E+00  0.96055471005E+03  0.96055471005E+03  0.00000000000E+00 0.  1.
         21   -1    0    0  501  503 -0.00000000000E+00 -0.00000000000E+00 -0.37043899037E+02  0.37043899037E+02  0.00000000000E+00 0.  1.
          6    1    1    2  501    0  0.25739195373E+02  0.55903576313E+02  0.33741896715E+03  0.38369685354E+03  0.17200000000E+03 0.  1.
         -6    1    1    2    0  502 -0.25739195373E+02 -0.55903576313E+02  0.58609184386E+03  0.61390175555E+03  0.17200000000E+03 0.  1.
</event>
<event>
 4    1  0.1241325E+000  0.2317305E+03  0.7818608E-02  0.1125428E+00
         21   -1    0    0  501  502  0.00000000000E+00  0.00000000000E+00  0.14273656101E+04  0.14273656101E+04  0.00000000000E+00 0. -1.
         21   -1    0    0  502  503 -0.00000000000E+00 -0.00000000000E+00 -0.44475451613E+02  0.44475451613E+02  0.00000000000E+00 0.  1.
          6    1    1    2  501    0  0.93030144734E+02  0.12433999160E+03  0.98034966541E+03  0.10073651313E+04  0.17200000000E+03 0. -1.
         -6    1    1    2    0  503 -0.93030144734E+02 -0.12433999160E+03  0.40254049306E+03  0.46447593037E+03  0.17200000000E+03 0.  1.
</event>
<event>
 4    1  0.1241325E+000  0.3463824E+03  0.7818608E-02  0.1064110E+00
         21   -1    0    0  503  502  0.00000000000E+00  0.00000000000E+00  0.26204956134E+03  0.26204956134E+03  0.00000000000E+00 0. -1.
         21   -1    0    0  501  503 -0.00000000000E+00 -0.00000000000E+00 -0.11361120745E+04  0.11361120745E+04  0.00000000000E+00 0.  1.
          6    1    1    2  501    0 -0.20641989540E+02 -0.29995115920E+03 -0.97718060541E+03  0.10367558658E+04  0.17200000000E+03 0.  1.
         -6    1    1    2    0  502  0.20641989540E+02  0.29995115920E+03  0.10311809229E+03  0.36140577001E+03  0.17200000000E+03 0. -1.
</event>
<event>
 4    1  0.1241325E+000  0.1891951E+03  0.7818608E-02  0.1159189E+00
         21   -1    0    0  503  502  0.00000000000E+00  0.00000000000E+00  0.52964049562E+02  0.52964049562E+02  0.00000000000E+00 0. -1.
         21   -1    0    0  501  503 -0.00000000000E+00 -0.00000000000E+00 -0.79750970086E+03  0.79750970086E+03  0.00000000000E+00 0. -1.
          6    1    1    2  501    0  0.76028842794E+02  0.20746409277E+02 -0.53837237944E+03  0.57064841836E+03  0.17200000000E+03 0.  1.
         -6    1    1    2    0  502 -0.76028842794E+02 -0.20746409277E+02 -0.20617327186E+03  0.27982533206E+03  0.17200000000E+03 0.  1.
</event>
<event>
 4    1  0.1241325E+000  0.2409218E+03  0.7818608E-02  0.1119180E+00
         21   -1    0    0  503  502  0.00000000000E+00  0.00000000000E+00  0.22139907496E+03  0.22139907496E+03  0.00000000000E+00 0.  1.
         21   -1    0    0  501  503 -0.00000000000E+00 -0.00000000000E+00 -0.33927684819E+03  0.33927684819E+03  0.00000000000E+00 0.  1.
          6    1    1    2  501    0 -0.16861621676E+03  0.52826649819E+01 -0.19258681089E+03  0.30843640322E+03  0.17200000000E+03 0.  1.
         -6    1    1    2    0  502  0.16861621676E+03 -0.52826649819E+01  0.74709037654E+02  0.25223951993E+03  0.17200000000E+03 0.  1.
</event>
<event>
 4    1  0.1241325E+000  0.1829780E+03  0.7818608E-02  0.1164952E+00
         21   -1    0    0  501  502  0.00000000000E+00  0.00000000000E+00  0.37466382001E+03  0.37466382001E+03  0.00000000000E+00 0. -1.
         21   -1    0    0  502  503 -0.00000000000E+00 -0.00000000000E+00 -0.89848129894E+02  0.89848129894E+02  0.00000000000E+00 0. -1.
          6    1    1    2  501    0  0.60761120294E+02  0.14319553721E+02  0.15947983783E+03  0.24272367423E+03  0.17200000000E+03 0.  1.
         -6    1    1    2    0  503 -0.60761120294E+02 -0.14319553721E+02  0.12533585229E+03  0.22178827567E+03  0.17200000000E+03 0.  1.
</event>
<event>
 4    1  0.1241325E+000  0.1770972E+03  0.7818608E-02  0.1170642E+00
         21   -1    0    0  503  502  0.00000000000E+00  0.00000000000E+00  0.19214798218E+03  0.19214798218E+03  0.00000000000E+00 0.  1.
         21   -1    0    0  501  503 -0.00000000000E+00 -0.00000000000E+00 -0.32497190764E+03  0.32497190764E+03  0.00000000000E+00 0.  1.
          6    1    1    2  501    0 -0.21759594458E+00 -0.42182417276E+02 -0.24882504657E+03  0.30541333873E+03  0.17200000000E+03 0.  1.
         -6    1    1    2    0  502  0.21759594458E+00  0.42182417276E+02  0.11600112110E+03  0.21170655109E+03  0.17200000000E+03 0.  1.
</event>
<event>
 4    1  0.1241325E+000  0.1781508E+03  0.7818608E-02  0.1169605E+00
         21   -1    0    0  503  502  0.00000000000E+00  0.00000000000E+00  0.21855333837E+03  0.21855333837E+03  0.00000000000E+00 0.  1.
         21   -1    0    0  501  503 -0.00000000000E+00 -0.00000000000E+00 -0.14703638164E+03  0.14703638164E+03  0.00000000000E+00 0.  1.
          6    1    1    2  501    0 -0.42752871551E+02  0.18052422884E+02  0.56091073072E+02  0.18677233863E+03  0.17200000000E+03 0.  1.
         -6    1    1    2    0  502  0.42752871551E+02 -0.18052422884E+02  0.15425883666E+02  0.17881738138E+03  0.17200000000E+03 0.  1.
</event>
<event>
 4    1  0.1241325E+000  0.2177856E+03  0.7818608E-02  0.1135545E+00
         21   -1    0    0  503  502  0.00000000000E+00  0.00000000000E+00  0.16849361439E+03  0.16849361439E+03  0.00000000000E+00 0. -1.
         21   -1    0    0  501  503 -0.00000000000E+00 -0.00000000000E+00 -0.48021042185E+03  0.48021042185E+03  0.00000000000E+00 0. -1.
          6    1    1    2  501    0  0.62012093902E+02  0.11832616912E+03 -0.36450607340E+03  0.42461189295E+03  0.17200000000E+03 0. -1.
         -6    1    1    2    0  502 -0.62012093902E+02 -0.11832616912E+03  0.52789265938E+02  0.22409214330E+03  0.17200000000E+03 0. -1.
</event>
<event>
 4    1  0.1241325E+000  0.2012739E+03  0.7818608E-02  0.1148669E+00
         21   -1    0    0  503  502  0.00000000000E+00  0.00000000000E+00  0.10826124859E+03  0.10826124859E+03  0.00000000000E+00 0.  1.
         21   -1    0    0  501  503 -0.00000000000E+00 -0.00000000000E+00 -0.50243672416E+03  0.50243672416E+03  0.00000000000E+00 0.  1.
          6    1    1    2  501    0 -0.36310791284E+02  0.98024096191E+02 -0.35135172066E+03  0.40491879261E+03  0.17200000000E+03 0.  1.
         -6    1    1    2    0  502  0.36310791284E+02 -0.98024096191E+02 -0.42823754916E+02  0.20577918015E+03  0.17200000000E+03 0.  1.
</event>
<event>
 4    1  0.1241325E+000  0.1838356E+03  0.7818608E-02  0.1164142E+00
         21   -1    0    0  503  502  0.00000000000E+00  0.00000000000E+00  0.22751941517E+02  0.22751941517E+02  0.00000000000E+00 0. -1.
         21   -1    0    0  501  503 -0.00000000000E+00 -0.00000000000E+00 -0.19849092096E+04  0.19849092096E+04  0.00000000000E+00 0. -1.
          6    1    1    2  501    0 -0.16480091541E+02  0.62768794051E+02 -0.14846558015E+04  0.14959941055E+04  0.17200000000E+03 0. -1.
         -6    1    1    2    0  502  0.16480091541E+02 -0.62768794051E+02 -0.47750146655E+03  0.51166704553E+03  0.17200000000E+03 0. -1.
</event>
<event>
 4    1  0.1241325E+000  0.1788263E+03  0.7818608E-02  0.1168944E+00
         21   -1    0    0  501  502  0.00000000000E+00  0.00000000000E+00  0.56163237029E+03  0.56163237029E+03  0.00000000000E+00 0. -1.
         21   -1    0    0  502  503 -0.00000000000E+00 -0.00000000000E+00 -0.60435065701E+02  0.60435065701E+02  0.00000000000E+00 0. -1.
          6    1    1    2  501    0 -0.52732841483E+01  0.48652076778E+02  0.32540657843E+03  0.37130617202E+03  0.17200000000E+03 0. -1.
         -6    1    1    2    0  503  0.52732841483E+01 -0.48652076778E+02  0.17579072616E+03  0.25076126396E+03  0.17200000000E+03 0. -1.
</event>
<event>
 4    1  0.1241325E+000  0.1879999E+03  0.7818608E-02  0.1160278E+00
         21   -1    0    0  503  502  0.00000000000E+00  0.00000000000E+00  0.11829649854E+03  0.11829649854E+03  0.00000000000E+00 0. -1.
         21   -1    0    0  501  503 -0.00000000000E+00 -0.00000000000E+00 -0.30327437726E+03  0.30327437726E+03  0.00000000000E+00 0.  1.
          6    1    1    2  501    0 -0.39611743171E+02  0.64736859072E+02 -0.11816531487E+03  0.22205177945E+03  0.17200000000E+03 0. -1.
         -6    1    1    2    0  502  0.39611743171E+02 -0.64736859072E+02 -0.66812563858E+02  0.19951909635E+03  0.17200000000E+03 0. -1.
</event>
<event>
 4    1  0.1241325E+000  0.2087921E+03  0.7818608E-02  0.1142526E+00
         21   -1    0    0  501  502  0.00000000000E+00  0.00000000000E+00  0.61548538168E+03  0.61548538168E+03  0.00000000000E+00 0.  1.
         21   -1    0    0  502  503 -0.00000000000E+00 -0.00000000000E+00 -0.72540239027E+02  0.72540239027E+02  0.00000000000E+00 0.  1.
          6    1    1    2  501    0  0.11829933530E+03  0.39253005678E+01  0.32431169308E+03  0.38571001411E+03  0.17200000000E+03 0.  1.
         -6    1    1    2    0  503 -0.11829933530E+03 -0.39253005678E+01  0.21863344957E+03  0.30231560659E+03  0.17200000000E+03 0.  1.
</event>
<event>
 4    1  0.1241325E+000  0.2109076E+03  0.7818608E-02  0.1140849E+00
         21   -1    0    0  503  502  0.00000000000E+00  0.00000000000E+00  0.37829228767E+03  0.37829228767E+03  0.00000000000E+00 0.  1.
         21   -1    0    0  501  503 -0.00000000000E+00 -0.00000000000E+00 -0.14416357535E+03  0.14416357535E+03  0.00000000000E+00 0.  1.
          6    1    1    2  501    0 -0.57515098281E+02  0.10765697293E+03  0.49021257603E+01  0.21096454960E+03  0.17200000000E+03 0.  1.
         -6    1    1    2    0  502  0.57515098281E+02 -0.10765697293E+03  0.22922658656E+03  0.31149131342E+03  0.17200000000E+03 0.  1.
</event>
<event>
 4    1  0.1241325E+000  0.1807165E+03  0.7818608E-02  0.1167111E+00
         21   -1    0    0  501  502  0.00000000000E+00  0.00000000000E+00  0.37868128978E+03  0.37868128978E+03  0.00000000000E+00 0.  1.
         21   -1    0    0  502  503 -0.00000000000E+00 -0.00000000000E+00 -0.86305192873E+02  0.86305192873E+02  0.00000000000E+00 0.  1.
          6    1    1    2  501    0  0.10122007425E+02 -0.54516188690E+02  0.13992833029E+03  0.22855723021E+03  0.17200000000E+03 0.  1.
         -6    1    1    2    0  503 -0.10122007425E+02  0.54516188690E+02  0.15244776661E+03  0.23642925244E+03  0.17200000000E+03 0.  1.
</event>
<event>
 4    1  0.1241325E+000  0.1731034E+03  0.7818608E-02  0.1174650E+00
         21   -1    0    0  503  502  0.00000000000E+00  0.00000000000E+00  0.16666641476E+03  0.16666641476E+03  0.00000000000E+00 0. -1.
         21   -1    0    0  501  503 -0.00000000000E+00 -0.00000000000E+00 -0.19210916509E+03  0.19210916509E+03  0.00000000000E+00 0. -1.
          6    1    1    2  501    0 -0.19147075180E+02  0.37636425432E+01 -0.58149878389E+02  0.18260937503E+03  0.17200000000E+03 0.  1.
         -6    1    1    2    0  502  0.19147075180E+02 -0.37636425432E+01  0.32707128058E+02  0.17616620482E+03  0.17200000000E+03 0.  1.
</event>
<event>
 4    1  0.1241325E+000  0.2382002E+03  0.7818608E-02  0.1120998E+00
         21   -1    0    0  503  502  0.00000000000E+00  0.00000000000E+00  0.30680076055E+03  0.30680076055E+03  0.00000000000E+00 0. -1.
         21   -1    0    0  501  503 -0.00000000000E+00 -0.00000000000E+00 -0.44966360530E+03  0.44966360530E+03  0.00000000000E+00 0. -1.
          6    1    1    2  501    0  0.10157371110E+03 -0.12976180030E+03 -0.36164116281E+03  0.43304003768E+03  0.17200000000E+03 0. -1.
         -6    1    1    2    0  502 -0.10157371110E+03  0.12976180030E+03  0.21877831805E+03  0.32342432817E+03  0.17200000000E+03 0. -1.
</event>
<event>
 4    1  0.1241325E+000  0.3186145E+03  0.7818608E-02  0.1076289E+00
         21   -1    0    0  501  502  0.00000000000E+00  0.00000000000E+00  0.56618026497E+03  0.56618026497E+03  0.00000000000E+00 0.  1.
         21   -1    0    0  502  503 -0.00000000000E+00 -0.00000000000E+00 -0.17932607254E+03  0.17932607254E+03  0.00000000000E+00 0. -1.
          6    1    1    2  501    0 -0.37852332735E+02 -0.26551540393E+03  0.18879858612E+03  0.37035136686E+03  0.17200000000E+03 0. -1.
         -6    1    1    2    0  503  0.37852332735E+02  0.26551540393E+03  0.19805560631E+03  0.37515497066E+03  0.17200000000E+03 0. -1.
</event>
<event>
 4    1  0.1241325E+000  0.1736267E+03  0.7818608E-02  0.1174118E+00
         21   -1    0    0  501  502  0.00000000000E+00  0.00000000000E+00  0.12476885303E+04  0.12476885303E+04  0.00000000000E+00 0. -1.
         21   -1    0    0  502  503 -0.00000000000E+00 -0.00000000000E+00 -0.29513513249E+02  0.29513513249E+02  0.00000000000E+00 0.  1.
          6    1    1    2  501    0 -0.22599905192E+02  0.71743834236E+01  0.88102632633E+03  0.89797194565E+03  0.17200000000E+03 0.  1.
         -6    1    1    2    0  503  0.22599905192E+02 -0.71743834236E+01  0.33714869068E+03  0.37923009786E+03  0.17200000000E+03 0.  1.
</event>
<event>
 4    1  0.1241325E+000  0.2074279E+03  0.7818608E-02  0.1143619E+00
         21   -1    0    0  503  502  0.00000000000E+00  0.00000000000E+00  0.16357806228E+04  0.16357806228E+04  0.00000000000E+00 0. -1.
         21   -1    0    0  501  503 -0.00000000000E+00 -0.00000000000E+00 -0.32835803864E+02  0.32835803864E+02  0.00000000000E+00 0. -1.
          6    1    1    2  501    0 -0.61612719160E+02  0.98215180257E+02  0.42934286696E+03  0.47682454447E+03  0.17200000000E+03 0. -1.
         -6    1    1    2    0  502  0.61612719160E+02 -0.98215180257E+02  0.11736019520E+04  0.11917918822E+04  0.17200000000E+03 0. -1.
</event>
<event>
 4    1  0.1241325E+000  0.2221774E+03  0.7818608E-02  0.1132270E+00
         21   -1    0    0  501  502  0.00000000000E+00  0.00000000000E+00  0.24214897969E+03  0.24214897969E+03  0.00000000000E+00 0.  1.
         21   -1    0    0  502  503 -0.00000000000E+00 -0.00000000000E+00 -0.20633748066E+03  0.20633748066E+03  0.00000000000E+00 0.  1.
          6    1    1    2  501    0  0.13914389407E+03  0.20439955251E+02 -0.67002610100E+01  0.22227844818E+03  0.17200000000E+03 0.  1.
         -6    1    1    2    0  503 -0.13914389407E+03 -0.20439955251E+02  0.42511760035E+02  0.22620801217E+03  0.17200000000E+03 0.  1.
</event>
<event>
 4    1  0.1241325E+000  0.1991634E+03  0.7818608E-02  0.1150447E+00
         21   -1    0    0  501  502  0.00000000000E+00  0.00000000000E+00  0.41002445098E+03  0.41002445098E+03  0.00000000000E+00 0. -1.
         21   -1    0    0  502  503 -0.00000000000E+00 -0.00000000000E+00 -0.40289408131E+03  0.40289408131E+03  0.00000000000E+00 0. -1.
          6    1    1    2  501    0  0.31823026769E+02  0.95233189809E+02  0.35788145256E+03  0.40956708798E+03  0.17200000000E+03 0. -1.
         -6    1    1    2    0  503 -0.31823026769E+02 -0.95233189809E+02 -0.35075108289E+03  0.40335144430E+03  0.17200000000E+03 0. -1.
</event>
<event>
 4    1  0.1241325E+000  0.2235688E+03  0.7818608E-02  0.1131250E+00
         21   -1    0    0  503  502  0.00000000000E+00  0.00000000000E+00  0.20576481960E+03  0.20576481960E+03  0.00000000000E+00 0. -1.
         21   -1    0    0  501  503 -0.00000000000E+00 -0.00000000000E+00 -0.58960620200E+03  0.58960620200E+03  0.00000000000E+00 0.  1.
          6    1    1    2  501    0 -0.11355906265E+03 -0.86621967986E+02 -0.49687247429E+03  0.54485344980E+03  0.17200000000E+03 0.  1.
         -6    1    1    2    0  502  0.11355906265E+03  0.86621967986E+02  0.11303109189E+03  0.25051757180E+03  0.17200000000E+03 0. -1.
</event>
<event>
 4    1  0.1241325E+000  0.1747340E+03  0.7818608E-02  0.1172999E+00
         21   -1    0    0  503  502  0.00000000000E+00  0.00000000000E+00  0.22462218972E+02  0.22462218972E+02  0.00000000000E+00 0. -1.
         21   -1    0    0  501  503 -0.00000000000E+00 -0.00000000000E+00 -0.15720757205E+04  0.15720757205E+04  0.00000000000E+00 0. -1.
          6    1    1    2  501    0  0.25609986680E+02 -0.17091079969E+02 -0.10681464633E+04  0.10823441428E+04  0.17200000000E+03 0. -1.
         -6    1    1    2    0  502 -0.25609986680E+02  0.17091079969E+02 -0.48146703826E+03  0.51219379669E+03  0.17200000000E+03 0. -1.
</event>
<event>
 4    1  0.1241325E+000  0.1834613E+03  0.7818608E-02  0.1164495E+00
         21   -1    0    0  501  502  0.00000000000E+00  0.00000000000E+00  0.47685972186E+03  0.47685972186E+03  0.00000000000E+00 0. -1.
         21   -1    0    0  502  503 -0.00000000000E+00 -0.00000000000E+00 -0.82678806117E+02  0.82678806117E+02  0.00000000000E+00 0. -1.
          6    1    1    2  501    0 -0.61392125269E+02  0.17465427737E+02  0.90080013923E+02  0.20438307934E+03  0.17200000000E+03 0. -1.
         -6    1    1    2    0  503  0.61392125269E+02 -0.17465427737E+02  0.30410090182E+03  0.35515544864E+03  0.17200000000E+03 0. -1.
</event>
<event>
 4    1  0.1241325E+000  0.2382101E+03  0.7818608E-02  0.1120991E+00
         21   -1    0    0  503  502  0.00000000000E+00  0.00000000000E+00  0.20428499331E+03  0.20428499331E+03  0.00000000000E+00 0. -1.
         21   -1    0    0  501  503 -0.00000000000E+00 -0.00000000000E+00 -0.32100488321E+03  0.32100488321E+03  0.00000000000E+00 0. -1.
          6    1    1    2  501    0  0.11667334606E+03  0.11639329465E+03 -0.15475053431E+03  0.28406301517E+03  0.17200000000E+03 0. -1.
         -6    1    1    2    0  502 -0.11667334606E+03 -0.11639329465E+03  0.38030644412E+02  0.24122686134E+03  0.17200000000E+03 0. -1.
</event>
<event>
 4    1  0.1241325E+000  0.1870923E+03  0.7818608E-02  0.1161110E+00
         21   -1    0    0  503  502  0.00000000000E+00  0.00000000000E+00  0.22537009517E+03  0.22537009517E+03  0.00000000000E+00 0. -1.
         21   -1    0    0  501  503 -0.00000000000E+00 -0.00000000000E+00 -0.17733648582E+03  0.17733648582E+03  0.00000000000E+00 0. -1.
          6    1    1    2  501    0 -0.36632771730E+02 -0.63855885718E+02  0.94970531706E+02  0.20981643405E+03  0.17200000000E+03 0.  1.
         -6    1    1    2    0  502  0.36632771730E+02  0.63855885718E+02 -0.46936922364E+02  0.19289014694E+03  0.17200000000E+03 0.  1.
</event>
<event>
 4    1  0.1241325E+000  0.2333824E+03  0.7818608E-02  0.1124281E+00
         21   -1    0    0  503  502  0.00000000000E+00  0.00000000000E+00  0.34510314369E+02  0.34510314369E+02  0.00000000000E+00 0. -1.
         21   -1    0    0  501  503 -0.00000000000E+00 -0.00000000000E+00 -0.15783667964E+04  0.15783667964E+04  0.00000000000E+00 0.  1.
          6    1    1    2  501    0  0.13665148824E+03  0.78801760932E+02 -0.77748650222E+03  0.81175895924E+03  0.17200000000E+03 0. -1.
         -6    1    1    2    0  502 -0.13665148824E+03 -0.78801760932E+02 -0.76636997985E+03  0.80111815157E+03  0.17200000000E+03 0. -1.
</event>
<event>
 4    1  0.1241325E+000  0.1839730E+03  0.7818608E-02  0.1164012E+00
         21   -1    0    0  503  502  0.00000000000E+00  0.00000000000E+00  0.24115458531E+03  0.24115458531E+03  0.00000000000E+00 0. -1.
         21   -1    0    0  501  503 -0.00000000000E+00 -0.00000000000E+00 -0.17239906015E+03  0.17239906015E+03  0.00000000000E+00 0. -1.
          6    1    1    2  501    0  0.10240443092E+02  0.64476280910E+02  0.12353194854E+03  0.22159918724E+03  0.17200000000E+03 0. -1.
         -6    1    1    2    0  502 -0.10240443092E+02 -0.64476280910E+02 -0.54776423367E+02  0.19195445822E+03  0.17200000000E+03 0. -1.
</event>
<event>
 4    1  0.1241325E+000  0.4146725E+03  0.7818608E-02  0.1038814E+00
         21   -1    0    0  503  502  0.00000000000E+00  0.00000000000E+00  0.53410650453E+03  0.53410650453E+03  0.00000000000E+00 0. -1.
         21   -1    0    0  501  503 -0.00000000000E+00 -0.00000000000E+00 -0.32735757204E+03  0.32735757204E+03  0.00000000000E+00 0. -1.
          6    1    1    2  501    0 -0.26558825467E+03 -0.26801515216E+03  0.15875708304E+03  0.44402370908E+03  0.17200000000E+03 0. -1.
         -6    1    1    2    0  502  0.26558825467E+03  0.26801515216E+03  0.47991849451E+02  0.41744036750E+03  0.17200000000E+03 0. -1.
</event>
<event>
 4    1  0.1241325E+000  0.2963283E+03  0.7818608E-02  0.1087091E+00
         21   -1    0    0  503  502  0.00000000000E+00  0.00000000000E+00  0.28594984117E+03  0.28594984117E+03  0.00000000000E+00 0. -1.
         21   -1    0    0  501  503 -0.00000000000E+00 -0.00000000000E+00 -0.34028496305E+03  0.34028496305E+03  0.00000000000E+00 0.  1.
          6    1    1    2  501    0 -0.23943340965E+03  0.29968651129E+02  0.70638201881E+02  0.30463130711E+03  0.17200000000E+03 0. -1.
         -6    1    1    2    0  502  0.23943340965E+03 -0.29968651129E+02 -0.12497332376E+03  0.32160349711E+03  0.17200000000E+03 0.  1.
</event>
<event>
 4    1  0.1241325E+000  0.2029826E+03  0.7818608E-02  0.1147247E+00
         21   -1    0    0  503  502  0.00000000000E+00  0.00000000000E+00  0.40617357785E+03  0.40617357785E+03  0.00000000000E+00 0. -1.
         21   -1    0    0  501  503 -0.00000000000E+00 -0.00000000000E+00 -0.10347971414E+03  0.10347971414E+03  0.00000000000E+00 0. -1.
          6    1    1    2  501    0  0.73873134327E+02  0.78490083761E+02  0.11556330958E+03  0.23357399630E+03  0.17200000000E+03 0.  1.
         -6    1    1    2    0  502 -0.73873134327E+02 -0.78490083761E+02  0.18713055413E+03  0.27607929570E+03  0.17200000000E+03 0.  1.
</event>
<event>
 4    1  0.1241325E+000  0.2225929E+03  0.7818608E-02  0.1131965E+00
         21   -1    0    0  503  502  0.00000000000E+00  0.00000000000E+00  0.55191408239E+03  0.55191408239E+03  0.00000000000E+00 0.  1.
         21   -1    0    0  501  503 -0.00000000000E+00 -0.00000000000E+00 -0.89804366563E+02  0.89804366563E+02  0.00000000000E+00 0.  1.
          6    1    1    2  501    0 -0.17670141081E+02 -0.14018339120E+03  0.23694052479E+03  0.32509756896E+03  0.17200000000E+03 0. -1.
         -6    1    1    2    0  502  0.17670141081E+02  0.14018339120E+03  0.22516919104E+03  0.31662087999E+03  0.17200000000E+03 0. -1.
</event>
<event>
 4    1  0.1241325E+000  0.2454182E+03  0.7818608E-02  0.1116235E+00
         21   -1    0    0  503  502  0.00000000000E+00  0.00000000000E+00  0.26498404433E+03  0.26498404433E+03  0.00000000000E+00 0.  1.
         21   -1    0    0  501  503 -0.00000000000E+00 -0.00000000000E+00 -0.54695473314E+03  0.54695473314E+03  0.00000000000E+00 0.  1.
          6    1    1    2  501    0  0.15868870871E+03  0.73918753726E+02 -0.45134136671E+03  0.51375005375E+03  0.17200000000E+03 0.  1.
         -6    1    1    2    0  502 -0.15868870871E+03 -0.73918753726E+02  0.16937067790E+03  0.29818872372E+03  0.17200000000E+03 0.  1.
</event>
<event>
 4    1  0.1241325E+000  0.1774151E+03  0.7818608E-02  0.1170328E+00
         21   -1    0    0  503  502  0.00000000000E+00  0.00000000000E+00  0.88854415176E+02  0.88854415176E+02  0.00000000000E+00 0. -1.
         21   -1    0    0  501  503 -0.00000000000E+00 -0.00000000000E+00 -0.36504952751E+03  0.36504952751E+03  0.00000000000E+00 0. -1.
          6    1    1    2  501    0 -0.43368849620E+02 -0.33531389893E+01 -0.99050281392E+02  0.20319217234E+03  0.17200000000E+03 0.  1.
         -6    1    1    2    0  502  0.43368849620E+02  0.33531389893E+01 -0.17714483094E+03  0.25071177034E+03  0.17200000000E+03 0.  1.
</event>
<event>
 4    1  0.1241325E+000  0.2006567E+03  0.7818608E-02  0.1149186E+00
         21   -1    0    0  501  502  0.00000000000E+00  0.00000000000E+00  0.78585748219E+03  0.78585748219E+03  0.00000000000E+00 0.  1.
         21   -1    0    0  502  503 -0.00000000000E+00 -0.00000000000E+00 -0.71016935291E+02  0.71016935291E+02  0.00000000000E+00 0.  1.
          6    1    1    2  501    0  0.52639675510E+02  0.88927918603E+02  0.58354328886E+03  0.61707850402E+03  0.17200000000E+03 0.  1.
         -6    1    1    2    0  503 -0.52639675510E+02 -0.88927918603E+02  0.13129725803E+03  0.23979591346E+03  0.17200000000E+03 0.  1.
</event>
<event>
 4    1  0.1241325E+000  0.2023262E+03  0.7818608E-02  0.1147791E+00
         21   -1    0    0  503  502  0.00000000000E+00  0.00000000000E+00  0.17596949554E+03  0.17596949554E+03  0.00000000000E+00 0. -1.
         21   -1    0    0  501  503 -0.00000000000E+00 -0.00000000000E+00 -0.28762572863E+03  0.28762572863E+03  0.00000000000E+00 0.  1.
          6    1    1    2  501    0 -0.48644202204E+02 -0.94792564419E+02 -0.15718592634E+03  0.25620949263E+03  0.17200000000E+03 0.  1.
         -6    1    1    2    0  502  0.48644202204E+02  0.94792564419E+02  0.45529693254E+02  0.20738573154E+03  0.17200000000E+03 0. -1.
</event>
<event>
 4    1  0.1241325E+000  0.2602322E+03  0.7818608E-02  0.1107004E+00
         21   -1    0    0  501  502  0.00000000000E+00  0.00000000000E+00  0.42027513054E+03  0.42027513054E+03  0.00000000000E+00 0. -1.
         21   -1    0    0  502  503 -0.00000000000E+00 -0.00000000000E+00 -0.18856390755E+03  0.18856390755E+03  0.00000000000E+00 0. -1.
          6    1    1    2  501    0 -0.12699413890E+03 -0.14835530173E+03  0.23196082696E+03  0.34860670119E+03  0.17200000000E+03 0.  1.
         -6    1    1    2    0  503  0.12699413890E+03  0.14835530173E+03 -0.24960396593E+00  0.26023233690E+03  0.17200000000E+03 0.  1.
</event>
<event>
 4    1  0.1241325E+000  0.1738165E+03  0.7818608E-02  0.1173925E+00
         21   -1    0    0  503  502  0.00000000000E+00  0.00000000000E+00  0.18104817761E+03  0.18104817761E+03  0.00000000000E+00 0. -1.
         21   -1    0    0  501  503 -0.00000000000E+00 -0.00000000000E+00 -0.17114887708E+03  0.17114887708E+03  0.00000000000E+00 0. -1.
          6    1    1    2  501    0 -0.39908880836E+01 -0.24744002159E+02 -0.22882191614E+02  0.17531625003E+03  0.17200000000E+03 0.  1.
         -6    1    1    2    0  502  0.39908880836E+01  0.24744002159E+02  0.32781492137E+02  0.17688080466E+03  0.17200000000E+03 0.  1.
</event>
<event>
 4    1  0.1241325E+000  0.2055567E+03  0.7818608E-02  0.1145134E+00
         21   -1    0    0  503  502  0.00000000000E+00  0.00000000000E+00  0.22830509809E+03  0.22830509809E+03  0.00000000000E+00 0.  1.
         21   -1    0    0  501  503 -0.00000000000E+00 -0.00000000000E+00 -0.19045712527E+03  0.19045712527E+03  0.00000000000E+00 0. -1.
          6    1    1    2  501    0  0.83868852343E+02  0.75070470309E+02 -0.16273923226E+02  0.20619990418E+03  0.17200000000E+03 0. -1.
         -6    1    1    2    0  502 -0.83868852343E+02 -0.75070470309E+02  0.54121896038E+02  0.21256231918E+03  0.17200000000E+03 0.  1.
</event>
<event>
 4    1  0.1241325E+000  0.1879334E+03  0.7818608E-02  0.1160339E+00
         21   -1    0    0  501  502  0.00000000000E+00  0.00000000000E+00  0.12726876088E+03  0.12726876088E+03  0.00000000000E+00 0. -1.
         21   -1    0    0  502  503 -0.00000000000E+00 -0.00000000000E+00 -0.74689215563E+03  0.74689215563E+03  0.00000000000E+00 0. -1.
          6    1    1    2  501    0 -0.45245527245E+02  0.60727150624E+02  0.36680597069E+02  0.19147953092E+03  0.17200000000E+03 0. -1.
         -6    1    1    2    0  503  0.45245527245E+02 -0.60727150624E+02 -0.65630399182E+03  0.68268138559E+03  0.17200000000E+03 0. -1.
</event>
<event>
 4    1  0.1241325E+000  0.1764172E+03  0.7818608E-02  0.1171316E+00
         21   -1    0    0  503  502  0.00000000000E+00  0.00000000000E+00  0.24004605160E+02  0.24004605160E+02  0.00000000000E+00 0.  1.
         21   -1    0    0  501  503 -0.00000000000E+00 -0.00000000000E+00 -0.17906246786E+04  0.17906246786E+04  0.00000000000E+00 0.  1.
          6    1    1    2  501    0  0.98867150935E+01 -0.37964180687E+02 -0.40670943786E+03  0.44332335038E+03  0.17200000000E+03 0.  1.
         -6    1    1    2    0  502 -0.98867150935E+01  0.37964180687E+02 -0.13599106356E+04  0.13713059334E+04  0.17200000000E+03 0.  1.
</event>
<event>
 4    1  0.1241325E+000  0.2053372E+03  0.7818608E-02  0.1145313E+00
         21   -1    0    0  501  502  0.00000000000E+00  0.00000000000E+00  0.12969087917E+04  0.12969087917E+04  0.00000000000E+00 0. -1.
         21   -1    0    0  502  503 -0.00000000000E+00 -0.00000000000E+00 -0.48401278786E+02  0.48401278786E+02  0.00000000000E+00 0. -1.
          6    1    1    2  501    0  0.22194564708E+02  0.10993980781E+03  0.10096738849E+04  0.10303420373E+04  0.17200000000E+03 0.  1.
         -6    1    1    2    0  503 -0.22194564708E+02 -0.10993980781E+03  0.23883362805E+03  0.31496803319E+03  0.17200000000E+03 0.  1.
</event>
<event>
 4    1  0.1241325E+000  0.1825046E+03  0.7818608E-02  0.1165401E+00
         21   -1    0    0  501  502  0.00000000000E+00  0.00000000000E+00  0.74689109653E+03  0.74689109653E+03  0.00000000000E+00 0.  1.
         21   -1    0    0  502  503 -0.00000000000E+00 -0.00000000000E+00 -0.46001169356E+02  0.46001169356E+02  0.00000000000E+00 0.  1.
          6    1    1    2  501    0  0.24028878457E+02 -0.56093927535E+02  0.41974844125E+03  0.45770806159E+03  0.17200000000E+03 0. -1.
         -6    1    1    2    0  503 -0.24028878457E+02  0.56093927535E+02  0.28114148592E+03  0.33518420430E+03  0.17200000000E+03 0. -1.
</event>
<event>
 4    1  0.1241325E+000  0.1928646E+03  0.7818608E-02  0.1155903E+00
         21   -1    0    0  501  502  0.00000000000E+00  0.00000000000E+00  0.84478296451E+02  0.84478296451E+02  0.00000000000E+00 0.  1.
         21   -1    0    0  502  503 -0.00000000000E+00 -0.00000000000E+00 -0.94255510745E+03  0.94255510745E+03  0.00000000000E+00 0.  1.
          6    1    1    2  501    0 -0.85644837488E+02 -0.16664676581E+02 -0.54187566177E+02  0.20033232880E+03  0.17200000000E+03 0.  1.
         -6    1    1    2    0  503  0.85644837488E+02  0.16664676581E+02 -0.80388924483E+03  0.82670107511E+03  0.17200000000E+03 0.  1.
</event>
<event>
 4    1  0.1241325E+000  0.2656215E+03  0.7818608E-02  0.1103812E+00
         21   -1    0    0  503  502  0.00000000000E+00  0.00000000000E+00  0.40465279796E+03  0.40465279796E+03  0.00000000000E+00 0.  1.
         21   -1    0    0  501  503 -0.00000000000E+00 -0.00000000000E+00 -0.17896573390E+03  0.17896573390E+03  0.00000000000E+00 0.  1.
          6    1    1    2  501    0 -0.12999380358E+03 -0.15515275964E+03  0.66024641991E+02  0.27370425854E+03  0.17200000000E+03 0.  1.
         -6    1    1    2    0  502  0.12999380358E+03  0.15515275964E+03  0.15966242207E+03  0.30991427333E+03  0.17200000000E+03 0.  1.
</event>
<event>
 4    1  0.1241325E+000  0.2073234E+03  0.7818608E-02  0.1143703E+00
         21   -1    0    0  501  502  0.00000000000E+00  0.00000000000E+00  0.49678729091E+02  0.49678729091E+02  0.00000000000E+00 0.  1.
         21   -1    0    0  502  503 -0.00000000000E+00 -0.00000000000E+00 -0.95109708369E+03  0.95109708369E+03  0.00000000000E+00 0.  1.
          6    1    1    2  501    0 -0.16951893124E+02  0.11450598342E+03 -0.30034817372E+03  0.36495480868E+03  0.17200000000E+03 0. -1.
         -6    1    1    2    0  503  0.16951893124E+02 -0.11450598342E+03 -0.60107018088E+03  0.63582100410E+03  0.17200000000E+03 0. -1.
</event>
<event>
 4    1  0.1241325E+000  0.2810154E+03  0.7818608E-02  0.1095136E+00
         21   -1    0    0  501  502  0.00000000000E+00  0.00000000000E+00  0.87068601226E+02  0.87068601226E+02  0.00000000000E+00 0. -1.
         21   -1    0    0  502  503 -0.00000000000E+00 -0.00000000000E+00 -0.16054143158E+04  0.16054143158E+04  0.00000000000E+00 0.  1.
          6    1    1    2  501    0 -0.18411907673E+03  0.12444209174E+03 -0.20100754495E+03  0.34550499524E+03  0.17200000000E+03 0. -1.
         -6    1    1    2    0  503  0.18411907673E+03 -0.12444209174E+03 -0.13173381696E+04  0.13469779218E+04  0.17200000000E+03 0. -1.
</event>
<event>
 4    1  0.1241325E+000  0.1947388E+03  0.7818608E-02  0.1154255E+00
         21   -1    0    0  501  502  0.00000000000E+00  0.00000000000E+00  0.76552103621E+03  0.76552103621E+03  0.00000000000E+00 0. -1.
         21   -1    0    0  502  503 -0.00000000000E+00 -0.00000000000E+00 -0.49692457409E+02  0.49692457409E+02  0.00000000000E+00 0. -1.
          6    1    1    2  501    0  0.90214689502E+02  0.14160295255E+02  0.38055987995E+03  0.42749155125E+03  0.17200000000E+03 0.  1.
         -6    1    1    2    0  503 -0.90214689502E+02 -0.14160295255E+02  0.33526869885E+03  0.38772194237E+03  0.17200000000E+03 0.  1.
</event>
<event>
 4    1  0.1241325E+000  0.1776110E+03  0.7818608E-02  0.1170135E+00
         21   -1    0    0  503  502  0.00000000000E+00  0.00000000000E+00  0.12562671397E+03  0.12562671397E+03  0.00000000000E+00 0. -1.
         21   -1    0    0  501  503 -0.00000000000E+00 -0.00000000000E+00 -0.45344761525E+03  0.45344761525E+03  0.00000000000E+00 0. -1.
          6    1    1    2  501    0  0.77800864940E+00 -0.44284079203E+02 -0.35732218586E+03  0.39902986038E+03  0.17200000000E+03 0. -1.
         -6    1    1    2    0  502 -0.77800864940E+00  0.44284079203E+02  0.29501284583E+02  0.18004446884E+03  0.17200000000E+03 0. -1.
</event>
<event>
 4    1  0.1241325E+000  0.2563858E+03  0.7818608E-02  0.1109334E+00
         21   -1    0    0  503  502  0.00000000000E+00  0.00000000000E+00  0.27562832018E+03  0.27562832018E+03  0.00000000000E+00 0.  1.
         21   -1    0    0  501  503 -0.00000000000E+00 -0.00000000000E+00 -0.24929855703E+03  0.24929855703E+03  0.00000000000E+00 0. -1.
          6    1    1    2  501    0  0.73453549395E+02 -0.17536896966E+03 -0.41493690599E+02  0.25972182388E+03  0.17200000000E+03 0. -1.
         -6    1    1    2    0  502 -0.73453549395E+02  0.17536896966E+03  0.67823453749E+02  0.26520505334E+03  0.17200000000E+03 0.  1.
</event>
<event>
 4    1  0.1241325E+000  0.2062449E+03  0.7818608E-02  0.1144575E+00
         21   -1    0    0  501  502  0.00000000000E+00  0.00000000000E+00  0.40517260039E+03  0.40517260039E+03  0.00000000000E+00 0.  1.
         21   -1    0    0  502  503 -0.00000000000E+00 -0.00000000000E+00 -0.15251591909E+03  0.15251591909E+03  0.00000000000E+00 0. -1.
          6    1    1    2  501    0 -0.36897577921E+02  0.10766390281E+03  0.28199418588E+03  0.34936752582E+03  0.17200000000E+03 0.  1.
         -6    1    1    2    0  503  0.36897577921E+02 -0.10766390281E+03 -0.29337504585E+02  0.20832099366E+03  0.17200000000E+03 0. -1.
</event>
<event>
 4    1  0.1241325E+000  0.1873318E+03  0.7818608E-02  0.1160890E+00
         21   -1    0    0  501  502  0.00000000000E+00  0.00000000000E+00  0.23126268744E+03  0.23126268744E+03  0.00000000000E+00 0. -1.
         21   -1    0    0  502  503 -0.00000000000E+00 -0.00000000000E+00 -0.31629515646E+03  0.31629515646E+03  0.00000000000E+00 0. -1.
          6    1    1    2  501    0 -0.47373060451E+02 -0.57140120976E+02  0.15495393413E+03  0.24311298193E+03  0.17200000000E+03 0. -1.
         -6    1    1    2    0  503  0.47373060451E+02  0.57140120976E+02 -0.23998640315E+03  0.30444486197E+03  0.17200000000E+03 0. -1.
</event>
<event>
 4    1  0.1241325E+000  0.1788396E+03  0.7818608E-02  0.1168931E+00
         21   -1    0    0  503  502  0.00000000000E+00  0.00000000000E+00  0.10619425544E+03  0.10619425544E+03  0.00000000000E+00 0.  1.
         21   -1    0    0  501  503 -0.00000000000E+00 -0.00000000000E+00 -0.38610466717E+03  0.38610466717E+03  0.00000000000E+00 0.  1.
          6    1    1    2  501    0  0.47080269358E+02 -0.13529436916E+02 -0.24513426501E+02  0.18051178772E+03  0.17200000000E+03 0. -1.
         -6    1    1    2    0  502 -0.47080269358E+02  0.13529436916E+02 -0.25539698523E+03  0.31178713490E+03  0.17200000000E+03 0. -1.
</event>
<event>
 4    1  0.1241325E+000  0.1727110E+03  0.7818608E-02  0.1175050E+00
         21   -1    0    0  501  502  0.00000000000E+00  0.00000000000E+00  0.30145855445E+03  0.30145855445E+03  0.00000000000E+00 0.  1.
         21   -1    0    0  502  503 -0.00000000000E+00 -0.00000000000E+00 -0.23730247847E+03  0.23730247847E+03  0.00000000000E+00 0.  1.
          6    1    1    2  501    0 -0.26698794946E+01  0.15426414563E+02  0.23776637590E+03  0.29387404110E+03  0.17200000000E+03 0.  1.
         -6    1    1    2    0  503  0.26698794946E+01 -0.15426414563E+02 -0.17361029992E+03  0.24488699182E+03  0.17200000000E+03 0.  1.
</event>
<event>
 4    1  0.1241325E+000  0.2026153E+03  0.7818608E-02  0.1147551E+00
         21   -1    0    0  501  502  0.00000000000E+00  0.00000000000E+00  0.12575273780E+03  0.12575273780E+03  0.00000000000E+00 0. -1.
         21   -1    0    0  502  503 -0.00000000000E+00 -0.00000000000E+00 -0.44496976963E+03  0.44496976963E+03  0.00000000000E+00 0. -1.
          6    1    1    2  501    0  0.10621295860E+03  0.13702443407E+02 -0.12339616078E+02  0.20299067874E+03  0.17200000000E+03 0. -1.
         -6    1    1    2    0  503 -0.10621295860E+03 -0.13702443407E+02 -0.30687741575E+03  0.36773182868E+03  0.17200000000E+03 0. -1.
</event>
<event>
 4    1  0.1241325E+000  0.1787568E+03  0.7818608E-02  0.1169012E+00
         21   -1    0    0  501  502  0.00000000000E+00  0.00000000000E+00  0.20974082929E+03  0.20974082929E+03  0.00000000000E+00 0.  1.
         21   -1    0    0  502  503 -0.00000000000E+00 -0.00000000000E+00 -0.53934747619E+03  0.53934747619E+03  0.00000000000E+00 0. -1.
          6    1    1    2  501    0  0.13224119805E+02  0.46851933532E+02  0.15246218052E+03  0.23494403059E+03  0.17200000000E+03 0.  1.
         -6    1    1    2    0  503 -0.13224119805E+02 -0.46851933532E+02 -0.48206882743E+03  0.51414427488E+03  0.17200000000E+03 0. -1.
</event>
<event>
 4    1  0.1241325E+000  0.2153745E+03  0.7818608E-02  0.1137379E+00
         21   -1    0    0  501  502  0.00000000000E+00  0.00000000000E+00  0.22999410362E+03  0.22999410362E+03  0.00000000000E+00 0. -1.
         21   -1    0    0  502  503 -0.00000000000E+00 -0.00000000000E+00 -0.20780588880E+03  0.20780588880E+03  0.00000000000E+00 0.  1.
          6    1    1    2  501    0  0.16909801341E+02 -0.12851555036E+03 -0.26476716098E+02  0.21699586301E+03  0.17200000000E+03 0.  1.
         -6    1    1    2    0  503 -0.16909801341E+02  0.12851555036E+03  0.48664930923E+02  0.22080412942E+03  0.17200000000E+03 0. -1.
</event>
<event>
 4    1  0.1241325E+000  0.1907737E+03  0.7818608E-02  0.1157765E+00
         21   -1    0    0  503  502  0.00000000000E+00  0.00000000000E+00  0.18675872424E+02  0.18675872424E+02  0.00000000000E+00 0. -1.
         21   -1    0    0  501  503 -0.00000000000E+00 -0.00000000000E+00 -0.20116011156E+04  0.20116011156E+04  0.00000000000E+00 0. -1.
          6    1    1    2  501    0 -0.82428541868E+02 -0.40189685345E+01 -0.11758983674E+04  0.11912730951E+04  0.17200000000E+03 0. -1.
         -6    1    1    2    0  502  0.82428541868E+02  0.40189685345E+01 -0.81702687576E+03  0.83900389292E+03  0.17200000000E+03 0. -1.
</event>
<event>
 4    1  0.1241325E+000  0.3845832E+03  0.7818608E-02  0.1049253E+00
         21   -1    0    0  501  502  0.00000000000E+00  0.00000000000E+00  0.16648271953E+03  0.16648271953E+03  0.00000000000E+00 0.  1.
         21   -1    0    0  502  503 -0.00000000000E+00 -0.00000000000E+00 -0.15116563474E+04  0.15116563474E+04  0.00000000000E+00 0.  1.
          6    1    1    2  501    0 -0.33257250608E+03 -0.87839456059E+02 -0.13381769934E+03  0.40719948244E+03  0.17200000000E+03 0.  1.
         -6    1    1    2    0  503  0.33257250608E+03  0.87839456059E+02 -0.12113559285E+04  0.12709395844E+04  0.17200000000E+03 0.  1.
</event>
<event>
 4    1  0.1241325E+000  0.2569026E+03  0.7818608E-02  0.1109019E+00
         21   -1    0    0  503  502  0.00000000000E+00  0.00000000000E+00  0.26993499185E+03  0.26993499185E+03  0.00000000000E+00 0. -1.
         21   -1    0    0  501  503 -0.00000000000E+00 -0.00000000000E+00 -0.50527756795E+03  0.50527756795E+03  0.00000000000E+00 0. -1.
          6    1    1    2  501    0  0.15832237743E+03  0.10653147899E+03 -0.39613040965E+03  0.47214217420E+03  0.17200000000E+03 0. -1.
         -6    1    1    2    0  502 -0.15832237743E+03 -0.10653147899E+03  0.16078783355E+03  0.30307038560E+03  0.17200000000E+03 0. -1.
</event>
<event>
 4    1  0.1241325E+000  0.1893451E+03  0.7818608E-02  0.1159053E+00
         21   -1    0    0  503  502  0.00000000000E+00  0.00000000000E+00  0.11856548774E+03  0.11856548774E+03  0.00000000000E+00 0.  1.
         21   -1    0    0  501  503 -0.00000000000E+00 -0.00000000000E+00 -0.31704285968E+03  0.31704285968E+03  0.00000000000E+00 0.  1.
          6    1    1    2  501    0 -0.37413512726E+02  0.69769629349E+02 -0.52395219043E+02  0.19646076222E+03  0.17200000000E+03 0. -1.
         -6    1    1    2    0  502  0.37413512726E+02 -0.69769629349E+02 -0.14608215290E+03  0.23914758521E+03  0.17200000000E+03 0. -1.
</event>
<event>
 4    1  0.1241325E+000  0.1740686E+03  0.7818608E-02  0.1173670E+00
         21   -1    0    0  503  502  0.00000000000E+00  0.00000000000E+00  0.20727437053E+03  0.20727437053E+03  0.00000000000E+00 0. -1.
         21   -1    0    0  501  503 -0.00000000000E+00 -0.00000000000E+00 -0.15376845327E+03  0.15376845327E+03  0.00000000000E+00 0.  1.
          6    1    1    2  501    0 -0.15801352532E+02 -0.21591886467E+02 -0.13342876546E+02  0.17457927900E+03  0.17200000000E+03 0.  1.
         -6    1    1    2    0  502  0.15801352532E+02  0.21591886467E+02  0.66848793803E+02  0.18646354479E+03  0.17200000000E+03 0. -1.
</event>
<event>
 4    1  0.1241325E+000  0.2372923E+03  0.7818608E-02  0.1121610E+00
         21   -1    0    0  501  502  0.00000000000E+00  0.00000000000E+00  0.27111052326E+04  0.27111052326E+04  0.00000000000E+00 0.  1.
         21   -1    0    0  502  503 -0.00000000000E+00 -0.00000000000E+00 -0.24383933175E+02  0.24383933175E+02  0.00000000000E+00 0.  1.
          6    1    1    2  501    0 -0.16322939602E+03 -0.89331160236E+01  0.18699692333E+04  0.18849648723E+04  0.17200000000E+03 0. -1.
         -6    1    1    2    0  503  0.16322939602E+03  0.89331160236E+01  0.81675206613E+03  0.85052429349E+03  0.17200000000E+03 0. -1.
</event>
<event>
 4    1  0.1241325E+000  0.2493249E+03  0.7818608E-02  0.1113732E+00
         21   -1    0    0  503  502  0.00000000000E+00  0.00000000000E+00  0.35057191569E+03  0.35057191569E+03  0.00000000000E+00 0.  1.
         21   -1    0    0  501  503 -0.00000000000E+00 -0.00000000000E+00 -0.21945684972E+03  0.21945684972E+03  0.00000000000E+00 0. -1.
          6    1    1    2  501    0  0.16144115704E+03 -0.80719611166E+02 -0.59333346490E+02  0.25628762908E+03  0.17200000000E+03 0. -1.
         -6    1    1    2    0  502 -0.16144115704E+03  0.80719611166E+02  0.19044841247E+03  0.31374113633E+03  0.17200000000E+03 0.  1.
</event>
<event>
 4    1  0.1241325E+000  0.2023974E+03  0.7818608E-02  0.1147732E+00
         21   -1    0    0  503  502  0.00000000000E+00  0.00000000000E+00  0.10339947578E+03  0.10339947578E+03  0.00000000000E+00 0.  1.
         21   -1    0    0  501  503 -0.00000000000E+00 -0.00000000000E+00 -0.42199934071E+03  0.42199934071E+03  0.00000000000E+00 0. -1.
          6    1    1    2  501    0  0.22615907340E+02 -0.10425562549E+03 -0.22428043573E+03  0.30210334087E+03  0.17200000000E+03 0.  1.
         -6    1    1    2    0  502 -0.22615907340E+02  0.10425562549E+03 -0.94319429200E+02  0.22329547563E+03  0.17200000000E+03 0. -1.
</event>
<event>
 4    1  0.1241325E+000  0.1785385E+03  0.7818608E-02  0.1169225E+00
         21   -1    0    0  503  502  0.00000000000E+00  0.00000000000E+00  0.12009987314E+03  0.12009987314E+03  0.00000000000E+00 0.  1.
         21   -1    0    0  501  503 -0.00000000000E+00 -0.00000000000E+00 -0.26711686575E+03  0.26711686575E+03  0.00000000000E+00 0.  1.
          6    1    1    2  501    0 -0.37116919100E+02 -0.30237612911E+02 -0.58042237500E+02  0.18773619857E+03  0.17200000000E+03 0. -1.
         -6    1    1    2    0  502  0.37116919100E+02  0.30237612911E+02 -0.88974755109E+02  0.19948054032E+03  0.17200000000E+03 0. -1.
</event>
<event>
 4    1  0.1241325E+000  0.1901404E+03  0.7818608E-02  0.1158335E+00
         21   -1    0    0  501  502  0.00000000000E+00  0.00000000000E+00  0.65724977946E+03  0.65724977946E+03  0.00000000000E+00 0.  1.
         21   -1    0    0  502  503 -0.00000000000E+00 -0.00000000000E+00 -0.70356288540E+02  0.70356288540E+02  0.00000000000E+00 0. -1.
          6    1    1    2  501    0  0.62329229126E+02 -0.51811574492E+02  0.46337212997E+03  0.50086635232E+03  0.17200000000E+03 0.  1.
         -6    1    1    2    0  503 -0.62329229126E+02  0.51811574492E+02  0.12352136095E+03  0.22673971568E+03  0.17200000000E+03 0. -1.
</event>
<event>
 4    1  0.1241325E+000  0.1750889E+03  0.7818608E-02  0.1172642E+00
         21   -1    0    0  501  502  0.00000000000E+00  0.00000000000E+00  0.44247908180E+03  0.44247908180E+03  0.00000000000E+00 0. -1.
         21   -1    0    0  502  503 -0.00000000000E+00 -0.00000000000E+00 -0.92367087701E+02  0.92367087701E+02  0.00000000000E+00 0. -1.
          6    1    1    2  501    0 -0.23474425774E+02 -0.22827138933E+02  0.30874628012E+03  0.35493716687E+03  0.17200000000E+03 0.  1.
         -6    1    1    2    0  503  0.23474425774E+02  0.22827138933E+02  0.41365713988E+02  0.17990900264E+03  0.17200000000E+03 0.  1.
</event>
<event>
 4    1  0.1241325E+000  0.2477268E+03  0.7818608E-02  0.1114750E+00
         21   -1    0    0  501  502  0.00000000000E+00  0.00000000000E+00  0.78597892475E+03  0.78597892475E+03  0.00000000000E+00 0.  1.
         21   -1    0    0  502  503 -0.00000000000E+00 -0.00000000000E+00 -0.83021819036E+02  0.83021819036E+02  0.00000000000E+00 0. -1.
          6    1    1    2  501    0  0.89624873087E+02 -0.15411666197E+03  0.45749541907E+03  0.52026014824E+03  0.17200000000E+03 0.  1.
         -6    1    1    2    0  503 -0.89624873087E+02  0.15411666197E+03  0.24546168665E+03  0.34874059555E+03  0.17200000000E+03 0. -1.
</event>
<event>
 4    1  0.1241325E+000  0.1901006E+03  0.7818608E-02  0.1158371E+00
         21   -1    0    0  503  502  0.00000000000E+00  0.00000000000E+00  0.10471408587E+03  0.10471408587E+03  0.00000000000E+00 0. -1.
         21   -1    0    0  501  503 -0.00000000000E+00 -0.00000000000E+00 -0.45206072881E+03  0.45206072881E+03  0.00000000000E+00 0. -1.
          6    1    1    2  501    0 -0.59882524680E+02 -0.54482193517E+02 -0.30907882688E+03  0.36286078239E+03  0.17200000000E+03 0. -1.
         -6    1    1    2    0  502  0.59882524680E+02  0.54482193517E+02 -0.38267816062E+02  0.19391403229E+03  0.17200000000E+03 0. -1.
</event>
<event>
 4    1  0.1241325E+000  0.1943504E+03  0.7818608E-02  0.1154595E+00
         21   -1    0    0  503  502  0.00000000000E+00  0.00000000000E+00  0.16642324358E+03  0.16642324358E+03  0.00000000000E+00 0. -1.
         21   -1    0    0  501  503 -0.00000000000E+00 -0.00000000000E+00 -0.66931600507E+03  0.66931600507E+03  0.00000000000E+00 0. -1.
          6    1    1    2  501    0  0.31834032387E+02 -0.84703499949E+02 -0.59115705038E+03  0.62228510085E+03  0.17200000000E+03 0. -1.
         -6    1    1    2    0  502 -0.31834032387E+02  0.84703499949E+02  0.88264288890E+02  0.21345414780E+03  0.17200000000E+03 0. -1.
</event>
<event>
 4    1  0.1241325E+000  0.1841955E+03  0.7818608E-02  0.1163803E+00
         21   -1    0    0  503  502  0.00000000000E+00  0.00000000000E+00  0.42170436175E+03  0.42170436175E+03  0.00000000000E+00 0.  1.
         21   -1    0    0  501  503 -0.00000000000E+00 -0.00000000000E+00 -0.16309150144E+03  0.16309150144E+03  0.00000000000E+00 0.  1.
          6    1    1    2  501    0  0.60272411388E+02  0.26669007450E+02 -0.78828989569E+02  0.20035470828E+03  0.17200000000E+03 0.  1.
         -6    1    1    2    0  502 -0.60272411388E+02 -0.26669007450E+02  0.33744184989E+03  0.38444115491E+03  0.17200000000E+03 0.  1.
</event>
<event>
 4    1  0.1241325E+000  0.4164330E+03  0.7818608E-02  0.1038234E+00
         21   -1    0    0  501  502  0.00000000000E+00  0.00000000000E+00  0.17515769040E+04  0.17515769040E+04  0.00000000000E+00 0.  1.
         21   -1    0    0  502  503 -0.00000000000E+00 -0.00000000000E+00 -0.10046349393E+03  0.10046349393E+03  0.00000000000E+00 0. -1.
          6    1    1    2  501    0  0.25821363930E+03 -0.27777353703E+03  0.93709829790E+03  0.10254606971E+04  0.17200000000E+03 0. -1.
         -6    1    1    2    0  503 -0.25821363930E+03  0.27777353703E+03  0.71401511217E+03  0.82657970082E+03  0.17200000000E+03 0. -1.
</event>
<event>
 4    1  0.1241325E+000  0.2031381E+03  0.7818608E-02  0.1147118E+00
         21   -1    0    0  501  502  0.00000000000E+00  0.00000000000E+00  0.18553933834E+03  0.18553933834E+03  0.00000000000E+00 0.  1.
         21   -1    0    0  502  503 -0.00000000000E+00 -0.00000000000E+00 -0.23066137145E+03  0.23066137145E+03  0.00000000000E+00 0.  1.
          6    1    1    2  501    0 -0.65135634321E+02  0.86246264957E+02  0.16807831168E+02  0.20383221597E+03  0.17200000000E+03 0.  1.
         -6    1    1    2    0  503  0.65135634321E+02 -0.86246264957E+02 -0.61929864282E+02  0.21236849382E+03  0.17200000000E+03 0.  1.
</event>
<event>
 4    1  0.1241325E+000  0.1906368E+03  0.7818608E-02  0.1157888E+00
         21   -1    0    0  501  502  0.00000000000E+00  0.00000000000E+00  0.22858668226E+03  0.22858668226E+03  0.00000000000E+00 0. -1.
         21   -1    0    0  502  503 -0.00000000000E+00 -0.00000000000E+00 -0.43699361655E+03  0.43699361655E+03  0.00000000000E+00 0. -1.
          6    1    1    2  501    0 -0.77151704005E+02  0.28389952360E+02  0.16123280153E+03  0.24967657302E+03  0.17200000000E+03 0.  1.
         -6    1    1    2    0  503  0.77151704005E+02 -0.28389952360E+02 -0.36963973582E+03  0.41590372579E+03  0.17200000000E+03 0.  1.
</event>
<event>
 4    1  0.1241325E+000  0.1959369E+03  0.7818608E-02  0.1153213E+00
         21   -1    0    0  503  502  0.00000000000E+00  0.00000000000E+00  0.32161321764E+03  0.32161321764E+03  0.00000000000E+00 0.  1.
         21   -1    0    0  501  503 -0.00000000000E+00 -0.00000000000E+00 -0.24155393004E+03  0.24155393004E+03  0.00000000000E+00 0.  1.
          6    1    1    2  501    0 -0.93808630489E+02  0.26825044790E+01 -0.16023566834E+03  0.25311405412E+03  0.17200000000E+03 0.  1.
         -6    1    1    2    0  502  0.93808630489E+02 -0.26825044790E+01  0.24029495594E+03  0.31005309357E+03  0.17200000000E+03 0.  1.
</event>
<event>
 4    1  0.1241325E+000  0.2252002E+03  0.7818608E-02  0.1130064E+00
         21   -1    0    0  501  502  0.00000000000E+00  0.00000000000E+00  0.49650724154E+03  0.49650724154E+03  0.00000000000E+00 0. -1.
         21   -1    0    0  502  503 -0.00000000000E+00 -0.00000000000E+00 -0.13357199856E+03  0.13357199856E+03  0.00000000000E+00 0. -1.
          6    1    1    2  501    0  0.13586220379E+03 -0.51697129897E+02  0.33428307435E+03  0.40306364939E+03  0.17200000000E+03 0. -1.
         -6    1    1    2    0  503 -0.13586220379E+03  0.51697129897E+02  0.28652168635E+02  0.22701559071E+03  0.17200000000E+03 0. -1.
</event>
<event>
 4    1  0.1241325E+000  0.3261842E+03  0.7818608E-02  0.1072838E+00
         21   -1    0    0  503  502  0.00000000000E+00  0.00000000000E+00  0.16401230874E+04  0.16401230874E+04  0.00000000000E+00 0. -1.
         21   -1    0    0  501  503 -0.00000000000E+00 -0.00000000000E+00 -0.70744436033E+02  0.70744436033E+02  0.00000000000E+00 0. -1.
          6    1    1    2  501    0  0.27585896009E+03  0.26720188226E+02  0.53820295412E+03  0.62933183150E+03  0.17200000000E+03 0. -1.
         -6    1    1    2    0  502 -0.27585896009E+03 -0.26720188226E+02  0.10311756973E+04  0.10815356920E+04  0.17200000000E+03 0. -1.
</event>
<event>
 4    1  0.1241325E+000  0.1814440E+03  0.7818608E-02  0.1166413E+00
         21   -1    0    0  503  502  0.00000000000E+00  0.00000000000E+00  0.39422956074E+03  0.39422956074E+03  0.00000000000E+00 0.  1.
         21   -1    0    0  501  503 -0.00000000000E+00 -0.00000000000E+00 -0.97127579780E+02  0.97127579780E+02  0.00000000000E+00 0.  1.
          6    1    1    2  501    0  0.14269954304E+01  0.57757062267E+02  0.56558180077E+02  0.19005457714E+03  0.17200000000E+03 0.  1.
         -6    1    1    2    0  502 -0.14269954304E+01 -0.57757062267E+02  0.24054380089E+03  0.30130256339E+03  0.17200000000E+03 0.  1.
</event>
<event>
 4    1  0.1241325E+000  0.2494420E+03  0.7818608E-02  0.1113658E+00
         21   -1    0    0  503  502  0.00000000000E+00  0.00000000000E+00  0.54695501825E+02  0.54695501825E+02  0.00000000000E+00 0.  1.
         21   -1    0    0  501  503 -0.00000000000E+00 -0.00000000000E+00 -0.19092606508E+04  0.19092606508E+04  0.00000000000E+00 0.  1.
          6    1    1    2  501    0  0.52344814178E+02  0.17290851676E+03 -0.30299637026E+03  0.39246418324E+03  0.17200000000E+03 0.  1.
         -6    1    1    2    0  502 -0.52344814178E+02 -0.17290851676E+03 -0.15515687787E+04  0.15714919694E+04  0.17200000000E+03 0.  1.
</event>
<event>
 4    1  0.1241325E+000  0.2084188E+03  0.7818608E-02  0.1142824E+00
         21   -1    0    0  503  502  0.00000000000E+00  0.00000000000E+00  0.73238395524E+03  0.73238395524E+03  0.00000000000E+00 0. -1.
         21   -1    0    0  501  503 -0.00000000000E+00 -0.00000000000E+00 -0.60369543659E+02  0.60369543659E+02  0.00000000000E+00 0. -1.
          6    1    1    2  501    0 -0.53531780059E+02  0.10482715374E+03  0.28351858840E+03  0.35188232921E+03  0.17200000000E+03 0.  1.
         -6    1    1    2    0  502  0.53531780059E+02 -0.10482715374E+03  0.38849582318E+03  0.44087116969E+03  0.17200000000E+03 0.  1.
</event>
<event>
 4    1  0.1241325E+000  0.1729582E+03  0.7818608E-02  0.1174798E+00
         21   -1    0    0  503  502  0.00000000000E+00  0.00000000000E+00  0.83596958885E+02  0.83596958885E+02  0.00000000000E+00 0.  1.
         21   -1    0    0  501  503 -0.00000000000E+00 -0.00000000000E+00 -0.43194324695E+03  0.43194324695E+03  0.00000000000E+00 0.  1.
          6    1    1    2  501    0  0.87503703378E+01  0.15936924384E+02 -0.28093845042E+03  0.32991054464E+03  0.17200000000E+03 0.  1.
         -6    1    1    2    0  502 -0.87503703378E+01 -0.15936924384E+02 -0.67407837646E+02  0.18562966120E+03  0.17200000000E+03 0.  1.
</event>
<event>
 4    1  0.1241325E+000  0.2419927E+03  0.7818608E-02  0.1118472E+00
         21   -1    0    0  503  502  0.00000000000E+00  0.00000000000E+00  0.18119600262E+03  0.18119600262E+03  0.00000000000E+00 0.  1.
         21   -1    0    0  501  503 -0.00000000000E+00 -0.00000000000E+00 -0.34408118916E+03  0.34408118916E+03  0.00000000000E+00 0.  1.
          6    1    1    2  501    0  0.64801050410E+01  0.17010137324E+03 -0.14616057837E+03  0.28270724011E+03  0.17200000000E+03 0.  1.
         -6    1    1    2    0  502 -0.64801050410E+01 -0.17010137324E+03 -0.16724608164E+02  0.24256995168E+03  0.17200000000E+03 0.  1.
</event>
<event>
 4    1  0.1241325E+000  0.1907965E+03  0.7818608E-02  0.1157745E+00
         21   -1    0    0  503  502  0.00000000000E+00  0.00000000000E+00  0.59775865993E+02  0.59775865993E+02  0.00000000000E+00 0.  1.
         21   -1    0    0  501  503 -0.00000000000E+00 -0.00000000000E+00 -0.61023883235E+03  0.61023883235E+03  0.00000000000E+00 0. -1.
          6    1    1    2  501    0  0.21367288986E+01 -0.82551504724E+02 -0.29034463235E+03  0.34742383637E+03  0.17200000000E+03 0. -1.
         -6    1    1    2    0  502 -0.21367288986E+01  0.82551504724E+02 -0.26011833401E+03  0.32259086197E+03  0.17200000000E+03 0.  1.
</event>
<event>
 4    1  0.1241325E+000  0.1888061E+03  0.7818608E-02  0.1159543E+00
         21   -1    0    0  501  502  0.00000000000E+00  0.00000000000E+00  0.64367884053E+03  0.64367884053E+03  0.00000000000E+00 0. -1.
         21   -1    0    0  502  503 -0.00000000000E+00 -0.00000000000E+00 -0.57031314759E+02  0.57031314759E+02  0.00000000000E+00 0. -1.
          6    1    1    2  501    0 -0.56955832475E+02 -0.53101510259E+02  0.35291776252E+03  0.40024827838E+03  0.17200000000E+03 0. -1.
         -6    1    1    2    0  503  0.56955832475E+02  0.53101510259E+02  0.23372976324E+03  0.30046187690E+03  0.17200000000E+03 0. -1.
</event>
<event>
 4    1  0.1241325E+000  0.3498038E+03  0.7818608E-02  0.1062696E+00
         21   -1    0    0  503  502  0.00000000000E+00  0.00000000000E+00  0.80293027603E+02  0.80293027603E+02  0.00000000000E+00 0. -1.
         21   -1    0    0  501  503 -0.00000000000E+00 -0.00000000000E+00 -0.18381434122E+04  0.18381434122E+04  0.00000000000E+00 0.  1.
          6    1    1    2  501    0  0.29287045592E+03  0.83699461709E+02 -0.12754999044E+04  0.13225969567E+04  0.17200000000E+03 0.  1.
         -6    1    1    2    0  502 -0.29287045592E+03 -0.83699461709E+02 -0.48235048023E+03  0.59583948310E+03  0.17200000000E+03 0. -1.
</event>
<event>
 4    1  0.1241325E+000  0.2334646E+03  0.7818608E-02  0.1124225E+00
         21   -1    0    0  501  502  0.00000000000E+00  0.00000000000E+00  0.77553208164E+02  0.77553208164E+02  0.00000000000E+00 0.  1.
         21   -1    0    0  502  503 -0.00000000000E+00 -0.00000000000E+00 -0.72667176718E+03  0.72667176718E+03  0.00000000000E+00 0.  1.
          6    1    1    2  501    0 -0.10602376975E+03 -0.11696438445E+03 -0.39741551482E+03  0.46091734443E+03  0.17200000000E+03 0.  1.
         -6    1    1    2    0  503  0.10602376975E+03  0.11696438445E+03 -0.25170304419E+03  0.34330763091E+03  0.17200000000E+03 0.  1.
</event>
<event>
 4    1  0.1241325E+000  0.2804045E+03  0.7818608E-02  0.1095468E+00
         21   -1    0    0  503  502  0.00000000000E+00  0.00000000000E+00  0.27700542575E+03  0.27700542575E+03  0.00000000000E+00 0. -1.
         21   -1    0    0  501  503 -0.00000000000E+00 -0.00000000000E+00 -0.31001722464E+03  0.31001722464E+03  0.00000000000E+00 0. -1.
          6    1    1    2  501    0 -0.12130516885E+03 -0.18527748635E+03  0.68774592906E+02  0.28871549243E+03  0.17200000000E+03 0.  1.
         -6    1    1    2    0  502  0.12130516885E+03  0.18527748635E+03 -0.10178639180E+03  0.29830715797E+03  0.17200000000E+03 0.  1.
</event>
<event>
 4    1  0.1241325E+000  0.1807671E+03  0.7818608E-02  0.1167063E+00
         21   -1    0    0  501  502  0.00000000000E+00  0.00000000000E+00  0.24739914680E+03  0.24739914680E+03  0.00000000000E+00 0. -1.
         21   -1    0    0  502  503 -0.00000000000E+00 -0.00000000000E+00 -0.22555398385E+03  0.22555398385E+03  0.00000000000E+00 0. -1.
          6    1    1    2  501    0  0.40766060282E+02  0.37826875320E+02  0.16315450925E+03  0.24350798356E+03  0.17200000000E+03 0. -1.
         -6    1    1    2    0  503 -0.40766060282E+02 -0.37826875320E+02 -0.14130934631E+03  0.22944514709E+03  0.17200000000E+03 0. -1.
</event>
<event>
 4    1  0.1241325E+000  0.1785258E+03  0.7818608E-02  0.1169237E+00
         21   -1    0    0  503  502  0.00000000000E+00  0.00000000000E+00  0.37621741030E+02  0.37621741030E+02  0.00000000000E+00 0. -1.
         21   -1    0    0  501  503 -0.00000000000E+00 -0.00000000000E+00 -0.88751560562E+03  0.88751560562E+03  0.00000000000E+00 0. -1.
          6    1    1    2  501    0 -0.92754758688E+01 -0.46919221520E+02 -0.52359005257E+03  0.55318892880E+03  0.17200000000E+03 0. -1.
         -6    1    1    2    0  502  0.92754758688E+01  0.46919221520E+02 -0.32630381203E+03  0.37194841785E+03  0.17200000000E+03 0. -1.
</event>
<event>
 4    1  0.1241325E+000  0.2342534E+03  0.7818608E-02  0.1123681E+00
         21   -1    0    0  501  502  0.00000000000E+00  0.00000000000E+00  0.19422910792E+03  0.19422910792E+03  0.00000000000E+00 0.  1.
         21   -1    0    0  502  503 -0.00000000000E+00 -0.00000000000E+00 -0.28811420085E+03  0.28811420085E+03  0.00000000000E+00 0. -1.
          6    1    1    2  501    0  0.50097026333E+02 -0.15093351971E+03 -0.13352806230E+02  0.23463362260E+03  0.17200000000E+03 0.  1.
         -6    1    1    2    0  503 -0.50097026333E+02  0.15093351971E+03 -0.80532286708E+02  0.24770968617E+03  0.17200000000E+03 0. -1.
</event>
<event>
 4    1  0.1241325E+000  0.1742765E+03  0.7818608E-02  0.1173460E+00
         21   -1    0    0  503  502  0.00000000000E+00  0.00000000000E+00  0.11918548716E+03  0.11918548716E+03  0.00000000000E+00 0.  1.
         21   -1    0    0  501  503 -0.00000000000E+00 -0.00000000000E+00 -0.25772731137E+03  0.25772731137E+03  0.00000000000E+00 0.  1.
          6    1    1    2  501    0  0.27575693306E+02 -0.52811430363E+01 -0.89244559045E+02  0.19579811197E+03  0.17200000000E+03 0. -1.
         -6    1    1    2    0  502 -0.27575693306E+02  0.52811430363E+01 -0.49297265172E+02  0.18111468656E+03  0.17200000000E+03 0. -1.
</event>
<event>
 4    1  0.1241325E+000  0.1740418E+03  0.7818608E-02  0.1173697E+00
         21   -1    0    0  503  502  0.00000000000E+00  0.00000000000E+00  0.20595399216E+03  0.20595399216E+03  0.00000000000E+00 0.  1.
         21   -1    0    0  501  503 -0.00000000000E+00 -0.00000000000E+00 -0.18290899186E+03  0.18290899186E+03  0.00000000000E+00 0.  1.
          6    1    1    2  501    0  0.26488413272E+02  0.22155808220E+01 -0.74537383188E+02  0.18933136647E+03  0.17200000000E+03 0.  1.
         -6    1    1    2    0  502 -0.26488413272E+02 -0.22155808220E+01  0.97582383481E+02  0.19953161755E+03  0.17200000000E+03 0.  1.
</event>
<event>
 4    1  0.1241325E+000  0.2428221E+03  0.7818608E-02  0.1117927E+00
         21   -1    0    0  503  502  0.00000000000E+00  0.00000000000E+00  0.13295433309E+04  0.13295433309E+04  0.00000000000E+00 0.  1.
         21   -1    0    0  501  503 -0.00000000000E+00 -0.00000000000E+00 -0.10362724122E+03  0.10362724122E+03  0.00000000000E+00 0.  1.
          6    1    1    2  501    0 -0.11110397906E+03 -0.13051623884E+03  0.70979306555E+02  0.25298348705E+03  0.17200000000E+03 0.  1.
         -6    1    1    2    0  502  0.11110397906E+03  0.13051623884E+03  0.11549367831E+04  0.11801870851E+04  0.17200000000E+03 0.  1.
</event>
<event>
 4    1  0.1241325E+000  0.1782649E+03  0.7818608E-02  0.1169493E+00
         21   -1    0    0  503  502  0.00000000000E+00  0.00000000000E+00  0.73594643353E+02  0.73594643353E+02  0.00000000000E+00 0.  1.
         21   -1    0    0  501  503 -0.00000000000E+00 -0.00000000000E+00 -0.43212031481E+03  0.43212031481E+03  0.00000000000E+00 0.  1.
          6    1    1    2  501    0 -0.46762953504E+02 -0.27593125815E+01 -0.17241079245E+03  0.24799973584E+03  0.17200000000E+03 0.  1.
         -6    1    1    2    0  502  0.46762953504E+02  0.27593125815E+01 -0.18611487901E+03  0.25771522232E+03  0.17200000000E+03 0.  1.
</event>
<event>
 4    1  0.1241325E+000  0.1980605E+03  0.7818608E-02  0.1151386E+00
         21   -1    0    0  501  502  0.00000000000E+00  0.00000000000E+00  0.36139050304E+02  0.36139050304E+02  0.00000000000E+00 0.  1.
         21   -1    0    0  502  503 -0.00000000000E+00 -0.00000000000E+00 -0.10918934817E+04  0.10918934817E+04  0.00000000000E+00 0. -1.
          6    1    1    2  501    0  0.91223264702E+02 -0.36363217437E+02 -0.48462769310E+03  0.52353793418E+03  0.17200000000E+03 0. -1.
         -6    1    1    2    0  503 -0.91223264702E+02  0.36363217437E+02 -0.57112673833E+03  0.60449459786E+03  0.17200000000E+03 0. -1.
</event>
<event>
 4    1  0.1241325E+000  0.1922243E+03  0.7818608E-02  0.1156470E+00
         21   -1    0    0  503  502  0.00000000000E+00  0.00000000000E+00  0.16029988519E+04  0.16029988519E+04  0.00000000000E+00 0.  1.
         21   -1    0    0  501  503 -0.00000000000E+00 -0.00000000000E+00 -0.27502487706E+02  0.27502487706E+02  0.00000000000E+00 0.  1.
          6    1    1    2  501    0  0.29313258606E+02  0.80665431104E+02  0.45974774074E+03  0.49831532589E+03  0.17200000000E+03 0.  1.
         -6    1    1    2    0  502 -0.29313258606E+02 -0.80665431104E+02  0.11157486234E+04  0.11321860137E+04  0.17200000000E+03 0.  1.
</event>
<event>
 4    1  0.1241325E+000  0.1788505E+03  0.7818608E-02  0.1168920E+00
         21   -1    0    0  501  502  0.00000000000E+00  0.00000000000E+00  0.38891416707E+02  0.38891416707E+02  0.00000000000E+00 0.  1.
         21   -1    0    0  502  503 -0.00000000000E+00 -0.00000000000E+00 -0.82289502300E+03  0.82289502300E+03  0.00000000000E+00 0.  1.
          6    1    1    2  501    0  0.42899658857E+02 -0.23730447510E+02 -0.40164788100E+03  0.43966866523E+03  0.17200000000E+03 0.  1.
         -6    1    1    2    0  503 -0.42899658857E+02  0.23730447510E+02 -0.38235572529E+03  0.42211777448E+03  0.17200000000E+03 0.  1.
</event>
<event>
 4    1  0.1241325E+000  0.2131147E+03  0.7818608E-02  0.1139123E+00
         21   -1    0    0  501  502  0.00000000000E+00  0.00000000000E+00  0.25889349159E+03  0.25889349159E+03  0.00000000000E+00 0.  1.
         21   -1    0    0  502  503 -0.00000000000E+00 -0.00000000000E+00 -0.31173525198E+03  0.31173525198E+03  0.00000000000E+00 0.  1.
          6    1    1    2  501    0  0.12578318321E+03  0.35335399704E+01  0.16224166706E+03  0.26784371117E+03  0.17200000000E+03 0.  1.
         -6    1    1    2    0  503 -0.12578318321E+03 -0.35335399704E+01 -0.21508342745E+03  0.30278503240E+03  0.17200000000E+03 0.  1.
</event>
<event>
 4    1  0.1241325E+000  0.1973816E+03  0.7818608E-02  0.1151967E+00
         21   -1    0    0  503  502  0.00000000000E+00  0.00000000000E+00  0.46264715709E+03  0.46264715709E+03  0.00000000000E+00 0.  1.
         21   -1    0    0  501  503 -0.00000000000E+00 -0.00000000000E+00 -0.86911372200E+02  0.86911372200E+02  0.00000000000E+00 0.  1.
          6    1    1    2  501    0 -0.13473670840E+02 -0.95885200029E+02  0.13942401928E+03  0.24165795775E+03  0.17200000000E+03 0. -1.
         -6    1    1    2    0  502  0.13473670840E+02  0.95885200029E+02  0.23631176561E+03  0.30790057154E+03  0.17200000000E+03 0. -1.
</event>
<event>
 4    1  0.1241325E+000  0.1813085E+03  0.7818608E-02  0.1166543E+00
         21   -1    0    0  503  502  0.00000000000E+00  0.00000000000E+00  0.11863533090E+03  0.11863533090E+03  0.00000000000E+00 0. -1.
         21   -1    0    0  501  503 -0.00000000000E+00 -0.00000000000E+00 -0.28389907431E+03  0.28389907431E+03  0.00000000000E+00 0. -1.
          6    1    1    2  501    0  0.30871929767E+02  0.48328968124E+02 -0.51463952597E+02  0.18847096228E+03  0.17200000000E+03 0.  1.
         -6    1    1    2    0  502 -0.30871929767E+02 -0.48328968124E+02 -0.11379979081E+03  0.21406344292E+03  0.17200000000E+03 0.  1.
</event>
<event>
 4    1  0.1241325E+000  0.2144046E+03  0.7818608E-02  0.1138125E+00
         21   -1    0    0  503  502  0.00000000000E+00  0.00000000000E+00  0.30585181746E+03  0.30585181746E+03  0.00000000000E+00 0. -1.
         21   -1    0    0  501  503 -0.00000000000E+00 -0.00000000000E+00 -0.41410260876E+03  0.41410260876E+03  0.00000000000E+00 0. -1.
          6    1    1    2  501    0 -0.58694434741E+02 -0.11375534616E+03 -0.34144227624E+03  0.40317755822E+03  0.17200000000E+03 0. -1.
         -6    1    1    2    0  502  0.58694434741E+02  0.11375534616E+03  0.23319148494E+03  0.31677686800E+03  0.17200000000E+03 0. -1.
</event>
<event>
 4    1  0.1241325E+000  0.1903109E+03  0.7818608E-02  0.1158181E+00
         21   -1    0    0  503  502  0.00000000000E+00  0.00000000000E+00  0.34188361665E+03  0.34188361665E+03  0.00000000000E+00 0. -1.
         21   -1    0    0  501  503 -0.00000000000E+00 -0.00000000000E+00 -0.20304662727E+03  0.20304662727E+03  0.00000000000E+00 0. -1.
          6    1    1    2  501    0 -0.58129456963E+02  0.57054475581E+02 -0.11900860806E+03  0.22445778165E+03  0.17200000000E+03 0. -1.
         -6    1    1    2    0  502  0.58129456963E+02 -0.57054475581E+02  0.25784559744E+03  0.32047246226E+03  0.17200000000E+03 0. -1.
</event>
<event>
 4    1  0.1241325E+000  0.1802591E+03  0.7818608E-02  0.1167553E+00
         21   -1    0    0  503  502  0.00000000000E+00  0.00000000000E+00  0.11457011113E+03  0.11457011113E+03  0.00000000000E+00 0. -1.
         21   -1    0    0  501  503 -0.00000000000E+00 -0.00000000000E+00 -0.66429517814E+03  0.66429517814E+03  0.00000000000E+00 0. -1.
          6    1    1    2  501    0 -0.51092030452E+02  0.17290018787E+02 -0.56966711922E+03  0.59750645775E+03  0.17200000000E+03 0. -1.
         -6    1    1    2    0  502  0.51092030452E+02 -0.17290018787E+02  0.19942052206E+02  0.18135883152E+03  0.17200000000E+03 0. -1.
</event>
<event>
 4    1  0.1241325E+000  0.1780316E+03  0.7818608E-02  0.1169722E+00
         21   -1    0    0  503  502  0.00000000000E+00  0.00000000000E+00  0.27485372258E+03  0.27485372258E+03  0.00000000000E+00 0. -1.
         21   -1    0    0  501  503 -0.00000000000E+00 -0.00000000000E+00 -0.11624562411E+03  0.11624562411E+03  0.00000000000E+00 0. -1.
          6    1    1    2  501    0  0.10704833746E+02 -0.44684136633E+02  0.96783340099E+02  0.20263829957E+03  0.17200000000E+03 0. -1.
         -6    1    1    2    0  502 -0.10704833746E+02  0.44684136633E+02  0.61824758377E+02  0.18846104712E+03  0.17200000000E+03 0. -1.
</event>
<event>
 4    1  0.1241325E+000  0.3066729E+03  0.7818608E-02  0.1081952E+00
         21   -1    0    0  503  502  0.00000000000E+00  0.00000000000E+00  0.96658600060E+02  0.96658600060E+02  0.00000000000E+00 0. -1.
         21   -1    0    0  501  503 -0.00000000000E+00 -0.00000000000E+00 -0.10713540046E+04  0.10713540046E+04  0.00000000000E+00 0.  1.
          6    1    1    2  501    0 -0.24831825449E+03 -0.52936677964E+02 -0.66430158190E+03  0.73167263110E+03  0.17200000000E+03 0.  1.
         -6    1    1    2    0  502  0.24831825449E+03  0.52936677964E+02 -0.31039382261E+03  0.43633997353E+03  0.17200000000E+03 0. -1.
</event>
<event>
 4    1  0.1241325E+000  0.1771597E+03  0.7818608E-02  0.1170581E+00
         21   -1    0    0  503  502  0.00000000000E+00  0.00000000000E+00  0.11847574519E+04  0.11847574519E+04  0.00000000000E+00 0.  1.
         21   -1    0    0  501  503 -0.00000000000E+00 -0.00000000000E+00 -0.27788324537E+02  0.27788324537E+02  0.00000000000E+00 0.  1.
          6    1    1    2  501    0  0.37430633614E+02  0.20012414576E+02  0.44749352508E+03  0.48128578211E+03  0.17200000000E+03 0. -1.
         -6    1    1    2    0  502 -0.37430633614E+02 -0.20012414576E+02  0.70947560224E+03  0.73125999429E+03  0.17200000000E+03 0. -1.
</event>
<event>
 4    1  0.1241325E+000  0.1996257E+03  0.7818608E-02  0.1150055E+00
         21   -1    0    0  501  502  0.00000000000E+00  0.00000000000E+00  0.43216508038E+03  0.43216508038E+03  0.00000000000E+00 0.  1.
         21   -1    0    0  502  503 -0.00000000000E+00 -0.00000000000E+00 -0.12665391384E+03  0.12665391384E+03  0.00000000000E+00 0.  1.
          6    1    1    2  501    0  0.36308510277E+02  0.94594496016E+02  0.70483757776E+01  0.19975010938E+03  0.17200000000E+03 0.  1.
         -6    1    1    2    0  503 -0.36308510277E+02 -0.94594496016E+02  0.29846279076E+03  0.35906888485E+03  0.17200000000E+03 0.  1.
</event>
<event>
 4    1  0.1241325E+000  0.2080495E+03  0.7818608E-02  0.1143120E+00
         21   -1    0    0  501  502  0.00000000000E+00  0.00000000000E+00  0.89662561567E+03  0.89662561567E+03  0.00000000000E+00 0. -1.
         21   -1    0    0  502  503 -0.00000000000E+00 -0.00000000000E+00 -0.52803435275E+02  0.52803435275E+02  0.00000000000E+00 0.  1.
          6    1    1    2  501    0  0.41170975206E+02 -0.10956976909E+03  0.56093083344E+03  0.59827082781E+03  0.17200000000E+03 0. -1.
         -6    1    1    2    0  503 -0.41170975206E+02  0.10956976909E+03  0.28289134695E+03  0.35115822314E+03  0.17200000000E+03 0.  1.
</event>
<event>
 4    1  0.1241325E+000  0.1808170E+03  0.7818608E-02  0.1167015E+00
         21   -1    0    0  501  502  0.00000000000E+00  0.00000000000E+00  0.95024742008E+02  0.95024742008E+02  0.00000000000E+00 0.  1.
         21   -1    0    0  502  503 -0.00000000000E+00 -0.00000000000E+00 -0.38810115120E+03  0.38810115120E+03  0.00000000000E+00 0.  1.
          6    1    1    2  501    0 -0.36695305969E+02  0.42002913223E+02 -0.22790687497E+03  0.29092324393E+03  0.17200000000E+03 0.  1.
         -6    1    1    2    0  503  0.36695305969E+02 -0.42002913223E+02 -0.65169534221E+02  0.19220264928E+03  0.17200000000E+03 0.  1.
</event>
<event>
 4    1  0.1241325E+000  0.1804298E+03  0.7818608E-02  0.1167388E+00
         21   -1    0    0  501  502  0.00000000000E+00  0.00000000000E+00  0.54797411591E+03  0.54797411591E+03  0.00000000000E+00 0. -1.
         21   -1    0    0  502  503 -0.00000000000E+00 -0.00000000000E+00 -0.88238204593E+02  0.88238204593E+02  0.00000000000E+00 0. -1.
          6    1    1    2  501    0  0.21425251066E+02 -0.50118629730E+02  0.41169380384E+03  0.44949605844E+03  0.17200000000E+03 0. -1.
         -6    1    1    2    0  503 -0.21425251066E+02  0.50118629730E+02  0.48042107476E+02  0.18671626207E+03  0.17200000000E+03 0. -1.
</event>
<event>
 4    1  0.1241325E+000  0.3765744E+03  0.7818608E-02  0.1052207E+00
         21   -1    0    0  501  502  0.00000000000E+00  0.00000000000E+00  0.15906292004E+03  0.15906292004E+03  0.00000000000E+00 0. -1.
         21   -1    0    0  502  503 -0.00000000000E+00 -0.00000000000E+00 -0.89387594863E+03  0.89387594863E+03  0.00000000000E+00 0.  1.
          6    1    1    2  501    0  0.18249610505E+03  0.28092602129E+03 -0.34039572958E+03  0.50761945442E+03  0.17200000000E+03 0. -1.
         -6    1    1    2    0  503 -0.18249610505E+03 -0.28092602129E+03 -0.39441729902E+03  0.54531941425E+03  0.17200000000E+03 0. -1.
</event>
<event>
 4    1  0.1241325E+000  0.1783420E+03  0.7818608E-02  0.1169417E+00
         21   -1    0    0  503  502  0.00000000000E+00  0.00000000000E+00  0.17214871824E+02  0.17214871824E+02  0.00000000000E+00 0.  1.
         21   -1    0    0  501  503 -0.00000000000E+00 -0.00000000000E+00 -0.23199220120E+04  0.23199220120E+04  0.00000000000E+00 0.  1.
          6    1    1    2  501    0 -0.44130972267E+02  0.16562645291E+02 -0.16786386145E+04  0.16880857390E+04  0.17200000000E+03 0.  1.
         -6    1    1    2    0  502  0.44130972267E+02 -0.16562645291E+02 -0.62406852566E+03  0.64905114486E+03  0.17200000000E+03 0.  1.
</event>
<event>
 4    1  0.1241325E+000  0.1793030E+03  0.7818608E-02  0.1168479E+00
         21   -1    0    0  501  502  0.00000000000E+00  0.00000000000E+00  0.15575769133E+03  0.15575769133E+03  0.00000000000E+00 0.  1.
         21   -1    0    0  502  503 -0.00000000000E+00 -0.00000000000E+00 -0.26935080553E+03  0.26935080553E+03  0.00000000000E+00 0.  1.
          6    1    1    2  501    0  0.23901127003E+02 -0.44657721858E+02  0.45954186549E+02  0.18509825298E+03  0.17200000000E+03 0.  1.
         -6    1    1    2    0  503 -0.23901127003E+02  0.44657721858E+02 -0.15954730074E+03  0.24001024388E+03  0.17200000000E+03 0.  1.
</event>
<event>
 4    1  0.1241325E+000  0.2266270E+03  0.7818608E-02  0.1129037E+00
         21   -1    0    0  503  502  0.00000000000E+00  0.00000000000E+00  0.40095278997E+02  0.40095278997E+02  0.00000000000E+00 0.  1.
         21   -1    0    0  501  503 -0.00000000000E+00 -0.00000000000E+00 -0.13209120784E+04  0.13209120784E+04  0.00000000000E+00 0. -1.
          6    1    1    2  501    0 -0.64878641864E+02 -0.13253889697E+03 -0.75878107608E+03  0.79190183659E+03  0.17200000000E+03 0.  1.
         -6    1    1    2    0  502  0.64878641864E+02  0.13253889697E+03 -0.52203572328E+03  0.56910552077E+03  0.17200000000E+03 0. -1.
</event>
<event>
 4    1  0.1241325E+000  0.2869605E+03  0.7818608E-02  0.1091947E+00
         21   -1    0    0  501  502  0.00000000000E+00  0.00000000000E+00  0.70204401705E+02  0.70204401705E+02  0.00000000000E+00 0. -1.
         21   -1    0    0  502  503 -0.00000000000E+00 -0.00000000000E+00 -0.11835578377E+04  0.11835578377E+04  0.00000000000E+00 0. -1.
          6    1    1    2  501    0  0.19831558555E+03  0.11590203922E+03 -0.49733305165E+03  0.57418334914E+03  0.17200000000E+03 0. -1.
         -6    1    1    2    0  503 -0.19831558555E+03 -0.11590203922E+03 -0.61602038439E+03  0.67957889031E+03  0.17200000000E+03 0. -1.
</event>
<event>
 4    1  0.1241325E+000  0.2240441E+03  0.7818608E-02  0.1130903E+00
         21   -1    0    0  503  502  0.00000000000E+00  0.00000000000E+00  0.94810661651E+03  0.94810661651E+03  0.00000000000E+00 0. -1.
         21   -1    0    0  501  503 -0.00000000000E+00 -0.00000000000E+00 -0.57926597637E+02  0.57926597637E+02  0.00000000000E+00 0. -1.
          6    1    1    2  501    0  0.51782383550E+02  0.13390426742E+03  0.29755079413E+03  0.37246777467E+03  0.17200000000E+03 0.  1.
         -6    1    1    2    0  502 -0.51782383550E+02 -0.13390426742E+03  0.59262922474E+03  0.63356543947E+03  0.17200000000E+03 0.  1.
</event>
<event>
 4    1  0.1241325E+000  0.2236284E+03  0.7818608E-02  0.1131206E+00
         21   -1    0    0  501  502  0.00000000000E+00  0.00000000000E+00  0.15998450443E+03  0.15998450443E+03  0.00000000000E+00 0. -1.
         21   -1    0    0  502  503 -0.00000000000E+00 -0.00000000000E+00 -0.34609656008E+03  0.34609656008E+03  0.00000000000E+00 0. -1.
          6    1    1    2  501    0  0.13205294898E+03 -0.54659633313E+02 -0.14323844089E+02  0.22408665591E+03  0.17200000000E+03 0. -1.
         -6    1    1    2    0  503 -0.13205294898E+03  0.54659633313E+02 -0.17178821157E+03  0.28199440860E+03  0.17200000000E+03 0. -1.
</event>
<event>
 4    1  0.1241325E+000  0.1890359E+03  0.7818608E-02  0.1159334E+00
         21   -1    0    0  503  502  0.00000000000E+00  0.00000000000E+00  0.21024260058E+03  0.21024260058E+03  0.00000000000E+00 0. -1.
         21   -1    0    0  501  503 -0.00000000000E+00 -0.00000000000E+00 -0.17432785362E+03  0.17432785362E+03  0.00000000000E+00 0. -1.
          6    1    1    2  501    0 -0.29353712401E+02  0.72725008571E+02 -0.12450491891E+02  0.18944545931E+03  0.17200000000E+03 0. -1.
         -6    1    1    2    0  502  0.29353712401E+02 -0.72725008571E+02  0.48365238847E+02  0.19512499489E+03  0.17200000000E+03 0. -1.
</event>
<event>
 4    1  0.1241325E+000  0.2203307E+03  0.7818608E-02  0.1133637E+00
         21   -1    0    0  501  502  0.00000000000E+00  0.00000000000E+00  0.14237500303E+04  0.14237500303E+04  0.00000000000E+00 0. -1.
         21   -1    0    0  502  503 -0.00000000000E+00 -0.00000000000E+00 -0.39821110718E+02  0.39821110718E+02  0.00000000000E+00 0.  1.
          6    1    1    2  501    0 -0.11989267886E+03 -0.67730130371E+02  0.96941184160E+03  0.99413527431E+03  0.17200000000E+03 0.  1.
         -6    1    1    2    0  503  0.11989267886E+03  0.67730130371E+02  0.41451707796E+03  0.46943586668E+03  0.17200000000E+03 0.  1.
</event>
<event>
 4    1  0.1241325E+000  0.2062752E+03  0.7818608E-02  0.1144550E+00
         21   -1    0    0  501  502  0.00000000000E+00  0.00000000000E+00  0.22898056575E+03  0.22898056575E+03  0.00000000000E+00 0.  1.
         21   -1    0    0  502  503 -0.00000000000E+00 -0.00000000000E+00 -0.19469452894E+03  0.19469452894E+03  0.00000000000E+00 0.  1.
          6    1    1    2  501    0  0.10021886561E+03  0.54052213325E+02  0.62366843753E+02  0.21549729926E+03  0.17200000000E+03 0.  1.
         -6    1    1    2    0  503 -0.10021886561E+03 -0.54052213325E+02 -0.28080806948E+02  0.20817779543E+03  0.17200000000E+03 0.  1.
</event>
<event>
 4    1  0.1241325E+000  0.2727188E+03  0.7818608E-02  0.1099734E+00
         21   -1    0    0  501  502  0.00000000000E+00  0.00000000000E+00  0.30323846228E+03  0.30323846228E+03  0.00000000000E+00 0. -1.
         21   -1    0    0  502  503 -0.00000000000E+00 -0.00000000000E+00 -0.35002335795E+03  0.35002335795E+03  0.00000000000E+00 0.  1.
          6    1    1    2  501    0 -0.14328278497E+03 -0.15576127804E+03 -0.20207870040E+03  0.33942795018E+03  0.17200000000E+03 0.  1.
         -6    1    1    2    0  503  0.14328278497E+03  0.15576127804E+03  0.15529380473E+03  0.31383387005E+03  0.17200000000E+03 0. -1.
</event>
<event>
 4    1  0.1241325E+000  0.2469462E+03  0.7818608E-02  0.1115250E+00
         21   -1    0    0  501  502  0.00000000000E+00  0.00000000000E+00  0.60808099898E+02  0.60808099898E+02  0.00000000000E+00 0. -1.
         21   -1    0    0  502  503 -0.00000000000E+00 -0.00000000000E+00 -0.14328396241E+04  0.14328396241E+04  0.00000000000E+00 0.  1.
          6    1    1    2  501    0  0.14555864510E+03  0.10104996784E+03 -0.27690587445E+03  0.37102463323E+03  0.17200000000E+03 0.  1.
         -6    1    1    2    0  503 -0.14555864510E+03 -0.10104996784E+03 -0.10951256497E+04  0.11226230907E+04  0.17200000000E+03 0.  1.
</event>
<event>
 4    1  0.1241325E+000  0.1895269E+03  0.7818608E-02  0.1158889E+00
         21   -1    0    0  503  502  0.00000000000E+00  0.00000000000E+00  0.17614879327E+03  0.17614879327E+03  0.00000000000E+00 0.  1.
         21   -1    0    0  501  503 -0.00000000000E+00 -0.00000000000E+00 -0.20659681296E+03  0.20659681296E+03  0.00000000000E+00 0. -1.
          6    1    1    2  501    0  0.60014747432E+02 -0.52294179621E+02 -0.37003126916E+02  0.19310536640E+03  0.17200000000E+03 0. -1.
         -6    1    1    2    0  502 -0.60014747432E+02  0.52294179621E+02  0.65551072192E+01  0.18964023983E+03  0.17200000000E+03 0.  1.
</event>
<event>
 4    1  0.1241325E+000  0.2559342E+03  0.7818608E-02  0.1109611E+00
         21   -1    0    0  501  502  0.00000000000E+00  0.00000000000E+00  0.12632073498E+03  0.12632073498E+03  0.00000000000E+00 0.  1.
         21   -1    0    0  502  503 -0.00000000000E+00 -0.00000000000E+00 -0.94121537189E+03  0.94121537189E+03  0.00000000000E+00 0.  1.
          6    1    1    2  501    0 -0.36410141092E+02  0.18599093860E+03 -0.49753322623E+02  0.26072537415E+03  0.17200000000E+03 0.  1.
         -6    1    1    2    0  503  0.36410141092E+02 -0.18599093860E+03 -0.76514131428E+03  0.80681073272E+03  0.17200000000E+03 0.  1.
</event>
<event>
 4    1  0.1241325E+000  0.2540277E+03  0.7818608E-02  0.1110786E+00
         21   -1    0    0  501  502  0.00000000000E+00  0.00000000000E+00  0.86295156285E+03  0.86295156285E+03  0.00000000000E+00 0. -1.
         21   -1    0    0  502  503 -0.00000000000E+00 -0.00000000000E+00 -0.13329149749E+03  0.13329149749E+03  0.00000000000E+00 0.  1.
          6    1    1    2  501    0  0.16711823097E+03  0.83770942274E+02  0.69486572226E+03  0.73984352796E+03  0.17200000000E+03 0.  1.
         -6    1    1    2    0  503 -0.16711823097E+03 -0.83770942274E+02  0.34794343098E+02  0.25639953238E+03  0.17200000000E+03 0.  1.
</event>
<event>
 4    1  0.1241325E+000  0.1875026E+03  0.7818608E-02  0.1160733E+00
         21   -1    0    0  501  502  0.00000000000E+00  0.00000000000E+00  0.63283175024E+02  0.63283175024E+02  0.00000000000E+00 0. -1.
         21   -1    0    0  502  503 -0.00000000000E+00 -0.00000000000E+00 -0.58371749087E+03  0.58371749087E+03  0.00000000000E+00 0. -1.
          6    1    1    2  501    0  0.71757644746E+02 -0.20592606285E+02 -0.18915844248E+03  0.26634213218E+03  0.17200000000E+03 0.  1.
         -6    1    1    2    0  503 -0.71757644746E+02  0.20592606285E+02 -0.33127587337E+03  0.38065853371E+03  0.17200000000E+03 0.  1.
</event>
<event>
 4    1  0.1241325E+000  0.2576843E+03  0.7818608E-02  0.1108543E+00
         21   -1    0    0  503  502  0.00000000000E+00  0.00000000000E+00  0.11021179924E+04  0.11021179924E+04  0.00000000000E+00 0.  1.
         21   -1    0    0  501  503 -0.00000000000E+00 -0.00000000000E+00 -0.89295174373E+02  0.89295174373E+02  0.00000000000E+00 0. -1.
          6    1    1    2  501    0  0.16514089481E+03  0.97701969378E+02  0.16665705969E+03  0.30688070240E+03  0.17200000000E+03 0. -1.
         -6    1    1    2    0  502 -0.16514089481E+03 -0.97701969378E+02  0.84616575836E+03  0.88453246440E+03  0.17200000000E+03 0.  1.
</event>
<event>
 4    1  0.1241325E+000  0.1780325E+03  0.7818608E-02  0.1169721E+00
         21   -1    0    0  501  502  0.00000000000E+00  0.00000000000E+00  0.19360771480E+03  0.19360771480E+03  0.00000000000E+00 0.  1.
         21   -1    0    0  502  503 -0.00000000000E+00 -0.00000000000E+00 -0.25792662966E+03  0.25792662966E+03  0.00000000000E+00 0.  1.
          6    1    1    2  501    0  0.36716531963E+02 -0.27630836147E+02  0.10429128864E+03  0.20633041393E+03  0.17200000000E+03 0.  1.
         -6    1    1    2    0  503 -0.36716531963E+02  0.27630836147E+02 -0.16861020350E+03  0.24520393053E+03  0.17200000000E+03 0.  1.
</event>
<event>
 4    1  0.1241325E+000  0.2982428E+03  0.7818608E-02  0.1086122E+00
         21   -1    0    0  503  502  0.00000000000E+00  0.00000000000E+00  0.10505907826E+04  0.10505907826E+04  0.00000000000E+00 0. -1.
         21   -1    0    0  501  503 -0.00000000000E+00 -0.00000000000E+00 -0.84921731832E+02  0.84921731832E+02  0.00000000000E+00 0.  1.
          6    1    1    2  501    0 -0.16002243320E+03  0.18373234297E+03  0.45164548151E+03  0.54123229204E+03  0.17200000000E+03 0. -1.
         -6    1    1    2    0  502  0.16002243320E+03 -0.18373234297E+03  0.51402356928E+03  0.59428022242E+03  0.17200000000E+03 0. -1.
</event>
<event>
 4    1  0.1241325E+000  0.2019014E+03  0.7818608E-02  0.1148145E+00
         21   -1    0    0  501  502  0.00000000000E+00  0.00000000000E+00  0.16270233336E+03  0.16270233336E+03  0.00000000000E+00 0. -1.
         21   -1    0    0  502  503 -0.00000000000E+00 -0.00000000000E+00 -0.25092611794E+03  0.25092611794E+03  0.00000000000E+00 0. -1.
          6    1    1    2  501    0 -0.10570312178E+03 -0.26487415395E+01 -0.36045984575E+02  0.20509382924E+03  0.17200000000E+03 0.  1.
         -6    1    1    2    0  503  0.10570312178E+03  0.26487415395E+01 -0.52177799997E+02  0.20853462206E+03  0.17200000000E+03 0.  1.
</event>
<event>
 4    1  0.1241325E+000  0.2030223E+03  0.7818608E-02  0.1147214E+00
         21   -1    0    0  503  502  0.00000000000E+00  0.00000000000E+00  0.15492453771E+03  0.15492453771E+03  0.00000000000E+00 0. -1.
         21   -1    0    0  501  503 -0.00000000000E+00 -0.00000000000E+00 -0.57122099942E+03  0.57122099942E+03  0.00000000000E+00 0.  1.
          6    1    1    2  501    0 -0.51803950092E+02 -0.94606506600E+02 -0.47352416658E+03  0.51521177847E+03  0.17200000000E+03 0.  1.
         -6    1    1    2    0  502  0.51803950092E+02  0.94606506600E+02  0.57227704867E+02  0.21093375866E+03  0.17200000000E+03 0. -1.
</event>
<event>
 4    1  0.1241325E+000  0.1877894E+03  0.7818608E-02  0.1160470E+00
         21   -1    0    0  501  502  0.00000000000E+00  0.00000000000E+00  0.10761421563E+03  0.10761421563E+03  0.00000000000E+00 0. -1.
         21   -1    0    0  502  503 -0.00000000000E+00 -0.00000000000E+00 -0.33709926874E+03  0.33709926874E+03  0.00000000000E+00 0. -1.
          6    1    1    2  501    0  0.50726825483E+01  0.75200566669E+02 -0.77607190467E+02  0.20319383196E+03  0.17200000000E+03 0. -1.
         -6    1    1    2    0  503 -0.50726825483E+01 -0.75200566669E+02 -0.15187786265E+03  0.24151965241E+03  0.17200000000E+03 0. -1.
</event>
<event>
 4    1  0.1241325E+000  0.2123308E+03  0.7818608E-02  0.1139733E+00
         21   -1    0    0  503  502  0.00000000000E+00  0.00000000000E+00  0.13429840906E+03  0.13429840906E+03  0.00000000000E+00 0. -1.
         21   -1    0    0  501  503 -0.00000000000E+00 -0.00000000000E+00 -0.88019758246E+03  0.88019758246E+03  0.00000000000E+00 0. -1.
          6    1    1    2  501    0  0.45258137481E+02 -0.11598300863E+03 -0.77190751447E+03  0.80057827112E+03  0.17200000000E+03 0. -1.
         -6    1    1    2    0  502 -0.45258137481E+02  0.11598300863E+03  0.26008341064E+02  0.21391772041E+03  0.17200000000E+03 0. -1.
</event>
<event>
 4    1  0.1241325E+000  0.1936438E+03  0.7818608E-02  0.1155215E+00
         21   -1    0    0  501  502  0.00000000000E+00  0.00000000000E+00  0.16755447487E+02  0.16755447487E+02  0.00000000000E+00 0. -1.
         21   -1    0    0  502  503 -0.00000000000E+00 -0.00000000000E+00 -0.23595543760E+04  0.23595543760E+04  0.00000000000E+00 0. -1.
          6    1    1    2  501    0 -0.14150766757E+02 -0.87827647136E+02 -0.90167303777E+03  0.92223218705E+03  0.17200000000E+03 0. -1.
         -6    1    1    2    0  503  0.14150766757E+02  0.87827647136E+02 -0.14411258908E+04  0.14540776365E+04  0.17200000000E+03 0. -1.
</event>
<event>
 4    1  0.1241325E+000  0.1927147E+03  0.7818608E-02  0.1156035E+00
         21   -1    0    0  503  502  0.00000000000E+00  0.00000000000E+00  0.37980227810E+03  0.37980227810E+03  0.00000000000E+00 0.  1.
         21   -1    0    0  501  503 -0.00000000000E+00 -0.00000000000E+00 -0.12474052881E+03  0.12474052881E+03  0.00000000000E+00 0.  1.
          6    1    1    2  501    0  0.75146525098E+02  0.43680337129E+02  0.10260577147E+02  0.19298769787E+03  0.17200000000E+03 0.  1.
         -6    1    1    2    0  502 -0.75146525098E+02 -0.43680337129E+02  0.24480117214E+03  0.31155510904E+03  0.17200000000E+03 0.  1.
</event>
<event>
 4    1  0.1241325E+000  0.1751928E+03  0.7818608E-02  0.1172538E+00
         21   -1    0    0  503  502  0.00000000000E+00  0.00000000000E+00  0.72377526616E+03  0.72377526616E+03  0.00000000000E+00 0.  1.
         21   -1    0    0  501  503 -0.00000000000E+00 -0.00000000000E+00 -0.43292724877E+02  0.43292724877E+02  0.00000000000E+00 0.  1.
          6    1    1    2  501    0  0.24706276471E+02  0.22318682940E+02  0.28535626572E+03  0.33484432516E+03  0.17200000000E+03 0.  1.
         -6    1    1    2    0  502 -0.24706276471E+02 -0.22318682940E+02  0.39512627557E+03  0.43222366588E+03  0.17200000000E+03 0.  1.
</event>
<event>
 4    1  0.1241325E+000  0.2588794E+03  0.7818608E-02  0.1107818E+00
         21   -1    0    0  503  502  0.00000000000E+00  0.00000000000E+00  0.46381869191E+03  0.46381869191E+03  0.00000000000E+00 0. -1.
         21   -1    0    0  501  503 -0.00000000000E+00 -0.00000000000E+00 -0.14873334290E+03  0.14873334290E+03  0.00000000000E+00 0. -1.
          6    1    1    2  501    0 -0.18946474879E+03  0.39213169280E+02  0.20925669100E+03  0.33287674356E+03  0.17200000000E+03 0. -1.
         -6    1    1    2    0  502  0.18946474879E+03 -0.39213169280E+02  0.10582865801E+03  0.27967529125E+03  0.17200000000E+03 0. -1.
</event>
<event>
 4    1  0.1241325E+000  0.2402543E+03  0.7818608E-02  0.1119624E+00
         21   -1    0    0  501  502  0.00000000000E+00  0.00000000000E+00  0.67841484899E+02  0.67841484899E+02  0.00000000000E+00 0. -1.
         21   -1    0    0  502  503 -0.00000000000E+00 -0.00000000000E+00 -0.92312948870E+03  0.92312948870E+03  0.00000000000E+00 0.  1.
          6    1    1    2  501    0  0.65592368948E+02  0.15438838463E+03 -0.56630118589E+03  0.61515783773E+03  0.17200000000E+03 0. -1.
         -6    1    1    2    0  503 -0.65592368948E+02 -0.15438838463E+03 -0.28898681791E+03  0.37581313588E+03  0.17200000000E+03 0. -1.
</event>
<event>
 4    1  0.1241325E+000  0.2873563E+03  0.7818608E-02  0.1091738E+00
         21   -1    0    0  503  502  0.00000000000E+00  0.00000000000E+00  0.65668869698E+03  0.65668869698E+03  0.00000000000E+00 0.  1.
         21   -1    0    0  501  503 -0.00000000000E+00 -0.00000000000E+00 -0.25971527471E+03  0.25971527471E+03  0.00000000000E+00 0. -1.
          6    1    1    2  501    0  0.23008899021E+03 -0.69796137154E+01 -0.13060469879E+03  0.31564417588E+03  0.17200000000E+03 0. -1.
         -6    1    1    2    0  502 -0.23008899021E+03  0.69796137154E+01  0.52757812107E+03  0.60075979580E+03  0.17200000000E+03 0.  1.
</event>
<event>
 4    1  0.1241325E+000  0.2249950E+03  0.7818608E-02  0.1130213E+00
         21   -1    0    0  503  502  0.00000000000E+00  0.00000000000E+00  0.25224711243E+03  0.25224711243E+03  0.00000000000E+00 0.  1.
         21   -1    0    0  501  503 -0.00000000000E+00 -0.00000000000E+00 -0.20334475254E+03  0.20334475254E+03  0.00000000000E+00 0.  1.
          6    1    1    2  501    0 -0.13967943258E+03  0.39094989738E+02 -0.15906739609E+01  0.22500064967E+03  0.17200000000E+03 0. -1.
         -6    1    1    2    0  502  0.13967943258E+03 -0.39094989738E+02  0.50493033850E+02  0.23059121530E+03  0.17200000000E+03 0. -1.
</event>
<event>
 4    1  0.1241325E+000  0.2167288E+03  0.7818608E-02  0.1136346E+00
         21   -1    0    0  503  502  0.00000000000E+00  0.00000000000E+00  0.18285937177E+03  0.18285937177E+03  0.00000000000E+00 0.  1.
         21   -1    0    0  501  503 -0.00000000000E+00 -0.00000000000E+00 -0.33884210908E+03  0.33884210908E+03  0.00000000000E+00 0. -1.
          6    1    1    2  501    0  0.13185323747E+03  0.14465184179E+01 -0.20629009870E+03  0.29921058382E+03  0.17200000000E+03 0. -1.
         -6    1    1    2    0  502 -0.13185323747E+03 -0.14465184179E+01  0.50307361389E+02  0.22249089702E+03  0.17200000000E+03 0.  1.
</event>
<event>
 4    1  0.1241325E+000  0.1902217E+03  0.7818608E-02  0.1158262E+00
         21   -1    0    0  501  502  0.00000000000E+00  0.00000000000E+00  0.20099396964E+03  0.20099396964E+03  0.00000000000E+00 0.  1.
         21   -1    0    0  502  503 -0.00000000000E+00 -0.00000000000E+00 -0.23161226756E+03  0.23161226756E+03  0.00000000000E+00 0. -1.
          6    1    1    2  501    0 -0.97817768158E+01 -0.80651185736E+02 -0.11739035128E+03  0.22352805527E+03  0.17200000000E+03 0. -1.
         -6    1    1    2    0  503  0.97817768158E+01  0.80651185736E+02  0.86772053362E+02  0.20907818194E+03  0.17200000000E+03 0. -1.
</event>
<event>
 4    1  0.1241325E+000  0.1720087E+03  0.7818608E-02  0.1175769E+00
         21   -1    0    0  503  502  0.00000000000E+00  0.00000000000E+00  0.50877972824E+02  0.50877972824E+02  0.00000000000E+00 0. -1.
         21   -1    0    0  501  503 -0.00000000000E+00 -0.00000000000E+00 -0.17395616193E+04  0.17395616193E+04  0.00000000000E+00 0. -1.
          6    1    1    2  501    0 -0.11101850052E+01 -0.13318421832E+01 -0.15747576974E+04  0.15841239887E+04  0.17200000000E+03 0. -1.
         -6    1    1    2    0  502  0.11101850052E+01  0.13318421832E+01 -0.11392594910E+03  0.20631560337E+03  0.17200000000E+03 0. -1.
</event>
<event>
 4    1  0.1241325E+000  0.1765666E+03  0.7818608E-02  0.1171168E+00
         21   -1    0    0  501  502  0.00000000000E+00  0.00000000000E+00  0.32342410625E+03  0.32342410625E+03  0.00000000000E+00 0. -1.
         21   -1    0    0  502  503 -0.00000000000E+00 -0.00000000000E+00 -0.97015247042E+02  0.97015247042E+02  0.00000000000E+00 0. -1.
          6    1    1    2  501    0  0.18498662902E+02  0.35349171087E+02  0.13004258864E+03  0.21928711609E+03  0.17200000000E+03 0. -1.
         -6    1    1    2    0  503 -0.18498662902E+02 -0.35349171087E+02  0.96366270570E+02  0.20115223720E+03  0.17200000000E+03 0. -1.
</event>
<event>
 4    1  0.1241325E+000  0.2266620E+03  0.7818608E-02  0.1129011E+00
         21   -1    0    0  501  502  0.00000000000E+00  0.00000000000E+00  0.17739669891E+03  0.17739669891E+03  0.00000000000E+00 0. -1.
         21   -1    0    0  502  503 -0.00000000000E+00 -0.00000000000E+00 -0.60205451840E+03  0.60205451840E+03  0.00000000000E+00 0.  1.
          6    1    1    2  501    0  0.77110808768E+02 -0.12587932759E+03  0.68426529210E+02  0.23676543634E+03  0.17200000000E+03 0. -1.
         -6    1    1    2    0  503 -0.77110808768E+02  0.12587932759E+03 -0.49308434870E+03  0.54268578098E+03  0.17200000000E+03 0.  1.
</event>
<event>
 4    1  0.1241325E+000  0.1890191E+03  0.7818608E-02  0.1159349E+00
         21   -1    0    0  501  502  0.00000000000E+00  0.00000000000E+00  0.34736922013E+03  0.34736922013E+03  0.00000000000E+00 0.  1.
         21   -1    0    0  502  503 -0.00000000000E+00 -0.00000000000E+00 -0.15161615063E+03  0.15161615063E+03  0.00000000000E+00 0. -1.
          6    1    1    2  501    0 -0.45957806662E+02 -0.63498678911E+02  0.23936724946E+03  0.30499980710E+03  0.17200000000E+03 0.  1.
         -6    1    1    2    0  503  0.45957806662E+02  0.63498678911E+02 -0.43614179949E+02  0.19398556366E+03  0.17200000000E+03 0. -1.
</event>
<event>
 4    1  0.1241325E+000  0.1896351E+03  0.7818608E-02  0.1158791E+00
         21   -1    0    0  503  502  0.00000000000E+00  0.00000000000E+00  0.12043453606E+03  0.12043453606E+03  0.00000000000E+00 0.  1.
         21   -1    0    0  501  503 -0.00000000000E+00 -0.00000000000E+00 -0.32248304793E+03  0.32248304793E+03  0.00000000000E+00 0.  1.
          6    1    1    2  501    0 -0.15924060302E+02 -0.78255314750E+02 -0.16129487907E+03  0.24895282284E+03  0.17200000000E+03 0.  1.
         -6    1    1    2    0  502  0.15924060302E+02  0.78255314750E+02 -0.40753632803E+02  0.19396476115E+03  0.17200000000E+03 0.  1.
</event>
<event>
 4    1  0.1241325E+000  0.3124601E+03  0.7818608E-02  0.1079173E+00
         21   -1    0    0  503  502  0.00000000000E+00  0.00000000000E+00  0.82401232678E+02  0.82401232678E+02  0.00000000000E+00 0.  1.
         21   -1    0    0  501  503 -0.00000000000E+00 -0.00000000000E+00 -0.17908778527E+04  0.17908778527E+04  0.00000000000E+00 0. -1.
          6    1    1    2  501    0 -0.63370320758E+02  0.25304455280E+03 -0.30936762923E+03  0.43970407466E+03  0.17200000000E+03 0.  1.
         -6    1    1    2    0  502  0.63370320758E+02 -0.25304455280E+03 -0.13991089907E+04  0.14335750107E+04  0.17200000000E+03 0. -1.
</event>
<event>
 4    1  0.1241325E+000  0.1786504E+03  0.7818608E-02  0.1169116E+00
         21   -1    0    0  501  502  0.00000000000E+00  0.00000000000E+00  0.13254724174E+04  0.13254724174E+04  0.00000000000E+00 0.  1.
         21   -1    0    0  502  503 -0.00000000000E+00 -0.00000000000E+00 -0.24563257563E+02  0.24563257563E+02  0.00000000000E+00 0.  1.
          6    1    1    2  501    0  0.47305925741E+02  0.97018517271E+01  0.55567049090E+03  0.58368285138E+03  0.17200000000E+03 0. -1.
         -6    1    1    2    0  503 -0.47305925741E+02 -0.97018517271E+01  0.74523866893E+03  0.76635282358E+03  0.17200000000E+03 0. -1.
</event>
<event>
 4    1  0.1241325E+000  0.2035348E+03  0.7818608E-02  0.1146790E+00
         21   -1    0    0  503  502  0.00000000000E+00  0.00000000000E+00  0.10478231719E+03  0.10478231719E+03  0.00000000000E+00 0.  1.
         21   -1    0    0  501  503 -0.00000000000E+00 -0.00000000000E+00 -0.40051144004E+03  0.40051144004E+03  0.00000000000E+00 0.  1.
          6    1    1    2  501    0 -0.32461084369E+02 -0.10386868622E+03 -0.17652585940E+03  0.26942124084E+03  0.17200000000E+03 0.  1.
         -6    1    1    2    0  502  0.32461084369E+02  0.10386868622E+03 -0.11920326345E+03  0.23587251640E+03  0.17200000000E+03 0.  1.
</event>
<event>
 4    1  0.1241325E+000  0.1865102E+03  0.7818608E-02  0.1161647E+00
         21   -1    0    0  503  502  0.00000000000E+00  0.00000000000E+00  0.73934066036E+03  0.73934066036E+03  0.00000000000E+00 0.  1.
         21   -1    0    0  501  503 -0.00000000000E+00 -0.00000000000E+00 -0.57566059303E+02  0.57566059303E+02  0.00000000000E+00 0.  1.
          6    1    1    2  501    0 -0.67508938690E+02  0.25388864572E+02  0.17058570676E+03  0.25275587945E+03  0.17200000000E+03 0. -1.
         -6    1    1    2    0  502  0.67508938690E+02 -0.25388864572E+02  0.51118889430E+03  0.54415084022E+03  0.17200000000E+03 0. -1.
</event>
<event>
 4    1  0.1241325E+000  0.2221531E+03  0.7818608E-02  0.1132288E+00
         21   -1    0    0  503  502  0.00000000000E+00  0.00000000000E+00  0.22602087121E+02  0.22602087121E+02  0.00000000000E+00 0.  1.
         21   -1    0    0  501  503 -0.00000000000E+00 -0.00000000000E+00 -0.22042245519E+04  0.22042245519E+04  0.00000000000E+00 0.  1.
          6    1    1    2  501    0 -0.11427589896E+03  0.81908683085E+02 -0.11987322104E+04  0.12191435214E+04  0.17200000000E+03 0.  1.
         -6    1    1    2    0  502  0.11427589896E+03 -0.81908683085E+02 -0.98289025440E+03  0.10076831177E+04  0.17200000000E+03 0.  1.
</event>
<event>
 4    1  0.1241325E+000  0.1764344E+03  0.7818608E-02  0.1171299E+00
         21   -1    0    0  503  502  0.00000000000E+00  0.00000000000E+00  0.26142572114E+04  0.26142572114E+04  0.00000000000E+00 0.  1.
         21   -1    0    0  501  503 -0.00000000000E+00 -0.00000000000E+00 -0.11908580109E+02  0.11908580109E+02  0.00000000000E+00 0.  1.
          6    1    1    2  501    0  0.38666110286E+02  0.70720671886E+01  0.13140839530E+04  0.13258754533E+04  0.17200000000E+03 0.  1.
         -6    1    1    2    0  502 -0.38666110286E+02 -0.70720671886E+01  0.12882646783E+04  0.13002903382E+04  0.17200000000E+03 0.  1.
</event>
<event>
 4    1  0.1241325E+000  0.1748810E+03  0.7818608E-02  0.1172851E+00
         21   -1    0    0  503  502  0.00000000000E+00  0.00000000000E+00  0.20536691172E+03  0.20536691172E+03  0.00000000000E+00 0. -1.
         21   -1    0    0  501  503 -0.00000000000E+00 -0.00000000000E+00 -0.28772613595E+03  0.28772613595E+03  0.00000000000E+00 0. -1.
          6    1    1    2  501    0  0.25864250525E+02 -0.18177424143E+02 -0.21242248697E+03  0.27514848932E+03  0.17200000000E+03 0.  1.
         -6    1    1    2    0  502 -0.25864250525E+02  0.18177424143E+02  0.13006326273E+03  0.21794455835E+03  0.17200000000E+03 0.  1.
</event>
<event>
 4    1  0.1241325E+000  0.1919440E+03  0.7818608E-02  0.1156720E+00
         21   -1    0    0  501  502  0.00000000000E+00  0.00000000000E+00  0.11988904691E+03  0.11988904691E+03  0.00000000000E+00 0.  1.
         21   -1    0    0  502  503 -0.00000000000E+00 -0.00000000000E+00 -0.60841542837E+03  0.60841542837E+03  0.00000000000E+00 0.  1.
          6    1    1    2  501    0  0.38039160991E+02 -0.76233290704E+02  0.11917173817E+02  0.19231357574E+03  0.17200000000E+03 0.  1.
         -6    1    1    2    0  503 -0.38039160991E+02  0.76233290704E+02 -0.50044355528E+03  0.53599089955E+03  0.17200000000E+03 0.  1.
</event>
<event>
 4    1  0.1241325E+000  0.2228237E+03  0.7818608E-02  0.1131795E+00
         21   -1    0    0  503  502  0.00000000000E+00  0.00000000000E+00  0.70324541275E+03  0.70324541275E+03  0.00000000000E+00 0.  1.
         21   -1    0    0  501  503 -0.00000000000E+00 -0.00000000000E+00 -0.72089302408E+02  0.72089302408E+02  0.00000000000E+00 0. -1.
          6    1    1    2  501    0 -0.13684449215E+03 -0.36605740359E+02  0.25989129125E+03  0.34233591475E+03  0.17200000000E+03 0. -1.
         -6    1    1    2    0  502  0.13684449215E+03  0.36605740359E+02  0.37126481909E+03  0.43299880041E+03  0.17200000000E+03 0.  1.
</event>
<event>
 4    1  0.1241325E+000  0.1978989E+03  0.7818608E-02  0.1151524E+00
         21   -1    0    0  503  502  0.00000000000E+00  0.00000000000E+00  0.43336732452E+03  0.43336732452E+03  0.00000000000E+00 0. -1.
         21   -1    0    0  501  503 -0.00000000000E+00 -0.00000000000E+00 -0.91541146891E+02  0.91541146891E+02  0.00000000000E+00 0. -1.
          6    1    1    2  501    0  0.93363995715E+02  0.29378935403E+02  0.20058288859E+03  0.28177553608E+03  0.17200000000E+03 0. -1.
         -6    1    1    2    0  502 -0.93363995715E+02 -0.29378935403E+02  0.14124328904E+03  0.24313293533E+03  0.17200000000E+03 0. -1.
</event>
<event>
 4    1  0.1241325E+000  0.2370352E+03  0.7818608E-02  0.1121784E+00
         21   -1    0    0  503  502  0.00000000000E+00  0.00000000000E+00  0.36947374536E+02  0.36947374536E+02  0.00000000000E+00 0.  1.
         21   -1    0    0  501  503 -0.00000000000E+00 -0.00000000000E+00 -0.15913656444E+04  0.15913656444E+04  0.00000000000E+00 0.  1.
          6    1    1    2  501    0 -0.77637186317E+02 -0.14343689978E+03 -0.94877991833E+03  0.97794121006E+03  0.17200000000E+03 0.  1.
         -6    1    1    2    0  502  0.77637186317E+02  0.14343689978E+03 -0.60563835149E+03  0.65037180882E+03  0.17200000000E+03 0.  1.
</event>
<event>
 4    1  0.1241325E+000  0.1832467E+03  0.7818608E-02  0.1164697E+00
         21   -1    0    0  503  502  0.00000000000E+00  0.00000000000E+00  0.57968608237E+02  0.57968608237E+02  0.00000000000E+00 0.  1.
         21   -1    0    0  501  503 -0.00000000000E+00 -0.00000000000E+00 -0.78099738719E+03  0.78099738719E+03  0.00000000000E+00 0.  1.
          6    1    1    2  501    0  0.60882159716E+02  0.16991956896E+02 -0.57470794805E+03  0.60321520996E+03  0.17200000000E+03 0. -1.
         -6    1    1    2    0  502 -0.60882159716E+02 -0.16991956896E+02 -0.14832083091E+03  0.23575078548E+03  0.17200000000E+03 0. -1.
</event>
<event>
 4    1  0.1241325E+000  0.1813806E+03  0.7818608E-02  0.1166474E+00
         21   -1    0    0  501  502  0.00000000000E+00  0.00000000000E+00  0.14603734467E+03  0.14603734467E+03  0.00000000000E+00 0.  1.
         21   -1    0    0  502  503 -0.00000000000E+00 -0.00000000000E+00 -0.48178748201E+03  0.48178748201E+03  0.00000000000E+00 0.  1.
          6    1    1    2  501    0 -0.21871083626E+02 -0.53259625869E+02  0.61176275645E+02  0.19141961433E+03  0.17200000000E+03 0.  1.
         -6    1    1    2    0  503  0.21871083626E+02  0.53259625869E+02 -0.39692641299E+03  0.43640521236E+03  0.17200000000E+03 0.  1.
</event>
<event>
 4    1  0.1241325E+000  0.2096896E+03  0.7818608E-02  0.1141812E+00
         21   -1    0    0  501  502  0.00000000000E+00  0.00000000000E+00  0.24517857073E+03  0.24517857073E+03  0.00000000000E+00 0. -1.
         21   -1    0    0  502  503 -0.00000000000E+00 -0.00000000000E+00 -0.22742971698E+03  0.22742971698E+03  0.00000000000E+00 0. -1.
          6    1    1    2  501    0  0.10279865990E+03 -0.61791184750E+02  0.11753827348E+03  0.24038502599E+03  0.17200000000E+03 0. -1.
         -6    1    1    2    0  503 -0.10279865990E+03  0.61791184750E+02 -0.99789419726E+02  0.23222326171E+03  0.17200000000E+03 0. -1.
</event>
<event>
 4    1  0.1241325E+000  0.1845036E+03  0.7818608E-02  0.1163514E+00
         21   -1    0    0  501  502  0.00000000000E+00  0.00000000000E+00  0.55663752962E+02  0.55663752962E+02  0.00000000000E+00 0. -1.
         21   -1    0    0  502  503 -0.00000000000E+00 -0.00000000000E+00 -0.13518984143E+04  0.13518984143E+04  0.00000000000E+00 0. -1.
          6    1    1    2  501    0  0.15809796916E+02  0.64866345629E+02 -0.12730483021E+03  0.22416090709E+03  0.17200000000E+03 0. -1.
         -6    1    1    2    0  503 -0.15809796916E+02 -0.64866345629E+02 -0.11689298312E+04  0.11834012602E+04  0.17200000000E+03 0. -1.
</event>
<event>
 4    1  0.1241325E+000  0.2026420E+03  0.7818608E-02  0.1147529E+00
         21   -1    0    0  501  502  0.00000000000E+00  0.00000000000E+00  0.23352341170E+02  0.23352341170E+02  0.00000000000E+00 0. -1.
         21   -1    0    0  502  503 -0.00000000000E+00 -0.00000000000E+00 -0.19696730865E+04  0.19696730865E+04  0.00000000000E+00 0. -1.
          6    1    1    2  501    0  0.92210457806E+02  0.54561889584E+02 -0.64682561805E+03  0.67782530824E+03  0.17200000000E+03 0. -1.
         -6    1    1    2    0  503 -0.92210457806E+02 -0.54561889584E+02 -0.12994951272E+04  0.13152001194E+04  0.17200000000E+03 0. -1.
</event>
<event>
 4    1  0.1241325E+000  0.2011311E+03  0.7818608E-02  0.1148788E+00
         21   -1    0    0  501  502  0.00000000000E+00  0.00000000000E+00  0.22473259416E+03  0.22473259416E+03  0.00000000000E+00 0. -1.
         21   -1    0    0  502  503 -0.00000000000E+00 -0.00000000000E+00 -0.22757366348E+03  0.22757366348E+03  0.00000000000E+00 0. -1.
          6    1    1    2  501    0 -0.10077804739E+03 -0.26711822465E+02  0.10197146323E+03  0.22550369311E+03  0.17200000000E+03 0. -1.
         -6    1    1    2    0  503  0.10077804739E+03  0.26711822465E+02 -0.10481253255E+03  0.22680256452E+03  0.17200000000E+03 0. -1.
</event>
<event>
 4    1  0.1241325E+000  0.2949380E+03  0.7818608E-02  0.1087799E+00
         21   -1    0    0  501  502  0.00000000000E+00  0.00000000000E+00  0.83313939898E+02  0.83313939898E+02  0.00000000000E+00 0. -1.
         21   -1    0    0  502  503 -0.00000000000E+00 -0.00000000000E+00 -0.12562061547E+04  0.12562061547E+04  0.00000000000E+00 0. -1.
          6    1    1    2  501    0 -0.16761756128E+03  0.17119812947E+03 -0.31123816133E+03  0.42878623982E+03  0.17200000000E+03 0. -1.
         -6    1    1    2    0  503  0.16761756128E+03 -0.17119812947E+03 -0.86165405347E+03  0.91073385478E+03  0.17200000000E+03 0. -1.
</event>
<event>
 4    1  0.1241325E+000  0.2562771E+03  0.7818608E-02  0.1109401E+00
         21   -1    0    0  501  502  0.00000000000E+00  0.00000000000E+00  0.20741015668E+03  0.20741015668E+03  0.00000000000E+00 0. -1.
         21   -1    0    0  502  503 -0.00000000000E+00 -0.00000000000E+00 -0.61821918740E+03  0.61821918740E+03  0.00000000000E+00 0.  1.
          6    1    1    2  501    0  0.16371750692E+03  0.96387318585E+02 -0.49372275722E+03  0.55627340244E+03  0.17200000000E+03 0.  1.
         -6    1    1    2    0  503 -0.16371750692E+03 -0.96387318585E+02  0.82913726504E+02  0.26935594164E+03  0.17200000000E+03 0. -1.
</event>
<event>
 4    1  0.1241325E+000  0.2246479E+03  0.7818608E-02  0.1130465E+00
         21   -1    0    0  501  502  0.00000000000E+00  0.00000000000E+00  0.12032766704E+03  0.12032766704E+03  0.00000000000E+00 0. -1.
         21   -1    0    0  502  503 -0.00000000000E+00 -0.00000000000E+00 -0.93442612995E+03  0.93442612995E+03  0.00000000000E+00 0.  1.
          6    1    1    2  501    0 -0.13299235287E+03  0.56530480319E+02 -0.15524761798E+02  0.22518365695E+03  0.17200000000E+03 0. -1.
         -6    1    1    2    0  503  0.13299235287E+03 -0.56530480319E+02 -0.79857370111E+03  0.82957014004E+03  0.17200000000E+03 0.  1.
</event>
<event>
 4    1  0.1241325E+000  0.2996893E+03  0.7818608E-02  0.1085396E+00
         21   -1    0    0  503  502  0.00000000000E+00  0.00000000000E+00  0.13160321516E+03  0.13160321516E+03  0.00000000000E+00 0. -1.
         21   -1    0    0  501  503 -0.00000000000E+00 -0.00000000000E+00 -0.10882871070E+04  0.10882871070E+04  0.00000000000E+00 0.  1.
          6    1    1    2  501    0 -0.73378685034E+02  0.23419060701E+03 -0.85081136778E+03  0.90204969673E+03  0.17200000000E+03 0. -1.
         -6    1    1    2    0  502  0.73378685034E+02 -0.23419060701E+03 -0.10587252407E+03  0.31784062544E+03  0.17200000000E+03 0. -1.
</event>
<event>
 4    1  0.1241325E+000  0.2498281E+03  0.7818608E-02  0.1113414E+00
         21   -1    0    0  501  502  0.00000000000E+00  0.00000000000E+00  0.10521032054E+03  0.10521032054E+03  0.00000000000E+00 0. -1.
         21   -1    0    0  502  503 -0.00000000000E+00 -0.00000000000E+00 -0.11764522172E+04  0.11764522172E+04  0.00000000000E+00 0.  1.
          6    1    1    2  501    0 -0.24559744344E+02  0.17951845052E+03 -0.84416788911E+02  0.26370485276E+03  0.17200000000E+03 0. -1.
         -6    1    1    2    0  503  0.24559744344E+02 -0.17951845052E+03 -0.98682510778E+03  0.10179576850E+04  0.17200000000E+03 0.  1.
</event>
<event>
 4    1  0.1241325E+000  0.2452009E+03  0.7818608E-02  0.1116376E+00
         21   -1    0    0  501  502  0.00000000000E+00  0.00000000000E+00  0.38919026053E+02  0.38919026053E+02  0.00000000000E+00 0. -1.
         21   -1    0    0  502  503 -0.00000000000E+00 -0.00000000000E+00 -0.16960423045E+04  0.16960423045E+04  0.00000000000E+00 0.  1.
          6    1    1    2  501    0 -0.11731148690E+03 -0.12952794245E+03 -0.56954487239E+03  0.62008453819E+03  0.17200000000E+03 0. -1.
         -6    1    1    2    0  503  0.11731148690E+03  0.12952794245E+03 -0.10875784060E+04  0.11148767923E+04  0.17200000000E+03 0. -1.
</event>
<event>
 4    1  0.1241325E+000  0.1873804E+03  0.7818608E-02  0.1160845E+00
         21   -1    0    0  503  502  0.00000000000E+00  0.00000000000E+00  0.29536438567E+03  0.29536438567E+03  0.00000000000E+00 0.  1.
         21   -1    0    0  501  503 -0.00000000000E+00 -0.00000000000E+00 -0.13599664899E+03  0.13599664899E+03  0.00000000000E+00 0.  1.
          6    1    1    2  501    0  0.34313978151E+02 -0.65954255675E+02  0.31557865972E+01  0.18740696873E+03  0.17200000000E+03 0.  1.
         -6    1    1    2    0  502 -0.34313978151E+02  0.65954255675E+02  0.15621195008E+03  0.24395406593E+03  0.17200000000E+03 0.  1.
</event>
<event>
 4    1  0.1241325E+000  0.1748670E+03  0.7818608E-02  0.1172865E+00
         21   -1    0    0  503  502  0.00000000000E+00  0.00000000000E+00  0.26323210261E+04  0.26323210261E+04  0.00000000000E+00 0. -1.
         21   -1    0    0  501  503 -0.00000000000E+00 -0.00000000000E+00 -0.11990644735E+02  0.11990644735E+02  0.00000000000E+00 0. -1.
          6    1    1    2  501    0  0.21252998621E+02  0.23297742963E+02  0.10766284193E+04  0.10907370114E+04  0.17200000000E+03 0. -1.
         -6    1    1    2    0  502 -0.21252998621E+02 -0.23297742963E+02  0.15437019620E+04  0.15535746594E+04  0.17200000000E+03 0. -1.
</event>
<event>
 4    1  0.1241325E+000  0.2006535E+03  0.7818608E-02  0.1149189E+00
         21   -1    0    0  503  502  0.00000000000E+00  0.00000000000E+00  0.11434921494E+03  0.11434921494E+03  0.00000000000E+00 0.  1.
         21   -1    0    0  501  503 -0.00000000000E+00 -0.00000000000E+00 -0.42614049684E+03  0.42614049684E+03  0.00000000000E+00 0.  1.
          6    1    1    2  501    0  0.98990196872E+02 -0.29643971007E+02 -0.26854517564E+03  0.33522878077E+03  0.17200000000E+03 0.  1.
         -6    1    1    2    0  502 -0.98990196872E+02  0.29643971007E+02 -0.43246106266E+02  0.20526093101E+03  0.17200000000E+03 0.  1.
</event>
<event>
 4    1  0.1241325E+000  0.1888431E+03  0.7818608E-02  0.1159509E+00
         21   -1    0    0  501  502  0.00000000000E+00  0.00000000000E+00  0.22597937286E+03  0.22597937286E+03  0.00000000000E+00 0. -1.
         21   -1    0    0  502  503 -0.00000000000E+00 -0.00000000000E+00 -0.43032487869E+03  0.43032487869E+03  0.00000000000E+00 0. -1.
          6    1    1    2  501    0 -0.55036039163E+01  0.77765222139E+02  0.15896664892E+03  0.24684431308E+03  0.17200000000E+03 0. -1.
         -6    1    1    2    0  503  0.55036039163E+01 -0.77765222139E+02 -0.36331215474E+03  0.40945993847E+03  0.17200000000E+03 0. -1.
</event>
<event>
 4    1  0.1241325E+000  0.1920988E+03  0.7818608E-02  0.1156582E+00
         21   -1    0    0  501  502  0.00000000000E+00  0.00000000000E+00  0.73405292492E+03  0.73405292492E+03  0.00000000000E+00 0. -1.
         21   -1    0    0  502  503 -0.00000000000E+00 -0.00000000000E+00 -0.10998087208E+03  0.10998087208E+03  0.00000000000E+00 0. -1.
          6    1    1    2  501    0  0.33458475757E+01 -0.85479482198E+02  0.62298744247E+03  0.65193196735E+03  0.17200000000E+03 0. -1.
         -6    1    1    2    0  503 -0.33458475757E+01  0.85479482198E+02  0.10846103627E+01  0.19210182964E+03  0.17200000000E+03 0. -1.
</event>
<event>
 4    1  0.1241325E+000  0.2240199E+03  0.7818608E-02  0.1130921E+00
         21   -1    0    0  503  502  0.00000000000E+00  0.00000000000E+00  0.40574514924E+03  0.40574514924E+03  0.00000000000E+00 0.  1.
         21   -1    0    0  501  503 -0.00000000000E+00 -0.00000000000E+00 -0.12375027931E+03  0.12375027931E+03  0.00000000000E+00 0.  1.
          6    1    1    2  501    0  0.43361003700E+02 -0.13682372732E+03  0.14704117358E+03  0.26796644515E+03  0.17200000000E+03 0. -1.
         -6    1    1    2    0  502 -0.43361003700E+02  0.13682372732E+03  0.13495369634E+03  0.26152898340E+03  0.17200000000E+03 0. -1.
</event>
<event>
 4    1  0.1241325E+000  0.2042167E+03  0.7818608E-02  0.1146229E+00
         21   -1    0    0  503  502  0.00000000000E+00  0.00000000000E+00  0.27388500222E+03  0.27388500222E+03  0.00000000000E+00 0. -1.
         21   -1    0    0  501  503 -0.00000000000E+00 -0.00000000000E+00 -0.16701150853E+03  0.16701150853E+03  0.00000000000E+00 0. -1.
          6    1    1    2  501    0  0.25330858651E+02  0.10713926573E+03  0.11893114291E+03  0.23632412364E+03  0.17200000000E+03 0.  1.
         -6    1    1    2    0  502 -0.25330858651E+02 -0.10713926573E+03 -0.12057649223E+02  0.20457238711E+03  0.17200000000E+03 0.  1.
</event>
<event>
 4    1  0.1241325E+000  0.2464385E+03  0.7818608E-02  0.1115577E+00
         21   -1    0    0  501  502  0.00000000000E+00  0.00000000000E+00  0.63032933103E+03  0.63032933103E+03  0.00000000000E+00 0.  1.
         21   -1    0    0  502  503 -0.00000000000E+00 -0.00000000000E+00 -0.11350070815E+03  0.11350070815E+03  0.00000000000E+00 0. -1.
          6    1    1    2  501    0 -0.10202041571E+03 -0.14401308469E+03  0.40298872226E+03  0.47236833515E+03  0.17200000000E+03 0.  1.
         -6    1    1    2    0  503  0.10202041571E+03  0.14401308469E+03  0.11383990061E+03  0.27146170403E+03  0.17200000000E+03 0. -1.
</event>
<event>
 4    1  0.1241325E+000  0.1901976E+03  0.7818608E-02  0.1158283E+00
         21   -1    0    0  501  502  0.00000000000E+00  0.00000000000E+00  0.10696267730E+04  0.10696267730E+04  0.00000000000E+00 0. -1.
         21   -1    0    0  502  503 -0.00000000000E+00 -0.00000000000E+00 -0.36350843664E+02  0.36350843664E+02  0.00000000000E+00 0. -1.
          6    1    1    2  501    0 -0.70625262396E+02 -0.40039936411E+02  0.66254086961E+03  0.68930075301E+03  0.17200000000E+03 0.  1.
         -6    1    1    2    0  503  0.70625262396E+02  0.40039936411E+02  0.37073505974E+03  0.41667686367E+03  0.17200000000E+03 0.  1.
</event>
<event>
 4    1  0.1241325E+000  0.1907959E+03  0.7818608E-02  0.1157745E+00
         21   -1    0    0  501  502  0.00000000000E+00  0.00000000000E+00  0.33532771155E+03  0.33532771155E+03  0.00000000000E+00 0. -1.
         21   -1    0    0  502  503 -0.00000000000E+00 -0.00000000000E+00 -0.12183257689E+03  0.12183257689E+03  0.00000000000E+00 0. -1.
          6    1    1    2  501    0  0.80179655429E+02  0.19756232322E+02  0.18219402051E+03  0.26381384909E+03  0.17200000000E+03 0. -1.
         -6    1    1    2    0  503 -0.80179655429E+02 -0.19756232322E+02  0.31301114147E+02  0.19334643934E+03  0.17200000000E+03 0. -1.
</event>
<event>
 4    1  0.1241325E+000  0.1813146E+03  0.7818608E-02  0.1166537E+00
         21   -1    0    0  503  502  0.00000000000E+00  0.00000000000E+00  0.29978971420E+03  0.29978971420E+03  0.00000000000E+00 0. -1.
         21   -1    0    0  501  503 -0.00000000000E+00 -0.00000000000E+00 -0.17484596722E+03  0.17484596722E+03  0.00000000000E+00 0. -1.
          6    1    1    2  501    0 -0.23130911809E+02 -0.52497036108E+02 -0.82431739737E+02  0.19917321506E+03  0.17200000000E+03 0. -1.
         -6    1    1    2    0  502  0.23130911809E+02  0.52497036108E+02  0.20737548671E+03  0.27546246636E+03  0.17200000000E+03 0. -1.
</event>
<event>
 4    1  0.1241325E+000  0.1740200E+03  0.7818608E-02  0.1173719E+00
         21   -1    0    0  501  502  0.00000000000E+00  0.00000000000E+00  0.20269110352E+03  0.20269110352E+03  0.00000000000E+00 0. -1.
         21   -1    0    0  502  503 -0.00000000000E+00 -0.00000000000E+00 -0.61918488061E+03  0.61918488061E+03  0.00000000000E+00 0. -1.
          6    1    1    2  501    0 -0.66407750639E+01 -0.25590268784E+02  0.14969585579E+03  0.22954696903E+03  0.17200000000E+03 0. -1.
         -6    1    1    2    0  503  0.66407750639E+01  0.25590268784E+02 -0.56618963287E+03  0.59232901510E+03  0.17200000000E+03 0. -1.
</event>
<event>
 4    1  0.1241325E+000  0.1989177E+03  0.7818608E-02  0.1150655E+00
         21   -1    0    0  503  502  0.00000000000E+00  0.00000000000E+00  0.59966687416E+03  0.59966687416E+03  0.00000000000E+00 0.  1.
         21   -1    0    0  501  503 -0.00000000000E+00 -0.00000000000E+00 -0.79119789821E+02  0.79119789821E+02  0.00000000000E+00 0.  1.
          6    1    1    2  501    0  0.27459048135E+02 -0.96074133835E+02  0.39856450952E+03  0.44544573942E+03  0.17200000000E+03 0.  1.
         -6    1    1    2    0  502 -0.27459048135E+02  0.96074133835E+02  0.12198257482E+03  0.23334092456E+03  0.17200000000E+03 0.  1.
</event>
<event>
 4    1  0.1241325E+000  0.1994164E+03  0.7818608E-02  0.1150232E+00
         21   -1    0    0  501  502  0.00000000000E+00  0.00000000000E+00  0.20193660607E+04  0.20193660607E+04  0.00000000000E+00 0. -1.
         21   -1    0    0  502  503 -0.00000000000E+00 -0.00000000000E+00 -0.11689457175E+03  0.11689457175E+03  0.00000000000E+00 0. -1.
          6    1    1    2  501    0  0.87746705036E+02  0.49833872504E+02  0.19252475946E+04  0.19355477776E+04  0.17200000000E+03 0. -1.
         -6    1    1    2    0  503 -0.87746705036E+02 -0.49833872504E+02 -0.22776105641E+02  0.20071285480E+03  0.17200000000E+03 0. -1.
</event>
<event>
 4    1  0.1241325E+000  0.1815158E+03  0.7818608E-02  0.1166344E+00
         21   -1    0    0  503  502  0.00000000000E+00  0.00000000000E+00  0.83458957271E+03  0.83458957271E+03  0.00000000000E+00 0. -1.
         21   -1    0    0  501  503 -0.00000000000E+00 -0.00000000000E+00 -0.53609250895E+02  0.53609250895E+02  0.00000000000E+00 0. -1.
          6    1    1    2  501    0  0.64232634068E+01  0.57643081947E+02  0.16248241556E+03  0.24361551383E+03  0.17200000000E+03 0. -1.
         -6    1    1    2    0  502 -0.64232634068E+01 -0.57643081947E+02  0.61849790625E+03  0.64458330978E+03  0.17200000000E+03 0. -1.
</event>
<event>
 4    1  0.1241325E+000  0.2344093E+03  0.7818608E-02  0.1123574E+00
         21   -1    0    0  503  502  0.00000000000E+00  0.00000000000E+00  0.85256591332E+02  0.85256591332E+02  0.00000000000E+00 0. -1.
         21   -1    0    0  501  503 -0.00000000000E+00 -0.00000000000E+00 -0.13064163884E+04  0.13064163884E+04  0.00000000000E+00 0. -1.
          6    1    1    2  501    0 -0.67883560455E+02  0.14406789569E+03 -0.11058800752E+04  0.11304505637E+04  0.17200000000E+03 0. -1.
         -6    1    1    2    0  502  0.67883560455E+02 -0.14406789569E+03 -0.11527972190E+03  0.26122241602E+03  0.17200000000E+03 0. -1.
</event>
<event>
 4    1  0.1241325E+000  0.2118532E+03  0.7818608E-02  0.1140107E+00
         21   -1    0    0  501  502  0.00000000000E+00  0.00000000000E+00  0.12663797071E+04  0.12663797071E+04  0.00000000000E+00 0.  1.
         21   -1    0    0  502  503 -0.00000000000E+00 -0.00000000000E+00 -0.41258556578E+02  0.41258556578E+02  0.00000000000E+00 0.  1.
          6    1    1    2  501    0  0.10934575059E+03 -0.57803784271E+02  0.85807142972E+03  0.88383728658E+03  0.17200000000E+03 0.  1.
         -6    1    1    2    0  503 -0.10934575059E+03  0.57803784271E+02  0.36704972079E+03  0.42380097708E+03  0.17200000000E+03 0.  1.
</event>
<event>
 4    1  0.1241325E+000  0.2305227E+03  0.7818608E-02  0.1126272E+00
         21   -1    0    0  501  502  0.00000000000E+00  0.00000000000E+00  0.56920645073E+03  0.56920645073E+03  0.00000000000E+00 0.  1.
         21   -1    0    0  502  503 -0.00000000000E+00 -0.00000000000E+00 -0.11209477495E+03  0.11209477495E+03  0.00000000000E+00 0. -1.
          6    1    1    2  501    0 -0.87065473099E+02 -0.12639741018E+03  0.36782312836E+03  0.43409049248E+03  0.17200000000E+03 0. -1.
         -6    1    1    2    0  503  0.87065473099E+02  0.12639741018E+03  0.89288547418E+02  0.24721073320E+03  0.17200000000E+03 0.  1.
</event>
<event>
 4    1  0.1241325E+000  0.1779713E+03  0.7818608E-02  0.1169781E+00
         21   -1    0    0  503  502  0.00000000000E+00  0.00000000000E+00  0.24076332854E+04  0.24076332854E+04  0.00000000000E+00 0. -1.
         21   -1    0    0  501  503 -0.00000000000E+00 -0.00000000000E+00 -0.14785013204E+02  0.14785013204E+02  0.00000000000E+00 0. -1.
          6    1    1    2  501    0  0.44421307344E+02  0.10794708306E+02  0.79432934363E+03  0.81402265597E+03  0.17200000000E+03 0.  1.
         -6    1    1    2    0  502 -0.44421307344E+02 -0.10794708306E+02  0.15985189285E+04  0.16083956426E+04  0.17200000000E+03 0.  1.
</event>
<event>
 4    1  0.1241325E+000  0.1983064E+03  0.7818608E-02  0.1151176E+00
         21   -1    0    0  503  502  0.00000000000E+00  0.00000000000E+00  0.19133038890E+03  0.19133038890E+03  0.00000000000E+00 0.  1.
         21   -1    0    0  501  503 -0.00000000000E+00 -0.00000000000E+00 -0.42510738655E+03  0.42510738655E+03  0.00000000000E+00 0. -1.
          6    1    1    2  501    0 -0.87950130827E+02  0.44790632277E+02  0.10462339699E+03  0.22421302694E+03  0.17200000000E+03 0.  1.
         -6    1    1    2    0  502  0.87950130827E+02 -0.44790632277E+02 -0.33840039464E+03  0.39222474851E+03  0.17200000000E+03 0. -1.
</event>
<event>
 4    1  0.1241325E+000  0.1817993E+03  0.7818608E-02  0.1166073E+00
         21   -1    0    0  501  502  0.00000000000E+00  0.00000000000E+00  0.25855430542E+03  0.25855430542E+03  0.00000000000E+00 0.  1.
         21   -1    0    0  502  503 -0.00000000000E+00 -0.00000000000E+00 -0.13215923631E+03  0.13215923631E+03  0.00000000000E+00 0.  1.
          6    1    1    2  501    0  0.58880943612E+02 -0.16590721223E+00  0.98555404527E+02  0.20679497288E+03  0.17200000000E+03 0. -1.
         -6    1    1    2    0  503 -0.58880943612E+02  0.16590721223E+00  0.27839664582E+02  0.18391856886E+03  0.17200000000E+03 0. -1.
</event>
<event>
 4    1  0.1241325E+000  0.1926533E+03  0.7818608E-02  0.1156090E+00
         21   -1    0    0  501  502  0.00000000000E+00  0.00000000000E+00  0.20749459200E+03  0.20749459200E+03  0.00000000000E+00 0.  1.
         21   -1    0    0  502  503 -0.00000000000E+00 -0.00000000000E+00 -0.20100103618E+03  0.20100103618E+03  0.00000000000E+00 0.  1.
          6    1    1    2  501    0  0.85839274106E+02 -0.12763432470E+02 -0.64521225549E+02  0.20317055577E+03  0.17200000000E+03 0.  1.
         -6    1    1    2    0  503 -0.85839274106E+02  0.12763432470E+02  0.71014781368E+02  0.20532507241E+03  0.17200000000E+03 0.  1.
</event>
<event>
 4    1  0.1241325E+000  0.1854661E+03  0.7818608E-02  0.1162615E+00
         21   -1    0    0  501  502  0.00000000000E+00  0.00000000000E+00  0.68529251471E+02  0.68529251471E+02  0.00000000000E+00 0.  1.
         21   -1    0    0  502  503 -0.00000000000E+00 -0.00000000000E+00 -0.19165525971E+04  0.19165525971E+04  0.00000000000E+00 0.  1.
          6    1    1    2  501    0 -0.66337305482E+02 -0.20323147689E+02 -0.71291382539E+02  0.19869607358E+03  0.17200000000E+03 0.  1.
         -6    1    1    2    0  503  0.66337305482E+02  0.20323147689E+02 -0.17767319631E+04  0.17863857750E+04  0.17200000000E+03 0.  1.
</event>
<event>
 4    1  0.1241325E+000  0.2843991E+03  0.7818608E-02  0.1093310E+00
         21   -1    0    0  501  502  0.00000000000E+00  0.00000000000E+00  0.62190644175E+03  0.62190644175E+03  0.00000000000E+00 0. -1.
         21   -1    0    0  502  503 -0.00000000000E+00 -0.00000000000E+00 -0.13497531408E+03  0.13497531408E+03  0.00000000000E+00 0. -1.
          6    1    1    2  501    0 -0.15943807522E+03  0.16086750832E+03  0.31571086330E+03  0.42491905614E+03  0.17200000000E+03 0. -1.
         -6    1    1    2    0  503  0.15943807522E+03 -0.16086750832E+03  0.17122026436E+03  0.33196269970E+03  0.17200000000E+03 0. -1.
</event>
<event>
 4    1  0.1241325E+000  0.2681270E+03  0.7818608E-02  0.1102356E+00
         21   -1    0    0  501  502  0.00000000000E+00  0.00000000000E+00  0.46700833104E+03  0.46700833104E+03  0.00000000000E+00 0.  1.
         21   -1    0    0  502  503 -0.00000000000E+00 -0.00000000000E+00 -0.18492747039E+03  0.18492747039E+03  0.00000000000E+00 0.  1.
          6    1    1    2  501    0  0.11013588682E+03  0.17371859222E+03  0.27447094874E+03  0.38370087901E+03  0.17200000000E+03 0.  1.
         -6    1    1    2    0  503 -0.11013588682E+03 -0.17371859222E+03  0.76099119171E+01  0.26823492243E+03  0.17200000000E+03 0.  1.
</event>
<event>
 4    1  0.1241325E+000  0.1980296E+03  0.7818608E-02  0.1151412E+00
         21   -1    0    0  501  502  0.00000000000E+00  0.00000000000E+00  0.42664820063E+02  0.42664820063E+02  0.00000000000E+00 0. -1.
         21   -1    0    0  502  503 -0.00000000000E+00 -0.00000000000E+00 -0.92354376119E+03  0.92354376119E+03  0.00000000000E+00 0.  1.
          6    1    1    2  501    0 -0.46972148965E+02  0.86170505861E+02 -0.47372856192E+03  0.51345349277E+03  0.17200000000E+03 0.  1.
         -6    1    1    2    0  503  0.46972148965E+02 -0.86170505861E+02 -0.40715037921E+03  0.45275508848E+03  0.17200000000E+03 0. -1.
</event>
<event>
 4    1  0.1241325E+000  0.2050962E+03  0.7818608E-02  0.1145509E+00
         21   -1    0    0  501  502  0.00000000000E+00  0.00000000000E+00  0.33998496263E+03  0.33998496263E+03  0.00000000000E+00 0.  1.
         21   -1    0    0  502  503 -0.00000000000E+00 -0.00000000000E+00 -0.20606276793E+03  0.20606276793E+03  0.00000000000E+00 0. -1.
          6    1    1    2  501    0  0.39528185723E+02 -0.10448907644E+03  0.23954564286E+03  0.31535148577E+03  0.17200000000E+03 0.  1.
         -6    1    1    2    0  503 -0.39528185723E+02  0.10448907644E+03 -0.10562344816E+03  0.23069624480E+03  0.17200000000E+03 0. -1.
</event>
<event>
 4    1  0.1241325E+000  0.1743797E+03  0.7818608E-02  0.1173356E+00
         21   -1    0    0  503  502  0.00000000000E+00  0.00000000000E+00  0.20932541183E+03  0.20932541183E+03  0.00000000000E+00 0. -1.
         21   -1    0    0  501  503 -0.00000000000E+00 -0.00000000000E+00 -0.29450290952E+03  0.29450290952E+03  0.00000000000E+00 0. -1.
          6    1    1    2  501    0 -0.23744152518E+02 -0.16139615428E+02 -0.22191467498E+03  0.28223110200E+03  0.17200000000E+03 0. -1.
         -6    1    1    2    0  502  0.23744152518E+02  0.16139615428E+02  0.13673717730E+03  0.22159721934E+03  0.17200000000E+03 0. -1.
</event>
<event>
 4    1  0.1241325E+000  0.2019507E+03  0.7818608E-02  0.1148104E+00
         21   -1    0    0  503  502  0.00000000000E+00  0.00000000000E+00  0.36118010889E+03  0.36118010889E+03  0.00000000000E+00 0.  1.
         21   -1    0    0  501  503 -0.00000000000E+00 -0.00000000000E+00 -0.11877500179E+03  0.11877500179E+03  0.00000000000E+00 0.  1.
          6    1    1    2  501    0  0.43405004590E+02 -0.96519865531E+02  0.67916870790E+02  0.21306520177E+03  0.17200000000E+03 0. -1.
         -6    1    1    2    0  502 -0.43405004590E+02  0.96519865531E+02  0.17448823631E+03  0.26688990891E+03  0.17200000000E+03 0. -1.
</event>
<event>
 4    1  0.1241325E+000  0.1892339E+03  0.7818608E-02  0.1159154E+00
         21   -1    0    0  503  502  0.00000000000E+00  0.00000000000E+00  0.21413413963E+03  0.21413413963E+03  0.00000000000E+00 0.  1.
         21   -1    0    0  501  503 -0.00000000000E+00 -0.00000000000E+00 -0.17330876837E+03  0.17330876837E+03  0.00000000000E+00 0.  1.
          6    1    1    2  501    0 -0.46164043461E+02  0.63987075543E+02 -0.15870592148E+02  0.18989823706E+03  0.17200000000E+03 0.  1.
         -6    1    1    2    0  502  0.46164043461E+02 -0.63987075543E+02  0.56695963411E+02  0.19754467093E+03  0.17200000000E+03 0.  1.
</event>
<event>
 4    1  0.1241325E+000  0.1907984E+03  0.7818608E-02  0.1157743E+00
         21   -1    0    0  501  502  0.00000000000E+00  0.00000000000E+00  0.84741223629E+02  0.84741223629E+02  0.00000000000E+00 0. -1.
         21   -1    0    0  502  503 -0.00000000000E+00 -0.00000000000E+00 -0.46611499919E+03  0.46611499919E+03  0.00000000000E+00 0. -1.
          6    1    1    2  501    0  0.80485943288E+02 -0.18494563519E+02 -0.26778665483E+03  0.32880652131E+03  0.17200000000E+03 0. -1.
         -6    1    1    2    0  503 -0.80485943288E+02  0.18494563519E+02 -0.11358712073E+03  0.22204970151E+03  0.17200000000E+03 0. -1.
</event>
<event>
 4    1  0.1241325E+000  0.1864416E+03  0.7818608E-02  0.1161710E+00
         21   -1    0    0  501  502  0.00000000000E+00  0.00000000000E+00  0.26121711432E+03  0.26121711432E+03  0.00000000000E+00 0.  1.
         21   -1    0    0  502  503 -0.00000000000E+00 -0.00000000000E+00 -0.29311007763E+03  0.29311007763E+03  0.00000000000E+00 0.  1.
          6    1    1    2  501    0  0.70622653362E+02  0.13744972672E+02  0.18885519888E+03  0.26538042427E+03  0.17200000000E+03 0.  1.
         -6    1    1    2    0  503 -0.70622653362E+02 -0.13744972672E+02 -0.22074816219E+03  0.28894676768E+03  0.17200000000E+03 0.  1.
</event>
<event>
 4    1  0.1241325E+000  0.2563305E+03  0.7818608E-02  0.1109368E+00
         21   -1    0    0  501  502  0.00000000000E+00  0.00000000000E+00  0.28971494248E+03  0.28971494248E+03  0.00000000000E+00 0.  1.
         21   -1    0    0  502  503 -0.00000000000E+00 -0.00000000000E+00 -0.81744933248E+03  0.81744933248E+03  0.00000000000E+00 0.  1.
          6    1    1    2  501    0 -0.10554459878E+03 -0.15805581132E+03  0.20669724283E+03  0.32928566932E+03  0.17200000000E+03 0.  1.
         -6    1    1    2    0  503  0.10554459878E+03  0.15805581132E+03 -0.73443163283E+03  0.77787860565E+03  0.17200000000E+03 0.  1.
</event>
<event>
 4    1  0.1241325E+000  0.2142929E+03  0.7818608E-02  0.1138211E+00
         21   -1    0    0  501  502  0.00000000000E+00  0.00000000000E+00  0.34544699993E+02  0.34544699993E+02  0.00000000000E+00 0. -1.
         21   -1    0    0  502  503 -0.00000000000E+00 -0.00000000000E+00 -0.13314249346E+04  0.13314249346E+04  0.00000000000E+00 0. -1.
          6    1    1    2  501    0  0.96352217893E+02 -0.83986333119E+02 -0.62137602913E+03  0.65728960407E+03  0.17200000000E+03 0. -1.
         -6    1    1    2    0  503 -0.96352217893E+02  0.83986333119E+02 -0.67550420551E+03  0.70868003056E+03  0.17200000000E+03 0. -1.
</event>
<event>
 4    1  0.1241325E+000  0.1801084E+03  0.7818608E-02  0.1167698E+00
         21   -1    0    0  501  502  0.00000000000E+00  0.00000000000E+00  0.33782764848E+03  0.33782764848E+03  0.00000000000E+00 0. -1.
         21   -1    0    0  502  503 -0.00000000000E+00 -0.00000000000E+00 -0.12186564610E+03  0.12186564610E+03  0.00000000000E+00 0. -1.
          6    1    1    2  501    0  0.76983778265E+01 -0.52875022081E+02  0.21382610517E+03  0.27957223796E+03  0.17200000000E+03 0. -1.
         -6    1    1    2    0  503 -0.76983778265E+01  0.52875022081E+02  0.21358972024E+01  0.18012105662E+03  0.17200000000E+03 0. -1.
</event>
<event>
 4    1  0.1241325E+000  0.2085510E+03  0.7818608E-02  0.1142719E+00
         21   -1    0    0  501  502  0.00000000000E+00  0.00000000000E+00  0.27851223297E+03  0.27851223297E+03  0.00000000000E+00 0. -1.
         21   -1    0    0  502  503 -0.00000000000E+00 -0.00000000000E+00 -0.21085080113E+03  0.21085080113E+03  0.00000000000E+00 0. -1.
          6    1    1    2  501    0  0.61218474165E+01 -0.11777964253E+03  0.15844151963E+03  0.26191074119E+03  0.17200000000E+03 0. -1.
         -6    1    1    2    0  503 -0.61218474165E+01  0.11777964253E+03 -0.90780087795E+02  0.22745229291E+03  0.17200000000E+03 0. -1.
</event>
<event>
 4    1  0.1241325E+000  0.1907728E+03  0.7818608E-02  0.1157766E+00
         21   -1    0    0  501  502  0.00000000000E+00  0.00000000000E+00  0.18004909205E+03  0.18004909205E+03  0.00000000000E+00 0. -1.
         21   -1    0    0  502  503 -0.00000000000E+00 -0.00000000000E+00 -0.76095481114E+03  0.76095481114E+03  0.00000000000E+00 0. -1.
          6    1    1    2  501    0  0.34843556619E+02 -0.74807686182E+02  0.11274461766E+03  0.22159786136E+03  0.17200000000E+03 0. -1.
         -6    1    1    2    0  503 -0.34843556619E+02  0.74807686182E+02 -0.69365033674E+03  0.71940604183E+03  0.17200000000E+03 0. -1.
</event>
<event>
 4    1  0.1241325E+000  0.1723807E+03  0.7818608E-02  0.1175388E+00
         21   -1    0    0  503  502  0.00000000000E+00  0.00000000000E+00  0.50002769551E+02  0.50002769551E+02  0.00000000000E+00 0. -1.
         21   -1    0    0  501  503 -0.00000000000E+00 -0.00000000000E+00 -0.65817022390E+03  0.65817022390E+03  0.00000000000E+00 0. -1.
          6    1    1    2  501    0  0.37648485081E+01 -0.10812697664E+02 -0.41441416382E+03  0.44883648213E+03  0.17200000000E+03 0. -1.
         -6    1    1    2    0  502 -0.37648485081E+01  0.10812697664E+02 -0.19375329053E+03  0.25933651133E+03  0.17200000000E+03 0. -1.
</event>
<event>
 4    1  0.1241325E+000  0.1722159E+03  0.7818608E-02  0.1175557E+00
         21   -1    0    0  501  502  0.00000000000E+00  0.00000000000E+00  0.30406421874E+03  0.30406421874E+03  0.00000000000E+00 0.  1.
         21   -1    0    0  502  503 -0.00000000000E+00 -0.00000000000E+00 -0.97540922638E+02  0.97540922638E+02  0.00000000000E+00 0.  1.
          6    1    1    2  501    0 -0.81496585882E+01 -0.28086482150E+01  0.10399815754E+03  0.20118131676E+03  0.17200000000E+03 0.  1.
         -6    1    1    2    0  503  0.81496585882E+01  0.28086482150E+01  0.10252513856E+03  0.20042382462E+03  0.17200000000E+03 0.  1.
</event>
<event>
 4    1  0.1241325E+000  0.1820133E+03  0.7818608E-02  0.1165869E+00
         21   -1    0    0  503  502  0.00000000000E+00  0.00000000000E+00  0.11586317824E+03  0.11586317824E+03  0.00000000000E+00 0. -1.
         21   -1    0    0  501  503 -0.00000000000E+00 -0.00000000000E+00 -0.31916780378E+03  0.31916780378E+03  0.00000000000E+00 0. -1.
          6    1    1    2  501    0  0.54477323362E+02 -0.24022230078E+02 -0.17184499958E+03  0.25031889697E+03  0.17200000000E+03 0. -1.
         -6    1    1    2    0  502 -0.54477323362E+02  0.24022230078E+02 -0.31459625948E+02  0.18471208505E+03  0.17200000000E+03 0. -1.
</event>
<event>
 4    1  0.1241325E+000  0.1888453E+03  0.7818608E-02  0.1159507E+00
         21   -1    0    0  503  502  0.00000000000E+00  0.00000000000E+00  0.50813101251E+03  0.50813101251E+03  0.00000000000E+00 0. -1.
         21   -1    0    0  501  503 -0.00000000000E+00 -0.00000000000E+00 -0.83080386329E+02  0.83080386329E+02  0.00000000000E+00 0. -1.
          6    1    1    2  501    0 -0.46267182935E+02 -0.62752554222E+02  0.96058569972E+02  0.21187209383E+03  0.17200000000E+03 0.  1.
         -6    1    1    2    0  502  0.46267182935E+02  0.62752554222E+02  0.32899205621E+03  0.37933930501E+03  0.17200000000E+03 0.  1.
</event>
<event>
 4    1  0.1241325E+000  0.2222716E+03  0.7818608E-02  0.1132201E+00
         21   -1    0    0  503  502  0.00000000000E+00  0.00000000000E+00  0.44157308541E+02  0.44157308541E+02  0.00000000000E+00 0.  1.
         21   -1    0    0  501  503 -0.00000000000E+00 -0.00000000000E+00 -0.13256019548E+04  0.13256019548E+04  0.00000000000E+00 0. -1.
          6    1    1    2  501    0  0.11933378899E+03 -0.74700101690E+02 -0.37023292711E+03  0.43182991872E+03  0.17200000000E+03 0.  1.
         -6    1    1    2    0  502 -0.11933378899E+03  0.74700101690E+02 -0.91121171915E+03  0.93792934462E+03  0.17200000000E+03 0. -1.
</event>
<event>
 4    1  0.1241325E+000  0.3710686E+03  0.7818608E-02  0.1054285E+00
         21   -1    0    0  501  502  0.00000000000E+00  0.00000000000E+00  0.21752858545E+03  0.21752858545E+03  0.00000000000E+00 0.  1.
         21   -1    0    0  502  503 -0.00000000000E+00 -0.00000000000E+00 -0.66462243286E+03  0.66462243286E+03  0.00000000000E+00 0. -1.
          6    1    1    2  501    0  0.14605254255E+03  0.29457858153E+03 -0.12731035508E+03  0.39230066581E+03  0.17200000000E+03 0.  1.
         -6    1    1    2    0  503 -0.14605254255E+03 -0.29457858153E+03 -0.31978349233E+03  0.48985035250E+03  0.17200000000E+03 0. -1.
</event>
<event>
 4    1  0.1241325E+000  0.4230877E+03  0.7818608E-02  0.1036066E+00
         21   -1    0    0  503  502  0.00000000000E+00  0.00000000000E+00  0.57841799158E+03  0.57841799158E+03  0.00000000000E+00 0.  1.
         21   -1    0    0  501  503 -0.00000000000E+00 -0.00000000000E+00 -0.31250048957E+03  0.31250048957E+03  0.00000000000E+00 0. -1.
          6    1    1    2  501    0  0.37972957750E+03  0.72281614812E+02  0.17682375809E+03  0.45855187852E+03  0.17200000000E+03 0. -1.
         -6    1    1    2    0  502 -0.37972957750E+03 -0.72281614812E+02  0.89093743921E+02  0.43236660263E+03  0.17200000000E+03 0.  1.
</event>
<event>
 4    1  0.1241325E+000  0.1831571E+03  0.7818608E-02  0.1164782E+00
         21   -1    0    0  501  502  0.00000000000E+00  0.00000000000E+00  0.14608212367E+03  0.14608212367E+03  0.00000000000E+00 0. -1.
         21   -1    0    0  502  503 -0.00000000000E+00 -0.00000000000E+00 -0.22972588894E+03  0.22972588894E+03  0.00000000000E+00 0. -1.
          6    1    1    2  501    0  0.41530636217E+02 -0.47304592708E+02 -0.38220496054E+02  0.18710244401E+03  0.17200000000E+03 0. -1.
         -6    1    1    2    0  503 -0.41530636217E+02  0.47304592708E+02 -0.45423269214E+02  0.18870556860E+03  0.17200000000E+03 0. -1.
</event>
<event>
 4    1  0.1241325E+000  0.1993074E+03  0.7818608E-02  0.1150325E+00
         21   -1    0    0  503  502  0.00000000000E+00  0.00000000000E+00  0.70671859133E+02  0.70671859133E+02  0.00000000000E+00 0.  1.
         21   -1    0    0  501  503 -0.00000000000E+00 -0.00000000000E+00 -0.64471964501E+03  0.64471964501E+03  0.00000000000E+00 0.  1.
          6    1    1    2  501    0  0.12846813581E+02  0.99871945823E+02 -0.41508428684E+03  0.46045457036E+03  0.17200000000E+03 0.  1.
         -6    1    1    2    0  502 -0.12846813581E+02 -0.99871945823E+02 -0.15896349904E+03  0.25493693379E+03  0.17200000000E+03 0.  1.
</event>
<event>
 4    1  0.1241325E+000  0.1893082E+03  0.7818608E-02  0.1159087E+00
         21   -1    0    0  503  502  0.00000000000E+00  0.00000000000E+00  0.23210730724E+03  0.23210730724E+03  0.00000000000E+00 0. -1.
         21   -1    0    0  501  503 -0.00000000000E+00 -0.00000000000E+00 -0.15751809695E+03  0.15751809695E+03  0.00000000000E+00 0. -1.
          6    1    1    2  501    0  0.35799090000E+02  0.70512424087E+02  0.64699886491E+02  0.20005912153E+03  0.17200000000E+03 0. -1.
         -6    1    1    2    0  502 -0.35799090000E+02 -0.70512424087E+02  0.98893237952E+01  0.18956628266E+03  0.17200000000E+03 0. -1.
</event>
<event>
 4    1  0.1241325E+000  0.1832807E+03  0.7818608E-02  0.1164665E+00
         21   -1    0    0  501  502  0.00000000000E+00  0.00000000000E+00  0.52926392532E+02  0.52926392532E+02  0.00000000000E+00 0. -1.
         21   -1    0    0  502  503 -0.00000000000E+00 -0.00000000000E+00 -0.64495940295E+03  0.64495940295E+03  0.00000000000E+00 0.  1.
          6    1    1    2  501    0 -0.61325631250E+02 -0.15715305204E+02 -0.34004968329E+03  0.38629728315E+03  0.17200000000E+03 0.  1.
         -6    1    1    2    0  503  0.61325631250E+02  0.15715305204E+02 -0.25198332713E+03  0.31158851234E+03  0.17200000000E+03 0. -1.
</event>
<event>
 4    1  0.1241325E+000  0.2531202E+03  0.7818608E-02  0.1111349E+00
         21   -1    0    0  501  502  0.00000000000E+00  0.00000000000E+00  0.11221827930E+03  0.11221827930E+03  0.00000000000E+00 0.  1.
         21   -1    0    0  502  503 -0.00000000000E+00 -0.00000000000E+00 -0.57321647212E+03  0.57321647212E+03  0.00000000000E+00 0.  1.
          6    1    1    2  501    0 -0.17035101238E+03 -0.73934772271E+02 -0.25210047176E+03  0.35724566594E+03  0.17200000000E+03 0.  1.
         -6    1    1    2    0  503  0.17035101238E+03  0.73934772271E+02 -0.20889772105E+03  0.32818908548E+03  0.17200000000E+03 0.  1.
</event>
<event>
 4    1  0.1241325E+000  0.1801048E+03  0.7818608E-02  0.1167702E+00
         21   -1    0    0  503  502  0.00000000000E+00  0.00000000000E+00  0.44388734924E+02  0.44388734924E+02  0.00000000000E+00 0. -1.
         21   -1    0    0  501  503 -0.00000000000E+00 -0.00000000000E+00 -0.73149151957E+03  0.73149151957E+03  0.00000000000E+00 0. -1.
          6    1    1    2  501    0 -0.41543918480E+02 -0.33583341404E+02 -0.33132618972E+03  0.37711375204E+03  0.17200000000E+03 0.  1.
         -6    1    1    2    0  502  0.41543918480E+02  0.33583341404E+02 -0.35577659492E+03  0.39876650245E+03  0.17200000000E+03 0.  1.
</event>
<event>
 4    1  0.1241325E+000  0.1727763E+03  0.7818608E-02  0.1174983E+00
         21   -1    0    0  503  502  0.00000000000E+00  0.00000000000E+00  0.72613379588E+02  0.72613379588E+02  0.00000000000E+00 0.  1.
         21   -1    0    0  501  503 -0.00000000000E+00 -0.00000000000E+00 -0.68921922757E+03  0.68921922757E+03  0.00000000000E+00 0.  1.
          6    1    1    2  501    0 -0.86911419707E+01 -0.13860662807E+02 -0.55027386840E+03  0.57676076857E+03  0.17200000000E+03 0.  1.
         -6    1    1    2    0  502  0.86911419707E+01  0.13860662807E+02 -0.66331979584E+02  0.18507183859E+03  0.17200000000E+03 0.  1.
</event>
<event>
 4    1  0.1241325E+000  0.1806119E+03  0.7818608E-02  0.1167212E+00
         21   -1    0    0  503  502  0.00000000000E+00  0.00000000000E+00  0.39191472920E+03  0.39191472920E+03  0.00000000000E+00 0. -1.
         21   -1    0    0  501  503 -0.00000000000E+00 -0.00000000000E+00 -0.10182855912E+03  0.10182855912E+03  0.00000000000E+00 0. -1.
          6    1    1    2  501    0  0.30674154180E+02  0.45779607600E+02  0.39549028339E+02  0.18489132443E+03  0.17200000000E+03 0. -1.
         -6    1    1    2    0  502 -0.30674154180E+02 -0.45779607600E+02  0.25053714174E+03  0.30885196389E+03  0.17200000000E+03 0. -1.
</event>
<event>
 4    1  0.1241325E+000  0.2187784E+03  0.7818608E-02  0.1134797E+00
         21   -1    0    0  501  502  0.00000000000E+00  0.00000000000E+00  0.52914349850E+03  0.52914349850E+03  0.00000000000E+00 0.  1.
         21   -1    0    0  502  503 -0.00000000000E+00 -0.00000000000E+00 -0.15367646257E+03  0.15367646257E+03  0.00000000000E+00 0.  1.
          6    1    1    2  501    0  0.53067722709E+02 -0.12435350619E+03  0.40671270584E+03  0.46182161360E+03  0.17200000000E+03 0.  1.
         -6    1    1    2    0  503 -0.53067722709E+02  0.12435350619E+03 -0.31245669910E+02  0.22099834747E+03  0.17200000000E+03 0.  1.
</event>
<event>
 4    1  0.1241325E+000  0.2320427E+03  0.7818608E-02  0.1125210E+00
         21   -1    0    0  501  502  0.00000000000E+00  0.00000000000E+00  0.86867695224E+02  0.86867695224E+02  0.00000000000E+00 0. -1.
         21   -1    0    0  502  503 -0.00000000000E+00 -0.00000000000E+00 -0.77125042024E+03  0.77125042024E+03  0.00000000000E+00 0. -1.
          6    1    1    2  501    0 -0.95923473740E+00 -0.15575274329E+03 -0.15208303962E+03  0.27744024242E+03  0.17200000000E+03 0. -1.
         -6    1    1    2    0  503  0.95923473740E+00  0.15575274329E+03 -0.53229968540E+03  0.58067787305E+03  0.17200000000E+03 0. -1.
</event>
<event>
 4    1  0.1241325E+000  0.2397789E+03  0.7818608E-02  0.1119940E+00
         21   -1    0    0  501  502  0.00000000000E+00  0.00000000000E+00  0.11128838819E+03  0.11128838819E+03  0.00000000000E+00 0. -1.
         21   -1    0    0  502  503 -0.00000000000E+00 -0.00000000000E+00 -0.52585473860E+03  0.52585473860E+03  0.00000000000E+00 0.  1.
          6    1    1    2  501    0  0.22920938779E+02  0.16548271502E+03 -0.16506814317E+03  0.29110374490E+03  0.17200000000E+03 0.  1.
         -6    1    1    2    0  503 -0.22920938779E+02 -0.16548271502E+03 -0.24949820725E+03  0.34603938190E+03  0.17200000000E+03 0.  1.
</event>
<event>
 4    1  0.1241325E+000  0.2064528E+03  0.7818608E-02  0.1144406E+00
         21   -1    0    0  503  502  0.00000000000E+00  0.00000000000E+00  0.24383535071E+03  0.24383535071E+03  0.00000000000E+00 0. -1.
         21   -1    0    0  501  503 -0.00000000000E+00 -0.00000000000E+00 -0.17577829366E+03  0.17577829366E+03  0.00000000000E+00 0.  1.
          6    1    1    2  501    0 -0.86768422664E+02  0.74229366654E+02  0.18387582277E+02  0.20727002009E+03  0.17200000000E+03 0. -1.
         -6    1    1    2    0  502  0.86768422664E+02 -0.74229366654E+02  0.49669474771E+02  0.21234362427E+03  0.17200000000E+03 0.  1.
</event>
<event>
 4    1  0.1241325E+000  0.2893769E+03  0.7818608E-02  0.1090675E+00
         21   -1    0    0  501  502  0.00000000000E+00  0.00000000000E+00  0.17252827429E+03  0.17252827429E+03  0.00000000000E+00 0. -1.
         21   -1    0    0  502  503 -0.00000000000E+00 -0.00000000000E+00 -0.77887243810E+03  0.77887243810E+03  0.00000000000E+00 0.  1.
          6    1    1    2  501    0 -0.18291358950E+03 -0.14386669398E+03 -0.11153402846E+02  0.28959179073E+03  0.17200000000E+03 0. -1.
         -6    1    1    2    0  503  0.18291358950E+03  0.14386669398E+03 -0.59519076096E+03  0.66180892166E+03  0.17200000000E+03 0.  1.
</event>
<event>
 4    1  0.1241325E+000  0.1950595E+03  0.7818608E-02  0.1153976E+00
         21   -1    0    0  501  502  0.00000000000E+00  0.00000000000E+00  0.13004316524E+04  0.13004316524E+04  0.00000000000E+00 0. -1.
         21   -1    0    0  502  503 -0.00000000000E+00 -0.00000000000E+00 -0.34533716827E+02  0.34533716827E+02  0.00000000000E+00 0. -1.
          6    1    1    2  501    0 -0.84398779821E+02  0.36620271629E+02  0.37206119198E+03  0.42009252422E+03  0.17200000000E+03 0.  1.
         -6    1    1    2    0  503  0.84398779821E+02 -0.36620271629E+02  0.89383674358E+03  0.91487284499E+03  0.17200000000E+03 0.  1.
</event>
<event>
 4    1  0.1241325E+000  0.2288967E+03  0.7818608E-02  0.1127419E+00
         21   -1    0    0  503  502  0.00000000000E+00  0.00000000000E+00  0.23232940380E+03  0.23232940380E+03  0.00000000000E+00 0.  1.
         21   -1    0    0  501  503 -0.00000000000E+00 -0.00000000000E+00 -0.22772517579E+03  0.22772517579E+03  0.00000000000E+00 0. -1.
          6    1    1    2  501    0 -0.49048698657E+02  0.14284222838E+03  0.24965492370E+02  0.23025410497E+03  0.17200000000E+03 0.  1.
         -6    1    1    2    0  502  0.49048698657E+02 -0.14284222838E+03 -0.20361264356E+02  0.22980047462E+03  0.17200000000E+03 0.  1.
</event>
<event>
 4    1  0.1241325E+000  0.3030463E+03  0.7818608E-02  0.1083728E+00
         21   -1    0    0  503  502  0.00000000000E+00  0.00000000000E+00  0.18289739967E+03  0.18289739967E+03  0.00000000000E+00 0. -1.
         21   -1    0    0  501  503 -0.00000000000E+00 -0.00000000000E+00 -0.92852609573E+03  0.92852609573E+03  0.00000000000E+00 0. -1.
          6    1    1    2  501    0  0.24882651362E+03 -0.18395864821E+02 -0.74939894645E+03  0.80835377321E+03  0.17200000000E+03 0. -1.
         -6    1    1    2    0  502 -0.24882651362E+03  0.18395864821E+02  0.37702503891E+01  0.30306972220E+03  0.17200000000E+03 0. -1.
</event>
<event>
 4    1  0.1241325E+000  0.2413609E+03  0.7818608E-02  0.1118890E+00
         21   -1    0    0  501  502  0.00000000000E+00  0.00000000000E+00  0.44680432357E+02  0.44680432357E+02  0.00000000000E+00 0. -1.
         21   -1    0    0  502  503 -0.00000000000E+00 -0.00000000000E+00 -0.15340641461E+04  0.15340641461E+04  0.00000000000E+00 0. -1.
          6    1    1    2  501    0 -0.65278023169E+02 -0.15623650274E+03 -0.43887731361E+03  0.50086760875E+03  0.17200000000E+03 0.  1.
         -6    1    1    2    0  503  0.65278023169E+02  0.15623650274E+03 -0.10505064002E+04  0.10778769697E+04  0.17200000000E+03 0.  1.
</event>
<event>
 4    1  0.1241325E+000  0.2115145E+03  0.7818608E-02  0.1140372E+00
         21   -1    0    0  503  502  0.00000000000E+00  0.00000000000E+00  0.14471343842E+03  0.14471343842E+03  0.00000000000E+00 0.  1.
         21   -1    0    0  501  503 -0.00000000000E+00 -0.00000000000E+00 -0.66595920888E+03  0.66595920888E+03  0.00000000000E+00 0. -1.
          6    1    1    2  501    0  0.54307493077E+02 -0.11047667377E+03 -0.55731686135E+03  0.59610442306E+03  0.17200000000E+03 0. -1.
         -6    1    1    2    0  502 -0.54307493077E+02  0.11047667377E+03  0.36071090891E+02  0.21456822423E+03  0.17200000000E+03 0.  1.
</event>
<event>
 4    1  0.1241325E+000  0.1894150E+03  0.7818608E-02  0.1158990E+00
         21   -1    0    0  501  502  0.00000000000E+00  0.00000000000E+00  0.21901135116E+03  0.21901135116E+03  0.00000000000E+00 0. -1.
         21   -1    0    0  502  503 -0.00000000000E+00 -0.00000000000E+00 -0.17237446793E+03  0.17237446793E+03  0.00000000000E+00 0.  1.
          6    1    1    2  501    0  0.65390164848E+02  0.44923951564E+02  0.66917990500E+02  0.20088815927E+03  0.17200000000E+03 0. -1.
         -6    1    1    2    0  503 -0.65390164848E+02 -0.44923951564E+02 -0.20281107275E+02  0.19049765982E+03  0.17200000000E+03 0.  1.
</event>
<event>
 4    1  0.1241325E+000  0.1909373E+03  0.7818608E-02  0.1157619E+00
         21   -1    0    0  501  502  0.00000000000E+00  0.00000000000E+00  0.96041101924E+02  0.96041101924E+02  0.00000000000E+00 0.  1.
         21   -1    0    0  502  503 -0.00000000000E+00 -0.00000000000E+00 -0.82791913524E+03  0.82791913524E+03  0.00000000000E+00 0.  1.
          6    1    1    2  501    0  0.82623661801E+02 -0.68110808450E+01 -0.25982257966E+02  0.19269701098E+03  0.17200000000E+03 0.  1.
         -6    1    1    2    0  503 -0.82623661801E+02  0.68110808450E+01 -0.70589577535E+03  0.73126322618E+03  0.17200000000E+03 0.  1.
</event>
<event>
 4    1  0.1241325E+000  0.1754556E+03  0.7818608E-02  0.1172275E+00
         21   -1    0    0  501  502  0.00000000000E+00  0.00000000000E+00  0.21650069199E+03  0.21650069199E+03  0.00000000000E+00 0. -1.
         21   -1    0    0  502  503 -0.00000000000E+00 -0.00000000000E+00 -0.17874330093E+03  0.17874330093E+03  0.00000000000E+00 0. -1.
          6    1    1    2  501    0 -0.26211842869E+01  0.34551317492E+02  0.10824460440E+03  0.20615906124E+03  0.17200000000E+03 0. -1.
         -6    1    1    2    0  503  0.26211842869E+01 -0.34551317492E+02 -0.70487213342E+02  0.18908493169E+03  0.17200000000E+03 0. -1.
</event>
<event>
 4    1  0.1241325E+000  0.2041848E+03  0.7818608E-02  0.1146256E+00
         21   -1    0    0  503  502  0.00000000000E+00  0.00000000000E+00  0.15180749503E+03  0.15180749503E+03  0.00000000000E+00 0. -1.
         21   -1    0    0  501  503 -0.00000000000E+00 -0.00000000000E+00 -0.28092614420E+03  0.28092614420E+03  0.00000000000E+00 0. -1.
          6    1    1    2  501    0 -0.10994895019E+03  0.43216792331E+01 -0.96941462350E+02  0.22602897089E+03  0.17200000000E+03 0. -1.
         -6    1    1    2    0  502  0.10994895019E+03 -0.43216792331E+01 -0.32177186822E+02  0.20670466833E+03  0.17200000000E+03 0. -1.
</event>
<event>
 4    1  0.1241325E+000  0.2163235E+03  0.7818608E-02  0.1136654E+00
         21   -1    0    0  503  502  0.00000000000E+00  0.00000000000E+00  0.22758244312E+04  0.22758244312E+04  0.00000000000E+00 0. -1.
         21   -1    0    0  501  503 -0.00000000000E+00 -0.00000000000E+00 -0.23743888555E+02  0.23743888555E+02  0.00000000000E+00 0.  1.
          6    1    1    2  501    0  0.12561480250E+03 -0.37851866295E+02  0.70514633206E+03  0.73758199002E+03  0.17200000000E+03 0. -1.
         -6    1    1    2    0  502 -0.12561480250E+03  0.37851866295E+02  0.15469342106E+04  0.15619863297E+04  0.17200000000E+03 0.  1.
</event>
<event>
 4    1  0.1241325E+000  0.1822955E+03  0.7818608E-02  0.1165600E+00
         21   -1    0    0  501  502  0.00000000000E+00  0.00000000000E+00  0.32175122543E+02  0.32175122543E+02  0.00000000000E+00 0.  1.
         21   -1    0    0  502  503 -0.00000000000E+00 -0.00000000000E+00 -0.10518439603E+04  0.10518439603E+04  0.00000000000E+00 0.  1.
          6    1    1    2  501    0  0.60355536502E+02  0.22013240545E+01 -0.43697346377E+03  0.47347380567E+03  0.17200000000E+03 0.  1.
         -6    1    1    2    0  503 -0.60355536502E+02 -0.22013240545E+01 -0.58269537398E+03  0.61054527716E+03  0.17200000000E+03 0.  1.
</event>
<event>
 4    1  0.1241325E+000  0.1998054E+03  0.7818608E-02  0.1149903E+00
         21   -1    0    0  503  502  0.00000000000E+00  0.00000000000E+00  0.38983446345E+03  0.38983446345E+03  0.00000000000E+00 0.  1.
         21   -1    0    0  501  503 -0.00000000000E+00 -0.00000000000E+00 -0.12410406590E+03  0.12410406590E+03  0.00000000000E+00 0.  1.
          6    1    1    2  501    0 -0.64991619256E+01 -0.10146905516E+03  0.25422321039E+02  0.20141624231E+03  0.17200000000E+03 0.  1.
         -6    1    1    2    0  502  0.64991619256E+01  0.10146905516E+03  0.24030807651E+03  0.31252228704E+03  0.17200000000E+03 0.  1.
</event>
<event>
 4    1  0.1241325E+000  0.3312097E+03  0.7818608E-02  0.1070603E+00
         21   -1    0    0  503  502  0.00000000000E+00  0.00000000000E+00  0.79603439080E+02  0.79603439080E+02  0.00000000000E+00 0. -1.
         21   -1    0    0  501  503 -0.00000000000E+00 -0.00000000000E+00 -0.14133115152E+04  0.14133115152E+04  0.00000000000E+00 0.  1.
          6    1    1    2  501    0 -0.17469974734E+03 -0.22270134479E+03 -0.78471041139E+03  0.85174545519E+03  0.17200000000E+03 0. -1.
         -6    1    1    2    0  502  0.17469974734E+03  0.22270134479E+03 -0.54899766475E+03  0.64116949911E+03  0.17200000000E+03 0. -1.
</event>
<event>
 4    1  0.1241325E+000  0.1810744E+03  0.7818608E-02  0.1166767E+00
         21   -1    0    0  503  502  0.00000000000E+00  0.00000000000E+00  0.30084054529E+02  0.30084054529E+02  0.00000000000E+00 0.  1.
         21   -1    0    0  501  503 -0.00000000000E+00 -0.00000000000E+00 -0.10929019281E+04  0.10929019281E+04  0.00000000000E+00 0.  1.
          6    1    1    2  501    0 -0.36579770535E+02  0.43195762790E+02 -0.56094339979E+03  0.58944503671E+03  0.17200000000E+03 0.  1.
         -6    1    1    2    0  502  0.36579770535E+02 -0.43195762790E+02 -0.50187447375E+03  0.53354094589E+03  0.17200000000E+03 0.  1.
</event>
<event>
 4    1  0.1241325E+000  0.1725338E+03  0.7818608E-02  0.1175231E+00
         21   -1    0    0  501  502  0.00000000000E+00  0.00000000000E+00  0.53412912989E+03  0.53412912989E+03  0.00000000000E+00 0. -1.
         21   -1    0    0  502  503 -0.00000000000E+00 -0.00000000000E+00 -0.26853088082E+03  0.26853088082E+03  0.00000000000E+00 0. -1.
          6    1    1    2  501    0  0.11355915365E+02 -0.74131676262E+01  0.49006333530E+03  0.51954786543E+03  0.17200000000E+03 0. -1.
         -6    1    1    2    0  503 -0.11355915365E+02  0.74131676262E+01 -0.22446508623E+03  0.28311214528E+03  0.17200000000E+03 0. -1.
</event>
<event>
 4    1  0.1241325E+000  0.1858072E+03  0.7818608E-02  0.1162298E+00
         21   -1    0    0  501  502  0.00000000000E+00  0.00000000000E+00  0.22120751221E+03  0.22120751221E+03  0.00000000000E+00 0.  1.
         21   -1    0    0  502  503 -0.00000000000E+00 -0.00000000000E+00 -0.16147329642E+03  0.16147329642E+03  0.00000000000E+00 0.  1.
          6    1    1    2  501    0 -0.14264860991E+02 -0.68824636261E+02 -0.51275757326E+01  0.18587794073E+03  0.17200000000E+03 0. -1.
         -6    1    1    2    0  503  0.14264860991E+02  0.68824636261E+02  0.64861791520E+02  0.19680286790E+03  0.17200000000E+03 0. -1.
</event>
<event>
 4    1  0.1241325E+000  0.1787392E+03  0.7818608E-02  0.1169029E+00
         21   -1    0    0  501  502  0.00000000000E+00  0.00000000000E+00  0.11002919695E+03  0.11002919695E+03  0.00000000000E+00 0.  1.
         21   -1    0    0  502  503 -0.00000000000E+00 -0.00000000000E+00 -0.30751216850E+03  0.30751216850E+03  0.00000000000E+00 0. -1.
          6    1    1    2  501    0 -0.46937053784E+02 -0.12673257611E+02 -0.14805222313E+03  0.23209299699E+03  0.17200000000E+03 0. -1.
         -6    1    1    2    0  503  0.46937053784E+02  0.12673257611E+02 -0.49430748416E+02  0.18544836846E+03  0.17200000000E+03 0.  1.
</event>
<event>
 4    1  0.1241325E+000  0.1807736E+03  0.7818608E-02  0.1167056E+00
         21   -1    0    0  501  502  0.00000000000E+00  0.00000000000E+00  0.11916804513E+03  0.11916804513E+03  0.00000000000E+00 0.  1.
         21   -1    0    0  502  503 -0.00000000000E+00 -0.00000000000E+00 -0.34575606822E+03  0.34575606822E+03  0.00000000000E+00 0.  1.
          6    1    1    2  501    0 -0.94551115685E+01 -0.54824266401E+02 -0.75615465758E+01  0.18093168962E+03  0.17200000000E+03 0.  1.
         -6    1    1    2    0  503  0.94551115685E+01  0.54824266401E+02 -0.21902647652E+03  0.28399242373E+03  0.17200000000E+03 0.  1.
</event>
<event>
 4    1  0.1241325E+000  0.1833938E+03  0.7818608E-02  0.1164558E+00
         21   -1    0    0  501  502  0.00000000000E+00  0.00000000000E+00  0.44444396012E+03  0.44444396012E+03  0.00000000000E+00 0. -1.
         21   -1    0    0  502  503 -0.00000000000E+00 -0.00000000000E+00 -0.10045202183E+03  0.10045202183E+03  0.00000000000E+00 0. -1.
          6    1    1    2  501    0 -0.56011347709E+02  0.30199660359E+02  0.30730567224E+03  0.35786878427E+03  0.17200000000E+03 0. -1.
         -6    1    1    2    0  503  0.56011347709E+02 -0.30199660359E+02  0.36686266041E+02  0.18702719769E+03  0.17200000000E+03 0. -1.
</event>
<event>
 4    1  0.1241325E+000  0.2491418E+03  0.7818608E-02  0.1113848E+00
         21   -1    0    0  503  502  0.00000000000E+00  0.00000000000E+00  0.18009102807E+03  0.18009102807E+03  0.00000000000E+00 0. -1.
         21   -1    0    0  501  503 -0.00000000000E+00 -0.00000000000E+00 -0.45021864975E+03  0.45021864975E+03  0.00000000000E+00 0. -1.
          6    1    1    2  501    0  0.10494491319E+03  0.14654084176E+03 -0.28765949588E+03  0.38055175558E+03  0.17200000000E+03 0.  1.
         -6    1    1    2    0  502 -0.10494491319E+03 -0.14654084176E+03  0.17531874192E+02  0.24975792224E+03  0.17200000000E+03 0.  1.
</event>
<event>
 4    1  0.1241325E+000  0.2542149E+03  0.7818608E-02  0.1110670E+00
         21   -1    0    0  503  502  0.00000000000E+00  0.00000000000E+00  0.45921131066E+03  0.45921131066E+03  0.00000000000E+00 0. -1.
         21   -1    0    0  501  503 -0.00000000000E+00 -0.00000000000E+00 -0.16987715814E+03  0.16987715814E+03  0.00000000000E+00 0.  1.
          6    1    1    2  501    0 -0.30898155910E+02 -0.18462538831E+03  0.14378753681E+02  0.25462124539E+03  0.17200000000E+03 0.  1.
         -6    1    1    2    0  502  0.30898155910E+02  0.18462538831E+03  0.27495539884E+03  0.37446722340E+03  0.17200000000E+03 0. -1.
</event>
<event>
 4    1  0.1241325E+000  0.1938516E+03  0.7818608E-02  0.1155033E+00
         21   -1    0    0  503  502  0.00000000000E+00  0.00000000000E+00  0.87703647662E+02  0.87703647662E+02  0.00000000000E+00 0.  1.
         21   -1    0    0  501  503 -0.00000000000E+00 -0.00000000000E+00 -0.57793286317E+03  0.57793286317E+03  0.00000000000E+00 0.  1.
          6    1    1    2  501    0 -0.88605730228E+02 -0.11978498178E+02 -0.41436660498E+03  0.45746928113E+03  0.17200000000E+03 0.  1.
         -6    1    1    2    0  502  0.88605730228E+02  0.11978498178E+02 -0.75862610522E+02  0.20816722970E+03  0.17200000000E+03 0.  1.
</event>
<event>
 4    1  0.1241325E+000  0.2223129E+03  0.7818608E-02  0.1132170E+00
         21   -1    0    0  503  502  0.00000000000E+00  0.00000000000E+00  0.16903938977E+03  0.16903938977E+03  0.00000000000E+00 0.  1.
         21   -1    0    0  501  503 -0.00000000000E+00 -0.00000000000E+00 -0.70633680687E+03  0.70633680687E+03  0.00000000000E+00 0. -1.
          6    1    1    2  501    0  0.11494240983E+03 -0.81408124406E+02 -0.60372098327E+03  0.64335220987E+03  0.17200000000E+03 0. -1.
         -6    1    1    2    0  502 -0.11494240983E+03  0.81408124406E+02  0.66423566165E+02  0.23202398677E+03  0.17200000000E+03 0.  1.
</event>
<event>
 4    1  0.1241325E+000  0.2493519E+03  0.7818608E-02  0.1113715E+00
         21   -1    0    0  503  502  0.00000000000E+00  0.00000000000E+00  0.63125439383E+03  0.63125439383E+03  0.00000000000E+00 0. -1.
         21   -1    0    0  501  503 -0.00000000000E+00 -0.00000000000E+00 -0.19334018937E+03  0.19334018937E+03  0.00000000000E+00 0.  1.
          6    1    1    2  501    0  0.13970553895E+03  0.11434471118E+03 -0.69813929074E+02  0.25894079494E+03  0.17200000000E+03 0.  1.
         -6    1    1    2    0  502 -0.13970553895E+03 -0.11434471118E+03  0.50772813354E+03  0.56565378826E+03  0.17200000000E+03 0. -1.
</event>
<event>
 4    1  0.1241325E+000  0.1771016E+03  0.7818608E-02  0.1170638E+00
         21   -1    0    0  501  502  0.00000000000E+00  0.00000000000E+00  0.17149534260E+03  0.17149534260E+03  0.00000000000E+00 0.  1.
         21   -1    0    0  502  503 -0.00000000000E+00 -0.00000000000E+00 -0.19941620453E+03  0.19941620453E+03  0.00000000000E+00 0.  1.
          6    1    1    2  501    0 -0.42024558726E+02  0.38595634320E+01 -0.67347142327E+02  0.18947452954E+03  0.17200000000E+03 0. -1.
         -6    1    1    2    0  503  0.42024558726E+02 -0.38595634320E+01  0.39426280403E+02  0.18143701759E+03  0.17200000000E+03 0. -1.
</event>
<event>
 4    1  0.1241325E+000  0.2354035E+03  0.7818608E-02  0.1122893E+00
         21   -1    0    0  501  502  0.00000000000E+00  0.00000000000E+00  0.10092062735E+04  0.10092062735E+04  0.00000000000E+00 0. -1.
         21   -1    0    0  502  503 -0.00000000000E+00 -0.00000000000E+00 -0.13957503468E+03  0.13957503468E+03  0.00000000000E+00 0. -1.
          6    1    1    2  501    0 -0.13958327177E+03  0.79670131369E+02  0.88217578354E+03  0.91304377368E+03  0.17200000000E+03 0. -1.
         -6    1    1    2    0  503  0.13958327177E+03 -0.79670131369E+02 -0.12544544678E+02  0.23573753454E+03  0.17200000000E+03 0. -1.
</event>
<event>
 4    1  0.1241325E+000  0.2447823E+03  0.7818608E-02  0.1116647E+00
         21   -1    0    0  503  502  0.00000000000E+00  0.00000000000E+00  0.47246440670E+03  0.47246440670E+03  0.00000000000E+00 0. -1.
         21   -1    0    0  501  503 -0.00000000000E+00 -0.00000000000E+00 -0.12864953086E+03  0.12864953086E+03  0.00000000000E+00 0. -1.
          6    1    1    2  501    0 -0.94383520307E+02  0.14637667006E+03  0.13607458344E+03  0.28006190512E+03  0.17200000000E+03 0. -1.
         -6    1    1    2    0  502  0.94383520307E+02 -0.14637667006E+03  0.20774029240E+03  0.32105203243E+03  0.17200000000E+03 0. -1.
</event>
<event>
 4    1  0.1241325E+000  0.1923794E+03  0.7818608E-02  0.1156333E+00
         21   -1    0    0  503  502  0.00000000000E+00  0.00000000000E+00  0.64361007947E+02  0.64361007947E+02  0.00000000000E+00 0. -1.
         21   -1    0    0  501  503 -0.00000000000E+00 -0.00000000000E+00 -0.57684309883E+03  0.57684309883E+03  0.00000000000E+00 0. -1.
          6    1    1    2  501    0 -0.79767096581E+02  0.32604143969E+02 -0.27419133627E+03  0.33494881517E+03  0.17200000000E+03 0. -1.
         -6    1    1    2    0  502  0.79767096581E+02 -0.32604143969E+02 -0.23829075462E+03  0.30625529161E+03  0.17200000000E+03 0. -1.
</event>
<event>
 4    1  0.1241325E+000  0.1859749E+03  0.7818608E-02  0.1162143E+00
         21   -1    0    0  503  502  0.00000000000E+00  0.00000000000E+00  0.31402889330E+03  0.31402889330E+03  0.00000000000E+00 0.  1.
         21   -1    0    0  501  503 -0.00000000000E+00 -0.00000000000E+00 -0.11014125470E+03  0.11014125470E+03  0.00000000000E+00 0.  1.
          6    1    1    2  501    0  0.68974026458E+02  0.15660283688E+02  0.10301085937E+03  0.21259797261E+03  0.17200000000E+03 0. -1.
         -6    1    1    2    0  502 -0.68974026458E+02 -0.15660283688E+02  0.10087677923E+03  0.21157217539E+03  0.17200000000E+03 0. -1.
</event>
<event>
 4    1  0.1241325E+000  0.1908194E+03  0.7818608E-02  0.1157724E+00
         21   -1    0    0  501  502  0.00000000000E+00  0.00000000000E+00  0.34555876510E+03  0.34555876510E+03  0.00000000000E+00 0.  1.
         21   -1    0    0  502  503 -0.00000000000E+00 -0.00000000000E+00 -0.31339840548E+03  0.31339840548E+03  0.00000000000E+00 0.  1.
          6    1    1    2  501    0  0.35965568014E+02 -0.74394306633E+02  0.28451483767E+03  0.34257952040E+03  0.17200000000E+03 0.  1.
         -6    1    1    2    0  503 -0.35965568014E+02  0.74394306633E+02 -0.25235447805E+03  0.31637765018E+03  0.17200000000E+03 0.  1.
</event>
<event>
 4    1  0.1241325E+000  0.2429972E+03  0.7818608E-02  0.1117812E+00
         21   -1    0    0  503  502  0.00000000000E+00  0.00000000000E+00  0.75273551767E+02  0.75273551767E+02  0.00000000000E+00 0. -1.
         21   -1    0    0  501  503 -0.00000000000E+00 -0.00000000000E+00 -0.80799079210E+03  0.80799079210E+03  0.00000000000E+00 0.  1.
          6    1    1    2  501    0 -0.17127358635E+03 -0.11358617375E+02 -0.44175510803E+03  0.50417778119E+03  0.17200000000E+03 0.  1.
         -6    1    1    2    0  502  0.17127358635E+03  0.11358617375E+02 -0.29096213230E+03  0.37908656268E+03  0.17200000000E+03 0.  1.
</event>
<event>
 4    1  0.1241325E+000  0.2535678E+03  0.7818608E-02  0.1111071E+00
         21   -1    0    0  503  502  0.00000000000E+00  0.00000000000E+00  0.26106037142E+03  0.26106037142E+03  0.00000000000E+00 0.  1.
         21   -1    0    0  501  503 -0.00000000000E+00 -0.00000000000E+00 -0.48527446139E+03  0.48527446139E+03  0.00000000000E+00 0.  1.
          6    1    1    2  501    0  0.60422834809E+02 -0.17624337420E+03  0.14976824839E+03  0.29449477779E+03  0.17200000000E+03 0.  1.
         -6    1    1    2    0  502 -0.60422834809E+02  0.17624337420E+03 -0.37398233836E+03  0.45184005502E+03  0.17200000000E+03 0.  1.
</event>
<event>
 4    1  0.1241325E+000  0.3212113E+03  0.7818608E-02  0.1075093E+00
         21   -1    0    0  503  502  0.00000000000E+00  0.00000000000E+00  0.17296655651E+03  0.17296655651E+03  0.00000000000E+00 0. -1.
         21   -1    0    0  501  503 -0.00000000000E+00 -0.00000000000E+00 -0.60227318644E+03  0.60227318644E+03  0.00000000000E+00 0.  1.
          6    1    1    2  501    0  0.65948936236E+02  0.26314144424E+03 -0.17674336771E+03  0.36662637644E+03  0.17200000000E+03 0. -1.
         -6    1    1    2    0  502 -0.65948936236E+02 -0.26314144424E+03 -0.25256326222E+03  0.40861336651E+03  0.17200000000E+03 0.  1.
</event>
<event>
 4    1  0.1241325E+000  0.1952070E+03  0.7818608E-02  0.1153847E+00
         21   -1    0    0  501  502  0.00000000000E+00  0.00000000000E+00  0.65290960977E+03  0.65290960977E+03  0.00000000000E+00 0.  1.
         21   -1    0    0  502  503 -0.00000000000E+00 -0.00000000000E+00 -0.75394983714E+02  0.75394983714E+02  0.00000000000E+00 0.  1.
          6    1    1    2  501    0 -0.58127465635E+02 -0.71714469333E+02  0.46183630996E+03  0.50139659409E+03  0.17200000000E+03 0.  1.
         -6    1    1    2    0  503  0.58127465635E+02  0.71714469333E+02  0.11567831610E+03  0.22690799939E+03  0.17200000000E+03 0.  1.
</event>
<event>
 4    1  0.1241325E+000  0.1915631E+03  0.7818608E-02  0.1157059E+00
         21   -1    0    0  501  502  0.00000000000E+00  0.00000000000E+00  0.35386034375E+02  0.35386034375E+02  0.00000000000E+00 0. -1.
         21   -1    0    0  502  503 -0.00000000000E+00 -0.00000000000E+00 -0.10643827121E+04  0.10643827121E+04  0.00000000000E+00 0.  1.
          6    1    1    2  501    0 -0.44460075761E+02 -0.71663894840E+02 -0.60264691070E+03  0.63236042819E+03  0.17200000000E+03 0.  1.
         -6    1    1    2    0  503  0.44460075761E+02  0.71663894840E+02 -0.42634976700E+03  0.46740831826E+03  0.17200000000E+03 0.  1.
</event>
<event>
 4    1  0.1241325E+000  0.1864057E+03  0.7818608E-02  0.1161744E+00
         21   -1    0    0  501  502  0.00000000000E+00  0.00000000000E+00  0.12391366124E+02  0.12391366124E+02  0.00000000000E+00 0. -1.
         21   -1    0    0  502  503 -0.00000000000E+00 -0.00000000000E+00 -0.31755539157E+04  0.31755539157E+04  0.00000000000E+00 0. -1.
          6    1    1    2  501    0 -0.55888834033E+02 -0.45161185844E+02 -0.10364492925E+04  0.10530784540E+04  0.17200000000E+03 0. -1.
         -6    1    1    2    0  503  0.55888834033E+02  0.45161185844E+02 -0.21267132571E+04  0.21348668278E+04  0.17200000000E+03 0. -1.
</event>
<event>
 4    1  0.1241325E+000  0.1913939E+03  0.7818608E-02  0.1157210E+00
         21   -1    0    0  501  502  0.00000000000E+00  0.00000000000E+00  0.22987448828E+03  0.22987448828E+03  0.00000000000E+00 0.  1.
         21   -1    0    0  502  503 -0.00000000000E+00 -0.00000000000E+00 -0.24211509535E+03  0.24211509535E+03  0.00000000000E+00 0.  1.
          6    1    1    2  501    0 -0.79250243967E+02  0.27694926764E+02  0.13185533751E+03  0.23241652301E+03  0.17200000000E+03 0.  1.
         -6    1    1    2    0  503  0.79250243967E+02 -0.27694926764E+02 -0.14409594458E+03  0.23957306063E+03  0.17200000000E+03 0.  1.
</event>
<event>
 4    1  0.1241325E+000  0.2021711E+03  0.7818608E-02  0.1147920E+00
         21   -1    0    0  501  502  0.00000000000E+00  0.00000000000E+00  0.17853393876E+03  0.17853393876E+03  0.00000000000E+00 0.  1.
         21   -1    0    0  502  503 -0.00000000000E+00 -0.00000000000E+00 -0.24488905804E+03  0.24488905804E+03  0.00000000000E+00 0.  1.
          6    1    1    2  501    0  0.10541998367E+03 -0.13258229088E+02 -0.87210457570E+02  0.22017905782E+03  0.17200000000E+03 0.  1.
         -6    1    1    2    0  503 -0.10541998367E+03  0.13258229088E+02  0.20855338295E+02  0.20324393898E+03  0.17200000000E+03 0.  1.
</event>
<event>
 4    1  0.1241325E+000  0.2055823E+03  0.7818608E-02  0.1145113E+00
         21   -1    0    0  503  502  0.00000000000E+00  0.00000000000E+00  0.29927446167E+02  0.29927446167E+02  0.00000000000E+00 0.  1.
         21   -1    0    0  501  503 -0.00000000000E+00 -0.00000000000E+00 -0.14860290943E+04  0.14860290943E+04  0.00000000000E+00 0.  1.
          6    1    1    2  501    0 -0.11063670709E+03 -0.20967103387E+02 -0.55912278609E+03  0.59572006035E+03  0.17200000000E+03 0.  1.
         -6    1    1    2    0  502  0.11063670709E+03  0.20967103387E+02 -0.89697886200E+03  0.92023648007E+03  0.17200000000E+03 0.  1.
</event>
<event>
 4    1  0.1241325E+000  0.1918095E+03  0.7818608E-02  0.1156839E+00
         21   -1    0    0  501  502  0.00000000000E+00  0.00000000000E+00  0.91914358801E+02  0.91914358801E+02  0.00000000000E+00 0.  1.
         21   -1    0    0  502  503 -0.00000000000E+00 -0.00000000000E+00 -0.52597054282E+03  0.52597054282E+03  0.00000000000E+00 0.  1.
          6    1    1    2  501    0 -0.84853789437E+02  0.25938641347E+01 -0.65999494877E+02  0.20284680682E+03  0.17200000000E+03 0. -1.
         -6    1    1    2    0  503  0.84853789437E+02 -0.25938641347E+01 -0.36805668914E+03  0.41503809480E+03  0.17200000000E+03 0. -1.
</event>
<event>
 4    1  0.1241325E+000  0.2478346E+03  0.7818608E-02  0.1114681E+00
         21   -1    0    0  501  502  0.00000000000E+00  0.00000000000E+00  0.23819982297E+03  0.23819982297E+03  0.00000000000E+00 0.  1.
         21   -1    0    0  502  503 -0.00000000000E+00 -0.00000000000E+00 -0.26045946652E+03  0.26045946652E+03  0.00000000000E+00 0. -1.
          6    1    1    2  501    0  0.17467504039E+03  0.36422861869E+02  0.13782844245E+02  0.24821756867E+03  0.17200000000E+03 0.  1.
         -6    1    1    2    0  503 -0.17467504039E+03 -0.36422861869E+02 -0.36042487797E+02  0.25044172082E+03  0.17200000000E+03 0. -1.
</event>
<event>
 4    1  0.1241325E+000  0.1946638E+03  0.7818608E-02  0.1154321E+00
         21   -1    0    0  501  502  0.00000000000E+00  0.00000000000E+00  0.34495534818E+03  0.34495534818E+03  0.00000000000E+00 0.  1.
         21   -1    0    0  502  503 -0.00000000000E+00 -0.00000000000E+00 -0.11005483934E+03  0.11005483934E+03  0.00000000000E+00 0. -1.
          6    1    1    2  501    0 -0.90416442113E+02 -0.11612637774E+02  0.10767983372E+03  0.22246108188E+03  0.17200000000E+03 0.  1.
         -6    1    1    2    0  503  0.90416442113E+02  0.11612637774E+02  0.12722067512E+03  0.23254910565E+03  0.17200000000E+03 0.  1.
</event>
<event>
 4    1  0.1241325E+000  0.1953709E+03  0.7818608E-02  0.1153704E+00
         21   -1    0    0  503  502  0.00000000000E+00  0.00000000000E+00  0.60694758804E+03  0.60694758804E+03  0.00000000000E+00 0. -1.
         21   -1    0    0  501  503 -0.00000000000E+00 -0.00000000000E+00 -0.15232072243E+03  0.15232072243E+03  0.00000000000E+00 0.  1.
          6    1    1    2  501    0  0.86117696613E+02  0.34198642690E+02  0.51820669969E+03  0.55381223211E+03  0.17200000000E+03 0. -1.
         -6    1    1    2    0  502 -0.86117696613E+02 -0.34198642690E+02 -0.63579834077E+02  0.20545607835E+03  0.17200000000E+03 0.  1.
</event>
<event>
 4    1  0.1241325E+000  0.1781664E+03  0.7818608E-02  0.1169589E+00
         21   -1    0    0  503  502  0.00000000000E+00  0.00000000000E+00  0.54174231738E+03  0.54174231738E+03  0.00000000000E+00 0.  1.
         21   -1    0    0  501  503 -0.00000000000E+00 -0.00000000000E+00 -0.59040309537E+02  0.59040309537E+02  0.00000000000E+00 0.  1.
          6    1    1    2  501    0 -0.31727744058E+02 -0.33950457164E+02  0.26744502857E+03  0.32135669682E+03  0.17200000000E+03 0.  1.
         -6    1    1    2    0  502  0.31727744058E+02  0.33950457164E+02  0.21525697927E+03  0.27942593010E+03  0.17200000000E+03 0.  1.
</event>
<event>
 4    1  0.1241325E+000  0.1755369E+03  0.7818608E-02  0.1172194E+00
         21   -1    0    0  501  502  0.00000000000E+00  0.00000000000E+00  0.11796912515E+03  0.11796912515E+03  0.00000000000E+00 0.  1.
         21   -1    0    0  502  503 -0.00000000000E+00 -0.00000000000E+00 -0.28024468348E+03  0.28024468348E+03  0.00000000000E+00 0.  1.
          6    1    1    2  501    0 -0.22832198018E+02  0.26606145378E+02 -0.29229420663E+02  0.17795380094E+03  0.17200000000E+03 0.  1.
         -6    1    1    2    0  503  0.22832198018E+02 -0.26606145378E+02 -0.13304613766E+03  0.22026000768E+03  0.17200000000E+03 0.  1.
</event>
<event>
 4    1  0.1241325E+000  0.1842942E+03  0.7818608E-02  0.1163711E+00
         21   -1    0    0  503  502  0.00000000000E+00  0.00000000000E+00  0.34910125298E+03  0.34910125298E+03  0.00000000000E+00 0.  1.
         21   -1    0    0  501  503 -0.00000000000E+00 -0.00000000000E+00 -0.97701799401E+02  0.97701799401E+02  0.00000000000E+00 0.  1.
          6    1    1    2  501    0 -0.23394204803E+02 -0.61911810432E+02  0.14018823956E+03  0.23155367326E+03  0.17200000000E+03 0.  1.
         -6    1    1    2    0  502  0.23394204803E+02  0.61911810432E+02  0.11121121403E+03  0.21524937913E+03  0.17200000000E+03 0.  1.
</event>
<event>
 4    1  0.1241325E+000  0.1857979E+03  0.7818608E-02  0.1162307E+00
         21   -1    0    0  501  502  0.00000000000E+00  0.00000000000E+00  0.62240622285E+02  0.62240622285E+02  0.00000000000E+00 0. -1.
         21   -1    0    0  502  503 -0.00000000000E+00 -0.00000000000E+00 -0.55488897289E+03  0.55488897289E+03  0.00000000000E+00 0.  1.
          6    1    1    2  501    0 -0.28149035382E+02 -0.64377736044E+02 -0.23972976984E+03  0.30330055002E+03  0.17200000000E+03 0. -1.
         -6    1    1    2    0  503  0.28149035382E+02  0.64377736044E+02 -0.25291858076E+03  0.31382904516E+03  0.17200000000E+03 0. -1.
</event>
<event>
 4    1  0.1241325E+000  0.1738156E+03  0.7818608E-02  0.1173926E+00
         21   -1    0    0  503  502  0.00000000000E+00  0.00000000000E+00  0.20670168710E+03  0.20670168710E+03  0.00000000000E+00 0.  1.
         21   -1    0    0  501  503 -0.00000000000E+00 -0.00000000000E+00 -0.14875748899E+03  0.14875748899E+03  0.00000000000E+00 0.  1.
          6    1    1    2  501    0  0.25038896076E+02 -0.96046932863E+00  0.54944028960E+01  0.17390243610E+03  0.17200000000E+03 0.  1.
         -6    1    1    2    0  502 -0.25038896076E+02  0.96046932863E+00  0.52449795216E+02  0.18155673999E+03  0.17200000000E+03 0.  1.
</event>
<event>
 4    1  0.1241325E+000  0.1773648E+03  0.7818608E-02  0.1170378E+00
         21   -1    0    0  503  502  0.00000000000E+00  0.00000000000E+00  0.38203915047E+03  0.38203915047E+03  0.00000000000E+00 0.  1.
         21   -1    0    0  501  503 -0.00000000000E+00 -0.00000000000E+00 -0.17940893660E+03  0.17940893660E+03  0.00000000000E+00 0.  1.
          6    1    1    2  501    0  0.42231808880E+02 -0.95261821876E+01 -0.10517101066E+03  0.20620187999E+03  0.17200000000E+03 0.  1.
         -6    1    1    2    0  502 -0.42231808880E+02  0.95261821876E+01  0.30780122453E+03  0.35524620709E+03  0.17200000000E+03 0.  1.
</event>
<event>
 4    1  0.1241325E+000  0.1920051E+03  0.7818608E-02  0.1156665E+00
         21   -1    0    0  501  502  0.00000000000E+00  0.00000000000E+00  0.17771662702E+04  0.17771662702E+04  0.00000000000E+00 0.  1.
         21   -1    0    0  502  503 -0.00000000000E+00 -0.00000000000E+00 -0.24989988503E+02  0.24989988503E+02  0.00000000000E+00 0.  1.
          6    1    1    2  501    0  0.74214839332E+02  0.42120450996E+02  0.12475003985E+04  0.12621898506E+04  0.17200000000E+03 0.  1.
         -6    1    1    2    0  503 -0.74214839332E+02 -0.42120450996E+02  0.50467588320E+03  0.53996640808E+03  0.17200000000E+03 0.  1.
</event>
<event>
 4    1  0.1241325E+000  0.4087570E+03  0.7818608E-02  0.1040789E+00
         21   -1    0    0  501  502  0.00000000000E+00  0.00000000000E+00  0.33379707904E+03  0.33379707904E+03  0.00000000000E+00 0. -1.
         21   -1    0    0  502  503 -0.00000000000E+00 -0.00000000000E+00 -0.50098883254E+03  0.50098883254E+03  0.00000000000E+00 0.  1.
          6    1    1    2  501    0  0.37060733281E+03  0.12184825036E+02 -0.95943320221E+02  0.41986591406E+03  0.17200000000E+03 0. -1.
         -6    1    1    2    0  503 -0.37060733281E+03 -0.12184825036E+02 -0.71248433280E+02  0.41491999752E+03  0.17200000000E+03 0.  1.
</event>
<event>
 4    1  0.1241325E+000  0.3491178E+03  0.7818608E-02  0.1062978E+00
         21   -1    0    0  501  502  0.00000000000E+00  0.00000000000E+00  0.61273477747E+03  0.61273477747E+03  0.00000000000E+00 0.  1.
         21   -1    0    0  502  503 -0.00000000000E+00 -0.00000000000E+00 -0.23095543504E+03  0.23095543504E+03  0.00000000000E+00 0. -1.
          6    1    1    2  501    0 -0.19676022831E+03  0.23148359128E+03  0.34800766765E+03  0.49294277276E+03  0.17200000000E+03 0.  1.
         -6    1    1    2    0  503  0.19676022831E+03 -0.23148359128E+03  0.33771674780E+02  0.35074743975E+03  0.17200000000E+03 0.  1.
</event>
<event>
 4    1  0.1241325E+000  0.2013264E+03  0.7818608E-02  0.1148625E+00
         21   -1    0    0  503  502  0.00000000000E+00  0.00000000000E+00  0.32192470369E+02  0.32192470369E+02  0.00000000000E+00 0. -1.
         21   -1    0    0  501  503 -0.00000000000E+00 -0.00000000000E+00 -0.12644133810E+04  0.12644133810E+04  0.00000000000E+00 0.  1.
          6    1    1    2  501    0  0.37057563164E+02 -0.97852316811E+02 -0.65828376451E+03  0.68838205490E+03  0.17200000000E+03 0. -1.
         -6    1    1    2    0  502 -0.37057563164E+02  0.97852316811E+02 -0.57393714614E+03  0.60822379648E+03  0.17200000000E+03 0. -1.
</event>
<event>
 4    1  0.1241325E+000  0.1955653E+03  0.7818608E-02  0.1153535E+00
         21   -1    0    0  501  502  0.00000000000E+00  0.00000000000E+00  0.11227452991E+03  0.11227452991E+03  0.00000000000E+00 0. -1.
         21   -1    0    0  502  503 -0.00000000000E+00 -0.00000000000E+00 -0.89909108701E+03  0.89909108701E+03  0.00000000000E+00 0. -1.
          6    1    1    2  501    0  0.18701145968E+01 -0.93049895442E+02  0.51271080182E+01  0.19563248096E+03  0.17200000000E+03 0. -1.
         -6    1    1    2    0  503 -0.18701145968E+01  0.93049895442E+02 -0.79194366512E+03  0.81573313595E+03  0.17200000000E+03 0. -1.
</event>
<event>
 4    1  0.1241325E+000  0.1763456E+03  0.7818608E-02  0.1171387E+00
         21   -1    0    0  501  502  0.00000000000E+00  0.00000000000E+00  0.88375746467E+03  0.88375746467E+03  0.00000000000E+00 0. -1.
         21   -1    0    0  502  503 -0.00000000000E+00 -0.00000000000E+00 -0.45004337839E+02  0.45004337839E+02  0.00000000000E+00 0. -1.
          6    1    1    2  501    0  0.23701068771E+02 -0.30855179271E+02  0.63625620127E+03  0.66024218012E+03  0.17200000000E+03 0. -1.
         -6    1    1    2    0  503 -0.23701068771E+02  0.30855179271E+02  0.20249692556E+03  0.26851962239E+03  0.17200000000E+03 0. -1.
</event>
<event>
 4    1  0.1241325E+000  0.2534230E+03  0.7818608E-02  0.1111160E+00
         21   -1    0    0  503  502  0.00000000000E+00  0.00000000000E+00  0.88041748391E+03  0.88041748391E+03  0.00000000000E+00 0. -1.
         21   -1    0    0  501  503 -0.00000000000E+00 -0.00000000000E+00 -0.73122128353E+02  0.73122128353E+02  0.00000000000E+00 0. -1.
          6    1    1    2  501    0  0.13527551050E+03 -0.12782702624E+03  0.38026961695E+03  0.45697723571E+03  0.17200000000E+03 0. -1.
         -6    1    1    2    0  502 -0.13527551050E+03  0.12782702624E+03  0.42702573861E+03  0.49656237656E+03  0.17200000000E+03 0. -1.
</event>
<event>
 4    1  0.1241325E+000  0.1909439E+03  0.7818608E-02  0.1157613E+00
         21   -1    0    0  503  502  0.00000000000E+00  0.00000000000E+00  0.78973320901E+02  0.78973320901E+02  0.00000000000E+00 0. -1.
         21   -1    0    0  501  503 -0.00000000000E+00 -0.00000000000E+00 -0.48176748908E+03  0.48176748908E+03  0.00000000000E+00 0. -1.
          6    1    1    2  501    0  0.73600556956E+02  0.38190726196E+02 -0.25866214543E+03  0.32150533281E+03  0.17200000000E+03 0.  1.
         -6    1    1    2    0  502 -0.73600556956E+02 -0.38190726196E+02 -0.14413202275E+03  0.23923547716E+03  0.17200000000E+03 0.  1.
</event>
<event>
 4    1  0.1241325E+000  0.2329707E+03  0.7818608E-02  0.1124566E+00
         21   -1    0    0  501  502  0.00000000000E+00  0.00000000000E+00  0.89985530369E+03  0.89985530369E+03  0.00000000000E+00 0. -1.
         21   -1    0    0  502  503 -0.00000000000E+00 -0.00000000000E+00 -0.66064865879E+02  0.66064865879E+02  0.00000000000E+00 0. -1.
          6    1    1    2  501    0 -0.79141526981E+02  0.13574972749E+03  0.55936729535E+03  0.60594318291E+03  0.17200000000E+03 0.  1.
         -6    1    1    2    0  503  0.79141526981E+02 -0.13574972749E+03  0.27442314246E+03  0.35997698666E+03  0.17200000000E+03 0.  1.
</event>
<event>
 4    1  0.1241325E+000  0.1897476E+03  0.7818608E-02  0.1158689E+00
         21   -1    0    0  503  502  0.00000000000E+00  0.00000000000E+00  0.29546632968E+02  0.29546632968E+02  0.00000000000E+00 0. -1.
         21   -1    0    0  501  503 -0.00000000000E+00 -0.00000000000E+00 -0.31656675567E+04  0.31656675567E+04  0.00000000000E+00 0.  1.
          6    1    1    2  501    0  0.58898513604E+02  0.54324216892E+02 -0.28210083680E+04  0.28273826002E+04  0.17200000000E+03 0.  1.
         -6    1    1    2    0  502 -0.58898513604E+02 -0.54324216892E+02 -0.31511255570E+03  0.36783158946E+03  0.17200000000E+03 0. -1.
</event>
<event>
 4    1  0.1241325E+000  0.1730439E+03  0.7818608E-02  0.1174710E+00
         21   -1    0    0  503  502  0.00000000000E+00  0.00000000000E+00  0.32932104610E+03  0.32932104610E+03  0.00000000000E+00 0. -1.
         21   -1    0    0  501  503 -0.00000000000E+00 -0.00000000000E+00 -0.40622794051E+03  0.40622794051E+03  0.00000000000E+00 0. -1.
          6    1    1    2  501    0 -0.18784376340E+02  0.27079341996E+01 -0.36246412341E+03  0.40165212120E+03  0.17200000000E+03 0. -1.
         -6    1    1    2    0  502  0.18784376340E+02 -0.27079341996E+01  0.28555722900E+03  0.33389686542E+03  0.17200000000E+03 0. -1.
</event>
<event>
 4    1  0.1241325E+000  0.1721144E+03  0.7818608E-02  0.1175661E+00
         21   -1    0    0  501  502  0.00000000000E+00  0.00000000000E+00  0.29216610568E+03  0.29216610568E+03  0.00000000000E+00 0.  1.
         21   -1    0    0  502  503 -0.00000000000E+00 -0.00000000000E+00 -0.10285717562E+03  0.10285717562E+03  0.00000000000E+00 0.  1.
          6    1    1    2  501    0 -0.14409672929E+01 -0.61067312551E+01  0.71082901024E+02  0.18621532529E+03  0.17200000000E+03 0. -1.
         -6    1    1    2    0  503  0.14409672929E+01  0.61067312551E+01  0.11822602903E+03  0.20880795601E+03  0.17200000000E+03 0. -1.
</event>
<event>
 4    1  0.1241325E+000  0.1866399E+03  0.7818608E-02  0.1161527E+00
         21   -1    0    0  501  502  0.00000000000E+00  0.00000000000E+00  0.38028291472E+02  0.38028291472E+02  0.00000000000E+00 0. -1.
         21   -1    0    0  502  503 -0.00000000000E+00 -0.00000000000E+00 -0.10415914582E+04  0.10415914582E+04  0.00000000000E+00 0.  1.
          6    1    1    2  501    0  0.61097725124E+02  0.38955444150E+02 -0.31434798099E+03  0.36558051342E+03  0.17200000000E+03 0. -1.
         -6    1    1    2    0  503 -0.61097725124E+02 -0.38955444150E+02 -0.68921518572E+03  0.71403923623E+03  0.17200000000E+03 0.  1.
</event>
<event>
 4    1  0.1241325E+000  0.1767086E+03  0.7818608E-02  0.1171027E+00
         21   -1    0    0  503  502  0.00000000000E+00  0.00000000000E+00  0.48610382768E+03  0.48610382768E+03  0.00000000000E+00 0. -1.
         21   -1    0    0  501  503 -0.00000000000E+00 -0.00000000000E+00 -0.64576792857E+02  0.64576792857E+02  0.00000000000E+00 0. -1.
          6    1    1    2  501    0 -0.29960515143E+02  0.27281729139E+02  0.19079518214E+03  0.26005523786E+03  0.17200000000E+03 0.  1.
         -6    1    1    2    0  502  0.29960515143E+02 -0.27281729139E+02  0.23073185269E+03  0.29062538268E+03  0.17200000000E+03 0.  1.
</event>
<event>
 4    1  0.1241325E+000  0.1883283E+03  0.7818608E-02  0.1159978E+00
         21   -1    0    0  501  502  0.00000000000E+00  0.00000000000E+00  0.43514608721E+03  0.43514608721E+03  0.00000000000E+00 0. -1.
         21   -1    0    0  502  503 -0.00000000000E+00 -0.00000000000E+00 -0.81973209402E+02  0.81973209402E+02  0.00000000000E+00 0.  1.
          6    1    1    2  501    0  0.66899515155E+02  0.37523412225E+02  0.19608079091E+03  0.27187355178E+03  0.17200000000E+03 0.  1.
         -6    1    1    2    0  503 -0.66899515155E+02 -0.37523412225E+02  0.15709208690E+03  0.24524574483E+03  0.17200000000E+03 0. -1.
</event>
<event>
 4    1  0.1241325E+000  0.2171773E+03  0.7818608E-02  0.1136005E+00
         21   -1    0    0  503  502  0.00000000000E+00  0.00000000000E+00  0.73450043919E+02  0.73450043919E+02  0.00000000000E+00 0. -1.
         21   -1    0    0  501  503 -0.00000000000E+00 -0.00000000000E+00 -0.66390401920E+03  0.66390401920E+03  0.00000000000E+00 0. -1.
          6    1    1    2  501    0 -0.79232078175E+02  0.10632142182E+03 -0.36196300713E+03  0.42211750198E+03  0.17200000000E+03 0. -1.
         -6    1    1    2    0  502  0.79232078175E+02 -0.10632142182E+03 -0.22849096815E+03  0.31523656113E+03  0.17200000000E+03 0. -1.
</event>
<event>
 4    1  0.1241325E+000  0.1818803E+03  0.7818608E-02  0.1165996E+00
         21   -1    0    0  503  502  0.00000000000E+00  0.00000000000E+00  0.14128175967E+04  0.14128175967E+04  0.00000000000E+00 0.  1.
         21   -1    0    0  501  503 -0.00000000000E+00 -0.00000000000E+00 -0.24019595061E+02  0.24019595061E+02  0.00000000000E+00 0. -1.
          6    1    1    2  501    0  0.38577153009E+02 -0.44813481450E+02  0.80842387727E+03  0.82863116656E+03  0.17200000000E+03 0.  1.
         -6    1    1    2    0  502 -0.38577153009E+02  0.44813481450E+02  0.58037412437E+03  0.60820602520E+03  0.17200000000E+03 0. -1.
</event>
<event>
 4    1  0.1241325E+000  0.2229588E+03  0.7818608E-02  0.1131696E+00
         21   -1    0    0  501  502  0.00000000000E+00  0.00000000000E+00  0.79658961671E+02  0.79658961671E+02  0.00000000000E+00 0.  1.
         21   -1    0    0  502  503 -0.00000000000E+00 -0.00000000000E+00 -0.74912420456E+03  0.74912420456E+03  0.00000000000E+00 0. -1.
          6    1    1    2  501    0 -0.13162413575E+03  0.52931222191E+02 -0.16540421511E+03  0.27761336742E+03  0.17200000000E+03 0. -1.
         -6    1    1    2    0  503  0.13162413575E+03 -0.52931222191E+02 -0.50406102777E+03  0.55116979880E+03  0.17200000000E+03 0. -1.
</event>
<event>
 4    1  0.1241325E+000  0.1824355E+03  0.7818608E-02  0.1165467E+00
         21   -1    0    0  503  502  0.00000000000E+00  0.00000000000E+00  0.50115747912E+02  0.50115747912E+02  0.00000000000E+00 0.  1.
         21   -1    0    0  501  503 -0.00000000000E+00 -0.00000000000E+00 -0.16364572256E+04  0.16364572256E+04  0.00000000000E+00 0.  1.
          6    1    1    2  501    0  0.50182628786E+02  0.34356962706E+02 -0.14431987041E+04  0.14546838820E+04  0.17200000000E+03 0.  1.
         -6    1    1    2    0  502 -0.50182628786E+02 -0.34356962706E+02 -0.14314277359E+03  0.23188909148E+03  0.17200000000E+03 0.  1.
</event>
<event>
 4    1  0.1241325E+000  0.2000533E+03  0.7818608E-02  0.1149694E+00
         21   -1    0    0  501  502  0.00000000000E+00  0.00000000000E+00  0.30280897032E+03  0.30280897032E+03  0.00000000000E+00 0. -1.
         21   -1    0    0  502  503 -0.00000000000E+00 -0.00000000000E+00 -0.17583625825E+03  0.17583625825E+03  0.00000000000E+00 0. -1.
          6    1    1    2  501    0 -0.87655061428E+02  0.52477702657E+02  0.18275272276E+03  0.27096102440E+03  0.17200000000E+03 0. -1.
         -6    1    1    2    0  503  0.87655061428E+02 -0.52477702657E+02 -0.55780010687E+02  0.20768420417E+03  0.17200000000E+03 0. -1.
</event>
<event>
 4    1  0.1241325E+000  0.2175774E+03  0.7818608E-02  0.1135702E+00
         21   -1    0    0  501  502  0.00000000000E+00  0.00000000000E+00  0.21278228307E+03  0.21278228307E+03  0.00000000000E+00 0.  1.
         21   -1    0    0  502  503 -0.00000000000E+00 -0.00000000000E+00 -0.25634484618E+03  0.25634484618E+03  0.00000000000E+00 0.  1.
          6    1    1    2  501    0 -0.49464217740E+01  0.13315959784E+03  0.63473450653E+02  0.22664691598E+03  0.17200000000E+03 0.  1.
         -6    1    1    2    0  503  0.49464217740E+01 -0.13315959784E+03 -0.10703601377E+03  0.24248021327E+03  0.17200000000E+03 0.  1.
</event>
<event>
 4    1  0.1241325E+000  0.1858002E+03  0.7818608E-02  0.1162305E+00
         21   -1    0    0  503  502  0.00000000000E+00  0.00000000000E+00  0.96414750708E+02  0.96414750708E+02  0.00000000000E+00 0.  1.
         21   -1    0    0  501  503 -0.00000000000E+00 -0.00000000000E+00 -0.37867349741E+03  0.37867349741E+03  0.00000000000E+00 0.  1.
          6    1    1    2  501    0 -0.68889377144E+02  0.13855706903E+02 -0.19655958450E+03  0.27047624139E+03  0.17200000000E+03 0. -1.
         -6    1    1    2    0  502  0.68889377144E+02 -0.13855706903E+02 -0.85699162207E+02  0.20461200673E+03  0.17200000000E+03 0. -1.
</event>
<event>
 4    1  0.1241325E+000  0.2049346E+03  0.7818608E-02  0.1145641E+00
         21   -1    0    0  501  502  0.00000000000E+00  0.00000000000E+00  0.46364642307E+03  0.46364642307E+03  0.00000000000E+00 0. -1.
         21   -1    0    0  502  503 -0.00000000000E+00 -0.00000000000E+00 -0.13577185259E+03  0.13577185259E+03  0.00000000000E+00 0. -1.
          6    1    1    2  501    0  0.10018020002E+03  0.48765780185E+02  0.33684484587E+03  0.39428748900E+03  0.17200000000E+03 0. -1.
         -6    1    1    2    0  503 -0.10018020002E+03 -0.48765780185E+02 -0.89702753870E+01  0.20513078666E+03  0.17200000000E+03 0. -1.
</event>
<event>
 4    1  0.1241325E+000  0.2034353E+03  0.7818608E-02  0.1146873E+00
         21   -1    0    0  501  502  0.00000000000E+00  0.00000000000E+00  0.14164459606E+04  0.14164459606E+04  0.00000000000E+00 0.  1.
         21   -1    0    0  502  503 -0.00000000000E+00 -0.00000000000E+00 -0.29412629181E+02  0.29412629181E+02  0.00000000000E+00 0.  1.
          6    1    1    2  501    0  0.10660263867E+03 -0.20923985848E+02  0.63473236583E+03  0.66653665465E+03  0.17200000000E+03 0.  1.
         -6    1    1    2    0  503 -0.10660263867E+03  0.20923985848E+02  0.75230096555E+03  0.77932193510E+03  0.17200000000E+03 0.  1.
</event>
<event>
 4    1  0.1241325E+000  0.1994839E+03  0.7818608E-02  0.1150175E+00
         21   -1    0    0  501  502  0.00000000000E+00  0.00000000000E+00  0.63784223280E+03  0.63784223280E+03  0.00000000000E+00 0. -1.
         21   -1    0    0  502  503 -0.00000000000E+00 -0.00000000000E+00 -0.11586902163E+03  0.11586902163E+03  0.00000000000E+00 0. -1.
          6    1    1    2  501    0  0.70075941333E+02  0.72795629123E+02  0.51701627246E+03  0.55416573979E+03  0.17200000000E+03 0. -1.
         -6    1    1    2    0  503 -0.70075941333E+02 -0.72795629123E+02  0.49569387113E+01  0.19954551464E+03  0.17200000000E+03 0. -1.
</event>
<event>
 4    1  0.1241325E+000  0.2325056E+03  0.7818608E-02  0.1124889E+00
         21   -1    0    0  501  502  0.00000000000E+00  0.00000000000E+00  0.14675805562E+04  0.14675805562E+04  0.00000000000E+00 0. -1.
         21   -1    0    0  502  503 -0.00000000000E+00 -0.00000000000E+00 -0.78821585792E+02  0.78821585792E+02  0.00000000000E+00 0.  1.
          6    1    1    2  501    0 -0.97008942796E+02  0.12273590273E+03  0.12586967748E+04  0.12799907843E+04  0.17200000000E+03 0.  1.
         -6    1    1    2    0  503  0.97008942796E+02 -0.12273590273E+03  0.13006219553E+03  0.26641135769E+03  0.17200000000E+03 0. -1.
</event>
<event>
 4    1  0.1241325E+000  0.1906686E+03  0.7818608E-02  0.1157860E+00
         21   -1    0    0  503  502  0.00000000000E+00  0.00000000000E+00  0.14962611098E+03  0.14962611098E+03  0.00000000000E+00 0.  1.
         21   -1    0    0  501  503 -0.00000000000E+00 -0.00000000000E+00 -0.30075379319E+03  0.30075379319E+03  0.00000000000E+00 0.  1.
          6    1    1    2  501    0  0.31286896799E+02 -0.76102932966E+02 -0.17427124671E+03  0.25831181496E+03  0.17200000000E+03 0.  1.
         -6    1    1    2    0  502 -0.31286896799E+02  0.76102932966E+02  0.23143564502E+02  0.19206808922E+03  0.17200000000E+03 0.  1.
</event>
<event>
 4    1  0.1241325E+000  0.2071571E+03  0.7818608E-02  0.1143837E+00
         21   -1    0    0  503  502  0.00000000000E+00  0.00000000000E+00  0.14875431799E+04  0.14875431799E+04  0.00000000000E+00 0. -1.
         21   -1    0    0  501  503 -0.00000000000E+00 -0.00000000000E+00 -0.33744186654E+02  0.33744186654E+02  0.00000000000E+00 0. -1.
          6    1    1    2  501    0 -0.11474292005E+03 -0.12811811224E+02  0.43718649287E+03  0.48378312265E+03  0.17200000000E+03 0. -1.
         -6    1    1    2    0  502  0.11474292005E+03  0.12811811224E+02  0.10166125004E+04  0.10375042439E+04  0.17200000000E+03 0. -1.
</event>
<event>
 4    1  0.1241325E+000  0.2179778E+03  0.7818608E-02  0.1135400E+00
         21   -1    0    0  501  502  0.00000000000E+00  0.00000000000E+00  0.10580418117E+04  0.10580418117E+04  0.00000000000E+00 0. -1.
         21   -1    0    0  502  503 -0.00000000000E+00 -0.00000000000E+00 -0.56635764193E+02  0.56635764193E+02  0.00000000000E+00 0. -1.
          6    1    1    2  501    0  0.11384797497E+03 -0.70490959017E+02  0.75432395091E+03  0.78518721310E+03  0.17200000000E+03 0. -1.
         -6    1    1    2    0  503 -0.11384797497E+03  0.70490959017E+02  0.24708209657E+03  0.32949036276E+03  0.17200000000E+03 0. -1.
</event>
<event>
 4    1  0.1241325E+000  0.1735119E+03  0.7818608E-02  0.1174234E+00
         21   -1    0    0  503  502  0.00000000000E+00  0.00000000000E+00  0.14204571293E+04  0.14204571293E+04  0.00000000000E+00 0. -1.
         21   -1    0    0  501  503 -0.00000000000E+00 -0.00000000000E+00 -0.21416191025E+02  0.21416191025E+02  0.00000000000E+00 0. -1.
          6    1    1    2  501    0 -0.30055273525E+01 -0.22657202376E+02  0.77281180749E+03  0.79205080128E+03  0.17200000000E+03 0. -1.
         -6    1    1    2    0  502  0.30055273525E+01  0.22657202376E+02  0.62622913084E+03  0.64982251910E+03  0.17200000000E+03 0. -1.
</event>
<event>
 4    1  0.1241325E+000  0.2249602E+03  0.7818608E-02  0.1130238E+00
         21   -1    0    0  503  502  0.00000000000E+00  0.00000000000E+00  0.71485067279E+02  0.71485067279E+02  0.00000000000E+00 0. -1.
         21   -1    0    0  501  503 -0.00000000000E+00 -0.00000000000E+00 -0.90163589010E+03  0.90163589010E+03  0.00000000000E+00 0. -1.
          6    1    1    2  501    0  0.14533545595E+02 -0.14426316493E+03 -0.64059396724E+03  0.67894603288E+03  0.17200000000E+03 0. -1.
         -6    1    1    2    0  502 -0.14533545595E+02  0.14426316493E+03 -0.18955685558E+03  0.29417492449E+03  0.17200000000E+03 0. -1.
</event>
<event>
 4    1  0.1241325E+000  0.2025950E+03  0.7818608E-02  0.1147568E+00
         21   -1    0    0  503  502  0.00000000000E+00  0.00000000000E+00  0.40826901113E+03  0.40826901113E+03  0.00000000000E+00 0.  1.
         21   -1    0    0  501  503 -0.00000000000E+00 -0.00000000000E+00 -0.12094357023E+03  0.12094357023E+03  0.00000000000E+00 0.  1.
          6    1    1    2  501    0 -0.99360616385E+02  0.39852041936E+02  0.34962381240E+02  0.20558960440E+03  0.17200000000E+03 0.  1.
         -6    1    1    2    0  502  0.99360616385E+02 -0.39852041936E+02  0.25236305966E+03  0.32362297696E+03  0.17200000000E+03 0.  1.
</event>
<event>
 4    1  0.1241325E+000  0.2075801E+03  0.7818608E-02  0.1143497E+00
         21   -1    0    0  503  502  0.00000000000E+00  0.00000000000E+00  0.88160579630E+02  0.88160579630E+02  0.00000000000E+00 0.  1.
         21   -1    0    0  501  503 -0.00000000000E+00 -0.00000000000E+00 -0.94754764696E+03  0.94754764696E+03  0.00000000000E+00 0. -1.
          6    1    1    2  501    0  0.28091744911E+02 -0.11276684922E+03 -0.79003313097E+03  0.81684873536E+03  0.17200000000E+03 0. -1.
         -6    1    1    2    0  502 -0.28091744911E+02  0.11276684922E+03 -0.69353936360E+02  0.21885949124E+03  0.17200000000E+03 0.  1.
</event>
<event>
 4    1  0.1241325E+000  0.1923209E+03  0.7818608E-02  0.1156385E+00
         21   -1    0    0  503  502  0.00000000000E+00  0.00000000000E+00  0.44414059269E+03  0.44414059269E+03  0.00000000000E+00 0. -1.
         21   -1    0    0  501  503 -0.00000000000E+00 -0.00000000000E+00 -0.10475394273E+03  0.10475394273E+03  0.00000000000E+00 0. -1.
          6    1    1    2  501    0 -0.78828301366E+02 -0.34487892063E+02  0.45429177315E+02  0.19761357733E+03  0.17200000000E+03 0. -1.
         -6    1    1    2    0  502  0.78828301366E+02  0.34487892063E+02  0.29395747264E+03  0.35128095809E+03  0.17200000000E+03 0. -1.
</event>
<event>
 4    1  0.1241325E+000  0.2570963E+03  0.7818608E-02  0.1108901E+00
         21   -1    0    0  503  502  0.00000000000E+00  0.00000000000E+00  0.36065639745E+03  0.36065639745E+03  0.00000000000E+00 0. -1.
         21   -1    0    0  501  503 -0.00000000000E+00 -0.00000000000E+00 -0.19862719158E+03  0.19862719158E+03  0.00000000000E+00 0.  1.
          6    1    1    2  501    0  0.80211595573E+02 -0.17343755185E+03  0.32646829384E+01  0.25711698234E+03  0.17200000000E+03 0.  1.
         -6    1    1    2    0  502 -0.80211595573E+02  0.17343755185E+03  0.15876452293E+03  0.30216660669E+03  0.17200000000E+03 0. -1.
</event>
<event>
 4    1  0.1241325E+000  0.1949383E+03  0.7818608E-02  0.1154081E+00
         21   -1    0    0  503  502  0.00000000000E+00  0.00000000000E+00  0.32450220810E+03  0.32450220810E+03  0.00000000000E+00 0. -1.
         21   -1    0    0  501  503 -0.00000000000E+00 -0.00000000000E+00 -0.11713376718E+03  0.11713376718E+03  0.00000000000E+00 0. -1.
          6    1    1    2  501    0 -0.31475835896E+02 -0.86175546835E+02  0.10712205142E+03  0.22243220769E+03  0.17200000000E+03 0.  1.
         -6    1    1    2    0  502  0.31475835896E+02  0.86175546835E+02  0.10024638949E+03  0.21920376759E+03  0.17200000000E+03 0.  1.
</event>
<event>
 4    1  0.1241325E+000  0.2089367E+03  0.7818608E-02  0.1142411E+00
         21   -1    0    0  501  502  0.00000000000E+00  0.00000000000E+00  0.31464726894E+03  0.31464726894E+03  0.00000000000E+00 0. -1.
         21   -1    0    0  502  503 -0.00000000000E+00 -0.00000000000E+00 -0.26189285006E+03  0.26189285006E+03  0.00000000000E+00 0. -1.
          6    1    1    2  501    0  0.11703800362E+03 -0.19304136653E+02 -0.17130055011E+03  0.27018220232E+03  0.17200000000E+03 0.  1.
         -6    1    1    2    0  503 -0.11703800362E+03  0.19304136653E+02  0.22405496899E+03  0.30635791668E+03  0.17200000000E+03 0.  1.
</event>
<event>
 4    1  0.1241325E+000  0.1856231E+03  0.7818608E-02  0.1162469E+00
         21   -1    0    0  501  502  0.00000000000E+00  0.00000000000E+00  0.55395674989E+02  0.55395674989E+02  0.00000000000E+00 0. -1.
         21   -1    0    0  502  503 -0.00000000000E+00 -0.00000000000E+00 -0.64012745614E+03  0.64012745614E+03  0.00000000000E+00 0. -1.
          6    1    1    2  501    0 -0.50887809945E+02  0.47774066654E+02 -0.35089279212E+03  0.39696559323E+03  0.17200000000E+03 0. -1.
         -6    1    1    2    0  503  0.50887809945E+02 -0.47774066654E+02 -0.23383898903E+03  0.29855753790E+03  0.17200000000E+03 0. -1.
</event>
<event>
 4    1  0.1241325E+000  0.1952526E+03  0.7818608E-02  0.1153807E+00
         21   -1    0    0  501  502  0.00000000000E+00  0.00000000000E+00  0.41195884919E+03  0.41195884919E+03  0.00000000000E+00 0.  1.
         21   -1    0    0  502  503 -0.00000000000E+00 -0.00000000000E+00 -0.14012752322E+03  0.14012752322E+03  0.00000000000E+00 0.  1.
          6    1    1    2  501    0  0.34883328425E+02 -0.85572901302E+02  0.29677709596E+03  0.35524669278E+03  0.17200000000E+03 0.  1.
         -6    1    1    2    0  503 -0.34883328425E+02  0.85572901302E+02 -0.24945769989E+02  0.19683967964E+03  0.17200000000E+03 0.  1.
</event>
<event>
 4    1  0.1241325E+000  0.1809315E+03  0.7818608E-02  0.1166905E+00
         21   -1    0    0  501  502  0.00000000000E+00  0.00000000000E+00  0.95445928122E+03  0.95445928122E+03  0.00000000000E+00 0. -1.
         21   -1    0    0  502  503 -0.00000000000E+00 -0.00000000000E+00 -0.36889570694E+02  0.36889570694E+02  0.00000000000E+00 0. -1.
          6    1    1    2  501    0 -0.38790794478E+02  0.40588993803E+02  0.32740969077E+03  0.37407659344E+03  0.17200000000E+03 0.  1.
         -6    1    1    2    0  503  0.38790794478E+02 -0.40588993803E+02  0.59016001975E+03  0.61727225847E+03  0.17200000000E+03 0.  1.
</event>
<event>
 4    1  0.1241325E+000  0.2143853E+03  0.7818608E-02  0.1138140E+00
         21   -1    0    0  501  502  0.00000000000E+00  0.00000000000E+00  0.39102371926E+03  0.39102371926E+03  0.00000000000E+00 0.  1.
         21   -1    0    0  502  503 -0.00000000000E+00 -0.00000000000E+00 -0.12305128917E+03  0.12305128917E+03  0.00000000000E+00 0.  1.
          6    1    1    2  501    0 -0.12792049931E+03  0.36580716010E+01  0.18838249017E+03  0.28539270879E+03  0.17200000000E+03 0. -1.
         -6    1    1    2    0  503  0.12792049931E+03 -0.36580716010E+01  0.79589939927E+02  0.22868229964E+03  0.17200000000E+03 0. -1.
</event>
<event>
 4    1  0.1241325E+000  0.1916666E+03  0.7818608E-02  0.1156967E+00
         21   -1    0    0  501  502  0.00000000000E+00  0.00000000000E+00  0.13518711951E+03  0.13518711951E+03  0.00000000000E+00 0.  1.
         21   -1    0    0  502  503 -0.00000000000E+00 -0.00000000000E+00 -0.27211065822E+03  0.27211065822E+03  0.00000000000E+00 0. -1.
          6    1    1    2  501    0 -0.72375893032E+02 -0.43746969299E+02 -0.75953940527E+02  0.20616757334E+03  0.17200000000E+03 0.  1.
         -6    1    1    2    0  503  0.72375893032E+02  0.43746969299E+02 -0.60969598180E+02  0.20113020439E+03  0.17200000000E+03 0. -1.
</event>
<event>
 4    1  0.1241325E+000  0.1757417E+03  0.7818608E-02  0.1171989E+00
         21   -1    0    0  501  502  0.00000000000E+00  0.00000000000E+00  0.27600321376E+02  0.27600321376E+02  0.00000000000E+00 0.  1.
         21   -1    0    0  502  503 -0.00000000000E+00 -0.00000000000E+00 -0.11938137728E+04  0.11938137728E+04  0.00000000000E+00 0.  1.
          6    1    1    2  501    0 -0.16934481502E+02  0.31849303964E+02 -0.73597376431E+03  0.75666540596E+03  0.17200000000E+03 0.  1.
         -6    1    1    2    0  503  0.16934481502E+02 -0.31849303964E+02 -0.43023968710E+03  0.46474868819E+03  0.17200000000E+03 0.  1.
</event>
<event>
 4    1  0.1241325E+000  0.2062612E+03  0.7818608E-02  0.1144561E+00
         21   -1    0    0  501  502  0.00000000000E+00  0.00000000000E+00  0.16578034775E+03  0.16578034775E+03  0.00000000000E+00 0.  1.
         21   -1    0    0  502  503 -0.00000000000E+00 -0.00000000000E+00 -0.27716707324E+03  0.27716707324E+03  0.00000000000E+00 0.  1.
          6    1    1    2  501    0  0.89006943723E+02  0.70974834354E+02 -0.11598478883E+03  0.23663502358E+03  0.17200000000E+03 0.  1.
         -6    1    1    2    0  503 -0.89006943723E+02 -0.70974834354E+02  0.45980633450E+01  0.20631239742E+03  0.17200000000E+03 0.  1.
</event>
<event>
 4    1  0.1241325E+000  0.1780581E+03  0.7818608E-02  0.1169696E+00
         21   -1    0    0  501  502  0.00000000000E+00  0.00000000000E+00  0.16847724111E+03  0.16847724111E+03  0.00000000000E+00 0. -1.
         21   -1    0    0  502  503 -0.00000000000E+00 -0.00000000000E+00 -0.18838494250E+03  0.18838494250E+03  0.00000000000E+00 0. -1.
          6    1    1    2  501    0 -0.38076692239E+02 -0.25900931647E+02 -0.41238936916E+01  0.17810586529E+03  0.17200000000E+03 0. -1.
         -6    1    1    2    0  503  0.38076692239E+02  0.25900931647E+02 -0.15783807696E+02  0.17875631831E+03  0.17200000000E+03 0. -1.
</event>
<event>
 4    1  0.1241325E+000  0.2066932E+03  0.7818608E-02  0.1144212E+00
         21   -1    0    0  501  502  0.00000000000E+00  0.00000000000E+00  0.11364217314E+04  0.11364217314E+04  0.00000000000E+00 0.  1.
         21   -1    0    0  502  503 -0.00000000000E+00 -0.00000000000E+00 -0.44874115935E+02  0.44874115935E+02  0.00000000000E+00 0.  1.
          6    1    1    2  501    0 -0.63602560807E+02  0.95356116502E+02  0.78368489176E+03  0.81048385812E+03  0.17200000000E+03 0. -1.
         -6    1    1    2    0  503  0.63602560807E+02 -0.95356116502E+02  0.30786272366E+03  0.37081198917E+03  0.17200000000E+03 0. -1.
</event>
<event>
 4    1  0.1241325E+000  0.2283249E+03  0.7818608E-02  0.1127824E+00
         21   -1    0    0  501  502  0.00000000000E+00  0.00000000000E+00  0.23813028291E+03  0.23813028291E+03  0.00000000000E+00 0. -1.
         21   -1    0    0  502  503 -0.00000000000E+00 -0.00000000000E+00 -0.23663844176E+03  0.23663844176E+03  0.00000000000E+00 0. -1.
          6    1    1    2  501    0  0.87980647609E+02  0.12168681404E+03  0.65696252910E+02  0.23758845240E+03  0.17200000000E+03 0. -1.
         -6    1    1    2    0  503 -0.87980647609E+02 -0.12168681404E+03 -0.64204411760E+02  0.23718027227E+03  0.17200000000E+03 0. -1.
</event>
<event>
 4    1  0.1241325E+000  0.2411399E+03  0.7818608E-02  0.1119036E+00
         21   -1    0    0  501  502  0.00000000000E+00  0.00000000000E+00  0.14213759407E+03  0.14213759407E+03  0.00000000000E+00 0.  1.
         21   -1    0    0  502  503 -0.00000000000E+00 -0.00000000000E+00 -0.43590965326E+03  0.43590965326E+03  0.00000000000E+00 0.  1.
          6    1    1    2  501    0  0.16294414596E+03  0.44873963614E+02 -0.21856338523E+03  0.32545110336E+03  0.17200000000E+03 0.  1.
         -6    1    1    2    0  503 -0.16294414596E+03 -0.44873963614E+02 -0.75208673956E+02  0.25259614397E+03  0.17200000000E+03 0.  1.
</event>
<event>
 4    1  0.1241325E+000  0.1817469E+03  0.7818608E-02  0.1166123E+00
         21   -1    0    0  501  502  0.00000000000E+00  0.00000000000E+00  0.56971947451E+02  0.56971947451E+02  0.00000000000E+00 0.  1.
         21   -1    0    0  502  503 -0.00000000000E+00 -0.00000000000E+00 -0.70475260668E+03  0.70475260668E+03  0.00000000000E+00 0.  1.
          6    1    1    2  501    0 -0.58533609316E+02  0.46625059158E+01 -0.16351599616E+03  0.24447781777E+03  0.17200000000E+03 0.  1.
         -6    1    1    2    0  503  0.58533609316E+02 -0.46625059158E+01 -0.48426466307E+03  0.51724673636E+03  0.17200000000E+03 0.  1.
</event>
<event>
 4    1  0.1241325E+000  0.2137634E+03  0.7818608E-02  0.1138620E+00
         21   -1    0    0  501  502  0.00000000000E+00  0.00000000000E+00  0.76260456925E+03  0.76260456925E+03  0.00000000000E+00 0.  1.
         21   -1    0    0  502  503 -0.00000000000E+00 -0.00000000000E+00 -0.99177769521E+02  0.99177769521E+02  0.00000000000E+00 0.  1.
          6    1    1    2  501    0  0.95250154380E+02 -0.83893952794E+02  0.60615154342E+02  0.22219132332E+03  0.17200000000E+03 0.  1.
         -6    1    1    2    0  503 -0.95250154380E+02  0.83893952794E+02  0.60281164539E+03  0.63959101545E+03  0.17200000000E+03 0.  1.
</event>
<event>
 4    1  0.1241325E+000  0.2392313E+03  0.7818608E-02  0.1120306E+00
         21   -1    0    0  501  502  0.00000000000E+00  0.00000000000E+00  0.15551630295E+03  0.15551630295E+03  0.00000000000E+00 0. -1.
         21   -1    0    0  502  503 -0.00000000000E+00 -0.00000000000E+00 -0.13306089454E+04  0.13306089454E+04  0.00000000000E+00 0.  1.
          6    1    1    2  501    0  0.27957143813E+02  0.16390857228E+03  0.44461991756E+02  0.24332794880E+03  0.17200000000E+03 0. -1.
         -6    1    1    2    0  503 -0.27957143813E+02 -0.16390857228E+03 -0.12195546342E+04  0.12427972995E+04  0.17200000000E+03 0.  1.
</event>
<event>
 4    1  0.1241325E+000  0.3202169E+03  0.7818608E-02  0.1075550E+00
         21   -1    0    0  503  502  0.00000000000E+00  0.00000000000E+00  0.79154015631E+03  0.79154015631E+03  0.00000000000E+00 0. -1.
         21   -1    0    0  501  503 -0.00000000000E+00 -0.00000000000E+00 -0.15817352238E+03  0.15817352238E+03  0.00000000000E+00 0.  1.
          6    1    1    2  501    0 -0.15859068912E+03 -0.21864100211E+03  0.11465765849E+03  0.34012537854E+03  0.17200000000E+03 0.  1.
         -6    1    1    2    0  502  0.15859068912E+03  0.21864100211E+03  0.51870897544E+03  0.60958830015E+03  0.17200000000E+03 0. -1.
</event>
<event>
 4    1  0.1241325E+000  0.3250395E+03  0.7818608E-02  0.1073353E+00
         21   -1    0    0  503  502  0.00000000000E+00  0.00000000000E+00  0.79636389616E+02  0.79636389616E+02  0.00000000000E+00 0. -1.
         21   -1    0    0  501  503 -0.00000000000E+00 -0.00000000000E+00 -0.15319839195E+04  0.15319839195E+04  0.00000000000E+00 0. -1.
          6    1    1    2  501    0 -0.19414453521E+03 -0.19589429161E+03 -0.10211737095E+04  0.10716559238E+04  0.17200000000E+03 0. -1.
         -6    1    1    2    0  502  0.19414453521E+03  0.19589429161E+03 -0.43117382045E+03  0.53996438538E+03  0.17200000000E+03 0. -1.
</event>
<event>
 4    1  0.1241325E+000  0.3023558E+03  0.7818608E-02  0.1084069E+00
         21   -1    0    0  501  502  0.00000000000E+00  0.00000000000E+00  0.38364890738E+03  0.38364890738E+03  0.00000000000E+00 0. -1.
         21   -1    0    0  502  503 -0.00000000000E+00 -0.00000000000E+00 -0.36179877677E+03  0.36179877677E+03  0.00000000000E+00 0.  1.
          6    1    1    2  501    0  0.23187775319E+03 -0.89820500548E+02  0.22869888528E+03  0.37910710211E+03  0.17200000000E+03 0.  1.
         -6    1    1    2    0  503 -0.23187775319E+03  0.89820500548E+02 -0.20684875466E+03  0.36634058204E+03  0.17200000000E+03 0.  1.
</event>
<event>
 4    1  0.1241325E+000  0.1853229E+03  0.7818608E-02  0.1162749E+00
         21   -1    0    0  501  502  0.00000000000E+00  0.00000000000E+00  0.55051714677E+03  0.55051714677E+03  0.00000000000E+00 0. -1.
         21   -1    0    0  502  503 -0.00000000000E+00 -0.00000000000E+00 -0.62595881252E+02  0.62595881252E+02  0.00000000000E+00 0. -1.
          6    1    1    2  501    0 -0.61406046503E+02 -0.31462480794E+02  0.26170958639E+03  0.32068130263E+03  0.17200000000E+03 0. -1.
         -6    1    1    2    0  503  0.61406046503E+02  0.31462480794E+02  0.22621167912E+03  0.29243172539E+03  0.17200000000E+03 0. -1.
</event>
<event>
 4    1  0.1241325E+000  0.4086179E+03  0.7818608E-02  0.1040836E+00
         21   -1    0    0  503  502  0.00000000000E+00  0.00000000000E+00  0.15128431317E+03  0.15128431317E+03  0.00000000000E+00 0.  1.
         21   -1    0    0  501  503 -0.00000000000E+00 -0.00000000000E+00 -0.11322020284E+04  0.11322020284E+04  0.00000000000E+00 0.  1.
          6    1    1    2  501    0  0.25191108248E+03 -0.27189226604E+03 -0.38859187977E+03  0.56389027907E+03  0.17200000000E+03 0.  1.
         -6    1    1    2    0  502 -0.25191108248E+03  0.27189226604E+03 -0.59232583546E+03  0.71959606249E+03  0.17200000000E+03 0.  1.
</event>
<event>
 4    1  0.1241325E+000  0.2845754E+03  0.7818608E-02  0.1093216E+00
         21   -1    0    0  501  502  0.00000000000E+00  0.00000000000E+00  0.90876724896E+02  0.90876724896E+02  0.00000000000E+00 0. -1.
         21   -1    0    0  502  503 -0.00000000000E+00 -0.00000000000E+00 -0.15680370524E+04  0.15680370524E+04  0.00000000000E+00 0.  1.
          6    1    1    2  501    0 -0.11448961281E+03 -0.19568160068E+03 -0.19360146661E+03  0.34418699592E+03  0.17200000000E+03 0. -1.
         -6    1    1    2    0  503  0.11448961281E+03  0.19568160068E+03 -0.12835588609E+04  0.13147267814E+04  0.17200000000E+03 0.  1.
</event>
<event>
 4    1  0.1241325E+000  0.3579032E+03  0.7818608E-02  0.1059417E+00
         21   -1    0    0  501  502  0.00000000000E+00  0.00000000000E+00  0.35468989381E+03  0.35468989381E+03  0.00000000000E+00 0.  1.
         21   -1    0    0  502  503 -0.00000000000E+00 -0.00000000000E+00 -0.36737205277E+03  0.36737205277E+03  0.00000000000E+00 0. -1.
          6    1    1    2  501    0  0.11450055245E+03 -0.29223338907E+03 -0.53342203611E+02  0.36185649211E+03  0.17200000000E+03 0.  1.
         -6    1    1    2    0  503 -0.11450055245E+03  0.29223338907E+03  0.40660044653E+02  0.36020545447E+03  0.17200000000E+03 0. -1.
</event>
<event>
 4    1  0.1241325E+000  0.1783099E+03  0.7818608E-02  0.1169449E+00
         21   -1    0    0  501  502  0.00000000000E+00  0.00000000000E+00  0.45014180712E+03  0.45014180712E+03  0.00000000000E+00 0.  1.
         21   -1    0    0  502  503 -0.00000000000E+00 -0.00000000000E+00 -0.10795793213E+03  0.10795793213E+03  0.00000000000E+00 0.  1.
          6    1    1    2  501    0  0.16517419537E+02 -0.44018131944E+02  0.33517351098E+03  0.37965208224E+03  0.17200000000E+03 0.  1.
         -6    1    1    2    0  503 -0.16517419537E+02  0.44018131944E+02  0.70103640075E+01  0.17844765701E+03  0.17200000000E+03 0.  1.
</event>
<event>
 4    1  0.1241325E+000  0.1828757E+03  0.7818608E-02  0.1165049E+00
         21   -1    0    0  503  502  0.00000000000E+00  0.00000000000E+00  0.15308095209E+04  0.15308095209E+04  0.00000000000E+00 0. -1.
         21   -1    0    0  501  503 -0.00000000000E+00 -0.00000000000E+00 -0.22011944270E+02  0.22011944270E+02  0.00000000000E+00 0.  1.
          6    1    1    2  501    0 -0.11229888029E+02  0.61101511003E+02  0.82162038475E+03  0.84172653615E+03  0.17200000000E+03 0. -1.
         -6    1    1    2    0  502  0.11229888029E+02 -0.61101511003E+02  0.68717719191E+03  0.71109492905E+03  0.17200000000E+03 0.  1.
</event>
<event>
 4    1  0.1241325E+000  0.1727242E+03  0.7818608E-02  0.1175036E+00
         21   -1    0    0  503  502  0.00000000000E+00  0.00000000000E+00  0.19582270377E+03  0.19582270377E+03  0.00000000000E+00 0. -1.
         21   -1    0    0  501  503 -0.00000000000E+00 -0.00000000000E+00 -0.15769695348E+03  0.15769695348E+03  0.00000000000E+00 0. -1.
          6    1    1    2  501    0 -0.14992489157E+02 -0.49882442411E+01  0.51609873252E+02  0.18026989857E+03  0.17200000000E+03 0. -1.
         -6    1    1    2    0  502  0.14992489157E+02  0.49882442411E+01 -0.13484122962E+02  0.17324975868E+03  0.17200000000E+03 0. -1.
</event>
<event>
 4    1  0.1241325E+000  0.1853944E+03  0.7818608E-02  0.1162682E+00
         21   -1    0    0  503  502  0.00000000000E+00  0.00000000000E+00  0.33083076697E+02  0.33083076697E+02  0.00000000000E+00 0.  1.
         21   -1    0    0  501  503 -0.00000000000E+00 -0.00000000000E+00 -0.10418720312E+04  0.10418720312E+04  0.00000000000E+00 0.  1.
          6    1    1    2  501    0  0.63945577042E+02 -0.26420818153E+02 -0.53294167154E+03  0.56426759762E+03  0.17200000000E+03 0.  1.
         -6    1    1    2    0  502 -0.63945577042E+02  0.26420818153E+02 -0.47584728298E+03  0.51068751030E+03  0.17200000000E+03 0.  1.
</event>
<event>
 4    1  0.1241325E+000  0.2448583E+03  0.7818608E-02  0.1116598E+00
         21   -1    0    0  501  502  0.00000000000E+00  0.00000000000E+00  0.22738691791E+03  0.22738691791E+03  0.00000000000E+00 0.  1.
         21   -1    0    0  502  503 -0.00000000000E+00 -0.00000000000E+00 -0.28488930368E+03  0.28488930368E+03  0.00000000000E+00 0. -1.
          6    1    1    2  501    0 -0.25840064551E+02  0.17234809794E+03  0.41149369354E+02  0.24829185730E+03  0.17200000000E+03 0.  1.
         -6    1    1    2    0  503  0.25840064551E+02 -0.17234809794E+03 -0.98651755126E+02  0.26398436429E+03  0.17200000000E+03 0. -1.
</event>
<event>
 4    1  0.1241325E+000  0.2018207E+03  0.7818608E-02  0.1148212E+00
         21   -1    0    0  503  502  0.00000000000E+00  0.00000000000E+00  0.26903687483E+03  0.26903687483E+03  0.00000000000E+00 0. -1.
         21   -1    0    0  501  503 -0.00000000000E+00 -0.00000000000E+00 -0.15899679458E+03  0.15899679458E+03  0.00000000000E+00 0.  1.
          6    1    1    2  501    0  0.83687769676E+01 -0.10524990313E+03  0.82321846176E+01  0.20198848334E+03  0.17200000000E+03 0.  1.
         -6    1    1    2    0  502 -0.83687769676E+01  0.10524990313E+03  0.10180789563E+03  0.22604518608E+03  0.17200000000E+03 0.  1.
</event>
<event>
 4    1  0.1241325E+000  0.1735217E+03  0.7818608E-02  0.1174224E+00
         21   -1    0    0  501  502  0.00000000000E+00  0.00000000000E+00  0.16745573924E+02  0.16745573924E+02  0.00000000000E+00 0.  1.
         21   -1    0    0  502  503 -0.00000000000E+00 -0.00000000000E+00 -0.18707671543E+04  0.18707671543E+04  0.00000000000E+00 0.  1.
          6    1    1    2  501    0 -0.95450705087E+01  0.20848565186E+02 -0.74097411285E+03  0.76102063504E+03  0.17200000000E+03 0.  1.
         -6    1    1    2    0  503  0.95450705087E+01 -0.20848565186E+02 -0.11130474675E+04  0.11264920931E+04  0.17200000000E+03 0.  1.
</event>
<event>
 4    1  0.1241325E+000  0.2158011E+03  0.7818608E-02  0.1137053E+00
         21   -1    0    0  503  502  0.00000000000E+00  0.00000000000E+00  0.62480574436E+03  0.62480574436E+03  0.00000000000E+00 0. -1.
         21   -1    0    0  501  503 -0.00000000000E+00 -0.00000000000E+00 -0.10128620118E+03  0.10128620118E+03  0.00000000000E+00 0. -1.
          6    1    1    2  501    0  0.92632552094E+02 -0.91680542835E+02  0.75183965661E+02  0.22852295363E+03  0.17200000000E+03 0. -1.
         -6    1    1    2    0  502 -0.92632552094E+02  0.91680542835E+02  0.44833557752E+03  0.49756899191E+03  0.17200000000E+03 0. -1.
</event>
<event>
 4    1  0.1241325E+000  0.2095704E+03  0.7818608E-02  0.1141907E+00
         21   -1    0    0  503  502  0.00000000000E+00  0.00000000000E+00  0.48060808564E+03  0.48060808564E+03  0.00000000000E+00 0. -1.
         21   -1    0    0  501  503 -0.00000000000E+00 -0.00000000000E+00 -0.93837404522E+02  0.93837404522E+02  0.00000000000E+00 0.  1.
          6    1    1    2  501    0  0.11953045985E+03 -0.69433820241E+01  0.14693994632E+03  0.25595134149E+03  0.17200000000E+03 0. -1.
         -6    1    1    2    0  502 -0.11953045985E+03  0.69433820241E+01  0.23983073480E+03  0.31849414867E+03  0.17200000000E+03 0. -1.
</event>
<event>
 4    1  0.1241325E+000  0.2329224E+03  0.7818608E-02  0.1124600E+00
         21   -1    0    0  501  502  0.00000000000E+00  0.00000000000E+00  0.68095065703E+02  0.68095065703E+02  0.00000000000E+00 0.  1.
         21   -1    0    0  502  503 -0.00000000000E+00 -0.00000000000E+00 -0.89772796211E+03  0.89772796211E+03  0.00000000000E+00 0.  1.
          6    1    1    2  501    0  0.12102631605E+03  0.10010732367E+03 -0.25283382764E+03  0.34376996644E+03  0.17200000000E+03 0.  1.
         -6    1    1    2    0  503 -0.12102631605E+03 -0.10010732367E+03 -0.57679906877E+03  0.62205306137E+03  0.17200000000E+03 0.  1.
</event>
<event>
 4    1  0.1241325E+000  0.2495293E+03  0.7818608E-02  0.1113603E+00
         21   -1    0    0  501  502  0.00000000000E+00  0.00000000000E+00  0.14790894865E+03  0.14790894865E+03  0.00000000000E+00 0. -1.
         21   -1    0    0  502  503 -0.00000000000E+00 -0.00000000000E+00 -0.58501880602E+03  0.58501880602E+03  0.00000000000E+00 0. -1.
          6    1    1    2  501    0 -0.85541473991E+02  0.15925928193E+03 -0.24494903164E+02  0.25072866396E+03  0.17200000000E+03 0.  1.
         -6    1    1    2    0  503  0.85541473991E+02 -0.15925928193E+03 -0.41261495420E+03  0.48219909071E+03  0.17200000000E+03 0.  1.
</event>
<event>
 4    1  0.1241325E+000  0.1720453E+03  0.7818608E-02  0.1175732E+00
         21   -1    0    0  501  502  0.00000000000E+00  0.00000000000E+00  0.88012154460E+02  0.88012154460E+02  0.00000000000E+00 0. -1.
         21   -1    0    0  502  503 -0.00000000000E+00 -0.00000000000E+00 -0.35491216748E+03  0.35491216748E+03  0.00000000000E+00 0. -1.
          6    1    1    2  501    0 -0.73645814837E+00 -0.38799878588E+01 -0.82752046091E+02  0.19091227778E+03  0.17200000000E+03 0. -1.
         -6    1    1    2    0  503  0.73645814837E+00  0.38799878588E+01 -0.18414796693E+03  0.25201204416E+03  0.17200000000E+03 0. -1.
</event>
<event>
 4    1  0.1241325E+000  0.1816376E+03  0.7818608E-02  0.1166228E+00
         21   -1    0    0  503  502  0.00000000000E+00  0.00000000000E+00  0.16188904790E+03  0.16188904790E+03  0.00000000000E+00 0.  1.
         21   -1    0    0  501  503 -0.00000000000E+00 -0.00000000000E+00 -0.37110839504E+03  0.37110839504E+03  0.00000000000E+00 0.  1.
          6    1    1    2  501    0  0.43111321827E+02 -0.39365315008E+02 -0.28355065339E+03  0.33673904902E+03  0.17200000000E+03 0.  1.
         -6    1    1    2    0  502 -0.43111321827E+02  0.39365315008E+02  0.74331306257E+02  0.19625839392E+03  0.17200000000E+03 0.  1.
</event>
<event>
 4    1  0.1241325E+000  0.1757201E+03  0.7818608E-02  0.1172011E+00
         21   -1    0    0  503  502  0.00000000000E+00  0.00000000000E+00  0.83185930699E+03  0.83185930699E+03  0.00000000000E+00 0.  1.
         21   -1    0    0  501  503 -0.00000000000E+00 -0.00000000000E+00 -0.48583283903E+02  0.48583283903E+02  0.00000000000E+00 0.  1.
          6    1    1    2  501    0 -0.46090720396E+01 -0.35669332059E+02  0.60548668650E+03  0.63046940633E+03  0.17200000000E+03 0.  1.
         -6    1    1    2    0  502  0.46090720396E+01  0.35669332059E+02  0.17778933659E+03  0.24997318456E+03  0.17200000000E+03 0.  1.
</event>
<event>
 4    1  0.1241325E+000  0.1841394E+03  0.7818608E-02  0.1163856E+00
         21   -1    0    0  503  502  0.00000000000E+00  0.00000000000E+00  0.10914472873E+04  0.10914472873E+04  0.00000000000E+00 0.  1.
         21   -1    0    0  501  503 -0.00000000000E+00 -0.00000000000E+00 -0.42183685201E+02  0.42183685201E+02  0.00000000000E+00 0.  1.
          6    1    1    2  501    0 -0.15094455602E+02  0.63995889363E+02  0.23364773509E+03  0.29748710990E+03  0.17200000000E+03 0. -1.
         -6    1    1    2    0  502  0.15094455602E+02 -0.63995889363E+02  0.81561586701E+03  0.83614386260E+03  0.17200000000E+03 0. -1.
</event>
<event>
 4    1  0.1241325E+000  0.1834101E+03  0.7818608E-02  0.1164543E+00
         21   -1    0    0  501  502  0.00000000000E+00  0.00000000000E+00  0.29821798896E+03  0.29821798896E+03  0.00000000000E+00 0.  1.
         21   -1    0    0  502  503 -0.00000000000E+00 -0.00000000000E+00 -0.22491470445E+03  0.22491470445E+03  0.00000000000E+00 0.  1.
          6    1    1    2  501    0  0.58507217608E+02 -0.25143009538E+02 -0.14802094584E+03  0.23568934182E+03  0.17200000000E+03 0.  1.
         -6    1    1    2    0  503 -0.58507217608E+02  0.25143009538E+02  0.22132423034E+03  0.28744335160E+03  0.17200000000E+03 0.  1.
</event>
<event>
 4    1  0.1241325E+000  0.2079040E+03  0.7818608E-02  0.1143237E+00
         21   -1    0    0  503  502  0.00000000000E+00  0.00000000000E+00  0.26445086616E+03  0.26445086616E+03  0.00000000000E+00 0.  1.
         21   -1    0    0  501  503 -0.00000000000E+00 -0.00000000000E+00 -0.16467789415E+03  0.16467789415E+03  0.00000000000E+00 0. -1.
          6    1    1    2  501    0  0.90509345964E+02 -0.73811541547E+02  0.31347175629E+02  0.21025396736E+03  0.17200000000E+03 0.  1.
         -6    1    1    2    0  502 -0.90509345964E+02  0.73811541547E+02  0.68425796381E+02  0.21887479294E+03  0.17200000000E+03 0. -1.
</event>
<event>
 4    1  0.1241325E+000  0.2869754E+03  0.7818608E-02  0.1091939E+00
         21   -1    0    0  503  502  0.00000000000E+00  0.00000000000E+00  0.14671800430E+04  0.14671800430E+04  0.00000000000E+00 0.  1.
         21   -1    0    0  501  503 -0.00000000000E+00 -0.00000000000E+00 -0.56205955222E+02  0.56205955222E+02  0.00000000000E+00 0. -1.
          6    1    1    2  501    0  0.23942173245E+02 -0.22846811163E+03  0.67775022189E+03  0.73600290010E+03  0.17200000000E+03 0.  1.
         -6    1    1    2    0  502 -0.23942173245E+02  0.22846811163E+03  0.73322386590E+03  0.78738309812E+03  0.17200000000E+03 0.  1.
</event>
<event>
 4    1  0.1241325E+000  0.2199366E+03  0.7818608E-02  0.1133930E+00
         21   -1    0    0  501  502  0.00000000000E+00  0.00000000000E+00  0.92708839402E+02  0.92708839402E+02  0.00000000000E+00 0.  1.
         21   -1    0    0  502  503 -0.00000000000E+00 -0.00000000000E+00 -0.53169463016E+03  0.53169463016E+03  0.00000000000E+00 0. -1.
          6    1    1    2  501    0  0.87355936912E+02 -0.10562691720E+03 -0.17682516480E+03  0.28220425981E+03  0.17200000000E+03 0.  1.
         -6    1    1    2    0  503 -0.87355936912E+02  0.10562691720E+03 -0.26216062596E+03  0.34219920975E+03  0.17200000000E+03 0.  1.
</event>
<event>
 4    1  0.1241325E+000  0.2113382E+03  0.7818608E-02  0.1140511E+00
         21   -1    0    0  503  502  0.00000000000E+00  0.00000000000E+00  0.31333322033E+03  0.31333322033E+03  0.00000000000E+00 0. -1.
         21   -1    0    0  501  503 -0.00000000000E+00 -0.00000000000E+00 -0.14321600640E+03  0.14321600640E+03  0.00000000000E+00 0. -1.
          6    1    1    2  501    0  0.86488584519E+02  0.87175334415E+02  0.10069381078E+03  0.23410052907E+03  0.17200000000E+03 0. -1.
         -6    1    1    2    0  502 -0.86488584519E+02 -0.87175334415E+02  0.69423403156E+02  0.22244869765E+03  0.17200000000E+03 0. -1.
</event>
<event>
 4    1  0.1241325E+000  0.1732288E+03  0.7818608E-02  0.1174522E+00
         21   -1    0    0  501  502  0.00000000000E+00  0.00000000000E+00  0.81829312286E+03  0.81829312286E+03  0.00000000000E+00 0. -1.
         21   -1    0    0  502  503 -0.00000000000E+00 -0.00000000000E+00 -0.13889957497E+03  0.13889957497E+03  0.00000000000E+00 0. -1.
          6    1    1    2  501    0 -0.14319297606E+02 -0.14804696489E+02  0.75028220374E+03  0.77002052348E+03  0.17200000000E+03 0. -1.
         -6    1    1    2    0  503  0.14319297606E+02  0.14804696489E+02 -0.70888655862E+02  0.18717217435E+03  0.17200000000E+03 0. -1.
</event>
<event>
 4    1  0.1241325E+000  0.2099211E+03  0.7818608E-02  0.1141628E+00
         21   -1    0    0  501  502  0.00000000000E+00  0.00000000000E+00  0.99203200650E+03  0.99203200650E+03  0.00000000000E+00 0. -1.
         21   -1    0    0  502  503 -0.00000000000E+00 -0.00000000000E+00 -0.71088791286E+02  0.71088791286E+02  0.00000000000E+00 0. -1.
          6    1    1    2  501    0 -0.11966564407E+03  0.12767894076E+02  0.78604354099E+03  0.81359162596E+03  0.17200000000E+03 0. -1.
         -6    1    1    2    0  503  0.11966564407E+03 -0.12767894076E+02  0.13489967422E+03  0.24952917183E+03  0.17200000000E+03 0. -1.
</event>
<event>
 4    1  0.1241325E+000  0.2115528E+03  0.7818608E-02  0.1140342E+00
         21   -1    0    0  503  502  0.00000000000E+00  0.00000000000E+00  0.18852014427E+03  0.18852014427E+03  0.00000000000E+00 0.  1.
         21   -1    0    0  501  503 -0.00000000000E+00 -0.00000000000E+00 -0.26601350575E+03  0.26601350575E+03  0.00000000000E+00 0.  1.
          6    1    1    2  501    0 -0.14496234110E+02 -0.12231294527E+03 -0.11328389428E+03  0.23997466134E+03  0.17200000000E+03 0. -1.
         -6    1    1    2    0  502  0.14496234110E+02  0.12231294527E+03  0.35790532808E+02  0.21455898868E+03  0.17200000000E+03 0. -1.
</event>
<event>
 4    1  0.1241325E+000  0.2138870E+03  0.7818608E-02  0.1138524E+00
         21   -1    0    0  501  502  0.00000000000E+00  0.00000000000E+00  0.31371838587E+03  0.31371838587E+03  0.00000000000E+00 0.  1.
         21   -1    0    0  502  503 -0.00000000000E+00 -0.00000000000E+00 -0.22533155132E+03  0.22533155132E+03  0.00000000000E+00 0.  1.
          6    1    1    2  501    0 -0.28336773653E+02  0.12393811011E+03  0.20429386843E+03  0.29577628802E+03  0.17200000000E+03 0.  1.
         -6    1    1    2    0  503  0.28336773653E+02 -0.12393811011E+03 -0.11590703388E+03  0.24327364917E+03  0.17200000000E+03 0.  1.
</event>
<event>
 4    1  0.1241325E+000  0.2275993E+03  0.7818608E-02  0.1128341E+00
         21   -1    0    0  503  502  0.00000000000E+00  0.00000000000E+00  0.20192379304E+03  0.20192379304E+03  0.00000000000E+00 0.  1.
         21   -1    0    0  501  503 -0.00000000000E+00 -0.00000000000E+00 -0.29661682795E+03  0.29661682795E+03  0.00000000000E+00 0.  1.
          6    1    1    2  501    0  0.12867701226E+03 -0.75230784599E+02 -0.13897312854E+03  0.26667391116E+03  0.17200000000E+03 0.  1.
         -6    1    1    2    0  502 -0.12867701226E+03  0.75230784599E+02  0.44280093623E+02  0.23186670983E+03  0.17200000000E+03 0.  1.
</event>
<event>
 4    1  0.1241325E+000  0.2297878E+03  0.7818608E-02  0.1126789E+00
         21   -1    0    0  503  502  0.00000000000E+00  0.00000000000E+00  0.60297910988E+03  0.60297910988E+03  0.00000000000E+00 0.  1.
         21   -1    0    0  501  503 -0.00000000000E+00 -0.00000000000E+00 -0.89079444923E+02  0.89079444923E+02  0.00000000000E+00 0.  1.
          6    1    1    2  501    0  0.15190340201E+03 -0.11990451470E+02  0.30200492895E+03  0.37948569351E+03  0.17200000000E+03 0.  1.
         -6    1    1    2    0  502 -0.15190340201E+03  0.11990451470E+02  0.21189473601E+03  0.31257286129E+03  0.17200000000E+03 0.  1.
</event>
<event>
 4    1  0.1241325E+000  0.3292407E+03  0.7818608E-02  0.1071473E+00
         21   -1    0    0  503  502  0.00000000000E+00  0.00000000000E+00  0.41920175817E+03  0.41920175817E+03  0.00000000000E+00 0.  1.
         21   -1    0    0  501  503 -0.00000000000E+00 -0.00000000000E+00 -0.44292219248E+03  0.44292219248E+03  0.00000000000E+00 0. -1.
          6    1    1    2  501    0  0.27824685608E+03  0.37338330880E+02 -0.28994804546E+03  0.43871326962E+03  0.17200000000E+03 0.  1.
         -6    1    1    2    0  502 -0.27824685608E+03 -0.37338330880E+02  0.26622761115E+03  0.42341068103E+03  0.17200000000E+03 0. -1.
</event>
<event>
 4    1  0.1241325E+000  0.1895534E+03  0.7818608E-02  0.1158865E+00
         21   -1    0    0  503  502  0.00000000000E+00  0.00000000000E+00  0.30008999216E+03  0.30008999216E+03  0.00000000000E+00 0. -1.
         21   -1    0    0  501  503 -0.00000000000E+00 -0.00000000000E+00 -0.11994849391E+03  0.11994849391E+03  0.00000000000E+00 0.  1.
          6    1    1    2  501    0 -0.35604242663E+01  0.79585257803E+02  0.81156186924E+02  0.20619606339E+03  0.17200000000E+03 0. -1.
         -6    1    1    2    0  502  0.35604242663E+01 -0.79585257803E+02  0.98985311325E+02  0.21384242268E+03  0.17200000000E+03 0.  1.
</event>
<event>
 4    1  0.1241325E+000  0.1729688E+03  0.7818608E-02  0.1174787E+00
         21   -1    0    0  501  502  0.00000000000E+00  0.00000000000E+00  0.25123645619E+03  0.25123645619E+03  0.00000000000E+00 0. -1.
         21   -1    0    0  502  503 -0.00000000000E+00 -0.00000000000E+00 -0.16990034850E+03  0.16990034850E+03  0.00000000000E+00 0. -1.
          6    1    1    2  501    0  0.18258342256E+02 -0.91004938352E+00  0.15582724139E+03  0.23280963127E+03  0.17200000000E+03 0. -1.
         -6    1    1    2    0  503 -0.18258342256E+02  0.91004938352E+00 -0.74491133697E+02  0.18832717343E+03  0.17200000000E+03 0. -1.
</event>
<event>
 4    1  0.1241325E+000  0.2294745E+03  0.7818608E-02  0.1127010E+00
         21   -1    0    0  501  502  0.00000000000E+00  0.00000000000E+00  0.73747012829E+03  0.73747012829E+03  0.00000000000E+00 0. -1.
         21   -1    0    0  502  503 -0.00000000000E+00 -0.00000000000E+00 -0.86454204208E+02  0.86454204208E+02  0.00000000000E+00 0. -1.
          6    1    1    2  501    0 -0.16963607859E+02 -0.15095295904E+03  0.49739008952E+03  0.54777318389E+03  0.17200000000E+03 0. -1.
         -6    1    1    2    0  503  0.16963607859E+02  0.15095295904E+03  0.15362583456E+03  0.27615114861E+03  0.17200000000E+03 0. -1.
</event>
<event>
 4    1  0.1241325E+000  0.2007966E+03  0.7818608E-02  0.1149069E+00
         21   -1    0    0  501  502  0.00000000000E+00  0.00000000000E+00  0.22867762149E+04  0.22867762149E+04  0.00000000000E+00 0.  1.
         21   -1    0    0  502  503 -0.00000000000E+00 -0.00000000000E+00 -0.34575563516E+02  0.34575563516E+02  0.00000000000E+00 0.  1.
          6    1    1    2  501    0  0.15755700319E+02  0.10240623989E+03  0.19386224543E+04  0.19489936635E+04  0.17200000000E+03 0.  1.
         -6    1    1    2    0  503 -0.15755700319E+02 -0.10240623989E+03  0.31357819714E+03  0.37235811497E+03  0.17200000000E+03 0.  1.
</event>
<event>
 4    1  0.1241325E+000  0.1796010E+03  0.7818608E-02  0.1168190E+00
         21   -1    0    0  503  502  0.00000000000E+00  0.00000000000E+00  0.49349554880E+03  0.49349554880E+03  0.00000000000E+00 0. -1.
         21   -1    0    0  501  503 -0.00000000000E+00 -0.00000000000E+00 -0.66431179175E+02  0.66431179175E+02  0.00000000000E+00 0. -1.
          6    1    1    2  501    0  0.51565106629E+02  0.36830287424E+01  0.17803736099E+03  0.25289093861E+03  0.17200000000E+03 0.  1.
         -6    1    1    2    0  502 -0.51565106629E+02 -0.36830287424E+01  0.24902700864E+03  0.30703578937E+03  0.17200000000E+03 0.  1.
</event>
<event>
 4    1  0.1241325E+000  0.2795685E+03  0.7818608E-02  0.1095925E+00
         21   -1    0    0  503  502  0.00000000000E+00  0.00000000000E+00  0.12678309481E+04  0.12678309481E+04  0.00000000000E+00 0.  1.
         21   -1    0    0  501  503 -0.00000000000E+00 -0.00000000000E+00 -0.25233584980E+03  0.25233584980E+03  0.00000000000E+00 0. -1.
          6    1    1    2  501    0 -0.18051369377E+03  0.12644905233E+03 -0.15299746703E+03  0.31869543673E+03  0.17200000000E+03 0. -1.
         -6    1    1    2    0  502  0.18051369377E+03 -0.12644905233E+03  0.11684925653E+04  0.12014713611E+04  0.17200000000E+03 0.  1.
</event>
<event>
 4    1  0.1241325E+000  0.2132557E+03  0.7818608E-02  0.1139013E+00
         21   -1    0    0  503  502  0.00000000000E+00  0.00000000000E+00  0.48192574269E+02  0.48192574269E+02  0.00000000000E+00 0.  1.
         21   -1    0    0  501  503 -0.00000000000E+00 -0.00000000000E+00 -0.10478593686E+04  0.10478593686E+04  0.00000000000E+00 0. -1.
          6    1    1    2  501    0 -0.70415083554E+02  0.10457384318E+03 -0.67263892039E+03  0.70563523856E+03  0.17200000000E+03 0.  1.
         -6    1    1    2    0  502  0.70415083554E+02 -0.10457384318E+03 -0.32702787391E+03  0.39041670429E+03  0.17200000000E+03 0.  1.
</event>
<event>
 4    1  0.1241325E+000  0.2192323E+03  0.7818608E-02  0.1134457E+00
         21   -1    0    0  501  502  0.00000000000E+00  0.00000000000E+00  0.24246206661E+03  0.24246206661E+03  0.00000000000E+00 0.  1.
         21   -1    0    0  502  503 -0.00000000000E+00 -0.00000000000E+00 -0.19830171189E+03  0.19830171189E+03  0.00000000000E+00 0. -1.
          6    1    1    2  501    0  0.13545144404E+03  0.11476518108E+02  0.26325127316E+02  0.22080719302E+03  0.17200000000E+03 0.  1.
         -6    1    1    2    0  503 -0.13545144404E+03 -0.11476518108E+02  0.17835227402E+02  0.21995658548E+03  0.17200000000E+03 0.  1.
</event>
<event>
 4    1  0.1241325E+000  0.1921031E+03  0.7818608E-02  0.1156578E+00
         21   -1    0    0  501  502  0.00000000000E+00  0.00000000000E+00  0.98386570555E+02  0.98386570555E+02  0.00000000000E+00 0.  1.
         21   -1    0    0  502  503 -0.00000000000E+00 -0.00000000000E+00 -0.69112703350E+03  0.69112703350E+03  0.00000000000E+00 0.  1.
          6    1    1    2  501    0 -0.55908186383E+01  0.85371707307E+02 -0.29425534492E+02  0.19434363314E+03  0.17200000000E+03 0.  1.
         -6    1    1    2    0  503  0.55908186383E+01 -0.85371707307E+02 -0.56331492845E+03  0.59516997092E+03  0.17200000000E+03 0.  1.
</event>
<event>
 4    1  0.1241325E+000  0.2236674E+03  0.7818608E-02  0.1131178E+00
         21   -1    0    0  503  502  0.00000000000E+00  0.00000000000E+00  0.13069233110E+03  0.13069233110E+03  0.00000000000E+00 0.  1.
         21   -1    0    0  501  503 -0.00000000000E+00 -0.00000000000E+00 -0.42400287100E+03  0.42400287100E+03  0.00000000000E+00 0.  1.
          6    1    1    2  501    0 -0.29459139186E+02  0.13991166850E+03 -0.23312830470E+03  0.32307262700E+03  0.17200000000E+03 0. -1.
         -6    1    1    2    0  502  0.29459139186E+02 -0.13991166850E+03 -0.60182235204E+02  0.23162257511E+03  0.17200000000E+03 0. -1.
</event>
<event>
 4    1  0.1241325E+000  0.2383093E+03  0.7818608E-02  0.1120924E+00
         21   -1    0    0  503  502  0.00000000000E+00  0.00000000000E+00  0.23601692281E+04  0.23601692281E+04  0.00000000000E+00 0. -1.
         21   -1    0    0  501  503 -0.00000000000E+00 -0.00000000000E+00 -0.63326813966E+02  0.63326813966E+02  0.00000000000E+00 0.  1.
          6    1    1    2  501    0  0.68190561273E+02  0.15019111384E+03  0.19426805478E+03  0.30745959154E+03  0.17200000000E+03 0.  1.
         -6    1    1    2    0  502 -0.68190561273E+02 -0.15019111384E+03  0.21025743594E+04  0.21160364505E+04  0.17200000000E+03 0.  1.
</event>
<event>
 4    1  0.1241325E+000  0.1792179E+03  0.7818608E-02  0.1168562E+00
         21   -1    0    0  503  502  0.00000000000E+00  0.00000000000E+00  0.17215723493E+04  0.17215723493E+04  0.00000000000E+00 0. -1.
         21   -1    0    0  501  503 -0.00000000000E+00 -0.00000000000E+00 -0.49026479882E+02  0.49026479882E+02  0.00000000000E+00 0. -1.
          6    1    1    2  501    0 -0.46636510345E+02  0.18975744527E+02  0.13949421494E+03  0.22710719711E+03  0.17200000000E+03 0. -1.
         -6    1    1    2    0  502  0.46636510345E+02 -0.18975744527E+02  0.15330516544E+04  0.15434916320E+04  0.17200000000E+03 0. -1.
</event>
<event>
 4    1  0.1241325E+000  0.1844537E+03  0.7818608E-02  0.1163561E+00
         21   -1    0    0  501  502  0.00000000000E+00  0.00000000000E+00  0.20699314420E+03  0.20699314420E+03  0.00000000000E+00 0. -1.
         21   -1    0    0  502  503 -0.00000000000E+00 -0.00000000000E+00 -0.23813555213E+03  0.23813555213E+03  0.00000000000E+00 0. -1.
          6    1    1    2  501    0  0.59788062666E+02  0.29403447445E+02  0.10830114478E+03  0.21389790350E+03  0.17200000000E+03 0. -1.
         -6    1    1    2    0  503 -0.59788062666E+02 -0.29403447445E+02 -0.13944355271E+03  0.23123079283E+03  0.17200000000E+03 0. -1.
</event>
<event>
 4    1  0.1241325E+000  0.2545908E+03  0.7818608E-02  0.1110437E+00
         21   -1    0    0  501  502  0.00000000000E+00  0.00000000000E+00  0.48888868402E+03  0.48888868402E+03  0.00000000000E+00 0.  1.
         21   -1    0    0  502  503 -0.00000000000E+00 -0.00000000000E+00 -0.27204164657E+03  0.27204164657E+03  0.00000000000E+00 0. -1.
          6    1    1    2  501    0 -0.14476599653E+03  0.11947912835E+03  0.38083530195E+03  0.45809604132E+03  0.17200000000E+03 0.  1.
         -6    1    1    2    0  503  0.14476599653E+03 -0.11947912835E+03 -0.16398826451E+03  0.30283428927E+03  0.17200000000E+03 0. -1.
</event>
<event>
 4    1  0.1241325E+000  0.1948443E+03  0.7818608E-02  0.1154163E+00
         21   -1    0    0  503  502  0.00000000000E+00  0.00000000000E+00  0.17195898996E+03  0.17195898996E+03  0.00000000000E+00 0. -1.
         21   -1    0    0  501  503 -0.00000000000E+00 -0.00000000000E+00 -0.26603109912E+03  0.26603109912E+03  0.00000000000E+00 0. -1.
          6    1    1    2  501    0  0.36443250990E+02 -0.83977301942E+02 -0.13736047781E+03  0.23839504745E+03  0.17200000000E+03 0.  1.
         -6    1    1    2    0  502 -0.36443250990E+02  0.83977301942E+02  0.43288368654E+02  0.19959504163E+03  0.17200000000E+03 0.  1.
</event>
<event>
 4    1  0.1241325E+000  0.2020281E+03  0.7818608E-02  0.1148039E+00
         21   -1    0    0  501  502  0.00000000000E+00  0.00000000000E+00  0.64855593691E+03  0.64855593691E+03  0.00000000000E+00 0.  1.
         21   -1    0    0  502  503 -0.00000000000E+00 -0.00000000000E+00 -0.69431559879E+02  0.69431559879E+02  0.00000000000E+00 0.  1.
          6    1    1    2  501    0 -0.10480936786E+03 -0.15695291613E+02  0.39939410946E+03  0.44758351226E+03  0.17200000000E+03 0.  1.
         -6    1    1    2    0  503  0.10480936786E+03  0.15695291613E+02  0.17973026756E+03  0.27040398453E+03  0.17200000000E+03 0.  1.
</event>
<event>
 4    1  0.1241325E+000  0.1812686E+03  0.7818608E-02  0.1166581E+00
         21   -1    0    0  503  502  0.00000000000E+00  0.00000000000E+00  0.28708749069E+03  0.28708749069E+03  0.00000000000E+00 0.  1.
         21   -1    0    0  501  503 -0.00000000000E+00 -0.00000000000E+00 -0.12941300058E+03  0.12941300058E+03  0.00000000000E+00 0.  1.
          6    1    1    2  501    0  0.43841526184E+02  0.36772613646E+02  0.80348060086E+01  0.18144658343E+03  0.17200000000E+03 0.  1.
         -6    1    1    2    0  502 -0.43841526184E+02 -0.36772613646E+02  0.14963968410E+03  0.23505390784E+03  0.17200000000E+03 0.  1.
</event>
<event>
 4    1  0.1241325E+000  0.1778504E+03  0.7818608E-02  0.1169900E+00
         21   -1    0    0  503  502  0.00000000000E+00  0.00000000000E+00  0.11451712925E+03  0.11451712925E+03  0.00000000000E+00 0.  1.
         21   -1    0    0  501  503 -0.00000000000E+00 -0.00000000000E+00 -0.77021245346E+03  0.77021245346E+03  0.00000000000E+00 0.  1.
          6    1    1    2  501    0 -0.10315796971E+02 -0.44049295286E+02 -0.68212217990E+03  0.70492653829E+03  0.17200000000E+03 0.  1.
         -6    1    1    2    0  502  0.10315796971E+02  0.44049295286E+02  0.26426855687E+02  0.17980304442E+03  0.17200000000E+03 0.  1.
</event>
<event>
 4    1  0.1241325E+000  0.1813236E+03  0.7818608E-02  0.1166528E+00
         21   -1    0    0  503  502  0.00000000000E+00  0.00000000000E+00  0.40000470733E+03  0.40000470733E+03  0.00000000000E+00 0.  1.
         21   -1    0    0  501  503 -0.00000000000E+00 -0.00000000000E+00 -0.88037481569E+02  0.88037481569E+02  0.00000000000E+00 0.  1.
          6    1    1    2  501    0  0.18719407405E+02 -0.54256970752E+02  0.93118985178E+02  0.20383665149E+03  0.17200000000E+03 0.  1.
         -6    1    1    2    0  502 -0.18719407405E+02  0.54256970752E+02  0.21884824058E+03  0.28420553741E+03  0.17200000000E+03 0.  1.
</event>
<event>
 4    1  0.1241325E+000  0.2521840E+03  0.7818608E-02  0.1111932E+00
         21   -1    0    0  503  502  0.00000000000E+00  0.00000000000E+00  0.61294145849E+02  0.61294145849E+02  0.00000000000E+00 0.  1.
         21   -1    0    0  501  503 -0.00000000000E+00 -0.00000000000E+00 -0.10990075539E+04  0.10990075539E+04  0.00000000000E+00 0.  1.
          6    1    1    2  501    0  0.10050966684E+03  0.15463041535E+03 -0.38168340911E+03  0.45747019932E+03  0.17200000000E+03 0.  1.
         -6    1    1    2    0  502 -0.10050966684E+03 -0.15463041535E+03 -0.65602999894E+03  0.70283150043E+03  0.17200000000E+03 0.  1.
</event>
<event>
 4    1  0.1241325E+000  0.2084248E+03  0.7818608E-02  0.1142819E+00
         21   -1    0    0  501  502  0.00000000000E+00  0.00000000000E+00  0.77351518522E+02  0.77351518522E+02  0.00000000000E+00 0. -1.
         21   -1    0    0  502  503 -0.00000000000E+00 -0.00000000000E+00 -0.60172827087E+03  0.60172827087E+03  0.00000000000E+00 0. -1.
          6    1    1    2  501    0 -0.11025814412E+03  0.41231676200E+02 -0.34986727156E+03  0.40724441945E+03  0.17200000000E+03 0.  1.
         -6    1    1    2    0  503  0.11025814412E+03 -0.41231676200E+02 -0.17450948079E+03  0.27183536994E+03  0.17200000000E+03 0.  1.
</event>
<event>
 4    1  0.1241325E+000  0.1815628E+03  0.7818608E-02  0.1166299E+00
         21   -1    0    0  501  502  0.00000000000E+00  0.00000000000E+00  0.40806005075E+02  0.40806005075E+02  0.00000000000E+00 0. -1.
         21   -1    0    0  502  503 -0.00000000000E+00 -0.00000000000E+00 -0.19517246110E+04  0.19517246110E+04  0.00000000000E+00 0.  1.
          6    1    1    2  501    0  0.55882814920E+02  0.16067278853E+02 -0.19275649923E+03  0.26480202878E+03  0.17200000000E+03 0. -1.
         -6    1    1    2    0  503 -0.55882814920E+02 -0.16067278853E+02 -0.17181621067E+04  0.17277285873E+04  0.17200000000E+03 0.  1.
</event>
<event>
 4    1  0.1241325E+000  0.2519967E+03  0.7818608E-02  0.1112049E+00
         21   -1    0    0  503  502  0.00000000000E+00  0.00000000000E+00  0.20805449083E+03  0.20805449083E+03  0.00000000000E+00 0. -1.
         21   -1    0    0  501  503 -0.00000000000E+00 -0.00000000000E+00 -0.54876367824E+03  0.54876367824E+03  0.00000000000E+00 0. -1.
          6    1    1    2  501    0  0.18247950162E+03 -0.24891218123E+02 -0.42244569842E+03  0.49189705159E+03  0.17200000000E+03 0. -1.
         -6    1    1    2    0  502 -0.18247950162E+03  0.24891218123E+02  0.81736511012E+02  0.26492111748E+03  0.17200000000E+03 0. -1.
</event>
<event>
 4    1  0.1241325E+000  0.1938008E+03  0.7818608E-02  0.1155077E+00
         21   -1    0    0  501  502  0.00000000000E+00  0.00000000000E+00  0.50164805732E+03  0.50164805732E+03  0.00000000000E+00 0. -1.
         21   -1    0    0  502  503 -0.00000000000E+00 -0.00000000000E+00 -0.82645883734E+02  0.82645883734E+02  0.00000000000E+00 0. -1.
          6    1    1    2  501    0  0.19766824903E+02  0.87086400359E+02  0.29910863286E+03  0.35640530684E+03  0.17200000000E+03 0. -1.
         -6    1    1    2    0  503 -0.19766824903E+02 -0.87086400359E+02  0.11989354072E+03  0.22788863421E+03  0.17200000000E+03 0. -1.
</event>
<event>
 4    1  0.1241325E+000  0.2587893E+03  0.7818608E-02  0.1107873E+00
         21   -1    0    0  501  502  0.00000000000E+00  0.00000000000E+00  0.60527370315E+03  0.60527370315E+03  0.00000000000E+00 0. -1.
         21   -1    0    0  502  503 -0.00000000000E+00 -0.00000000000E+00 -0.11144881804E+03  0.11144881804E+03  0.00000000000E+00 0. -1.
          6    1    1    2  501    0 -0.18557890464E+03  0.54299105960E+02  0.27730241050E+03  0.37930007860E+03  0.17200000000E+03 0. -1.
         -6    1    1    2    0  503  0.18557890464E+03 -0.54299105960E+02  0.21652247461E+03  0.33742244259E+03  0.17200000000E+03 0. -1.
</event>
<event>
 4    1  0.1241325E+000  0.3344597E+03  0.7818608E-02  0.1069180E+00
         21   -1    0    0  501  502  0.00000000000E+00  0.00000000000E+00  0.11148345545E+04  0.11148345545E+04  0.00000000000E+00 0. -1.
         21   -1    0    0  502  503 -0.00000000000E+00 -0.00000000000E+00 -0.11474578875E+03  0.11474578875E+03  0.00000000000E+00 0.  1.
          6    1    1    2  501    0  0.24879573958E+03 -0.14275836366E+03  0.71787385109E+03  0.79196346918E+03  0.17200000000E+03 0. -1.
         -6    1    1    2    0  503 -0.24879573958E+03  0.14275836366E+03  0.28221491470E+03  0.43761687411E+03  0.17200000000E+03 0. -1.
</event>
<event>
 4    1  0.1241325E+000  0.6747583E+03  0.7818608E-02  0.9761400E-01
         21   -1    0    0  501  502  0.00000000000E+00  0.00000000000E+00  0.50481490841E+03  0.50481490841E+03  0.00000000000E+00 0. -1.
         21   -1    0    0  502  503 -0.00000000000E+00 -0.00000000000E+00 -0.10963711530E+04  0.10963711530E+04  0.00000000000E+00 0.  1.
          6    1    1    2  501    0 -0.57499270027E+03 -0.30837987469E+03  0.41390316593E+02  0.67602656070E+03  0.17200000000E+03 0.  1.
         -6    1    1    2    0  503  0.57499270027E+03  0.30837987469E+03 -0.63294656122E+03  0.92515950075E+03  0.17200000000E+03 0. -1.
</event>
<event>
 4    1  0.1241325E+000  0.2010207E+03  0.7818608E-02  0.1148881E+00
         21   -1    0    0  503  502  0.00000000000E+00  0.00000000000E+00  0.17865254690E+03  0.17865254690E+03  0.00000000000E+00 0.  1.
         21   -1    0    0  501  503 -0.00000000000E+00 -0.00000000000E+00 -0.56322830506E+03  0.56322830506E+03  0.00000000000E+00 0. -1.
          6    1    1    2  501    0  0.98706444626E+02 -0.32899113274E+02 -0.47923504688E+03  0.51968792946E+03  0.17200000000E+03 0. -1.
         -6    1    1    2    0  502 -0.98706444626E+02  0.32899113274E+02  0.94659288733E+02  0.22219292250E+03  0.17200000000E+03 0.  1.
</event>
<event>
 4    1  0.1241325E+000  0.1863619E+03  0.7818608E-02  0.1161784E+00
         21   -1    0    0  501  502  0.00000000000E+00  0.00000000000E+00  0.29832442562E+02  0.29832442562E+02  0.00000000000E+00 0.  1.
         21   -1    0    0  502  503 -0.00000000000E+00 -0.00000000000E+00 -0.14308935437E+04  0.14308935437E+04  0.00000000000E+00 0.  1.
          6    1    1    2  501    0 -0.69403128568E+02 -0.18164699908E+02 -0.38521438577E+03  0.42792624783E+03  0.17200000000E+03 0.  1.
         -6    1    1    2    0  503  0.69403128568E+02  0.18164699908E+02 -0.10158467153E+04  0.10327997384E+04  0.17200000000E+03 0.  1.
</event>
<event>
 4    1  0.1241325E+000  0.1838083E+03  0.7818608E-02  0.1164167E+00
         21   -1    0    0  501  502  0.00000000000E+00  0.00000000000E+00  0.10919670442E+04  0.10919670442E+04  0.00000000000E+00 0. -1.
         21   -1    0    0  502  503 -0.00000000000E+00 -0.00000000000E+00 -0.18518172483E+03  0.18518172483E+03  0.00000000000E+00 0. -1.
          6    1    1    2  501    0 -0.59866249034E+02  0.24849657239E+02  0.10361843503E+04  0.10523609081E+04  0.17200000000E+03 0. -1.
         -6    1    1    2    0  503  0.59866249034E+02 -0.24849657239E+02 -0.12939903085E+03  0.22478786093E+03  0.17200000000E+03 0. -1.
</event>
<event>
 4    1  0.1241325E+000  0.1881847E+03  0.7818608E-02  0.1160109E+00
         21   -1    0    0  503  502  0.00000000000E+00  0.00000000000E+00  0.16873833841E+03  0.16873833841E+03  0.00000000000E+00 0.  1.
         21   -1    0    0  501  503 -0.00000000000E+00 -0.00000000000E+00 -0.27584388260E+03  0.27584388260E+03  0.00000000000E+00 0.  1.
          6    1    1    2  501    0 -0.76296094056E+02  0.28957130222E+01  0.55157188304E+02  0.19610149042E+03  0.17200000000E+03 0.  1.
         -6    1    1    2    0  502  0.76296094056E+02 -0.28957130222E+01 -0.16226273249E+03  0.24848073060E+03  0.17200000000E+03 0.  1.
</event>
<event>
 4    1  0.1241325E+000  0.2307434E+03  0.7818608E-02  0.1126118E+00
         21   -1    0    0  503  502  0.00000000000E+00  0.00000000000E+00  0.23327165784E+03  0.23327165784E+03  0.00000000000E+00 0.  1.
         21   -1    0    0  501  503 -0.00000000000E+00 -0.00000000000E+00 -0.27319328686E+03  0.27319328686E+03  0.00000000000E+00 0. -1.
          6    1    1    2  501    0 -0.61595303502E+02  0.14094163442E+03 -0.12268025183E+03  0.26132923663E+03  0.17200000000E+03 0. -1.
         -6    1    1    2    0  502  0.61595303502E+02 -0.14094163442E+03  0.82758622809E+02  0.24513570808E+03  0.17200000000E+03 0.  1.
</event>
<event>
 4    1  0.1241325E+000  0.2122458E+03  0.7818608E-02  0.1139800E+00
         21   -1    0    0  501  502  0.00000000000E+00  0.00000000000E+00  0.12424454120E+03  0.12424454120E+03  0.00000000000E+00 0.  1.
         21   -1    0    0  502  503 -0.00000000000E+00 -0.00000000000E+00 -0.38334059442E+03  0.38334059442E+03  0.00000000000E+00 0. -1.
          6    1    1    2  501    0 -0.51679636404E+02 -0.11310834908E+03 -0.70482805563E+02  0.22364281641E+03  0.17200000000E+03 0.  1.
         -6    1    1    2    0  503  0.51679636404E+02  0.11310834908E+03 -0.18861324765E+03  0.28394231922E+03  0.17200000000E+03 0. -1.
</event>
<event>
 4    1  0.1241325E+000  0.1786221E+03  0.7818608E-02  0.1169143E+00
         21   -1    0    0  503  502  0.00000000000E+00  0.00000000000E+00  0.41788653813E+03  0.41788653813E+03  0.00000000000E+00 0.  1.
         21   -1    0    0  501  503 -0.00000000000E+00 -0.00000000000E+00 -0.12616220046E+03  0.12616220046E+03  0.00000000000E+00 0.  1.
          6    1    1    2  501    0 -0.32091712499E+02 -0.35944296835E+02 -0.25064022002E+02  0.18037204796E+03  0.17200000000E+03 0.  1.
         -6    1    1    2    0  502  0.32091712499E+02  0.35944296835E+02  0.31678835968E+03  0.36367669064E+03  0.17200000000E+03 0.  1.
</event>
<event>
 4    1  0.1241325E+000  0.3205544E+03  0.7818608E-02  0.1075394E+00
         21   -1    0    0  501  502  0.00000000000E+00  0.00000000000E+00  0.11142241907E+04  0.11142241907E+04  0.00000000000E+00 0. -1.
         21   -1    0    0  502  503 -0.00000000000E+00 -0.00000000000E+00 -0.94920709103E+02  0.94920709103E+02  0.00000000000E+00 0.  1.
          6    1    1    2  501    0  0.25609422692E+03  0.87102600083E+02  0.61160674018E+03  0.69052003637E+03  0.17200000000E+03 0.  1.
         -6    1    1    2    0  503 -0.25609422692E+03 -0.87102600083E+02  0.40769674140E+03  0.51862486341E+03  0.17200000000E+03 0. -1.
</event>
<event>
 4    1  0.1241325E+000  0.2329300E+03  0.7818608E-02  0.1124594E+00
         21   -1    0    0  501  502  0.00000000000E+00  0.00000000000E+00  0.61864243026E+03  0.61864243026E+03  0.00000000000E+00 0.  1.
         21   -1    0    0  502  503 -0.00000000000E+00 -0.00000000000E+00 -0.14781843299E+03  0.14781843299E+03  0.00000000000E+00 0.  1.
          6    1    1    2  501    0 -0.29056985511E+02 -0.15436351030E+03  0.47980625176E+03  0.53335770450E+03  0.17200000000E+03 0.  1.
         -6    1    1    2    0  503  0.29056985511E+02  0.15436351030E+03 -0.89822544924E+01  0.23310315874E+03  0.17200000000E+03 0.  1.
</event>
<event>
 4    1  0.1241325E+000  0.1760652E+03  0.7818608E-02  0.1171666E+00
         21   -1    0    0  501  502  0.00000000000E+00  0.00000000000E+00  0.98903958798E+02  0.98903958798E+02  0.00000000000E+00 0.  1.
         21   -1    0    0  502  503 -0.00000000000E+00 -0.00000000000E+00 -0.33444050909E+03  0.33444050909E+03  0.00000000000E+00 0.  1.
          6    1    1    2  501    0 -0.34126956576E+02  0.15821309864E+02 -0.63453891683E+02  0.18715063286E+03  0.17200000000E+03 0.  1.
         -6    1    1    2    0  503  0.34126956576E+02 -0.15821309864E+02 -0.17208265861E+03  0.24619383503E+03  0.17200000000E+03 0.  1.
</event>
<event>
 4    1  0.1241325E+000  0.1910318E+03  0.7818608E-02  0.1157534E+00
         21   -1    0    0  501  502  0.00000000000E+00  0.00000000000E+00  0.84061420116E+02  0.84061420116E+02  0.00000000000E+00 0.  1.
         21   -1    0    0  502  503 -0.00000000000E+00 -0.00000000000E+00 -0.43976177509E+03  0.43976177509E+03  0.00000000000E+00 0.  1.
          6    1    1    2  501    0 -0.77945751896E+02  0.28872055765E+02 -0.20750356080E+03  0.28204762645E+03  0.17200000000E+03 0.  1.
         -6    1    1    2    0  503  0.77945751896E+02 -0.28872055765E+02 -0.14819679417E+03  0.24177556875E+03  0.17200000000E+03 0.  1.
</event>
<event>
 4    1  0.1241325E+000  0.1881413E+03  0.7818608E-02  0.1160149E+00
         21   -1    0    0  501  502  0.00000000000E+00  0.00000000000E+00  0.12834981024E+03  0.12834981024E+03  0.00000000000E+00 0. -1.
         21   -1    0    0  502  503 -0.00000000000E+00 -0.00000000000E+00 -0.33697663736E+03  0.33697663736E+03  0.00000000000E+00 0. -1.
          6    1    1    2  501    0  0.65860518660E+02  0.38412660257E+02 -0.51689002182E+01  0.18821226824E+03  0.17200000000E+03 0. -1.
         -6    1    1    2    0  503 -0.65860518660E+02 -0.38412660257E+02 -0.20345792690E+03  0.27711417936E+03  0.17200000000E+03 0. -1.
</event>
<event>
 4    1  0.1241325E+000  0.1876273E+03  0.7818608E-02  0.1160619E+00
         21   -1    0    0  501  502  0.00000000000E+00  0.00000000000E+00  0.14285532717E+03  0.14285532717E+03  0.00000000000E+00 0.  1.
         21   -1    0    0  502  503 -0.00000000000E+00 -0.00000000000E+00 -0.35510101455E+03  0.35510101455E+03  0.00000000000E+00 0.  1.
          6    1    1    2  501    0 -0.73046435862E+02 -0.16859150614E+02  0.31610704558E+02  0.19027151493E+03  0.17200000000E+03 0.  1.
         -6    1    1    2    0  503  0.73046435862E+02  0.16859150614E+02 -0.24385639194E+03  0.30768482679E+03  0.17200000000E+03 0.  1.
</event>
<event>
 4    1  0.1241325E+000  0.1746082E+03  0.7818608E-02  0.1173126E+00
         21   -1    0    0  501  502  0.00000000000E+00  0.00000000000E+00  0.73765725679E+03  0.73765725679E+03  0.00000000000E+00 0.  1.
         21   -1    0    0  502  503 -0.00000000000E+00 -0.00000000000E+00 -0.51019875289E+02  0.51019875289E+02  0.00000000000E+00 0.  1.
          6    1    1    2  501    0 -0.84932475594E+01 -0.28842537632E+02  0.51516444927E+03  0.54395076709E+03  0.17200000000E+03 0.  1.
         -6    1    1    2    0  503  0.84932475594E+01  0.28842537632E+02  0.17147293224E+03  0.24472636499E+03  0.17200000000E+03 0.  1.
</event>
<event>
 4    1  0.1241325E+000  0.2047652E+03  0.7818608E-02  0.1145780E+00
         21   -1    0    0  503  502  0.00000000000E+00  0.00000000000E+00  0.35472196540E+02  0.35472196540E+02  0.00000000000E+00 0.  1.
         21   -1    0    0  501  503 -0.00000000000E+00 -0.00000000000E+00 -0.15748712871E+04  0.15748712871E+04  0.00000000000E+00 0. -1.
          6    1    1    2  501    0 -0.10223556961E+03  0.43505110264E+02 -0.11718427151E+04  0.11895983167E+04  0.17200000000E+03 0.  1.
         -6    1    1    2    0  502  0.10223556961E+03 -0.43505110264E+02 -0.36755637550E+03  0.42074516692E+03  0.17200000000E+03 0.  1.
</event>
<event>
 4    1  0.1241325E+000  0.1791079E+03  0.7818608E-02  0.1168669E+00
         21   -1    0    0  501  502  0.00000000000E+00  0.00000000000E+00  0.10246820028E+04  0.10246820028E+04  0.00000000000E+00 0.  1.
         21   -1    0    0  502  503 -0.00000000000E+00 -0.00000000000E+00 -0.51906536293E+02  0.51906536293E+02  0.00000000000E+00 0.  1.
          6    1    1    2  501    0 -0.12623284765E+02  0.48335349724E+02  0.82549581024E+03  0.84470289811E+03  0.17200000000E+03 0.  1.
         -6    1    1    2    0  503  0.12623284765E+02 -0.48335349724E+02  0.14727965631E+03  0.23188564103E+03  0.17200000000E+03 0.  1.
</event>
<event>
 4    1  0.1241325E+000  0.1963091E+03  0.7818608E-02  0.1152891E+00
         21   -1    0    0  501  502  0.00000000000E+00  0.00000000000E+00  0.21214256268E+03  0.21214256268E+03  0.00000000000E+00 0.  1.
         21   -1    0    0  502  503 -0.00000000000E+00 -0.00000000000E+00 -0.24319445344E+03  0.24319445344E+03  0.00000000000E+00 0.  1.
          6    1    1    2  501    0  0.87485095732E+02 -0.36050274007E+02  0.98997528409E+02  0.21985853375E+03  0.17200000000E+03 0. -1.
         -6    1    1    2    0  503 -0.87485095732E+02  0.36050274007E+02 -0.13004941918E+03  0.23547848237E+03  0.17200000000E+03 0. -1.
</event>
<event>
 4    1  0.1241325E+000  0.1791956E+03  0.7818608E-02  0.1168584E+00
         21   -1    0    0  501  502  0.00000000000E+00  0.00000000000E+00  0.55257278766E+03  0.55257278766E+03  0.00000000000E+00 0.  1.
         21   -1    0    0  502  503 -0.00000000000E+00 -0.00000000000E+00 -0.12352927328E+03  0.12352927328E+03  0.00000000000E+00 0. -1.
          6    1    1    2  501    0 -0.50248520841E+02  0.14625387820E+01  0.46052672770E+03  0.49416183563E+03  0.17200000000E+03 0.  1.
         -6    1    1    2    0  503  0.50248520841E+02 -0.14625387820E+01 -0.31483213316E+02  0.18194022531E+03  0.17200000000E+03 0. -1.
</event>
<event>
 4    1  0.1241325E+000  0.2209044E+03  0.7818608E-02  0.1133211E+00
         21   -1    0    0  501  502  0.00000000000E+00  0.00000000000E+00  0.16466982612E+03  0.16466982612E+03  0.00000000000E+00 0.  1.
         21   -1    0    0  502  503 -0.00000000000E+00 -0.00000000000E+00 -0.41666978609E+03  0.41666978609E+03  0.00000000000E+00 0. -1.
          6    1    1    2  501    0  0.67794064230E+02 -0.12090783536E+03  0.30201516198E+02  0.22295934916E+03  0.17200000000E+03 0.  1.
         -6    1    1    2    0  503 -0.67794064230E+02  0.12090783536E+03 -0.28220147616E+03  0.35838026305E+03  0.17200000000E+03 0. -1.
</event>
<event>
 4    1  0.1241325E+000  0.1761384E+03  0.7818608E-02  0.1171593E+00
         21   -1    0    0  503  502  0.00000000000E+00  0.00000000000E+00  0.76962119704E+02  0.76962119704E+02  0.00000000000E+00 0. -1.
         21   -1    0    0  501  503 -0.00000000000E+00 -0.00000000000E+00 -0.12276723767E+04  0.12276723767E+04  0.00000000000E+00 0. -1.
          6    1    1    2  501    0  0.37944377924E+02 -0.98738748289E+00 -0.11099533297E+04  0.11238421352E+04  0.17200000000E+03 0.  1.
         -6    1    1    2    0  502 -0.37944377924E+02  0.98738748289E+00 -0.40756927314E+02  0.18079236122E+03  0.17200000000E+03 0.  1.
</event>
<event>
 4    1  0.1241325E+000  0.1802405E+03  0.7818608E-02  0.1167570E+00
         21   -1    0    0  501  502  0.00000000000E+00  0.00000000000E+00  0.37747367244E+03  0.37747367244E+03  0.00000000000E+00 0. -1.
         21   -1    0    0  502  503 -0.00000000000E+00 -0.00000000000E+00 -0.96791580017E+02  0.96791580017E+02  0.00000000000E+00 0. -1.
          6    1    1    2  501    0  0.33902164444E+02  0.41872339697E+02  0.21928820716E+03  0.28385553964E+03  0.17200000000E+03 0.  1.
         -6    1    1    2    0  503 -0.33902164444E+02 -0.41872339697E+02  0.61393885259E+02  0.19040971281E+03  0.17200000000E+03 0.  1.
</event>
<event>
 4    1  0.1241325E+000  0.2262909E+03  0.7818608E-02  0.1129278E+00
         21   -1    0    0  501  502  0.00000000000E+00  0.00000000000E+00  0.64522393925E+03  0.64522393925E+03  0.00000000000E+00 0.  1.
         21   -1    0    0  502  503 -0.00000000000E+00 -0.00000000000E+00 -0.86887889395E+02  0.86887889395E+02  0.00000000000E+00 0. -1.
          6    1    1    2  501    0 -0.12917571087E+03  0.70265160845E+02  0.38688615582E+03  0.44820581731E+03  0.17200000000E+03 0.  1.
         -6    1    1    2    0  503  0.12917571087E+03 -0.70265160845E+02  0.17144989404E+03  0.28390601134E+03  0.17200000000E+03 0. -1.
</event>
<event>
 4    1  0.1241325E+000  0.1916115E+03  0.7818608E-02  0.1157016E+00
         21   -1    0    0  501  502  0.00000000000E+00  0.00000000000E+00  0.26072345500E+02  0.26072345500E+02  0.00000000000E+00 0. -1.
         21   -1    0    0  502  503 -0.00000000000E+00 -0.00000000000E+00 -0.16906591024E+04  0.16906591024E+04  0.00000000000E+00 0. -1.
          6    1    1    2  501    0  0.53572922322E+02  0.65275736732E+02 -0.48144053978E+03  0.51816983042E+03  0.17200000000E+03 0. -1.
         -6    1    1    2    0  503 -0.53572922322E+02 -0.65275736732E+02 -0.11831462171E+04  0.11985616174E+04  0.17200000000E+03 0. -1.
</event>
<event>
 4    1  0.1241325E+000  0.1827360E+03  0.7818608E-02  0.1165181E+00
         21   -1    0    0  503  502  0.00000000000E+00  0.00000000000E+00  0.14016685390E+03  0.14016685390E+03  0.00000000000E+00 0.  1.
         21   -1    0    0  501  503 -0.00000000000E+00 -0.00000000000E+00 -0.38884268012E+03  0.38884268012E+03  0.00000000000E+00 0.  1.
          6    1    1    2  501    0  0.42362147462E+02  0.44876333805E+02 -0.28895400834E+03  0.34188719749E+03  0.17200000000E+03 0.  1.
         -6    1    1    2    0  502 -0.42362147462E+02 -0.44876333805E+02  0.40278182126E+02  0.18712233653E+03  0.17200000000E+03 0.  1.
</event>
<event>
 4    1  0.1241325E+000  0.2358783E+03  0.7818608E-02  0.1122569E+00
         21   -1    0    0  503  502  0.00000000000E+00  0.00000000000E+00  0.10125316220E+04  0.10125316220E+04  0.00000000000E+00 0. -1.
         21   -1    0    0  501  503 -0.00000000000E+00 -0.00000000000E+00 -0.91895384024E+02  0.91895384024E+02  0.00000000000E+00 0. -1.
          6    1    1    2  501    0  0.14315134600E+03 -0.74580539782E+02  0.11017907318E+03  0.26034206910E+03  0.17200000000E+03 0. -1.
         -6    1    1    2    0  502 -0.14315134600E+03  0.74580539782E+02  0.81045716476E+03  0.84408493689E+03  0.17200000000E+03 0. -1.
</event>
<event>
 4    1  0.1241325E+000  0.2167710E+03  0.7818608E-02  0.1136314E+00
         21   -1    0    0  501  502  0.00000000000E+00  0.00000000000E+00  0.91226639411E+03  0.91226639411E+03  0.00000000000E+00 0.  1.
         21   -1    0    0  502  503 -0.00000000000E+00 -0.00000000000E+00 -0.61643087473E+02  0.61643087473E+02  0.00000000000E+00 0.  1.
          6    1    1    2  501    0 -0.10145503624E+03 -0.84335942801E+02  0.62275599790E+03  0.65940481386E+03  0.17200000000E+03 0.  1.
         -6    1    1    2    0  503  0.10145503624E+03  0.84335942801E+02  0.22786730874E+03  0.31450466772E+03  0.17200000000E+03 0.  1.
</event>
<event>
 4    1  0.1241325E+000  0.2131268E+03  0.7818608E-02  0.1139114E+00
         21   -1    0    0  501  502  0.00000000000E+00  0.00000000000E+00  0.59758554705E+03  0.59758554705E+03  0.00000000000E+00 0.  1.
         21   -1    0    0  502  503 -0.00000000000E+00 -0.00000000000E+00 -0.76010905911E+02  0.76010905911E+02  0.00000000000E+00 0. -1.
          6    1    1    2  501    0  0.10721257465E+03  0.65912688484E+02  0.26080499540E+03  0.33681191234E+03  0.17200000000E+03 0. -1.
         -6    1    1    2    0  503 -0.10721257465E+03 -0.65912688484E+02  0.26076964574E+03  0.33678454063E+03  0.17200000000E+03 0. -1.
</event>
<event>
 4    1  0.1241325E+000  0.2726002E+03  0.7818608E-02  0.1099801E+00
         21   -1    0    0  503  502  0.00000000000E+00  0.00000000000E+00  0.74121036847E+03  0.74121036847E+03  0.00000000000E+00 0.  1.
         21   -1    0    0  501  503 -0.00000000000E+00 -0.00000000000E+00 -0.11453390751E+03  0.11453390751E+03  0.00000000000E+00 0. -1.
          6    1    1    2  501    0 -0.16214816259E+03 -0.13577491304E+03  0.16226835300E+03  0.31724103144E+03  0.17200000000E+03 0.  1.
         -6    1    1    2    0  502  0.16214816259E+03  0.13577491304E+03  0.46440810796E+03  0.53850324454E+03  0.17200000000E+03 0.  1.
</event>
<event>
 4    1  0.1241325E+000  0.1731129E+03  0.7818608E-02  0.1174640E+00
         21   -1    0    0  503  502  0.00000000000E+00  0.00000000000E+00  0.10493374044E+04  0.10493374044E+04  0.00000000000E+00 0.  1.
         21   -1    0    0  501  503 -0.00000000000E+00 -0.00000000000E+00 -0.48438635105E+02  0.48438635105E+02  0.00000000000E+00 0.  1.
          6    1    1    2  501    0  0.17651222339E+02 -0.85152607130E+01  0.14881486414E+03  0.22828477633E+03  0.17200000000E+03 0.  1.
         -6    1    1    2    0  502 -0.17651222339E+02  0.85152607130E+01  0.85208390520E+03  0.86949126322E+03  0.17200000000E+03 0.  1.
</event>
<event>
 4    1  0.1241325E+000  0.1732919E+03  0.7818608E-02  0.1174458E+00
         21   -1    0    0  501  502  0.00000000000E+00  0.00000000000E+00  0.84810502932E+03  0.84810502932E+03  0.00000000000E+00 0.  1.
         21   -1    0    0  502  503 -0.00000000000E+00 -0.00000000000E+00 -0.45834269712E+02  0.45834269712E+02  0.00000000000E+00 0.  1.
          6    1    1    2  501    0 -0.11367980387E+02 -0.17800536967E+02  0.61431115203E+03  0.63828542330E+03  0.17200000000E+03 0.  1.
         -6    1    1    2    0  503  0.11367980387E+02  0.17800536967E+02  0.18795960758E+03  0.25565387573E+03  0.17200000000E+03 0.  1.
</event>
<event>
 4    1  0.1241325E+000  0.2200745E+03  0.7818608E-02  0.1133828E+00
         21   -1    0    0  501  502  0.00000000000E+00  0.00000000000E+00  0.57599982533E+02  0.57599982533E+02  0.00000000000E+00 0. -1.
         21   -1    0    0  502  503 -0.00000000000E+00 -0.00000000000E+00 -0.88551831764E+03  0.88551831764E+03  0.00000000000E+00 0.  1.
          6    1    1    2  501    0 -0.13385704798E+03  0.30513546555E+02 -0.30804582846E+03  0.37858290803E+03  0.17200000000E+03 0. -1.
         -6    1    1    2    0  503  0.13385704798E+03 -0.30513546555E+02 -0.51987250664E+03  0.56453539214E+03  0.17200000000E+03 0. -1.
</event>
<event>
 4    1  0.1241325E+000  0.2412978E+03  0.7818608E-02  0.1118931E+00
         21   -1    0    0  503  502  0.00000000000E+00  0.00000000000E+00  0.44728406548E+03  0.44728406548E+03  0.00000000000E+00 0.  1.
         21   -1    0    0  501  503 -0.00000000000E+00 -0.00000000000E+00 -0.25147109329E+03  0.25147109329E+03  0.00000000000E+00 0.  1.
          6    1    1    2  501    0 -0.69447067208E+02 -0.15432994061E+03 -0.14474151315E+03  0.28138004787E+03  0.17200000000E+03 0.  1.
         -6    1    1    2    0  502  0.69447067208E+02  0.15432994061E+03  0.34055448534E+03  0.41737511090E+03  0.17200000000E+03 0.  1.
</event>
<event>
 4    1  0.1241325E+000  0.3022134E+03  0.7818608E-02  0.1084139E+00
         21   -1    0    0  501  502  0.00000000000E+00  0.00000000000E+00  0.32591202858E+03  0.32591202858E+03  0.00000000000E+00 0.  1.
         21   -1    0    0  502  503 -0.00000000000E+00 -0.00000000000E+00 -0.28711104349E+03  0.28711104349E+03  0.00000000000E+00 0. -1.
          6    1    1    2  501    0 -0.22631137898E+03 -0.10262589745E+03  0.66824511871E+02  0.30951321534E+03  0.17200000000E+03 0.  1.
         -6    1    1    2    0  503  0.22631137898E+03  0.10262589745E+03 -0.28023526778E+02  0.30350985673E+03  0.17200000000E+03 0.  1.
</event>
<event>
 4    1  0.1241325E+000  0.1831117E+03  0.7818608E-02  0.1164825E+00
         21   -1    0    0  501  502  0.00000000000E+00  0.00000000000E+00  0.17129636854E+03  0.17129636854E+03  0.00000000000E+00 0.  1.
         21   -1    0    0  502  503 -0.00000000000E+00 -0.00000000000E+00 -0.22788923163E+03  0.22788923163E+03  0.00000000000E+00 0.  1.
          6    1    1    2  501    0  0.47763480201E+02 -0.40798662420E+02 -0.10326086555E+03  0.21022056809E+03  0.17200000000E+03 0.  1.
         -6    1    1    2    0  503 -0.47763480201E+02  0.40798662420E+02  0.46668002459E+02  0.18896503208E+03  0.17200000000E+03 0.  1.
</event>
<event>
 4    1  0.1241325E+000  0.2723920E+03  0.7818608E-02  0.1099918E+00
         21   -1    0    0  503  502  0.00000000000E+00  0.00000000000E+00  0.10112581653E+03  0.10112581653E+03  0.00000000000E+00 0.  1.
         21   -1    0    0  501  503 -0.00000000000E+00 -0.00000000000E+00 -0.73666942229E+03  0.73666942229E+03  0.00000000000E+00 0. -1.
          6    1    1    2  501    0 -0.27842911458E+02  0.20937568548E+03 -0.34430547120E+03  0.43902581118E+03  0.17200000000E+03 0.  1.
         -6    1    1    2    0  502  0.27842911458E+02 -0.20937568548E+03 -0.29123813457E+03  0.39876942763E+03  0.17200000000E+03 0. -1.
</event>
<event>
 4    1  0.1241325E+000  0.1942090E+03  0.7818608E-02  0.1154719E+00
         21   -1    0    0  501  502  0.00000000000E+00  0.00000000000E+00  0.80963914572E+02  0.80963914572E+02  0.00000000000E+00 0. -1.
         21   -1    0    0  502  503 -0.00000000000E+00 -0.00000000000E+00 -0.48517789769E+03  0.48517789769E+03  0.00000000000E+00 0.  1.
          6    1    1    2  501    0 -0.88928536441E+02 -0.14994960044E+02 -0.25860381383E+03  0.32340851248E+03  0.17200000000E+03 0.  1.
         -6    1    1    2    0  503  0.88928536441E+02  0.14994960044E+02 -0.14561016929E+03  0.24273329978E+03  0.17200000000E+03 0.  1.
</event>
<event>
 4    1  0.1241325E+000  0.1899244E+03  0.7818608E-02  0.1158530E+00
         21   -1    0    0  503  502  0.00000000000E+00  0.00000000000E+00  0.25114106007E+03  0.25114106007E+03  0.00000000000E+00 0. -1.
         21   -1    0    0  501  503 -0.00000000000E+00 -0.00000000000E+00 -0.14373888448E+03  0.14373888448E+03  0.00000000000E+00 0.  1.
          6    1    1    2  501    0 -0.13518750971E+02 -0.79401101845E+02  0.48257132767E+02  0.19595928777E+03  0.17200000000E+03 0. -1.
         -6    1    1    2    0  502  0.13518750971E+02  0.79401101845E+02  0.59145042829E+02  0.19892065678E+03  0.17200000000E+03 0. -1.
</event>
<event>
 4    1  0.1241325E+000  0.1843133E+03  0.7818608E-02  0.1163693E+00
         21   -1    0    0  503  502  0.00000000000E+00  0.00000000000E+00  0.15752933142E+04  0.15752933142E+04  0.00000000000E+00 0.  1.
         21   -1    0    0  501  503 -0.00000000000E+00 -0.00000000000E+00 -0.24313394610E+02  0.24313394610E+02  0.00000000000E+00 0.  1.
          6    1    1    2  501    0  0.65088755738E+02 -0.12281226536E+02  0.50658969967E+03  0.53907745127E+03  0.17200000000E+03 0.  1.
         -6    1    1    2    0  502 -0.65088755738E+02  0.12281226536E+02  0.10443902199E+04  0.10605292576E+04  0.17200000000E+03 0.  1.
</event>
<event>
 4    1  0.1241325E+000  0.2623441E+03  0.7818608E-02  0.1105743E+00
         21   -1    0    0  501  502  0.00000000000E+00  0.00000000000E+00  0.13115641125E+03  0.13115641125E+03  0.00000000000E+00 0. -1.
         21   -1    0    0  502  503 -0.00000000000E+00 -0.00000000000E+00 -0.12495618233E+04  0.12495618233E+04  0.00000000000E+00 0.  1.
          6    1    1    2  501    0  0.93609368387E+02  0.17457872495E+03 -0.33417266510E+02  0.26446390823E+03  0.17200000000E+03 0. -1.
         -6    1    1    2    0  503 -0.93609368387E+02 -0.17457872495E+03 -0.10849881456E+04  0.11162543263E+04  0.17200000000E+03 0.  1.
</event>
<event>
 4    1  0.1241325E+000  0.3603014E+03  0.7818608E-02  0.1058465E+00
         21   -1    0    0  501  502  0.00000000000E+00  0.00000000000E+00  0.78481503481E+03  0.78481503481E+03  0.00000000000E+00 0.  1.
         21   -1    0    0  502  503 -0.00000000000E+00 -0.00000000000E+00 -0.18010729615E+03  0.18010729615E+03  0.00000000000E+00 0. -1.
          6    1    1    2  501    0  0.31497171167E+03 -0.32030282971E+02  0.44016972276E+03  0.56882906309E+03  0.17200000000E+03 0.  1.
         -6    1    1    2    0  503 -0.31497171167E+03  0.32030282971E+02  0.16453801590E+03  0.39609326788E+03  0.17200000000E+03 0. -1.
</event>
<event>
 4    1  0.1241325E+000  0.2070513E+03  0.7818608E-02  0.1143923E+00
         21   -1    0    0  501  502  0.00000000000E+00  0.00000000000E+00  0.59736933220E+03  0.59736933220E+03  0.00000000000E+00 0.  1.
         21   -1    0    0  502  503 -0.00000000000E+00 -0.00000000000E+00 -0.77851340659E+02  0.77851340659E+02  0.00000000000E+00 0. -1.
          6    1    1    2  501    0  0.89444603261E+02  0.72704116901E+02  0.35415636408E+03  0.41024011979E+03  0.17200000000E+03 0.  1.
         -6    1    1    2    0  503 -0.89444603261E+02 -0.72704116901E+02  0.16536162745E+03  0.26498055306E+03  0.17200000000E+03 0. -1.
</event>
<event>
 4    1  0.1241325E+000  0.1793320E+03  0.7818608E-02  0.1168451E+00
         21   -1    0    0  503  502  0.00000000000E+00  0.00000000000E+00  0.54801516204E+02  0.54801516204E+02  0.00000000000E+00 0.  1.
         21   -1    0    0  501  503 -0.00000000000E+00 -0.00000000000E+00 -0.11162294897E+04  0.11162294897E+04  0.00000000000E+00 0.  1.
          6    1    1    2  501    0 -0.46468122087E+02 -0.20412993737E+02 -0.93393894155E+03  0.95100048540E+03  0.17200000000E+03 0.  1.
         -6    1    1    2    0  502  0.46468122087E+02  0.20412993737E+02 -0.12748903192E+03  0.22003052048E+03  0.17200000000E+03 0.  1.
</event>
<event>
 4    1  0.1241325E+000  0.2414337E+03  0.7818608E-02  0.1118841E+00
         21   -1    0    0  501  502  0.00000000000E+00  0.00000000000E+00  0.50010290931E+03  0.50010290931E+03  0.00000000000E+00 0.  1.
         21   -1    0    0  502  503 -0.00000000000E+00 -0.00000000000E+00 -0.17432625877E+03  0.17432625877E+03  0.00000000000E+00 0. -1.
          6    1    1    2  501    0 -0.48921057261E+01  0.16935843213E+03  0.35701064526E+03  0.43098354036E+03  0.17200000000E+03 0.  1.
         -6    1    1    2    0  503  0.48921057261E+01 -0.16935843213E+03 -0.31233994720E+02  0.24344562772E+03  0.17200000000E+03 0. -1.
</event>
<event>
 4    1  0.1241325E+000  0.2186794E+03  0.7818608E-02  0.1134871E+00
         21   -1    0    0  503  502  0.00000000000E+00  0.00000000000E+00  0.35162269463E+02  0.35162269463E+02  0.00000000000E+00 0.  1.
         21   -1    0    0  501  503 -0.00000000000E+00 -0.00000000000E+00 -0.17481438722E+04  0.17481438722E+04  0.00000000000E+00 0.  1.
          6    1    1    2  501    0 -0.10544107802E+03 -0.84373228366E+02 -0.12766405135E+04  0.12952342118E+04  0.17200000000E+03 0.  1.
         -6    1    1    2    0  502  0.10544107802E+03  0.84373228366E+02 -0.43634108918E+03  0.48807192985E+03  0.17200000000E+03 0.  1.
</event>
<event>
 4    1  0.1241325E+000  0.2328905E+03  0.7818608E-02  0.1124622E+00
         21   -1    0    0  503  502  0.00000000000E+00  0.00000000000E+00  0.10109172355E+03  0.10109172355E+03  0.00000000000E+00 0. -1.
         21   -1    0    0  501  503 -0.00000000000E+00 -0.00000000000E+00 -0.54095061918E+03  0.54095061918E+03  0.00000000000E+00 0.  1.
          6    1    1    2  501    0 -0.14557251639E+03 -0.58844056123E+02 -0.19088478447E+03  0.30112286763E+03  0.17200000000E+03 0. -1.
         -6    1    1    2    0  502  0.14557251639E+03  0.58844056123E+02 -0.24897411116E+03  0.34091947509E+03  0.17200000000E+03 0. -1.
</event>
<event>
 4    1  0.1241325E+000  0.1731194E+03  0.7818608E-02  0.1174633E+00
         21   -1    0    0  501  502  0.00000000000E+00  0.00000000000E+00  0.45957741343E+03  0.45957741343E+03  0.00000000000E+00 0. -1.
         21   -1    0    0  502  503 -0.00000000000E+00 -0.00000000000E+00 -0.67418211563E+02  0.67418211563E+02  0.00000000000E+00 0. -1.
          6    1    1    2  501    0 -0.15611379962E+02 -0.11942311932E+02  0.24373722157E+03  0.29896181558E+03  0.17200000000E+03 0.  1.
         -6    1    1    2    0  503  0.15611379962E+02  0.11942311932E+02  0.14842198030E+03  0.22803380941E+03  0.17200000000E+03 0.  1.
</event>
<event>
 4    1  0.1241325E+000  0.1935319E+03  0.7818608E-02  0.1155314E+00
         21   -1    0    0  501  502  0.00000000000E+00  0.00000000000E+00  0.60518202947E+03  0.60518202947E+03  0.00000000000E+00 0. -1.
         21   -1    0    0  502  503 -0.00000000000E+00 -0.00000000000E+00 -0.18753850002E+03  0.18753850002E+03  0.00000000000E+00 0.  1.
          6    1    1    2  501    0 -0.27844064367E+02 -0.84233557909E+02  0.53325394175E+03  0.56728683274E+03  0.17200000000E+03 0. -1.
         -6    1    1    2    0  503  0.27844064367E+02  0.84233557909E+02 -0.11561041231E+03  0.22543369675E+03  0.17200000000E+03 0.  1.
</event>
<event>
 4    1  0.1241325E+000  0.1832734E+03  0.7818608E-02  0.1164672E+00
         21   -1    0    0  503  502  0.00000000000E+00  0.00000000000E+00  0.27564116326E+03  0.27564116326E+03  0.00000000000E+00 0. -1.
         21   -1    0    0  501  503 -0.00000000000E+00 -0.00000000000E+00 -0.13449366380E+03  0.13449366380E+03  0.00000000000E+00 0.  1.
          6    1    1    2  501    0 -0.46634481598E+02 -0.42782970815E+02  0.13342877381E+03  0.22669890857E+03  0.17200000000E+03 0.  1.
         -6    1    1    2    0  502  0.46634481598E+02  0.42782970815E+02  0.77187256536E+01  0.18343591849E+03  0.17200000000E+03 0.  1.
</event>
<event>
 4    1  0.1241325E+000  0.1732592E+03  0.7818608E-02  0.1174491E+00
         21   -1    0    0  501  502  0.00000000000E+00  0.00000000000E+00  0.33294089103E+03  0.33294089103E+03  0.00000000000E+00 0.  1.
         21   -1    0    0  502  503 -0.00000000000E+00 -0.00000000000E+00 -0.10308307637E+03  0.10308307637E+03  0.00000000000E+00 0.  1.
          6    1    1    2  501    0 -0.14714246112E+02 -0.14773307738E+02  0.19211317846E+03  0.25870104947E+03  0.17200000000E+03 0.  1.
         -6    1    1    2    0  503  0.14714246112E+02  0.14773307738E+02  0.37744636204E+02  0.17732291793E+03  0.17200000000E+03 0.  1.
</event>
<event>
 4    1  0.1241325E+000  0.2199923E+03  0.7818608E-02  0.1133889E+00
         21   -1    0    0  503  502  0.00000000000E+00  0.00000000000E+00  0.26420413547E+03  0.26420413547E+03  0.00000000000E+00 0. -1.
         21   -1    0    0  501  503 -0.00000000000E+00 -0.00000000000E+00 -0.18667789267E+03  0.18667789267E+03  0.00000000000E+00 0.  1.
          6    1    1    2  501    0  0.10374231354E+03  0.89722475660E+02  0.78981647618E+01  0.22013398480E+03  0.17200000000E+03 0.  1.
         -6    1    1    2    0  502 -0.10374231354E+03 -0.89722475660E+02  0.69628078038E+02  0.23074804335E+03  0.17200000000E+03 0. -1.
</event>
<event>
 4    1  0.1241325E+000  0.2200246E+03  0.7818608E-02  0.1133865E+00
         21   -1    0    0  503  502  0.00000000000E+00  0.00000000000E+00  0.48476181205E+03  0.48476181205E+03  0.00000000000E+00 0. -1.
         21   -1    0    0  501  503 -0.00000000000E+00 -0.00000000000E+00 -0.10171745098E+03  0.10171745098E+03  0.00000000000E+00 0. -1.
          6    1    1    2  501    0  0.69581724084E+02  0.11825909123E+03  0.15195123950E+03  0.26739485442E+03  0.17200000000E+03 0. -1.
         -6    1    1    2    0  502 -0.69581724084E+02 -0.11825909123E+03  0.23109312157E+03  0.31908440861E+03  0.17200000000E+03 0. -1.
</event>
<event>
 4    1  0.1241325E+000  0.3040401E+03  0.7818608E-02  0.1083238E+00
         21   -1    0    0  503  502  0.00000000000E+00  0.00000000000E+00  0.29194144251E+03  0.29194144251E+03  0.00000000000E+00 0. -1.
         21   -1    0    0  501  503 -0.00000000000E+00 -0.00000000000E+00 -0.32810135306E+03  0.32810135306E+03  0.00000000000E+00 0.  1.
          6    1    1    2  501    0 -0.24669325963E+03 -0.44708365137E+02 -0.76023019406E+02  0.31340054521E+03  0.17200000000E+03 0.  1.
         -6    1    1    2    0  502  0.24669325963E+03  0.44708365137E+02  0.39863108855E+02  0.30664225036E+03  0.17200000000E+03 0.  1.
</event>
<event>
 4    1  0.1241325E+000  0.1726145E+03  0.7818608E-02  0.1175148E+00
         21   -1    0    0  503  502  0.00000000000E+00  0.00000000000E+00  0.57305545094E+02  0.57305545094E+02  0.00000000000E+00 0. -1.
         21   -1    0    0  501  503 -0.00000000000E+00 -0.00000000000E+00 -0.61815507764E+03  0.61815507764E+03  0.00000000000E+00 0. -1.
          6    1    1    2  501    0  0.14544784265E+02  0.45364164089E+00 -0.41504129470E+03  0.44950532015E+03  0.17200000000E+03 0.  1.
         -6    1    1    2    0  502 -0.14544784265E+02 -0.45364164089E+00 -0.14580823785E+03  0.22595530258E+03  0.17200000000E+03 0.  1.
</event>
<event>
 4    1  0.1241325E+000  0.1869428E+03  0.7818608E-02  0.1161248E+00
         21   -1    0    0  501  502  0.00000000000E+00  0.00000000000E+00  0.19098505560E+04  0.19098505560E+04  0.00000000000E+00 0. -1.
         21   -1    0    0  502  503 -0.00000000000E+00 -0.00000000000E+00 -0.33547705492E+02  0.33547705492E+02  0.00000000000E+00 0.  1.
          6    1    1    2  501    0 -0.48111837065E+02  0.55216585704E+02  0.15932737102E+04  0.16042034584E+04  0.17200000000E+03 0. -1.
         -6    1    1    2    0  503  0.48111837065E+02 -0.55216585704E+02  0.28302914026E+03  0.33919480308E+03  0.17200000000E+03 0.  1.
</event>
<event>
 4    1  0.1241325E+000  0.1862641E+03  0.7818608E-02  0.1161875E+00
         21   -1    0    0  501  502  0.00000000000E+00  0.00000000000E+00  0.74452168756E+02  0.74452168756E+02  0.00000000000E+00 0.  1.
         21   -1    0    0  502  503 -0.00000000000E+00 -0.00000000000E+00 -0.50349818494E+03  0.50349818494E+03  0.00000000000E+00 0.  1.
          6    1    1    2  501    0 -0.63950613258E+02  0.31947306932E+02 -0.13565556504E+03  0.23042730672E+03  0.17200000000E+03 0.  1.
         -6    1    1    2    0  503  0.63950613258E+02 -0.31947306932E+02 -0.29339045114E+03  0.34752304697E+03  0.17200000000E+03 0.  1.
</event>
<event>
 4    1  0.1241325E+000  0.1986772E+03  0.7818608E-02  0.1150860E+00
         21   -1    0    0  503  502  0.00000000000E+00  0.00000000000E+00  0.40688829715E+03  0.40688829715E+03  0.00000000000E+00 0. -1.
         21   -1    0    0  501  503 -0.00000000000E+00 -0.00000000000E+00 -0.10251688959E+03  0.10251688959E+03  0.00000000000E+00 0.  1.
          6    1    1    2  501    0 -0.78740611590E+02 -0.60733539518E+02  0.93158962110E+02  0.21943390567E+03  0.17200000000E+03 0. -1.
         -6    1    1    2    0  502  0.78740611590E+02  0.60733539518E+02  0.21121244545E+03  0.28997128108E+03  0.17200000000E+03 0. -1.
</event>
<event>
 4    1  0.1241325E+000  0.1961137E+03  0.7818608E-02  0.1153060E+00
         21   -1    0    0  503  502  0.00000000000E+00  0.00000000000E+00  0.67226750044E+03  0.67226750044E+03  0.00000000000E+00 0. -1.
         21   -1    0    0  501  503 -0.00000000000E+00 -0.00000000000E+00 -0.58363685785E+02  0.58363685785E+02  0.00000000000E+00 0.  1.
          6    1    1    2  501    0  0.75275233386E+02  0.56658792620E+02  0.25559522165E+03  0.32216377337E+03  0.17200000000E+03 0. -1.
         -6    1    1    2    0  502 -0.75275233386E+02 -0.56658792620E+02  0.35830859301E+03  0.40846741286E+03  0.17200000000E+03 0. -1.
</event>
<event>
 4    1  0.1241325E+000  0.2549323E+03  0.7818608E-02  0.1110227E+00
         21   -1    0    0  501  502  0.00000000000E+00  0.00000000000E+00  0.51831020912E+03  0.51831020912E+03  0.00000000000E+00 0. -1.
         21   -1    0    0  502  503 -0.00000000000E+00 -0.00000000000E+00 -0.14038972708E+03  0.14038972708E+03  0.00000000000E+00 0.  1.
          6    1    1    2  501    0  0.12960237821E+03  0.13641744145E+03  0.29661752911E+03  0.39111693053E+03  0.17200000000E+03 0.  1.
         -6    1    1    2    0  503 -0.12960237821E+03 -0.13641744145E+03  0.81302952939E+02  0.26758300567E+03  0.17200000000E+03 0. -1.
</event>
<event>
 4    1  0.1241325E+000  0.1835086E+03  0.7818608E-02  0.1164450E+00
         21   -1    0    0  503  502  0.00000000000E+00  0.00000000000E+00  0.31221694584E+03  0.31221694584E+03  0.00000000000E+00 0. -1.
         21   -1    0    0  501  503 -0.00000000000E+00 -0.00000000000E+00 -0.33242013782E+03  0.33242013782E+03  0.00000000000E+00 0. -1.
          6    1    1    2  501    0  0.31966680151E+02 -0.55403473289E+02 -0.27501803504E+03  0.33062113225E+03  0.17200000000E+03 0. -1.
         -6    1    1    2    0  502 -0.31966680151E+02  0.55403473289E+02  0.25481484307E+03  0.31401595141E+03  0.17200000000E+03 0. -1.
</event>
<event>
 4    1  0.1241325E+000  0.1992317E+03  0.7818608E-02  0.1150389E+00
         21   -1    0    0  503  502  0.00000000000E+00  0.00000000000E+00  0.80406515621E+02  0.80406515621E+02  0.00000000000E+00 0.  1.
         21   -1    0    0  501  503 -0.00000000000E+00 -0.00000000000E+00 -0.56467151923E+03  0.56467151923E+03  0.00000000000E+00 0.  1.
          6    1    1    2  501    0  0.36094257205E+02 -0.93842749349E+02 -0.35651437863E+03  0.40840636525E+03  0.17200000000E+03 0. -1.
         -6    1    1    2    0  502 -0.36094257205E+02  0.93842749349E+02 -0.12775062498E+03  0.23667166960E+03  0.17200000000E+03 0. -1.
</event>
<event>
 4    1  0.1241325E+000  0.2112725E+03  0.7818608E-02  0.1140562E+00
         21   -1    0    0  503  502  0.00000000000E+00  0.00000000000E+00  0.50259800405E+03  0.50259800405E+03  0.00000000000E+00 0. -1.
         21   -1    0    0  501  503 -0.00000000000E+00 -0.00000000000E+00 -0.10297852075E+03  0.10297852075E+03  0.00000000000E+00 0. -1.
          6    1    1    2  501    0  0.83097971320E+02  0.90259627381E+02  0.31211949235E+03  0.37690138057E+03  0.17200000000E+03 0. -1.
         -6    1    1    2    0  502 -0.83097971320E+02 -0.90259627381E+02  0.87499990944E+02  0.22867514423E+03  0.17200000000E+03 0. -1.
</event>
<event>
 4    1  0.1241325E+000  0.1763950E+03  0.7818608E-02  0.1171338E+00
         21   -1    0    0  501  502  0.00000000000E+00  0.00000000000E+00  0.11383433328E+03  0.11383433328E+03  0.00000000000E+00 0.  1.
         21   -1    0    0  502  503 -0.00000000000E+00 -0.00000000000E+00 -0.52559977965E+03  0.52559977965E+03  0.00000000000E+00 0.  1.
          6    1    1    2  501    0  0.19894500308E+02 -0.33695620324E+02  0.15612529720E+02  0.17708454776E+03  0.17200000000E+03 0.  1.
         -6    1    1    2    0  503 -0.19894500308E+02  0.33695620324E+02 -0.42737797609E+03  0.46234956517E+03  0.17200000000E+03 0.  1.
</event>
<event>
 4    1  0.1241325E+000  0.1778904E+03  0.7818608E-02  0.1169861E+00
         21   -1    0    0  501  502  0.00000000000E+00  0.00000000000E+00  0.11589034376E+03  0.11589034376E+03  0.00000000000E+00 0. -1.
         21   -1    0    0  502  503 -0.00000000000E+00 -0.00000000000E+00 -0.23256952975E+04  0.23256952975E+04  0.00000000000E+00 0. -1.
          6    1    1    2  501    0  0.85587998163E+00  0.45389946264E+02 -0.22517917476E+04  0.22588074407E+04  0.17200000000E+03 0. -1.
         -6    1    1    2    0  503 -0.85587998163E+00 -0.45389946264E+02  0.41986793807E+02  0.18277820058E+03  0.17200000000E+03 0. -1.
</event>
<event>
 4    1  0.1241325E+000  0.1833316E+03  0.7818608E-02  0.1164617E+00
         21   -1    0    0  501  502  0.00000000000E+00  0.00000000000E+00  0.56640283912E+03  0.56640283912E+03  0.00000000000E+00 0. -1.
         21   -1    0    0  502  503 -0.00000000000E+00 -0.00000000000E+00 -0.75088480258E+02  0.75088480258E+02  0.00000000000E+00 0. -1.
          6    1    1    2  501    0  0.33432528177E+02  0.53932727364E+02  0.39254653542E+03  0.43324733755E+03  0.17200000000E+03 0.  1.
         -6    1    1    2    0  503 -0.33432528177E+02 -0.53932727364E+02  0.98767823441E+02  0.20824398183E+03  0.17200000000E+03 0.  1.
</event>
<event>
 4    1  0.1241325E+000  0.2115769E+03  0.7818608E-02  0.1140323E+00
         21   -1    0    0  503  502  0.00000000000E+00  0.00000000000E+00  0.22171199032E+03  0.22171199032E+03  0.00000000000E+00 0. -1.
         21   -1    0    0  501  503 -0.00000000000E+00 -0.00000000000E+00 -0.28359009835E+03  0.28359009835E+03  0.00000000000E+00 0. -1.
          6    1    1    2  501    0 -0.12265043849E+03  0.11732001665E+02 -0.16653504771E+03  0.26925581153E+03  0.17200000000E+03 0. -1.
         -6    1    1    2    0  502  0.12265043849E+03 -0.11732001665E+02  0.10465693969E+03  0.23604627714E+03  0.17200000000E+03 0. -1.
</event>
<event>
 4    1  0.1241325E+000  0.1900395E+03  0.7818608E-02  0.1158426E+00
         21   -1    0    0  501  502  0.00000000000E+00  0.00000000000E+00  0.12708271579E+04  0.12708271579E+04  0.00000000000E+00 0.  1.
         21   -1    0    0  502  503 -0.00000000000E+00 -0.00000000000E+00 -0.14643105974E+03  0.14643105974E+03  0.00000000000E+00 0.  1.
          6    1    1    2  501    0  0.49040675164E+02 -0.64234147882E+02  0.11983582321E+04  0.12133332049E+04  0.17200000000E+03 0.  1.
         -6    1    1    2    0  503 -0.49040675164E+02  0.64234147882E+02 -0.73962133947E+02  0.20392501277E+03  0.17200000000E+03 0.  1.
</event>
<event>
 4    1  0.1241325E+000  0.1926843E+03  0.7818608E-02  0.1156062E+00
         21   -1    0    0  501  502  0.00000000000E+00  0.00000000000E+00  0.10702892608E+03  0.10702892608E+03  0.00000000000E+00 0.  1.
         21   -1    0    0  502  503 -0.00000000000E+00 -0.00000000000E+00 -0.53330368549E+03  0.53330368549E+03  0.00000000000E+00 0.  1.
          6    1    1    2  501    0 -0.75500513364E+02  0.42929320904E+02 -0.23847524806E+02  0.19415447085E+03  0.17200000000E+03 0.  1.
         -6    1    1    2    0  503  0.75500513364E+02 -0.42929320904E+02 -0.40242723460E+03  0.44617814073E+03  0.17200000000E+03 0.  1.
</event>
<event>
 4    1  0.1241325E+000  0.2959926E+03  0.7818608E-02  0.1087261E+00
         21   -1    0    0  503  502  0.00000000000E+00  0.00000000000E+00  0.16777528767E+03  0.16777528767E+03  0.00000000000E+00 0. -1.
         21   -1    0    0  501  503 -0.00000000000E+00 -0.00000000000E+00 -0.61864367911E+03  0.61864367911E+03  0.00000000000E+00 0. -1.
          6    1    1    2  501    0  0.95269226770E+02 -0.22124968185E+03 -0.38069031859E+03  0.48222066106E+03  0.17200000000E+03 0.  1.
         -6    1    1    2    0  502 -0.95269226770E+02  0.22124968185E+03 -0.70178072855E+02  0.30419830571E+03  0.17200000000E+03 0.  1.
</event>
<event>
 4    1  0.1241325E+000  0.1859876E+03  0.7818608E-02  0.1162131E+00
         21   -1    0    0  503  502  0.00000000000E+00  0.00000000000E+00  0.15206088551E+04  0.15206088551E+04  0.00000000000E+00 0. -1.
         21   -1    0    0  501  503 -0.00000000000E+00 -0.00000000000E+00 -0.25529297614E+02  0.25529297614E+02  0.00000000000E+00 0. -1.
          6    1    1    2  501    0  0.62818416637E+02  0.32576396742E+02  0.49239094010E+03  0.52634609620E+03  0.17200000000E+03 0. -1.
         -6    1    1    2    0  502 -0.62818416637E+02 -0.32576396742E+02  0.10026886174E+04  0.10197920565E+04  0.17200000000E+03 0. -1.
</event>
<event>
 4    1  0.1241325E+000  0.1784951E+03  0.7818608E-02  0.1169268E+00
         21   -1    0    0  503  502  0.00000000000E+00  0.00000000000E+00  0.13547957068E+04  0.13547957068E+04  0.00000000000E+00 0.  1.
         21   -1    0    0  501  503 -0.00000000000E+00 -0.00000000000E+00 -0.27048306908E+02  0.27048306908E+02  0.00000000000E+00 0.  1.
          6    1    1    2  501    0  0.10372156028E+02 -0.46571577662E+02  0.41422030312E+03  0.45104207452E+03  0.17200000000E+03 0. -1.
         -6    1    1    2    0  502 -0.10372156028E+02  0.46571577662E+02  0.91352709677E+03  0.93080193919E+03  0.17200000000E+03 0. -1.
</event>
<event>
 4    1  0.1241325E+000  0.2438960E+03  0.7818608E-02  0.1117224E+00
         21   -1    0    0  501  502  0.00000000000E+00  0.00000000000E+00  0.47169617593E+03  0.47169617593E+03  0.00000000000E+00 0. -1.
         21   -1    0    0  502  503 -0.00000000000E+00 -0.00000000000E+00 -0.12886986604E+03  0.12886986604E+03  0.00000000000E+00 0.  1.
          6    1    1    2  501    0  0.17130164657E+03 -0.23600942782E+02  0.21536294624E+03  0.32537126061E+03  0.17200000000E+03 0. -1.
         -6    1    1    2    0  503 -0.17130164657E+03  0.23600942782E+02  0.12746336365E+03  0.27519478136E+03  0.17200000000E+03 0. -1.
</event>
<event>
 4    1  0.1241325E+000  0.1796174E+03  0.7818608E-02  0.1168174E+00
         21   -1    0    0  503  502  0.00000000000E+00  0.00000000000E+00  0.41005851259E+03  0.41005851259E+03  0.00000000000E+00 0.  1.
         21   -1    0    0  501  503 -0.00000000000E+00 -0.00000000000E+00 -0.95651764964E+02  0.95651764964E+02  0.00000000000E+00 0.  1.
          6    1    1    2  501    0 -0.25676756005E+02  0.44934376132E+02  0.50686036773E+02  0.18663190585E+03  0.17200000000E+03 0.  1.
         -6    1    1    2    0  502  0.25676756005E+02 -0.44934376132E+02  0.26372071085E+03  0.31907837170E+03  0.17200000000E+03 0.  1.
</event>
<event>
 4    1  0.1241325E+000  0.1997478E+03  0.7818608E-02  0.1149952E+00
         21   -1    0    0  503  502  0.00000000000E+00  0.00000000000E+00  0.43127115265E+02  0.43127115265E+02  0.00000000000E+00 0.  1.
         21   -1    0    0  501  503 -0.00000000000E+00 -0.00000000000E+00 -0.19766543729E+04  0.19766543729E+04  0.00000000000E+00 0. -1.
          6    1    1    2  501    0 -0.94499099342E+02 -0.37216891484E+02 -0.17033335176E+04  0.17150056119E+04  0.17200000000E+03 0. -1.
         -6    1    1    2    0  502  0.94499099342E+02  0.37216891484E+02 -0.23019374009E+03  0.30477587628E+03  0.17200000000E+03 0.  1.
</event>
<event>
 4    1  0.1241325E+000  0.2319213E+03  0.7818608E-02  0.1125295E+00
         21   -1    0    0  503  502  0.00000000000E+00  0.00000000000E+00  0.18421200752E+04  0.18421200752E+04  0.00000000000E+00 0.  1.
         21   -1    0    0  501  503 -0.00000000000E+00 -0.00000000000E+00 -0.39496896683E+02  0.39496896683E+02  0.00000000000E+00 0.  1.
          6    1    1    2  501    0  0.31556614899E+02  0.15234064940E+03  0.42091431286E+03  0.48057918408E+03  0.17200000000E+03 0. -1.
         -6    1    1    2    0  502 -0.31556614899E+02 -0.15234064940E+03  0.13817088657E+04  0.14010377878E+04  0.17200000000E+03 0. -1.
</event>
<event>
 4    1  0.1241325E+000  0.2468531E+03  0.7818608E-02  0.1115310E+00
         21   -1    0    0  503  502  0.00000000000E+00  0.00000000000E+00  0.92971335298E+03  0.92971335298E+03  0.00000000000E+00 0.  1.
         21   -1    0    0  501  503 -0.00000000000E+00 -0.00000000000E+00 -0.65610080357E+02  0.65610080357E+02  0.00000000000E+00 0. -1.
          6    1    1    2  501    0  0.32576555966E+02  0.17404372188E+03  0.41617035623E+03  0.48387417221E+03  0.17200000000E+03 0.  1.
         -6    1    1    2    0  502 -0.32576555966E+02 -0.17404372188E+03  0.44793291639E+03  0.51144926113E+03  0.17200000000E+03 0. -1.
</event>
<event>
 4    1  0.1241325E+000  0.2488873E+03  0.7818608E-02  0.1114010E+00
         21   -1    0    0  503  502  0.00000000000E+00  0.00000000000E+00  0.31979546558E+02  0.31979546558E+02  0.00000000000E+00 0. -1.
         21   -1    0    0  501  503 -0.00000000000E+00 -0.00000000000E+00 -0.30974767440E+04  0.30974767440E+04  0.00000000000E+00 0.  1.
          6    1    1    2  501    0 -0.17593119937E+03  0.37538174726E+02 -0.24904939367E+04  0.25028993089E+04  0.17200000000E+03 0.  1.
         -6    1    1    2    0  502  0.17593119937E+03 -0.37538174726E+02 -0.57500326077E+03  0.62655698174E+03  0.17200000000E+03 0. -1.
</event>
<event>
 4    1  0.1241325E+000  0.2588841E+03  0.7818608E-02  0.1107816E+00
         21   -1    0    0  503  502  0.00000000000E+00  0.00000000000E+00  0.16516074598E+04  0.16516074598E+04  0.00000000000E+00 0. -1.
         21   -1    0    0  501  503 -0.00000000000E+00 -0.00000000000E+00 -0.46705418569E+02  0.46705418569E+02  0.00000000000E+00 0.  1.
          6    1    1    2  501    0  0.18716156912E+03  0.49066473471E+02  0.11099891572E+04  0.11397793212E+04  0.17200000000E+03 0. -1.
         -6    1    1    2    0  502 -0.18716156912E+03 -0.49066473471E+02  0.49491288399E+03  0.55853355720E+03  0.17200000000E+03 0.  1.
</event>
<event>
 4    1  0.1241325E+000  0.2157144E+03  0.7818608E-02  0.1137119E+00
         21   -1    0    0  501  502  0.00000000000E+00  0.00000000000E+00  0.29816300933E+03  0.29816300933E+03  0.00000000000E+00 0. -1.
         21   -1    0    0  502  503 -0.00000000000E+00 -0.00000000000E+00 -0.16309158113E+03  0.16309158113E+03  0.00000000000E+00 0. -1.
          6    1    1    2  501    0  0.21538124575E+02 -0.12839316271E+03  0.11540741811E+03  0.24464579947E+03  0.17200000000E+03 0. -1.
         -6    1    1    2    0  503 -0.21538124575E+02  0.12839316271E+03  0.19664010082E+02  0.21660879099E+03  0.17200000000E+03 0. -1.
</event>
<event>
 4    1  0.1241325E+000  0.2688227E+03  0.7818608E-02  0.1101955E+00
         21   -1    0    0  501  502  0.00000000000E+00  0.00000000000E+00  0.66709240162E+02  0.66709240162E+02  0.00000000000E+00 0.  1.
         21   -1    0    0  502  503 -0.00000000000E+00 -0.00000000000E+00 -0.12265703743E+04  0.12265703743E+04  0.00000000000E+00 0. -1.
          6    1    1    2  501    0 -0.89467248122E+02  0.18621829102E+03 -0.35892394233E+03  0.44843286764E+03  0.17200000000E+03 0.  1.
         -6    1    1    2    0  503  0.89467248122E+02 -0.18621829102E+03 -0.80093719178E+03  0.84484674679E+03  0.17200000000E+03 0. -1.
</event>
<event>
 4    1  0.1241325E+000  0.1924545E+03  0.7818608E-02  0.1156266E+00
         21   -1    0    0  503  502  0.00000000000E+00  0.00000000000E+00  0.15364054802E+03  0.15364054802E+03  0.00000000000E+00 0.  1.
         21   -1    0    0  501  503 -0.00000000000E+00 -0.00000000000E+00 -0.35328423428E+03  0.35328423428E+03  0.00000000000E+00 0. -1.
          6    1    1    2  501    0  0.61006303528E+02  0.61098059571E+02 -0.24266769314E+03  0.30971979473E+03  0.17200000000E+03 0. -1.
         -6    1    1    2    0  502 -0.61006303528E+02 -0.61098059571E+02  0.43024006879E+02  0.19720498757E+03  0.17200000000E+03 0.  1.
</event>
<event>
 4    1  0.1241325E+000  0.1764879E+03  0.7818608E-02  0.1171246E+00
         21   -1    0    0  501  502  0.00000000000E+00  0.00000000000E+00  0.76153214982E+02  0.76153214982E+02  0.00000000000E+00 0. -1.
         21   -1    0    0  502  503 -0.00000000000E+00 -0.00000000000E+00 -0.60468901978E+03  0.60468901978E+03  0.00000000000E+00 0. -1.
          6    1    1    2  501    0  0.22276746279E+02 -0.32675846374E+02 -0.70619131334E+02  0.19009215152E+03  0.17200000000E+03 0. -1.
         -6    1    1    2    0  503 -0.22276746279E+02  0.32675846374E+02 -0.45791667346E+03  0.49075008323E+03  0.17200000000E+03 0. -1.
</event>
<event>
 4    1  0.1241325E+000  0.2106365E+03  0.7818608E-02  0.1141063E+00
         21   -1    0    0  501  502  0.00000000000E+00  0.00000000000E+00  0.68795445183E+03  0.68795445183E+03  0.00000000000E+00 0.  1.
         21   -1    0    0  502  503 -0.00000000000E+00 -0.00000000000E+00 -0.15910018022E+03  0.15910018022E+03  0.00000000000E+00 0.  1.
          6    1    1    2  501    0  0.87095263980E+02  0.84841836232E+02  0.59102240429E+03  0.62743541863E+03  0.17200000000E+03 0.  1.
         -6    1    1    2    0  503 -0.87095263980E+02 -0.84841836232E+02 -0.62168132679E+02  0.21961921342E+03  0.17200000000E+03 0.  1.
</event>
<event>
 4    1  0.1241325E+000  0.1793144E+03  0.7818608E-02  0.1168468E+00
         21   -1    0    0  501  502  0.00000000000E+00  0.00000000000E+00  0.49509830606E+02  0.49509830606E+02  0.00000000000E+00 0. -1.
         21   -1    0    0  502  503 -0.00000000000E+00 -0.00000000000E+00 -0.65721345150E+03  0.65721345150E+03  0.00000000000E+00 0. -1.
          6    1    1    2  501    0  0.47533302447E+02 -0.17613956209E+02 -0.26542166284E+03  0.32031597744E+03  0.17200000000E+03 0. -1.
         -6    1    1    2    0  503 -0.47533302447E+02  0.17613956209E+02 -0.34228195806E+03  0.38640730467E+03  0.17200000000E+03 0. -1.
</event>
<event>
 4    1  0.1241325E+000  0.1939437E+03  0.7818608E-02  0.1154952E+00
         21   -1    0    0  503  502  0.00000000000E+00  0.00000000000E+00  0.90774566687E+02  0.90774566687E+02  0.00000000000E+00 0. -1.
         21   -1    0    0  501  503 -0.00000000000E+00 -0.00000000000E+00 -0.41751514732E+03  0.41751514732E+03  0.00000000000E+00 0. -1.
          6    1    1    2  501    0  0.80427161208E+01  0.89249412256E+02 -0.14130789600E+03  0.23996263114E+03  0.17200000000E+03 0.  1.
         -6    1    1    2    0  502 -0.80427161208E+01 -0.89249412256E+02 -0.18543268463E+03  0.26832708287E+03  0.17200000000E+03 0.  1.
</event>
<event>
 4    1  0.1241325E+000  0.1807688E+03  0.7818608E-02  0.1167061E+00
         21   -1    0    0  503  502  0.00000000000E+00  0.00000000000E+00  0.15347398638E+03  0.15347398638E+03  0.00000000000E+00 0. -1.
         21   -1    0    0  501  503 -0.00000000000E+00 -0.00000000000E+00 -0.21292839429E+03  0.21292839429E+03  0.00000000000E+00 0. -1.
          6    1    1    2  501    0  0.72333737258E+01  0.55145756942E+02 -0.31006409349E+02  0.18340876104E+03  0.17200000000E+03 0. -1.
         -6    1    1    2    0  502 -0.72333737258E+01 -0.55145756942E+02 -0.28447998566E+02  0.18299361963E+03  0.17200000000E+03 0. -1.
</event>
<event>
 4    1  0.1241325E+000  0.1960638E+03  0.7818608E-02  0.1153103E+00
         21   -1    0    0  503  502  0.00000000000E+00  0.00000000000E+00  0.85365259038E+02  0.85365259038E+02  0.00000000000E+00 0. -1.
         21   -1    0    0  501  503 -0.00000000000E+00 -0.00000000000E+00 -0.45050364084E+03  0.45050364084E+03  0.00000000000E+00 0. -1.
          6    1    1    2  501    0  0.69419665347E+02  0.63544586558E+02 -0.18809469359E+03  0.27169949977E+03  0.17200000000E+03 0. -1.
         -6    1    1    2    0  502 -0.69419665347E+02 -0.63544586558E+02 -0.17704368820E+03  0.26416940010E+03  0.17200000000E+03 0. -1.
</event>
<event>
 4    1  0.1241325E+000  0.1732188E+03  0.7818608E-02  0.1174532E+00
         21   -1    0    0  501  502  0.00000000000E+00  0.00000000000E+00  0.19231798635E+03  0.19231798635E+03  0.00000000000E+00 0.  1.
         21   -1    0    0  502  503 -0.00000000000E+00 -0.00000000000E+00 -0.16833369386E+03  0.16833369386E+03  0.00000000000E+00 0.  1.
          6    1    1    2  501    0  0.31224514777E+01  0.20273567346E+02  0.60770755608E+02  0.18356974689E+03  0.17200000000E+03 0. -1.
         -6    1    1    2    0  503 -0.31224514777E+01 -0.20273567346E+02 -0.36786463118E+02  0.17708193331E+03  0.17200000000E+03 0. -1.
</event>
<event>
 4    1  0.1241325E+000  0.1850610E+03  0.7818608E-02  0.1162993E+00
         21   -1    0    0  503  502  0.00000000000E+00  0.00000000000E+00  0.19512879877E+03  0.19512879877E+03  0.00000000000E+00 0. -1.
         21   -1    0    0  501  503 -0.00000000000E+00 -0.00000000000E+00 -0.33668136472E+03  0.33668136472E+03  0.00000000000E+00 0. -1.
          6    1    1    2  501    0 -0.76994762780E+01  0.67854972691E+02 -0.25475069469E+03  0.31487377741E+03  0.17200000000E+03 0.  1.
         -6    1    1    2    0  502  0.76994762780E+01 -0.67854972691E+02  0.11319812875E+03  0.21693638608E+03  0.17200000000E+03 0.  1.
</event>
<event>
 4    1  0.1241325E+000  0.2126203E+03  0.7818608E-02  0.1139508E+00
         21   -1    0    0  503  502  0.00000000000E+00  0.00000000000E+00  0.36040708375E+03  0.36040708375E+03  0.00000000000E+00 0. -1.
         21   -1    0    0  501  503 -0.00000000000E+00 -0.00000000000E+00 -0.12997949083E+03  0.12997949083E+03  0.00000000000E+00 0.  1.
          6    1    1    2  501    0 -0.12438134961E+03 -0.12355668255E+02  0.69362578174E+02  0.22364827279E+03  0.17200000000E+03 0. -1.
         -6    1    1    2    0  502  0.12438134961E+03  0.12355668255E+02  0.16106501475E+03  0.26673830180E+03  0.17200000000E+03 0. -1.
</event>
<event>
 4    1  0.1241325E+000  0.2529633E+03  0.7818608E-02  0.1111446E+00
         21   -1    0    0  501  502  0.00000000000E+00  0.00000000000E+00  0.32187245472E+03  0.32187245472E+03  0.00000000000E+00 0.  1.
         21   -1    0    0  502  503 -0.00000000000E+00 -0.00000000000E+00 -0.20503060021E+03  0.20503060021E+03  0.00000000000E+00 0. -1.
          6    1    1    2  501    0  0.10718783141E+03  0.15138429550E+03  0.10432157694E+03  0.27363009254E+03  0.17200000000E+03 0. -1.
         -6    1    1    2    0  503 -0.10718783141E+03 -0.15138429550E+03  0.12520277565E+02  0.25327296239E+03  0.17200000000E+03 0.  1.
</event>
<event>
 4    1  0.1241325E+000  0.2014871E+03  0.7818608E-02  0.1148490E+00
         21   -1    0    0  501  502  0.00000000000E+00  0.00000000000E+00  0.11260968663E+03  0.11260968663E+03  0.00000000000E+00 0. -1.
         21   -1    0    0  502  503 -0.00000000000E+00 -0.00000000000E+00 -0.38108190342E+03  0.38108190342E+03  0.00000000000E+00 0. -1.
          6    1    1    2  501    0 -0.84894731923E+02 -0.61692127028E+02 -0.76884851136E+02  0.21565786417E+03  0.17200000000E+03 0. -1.
         -6    1    1    2    0  503  0.84894731923E+02  0.61692127028E+02 -0.19158736565E+03  0.27803372587E+03  0.17200000000E+03 0. -1.
</event>
<event>
 4    1  0.1241325E+000  0.1874150E+03  0.7818608E-02  0.1160814E+00
         21   -1    0    0  503  502  0.00000000000E+00  0.00000000000E+00  0.47433204121E+03  0.47433204121E+03  0.00000000000E+00 0. -1.
         21   -1    0    0  501  503 -0.00000000000E+00 -0.00000000000E+00 -0.74733716084E+02  0.74733716084E+02  0.00000000000E+00 0. -1.
          6    1    1    2  501    0 -0.74198817734E+02 -0.59084464778E+01  0.22605440019E+03  0.29364087954E+03  0.17200000000E+03 0. -1.
         -6    1    1    2    0  502  0.74198817734E+02  0.59084464778E+01  0.17354392494E+03  0.25542487775E+03  0.17200000000E+03 0. -1.
</event>
<event>
 4    1  0.1241325E+000  0.2050393E+03  0.7818608E-02  0.1145556E+00
         21   -1    0    0  503  502  0.00000000000E+00  0.00000000000E+00  0.16009648743E+03  0.16009648743E+03  0.00000000000E+00 0. -1.
         21   -1    0    0  501  503 -0.00000000000E+00 -0.00000000000E+00 -0.13964624130E+04  0.13964624130E+04  0.00000000000E+00 0. -1.
          6    1    1    2  501    0 -0.27289861466E+02 -0.10822372100E+03 -0.13194790072E+04  0.13353149295E+04  0.17200000000E+03 0. -1.
         -6    1    1    2    0  502  0.27289861466E+02  0.10822372100E+03  0.83113081695E+02  0.22124397093E+03  0.17200000000E+03 0. -1.
</event>
<event>
 4    1  0.1241325E+000  0.1937461E+03  0.7818608E-02  0.1155125E+00
         21   -1    0    0  503  502  0.00000000000E+00  0.00000000000E+00  0.13171802036E+04  0.13171802036E+04  0.00000000000E+00 0.  1.
         21   -1    0    0  501  503 -0.00000000000E+00 -0.00000000000E+00 -0.42193626336E+02  0.42193626336E+02  0.00000000000E+00 0.  1.
          6    1    1    2  501    0 -0.79050814118E+02 -0.41285897136E+02  0.25026261607E+03  0.31649476065E+03  0.17200000000E+03 0.  1.
         -6    1    1    2    0  502  0.79050814118E+02  0.41285897136E+02  0.10247239612E+04  0.10428790693E+04  0.17200000000E+03 0.  1.
</event>
<event>
 4    1  0.1241325E+000  0.2270686E+03  0.7818608E-02  0.1128720E+00
         21   -1    0    0  503  502  0.00000000000E+00  0.00000000000E+00  0.35144700688E+03  0.35144700688E+03  0.00000000000E+00 0.  1.
         21   -1    0    0  501  503 -0.00000000000E+00 -0.00000000000E+00 -0.38124985972E+03  0.38124985972E+03  0.00000000000E+00 0. -1.
          6    1    1    2  501    0  0.11838724076E+03 -0.89222223856E+02 -0.30224370124E+03  0.37803624025E+03  0.17200000000E+03 0. -1.
         -6    1    1    2    0  502 -0.11838724076E+03  0.89222223856E+02  0.27244084840E+03  0.35466062635E+03  0.17200000000E+03 0.  1.
</event>
<event>
 4    1  0.1241325E+000  0.5669727E+03  0.7818608E-02  0.9976400E-01
         21   -1    0    0  501  502  0.00000000000E+00  0.00000000000E+00  0.11328617651E+04  0.11328617651E+04  0.00000000000E+00 0. -1.
         21   -1    0    0  502  503 -0.00000000000E+00 -0.00000000000E+00 -0.38482362652E+03  0.38482362652E+03  0.00000000000E+00 0.  1.
          6    1    1    2  501    0  0.40395694279E+03  0.35873779928E+03 -0.14868184298E+02  0.56716759707E+03  0.17200000000E+03 0. -1.
         -6    1    1    2    0  503 -0.40395694279E+03 -0.35873779928E+03  0.76290632287E+03  0.95051779454E+03  0.17200000000E+03 0. -1.
</event>
<event>
 4    1  0.1241325E+000  0.1832058E+03  0.7818608E-02  0.1164736E+00
         21   -1    0    0  503  502  0.00000000000E+00  0.00000000000E+00  0.40499269661E+03  0.40499269661E+03  0.00000000000E+00 0. -1.
         21   -1    0    0  501  503 -0.00000000000E+00 -0.00000000000E+00 -0.82886597128E+02  0.82886597128E+02  0.00000000000E+00 0. -1.
          6    1    1    2  501    0  0.15136108794E+00  0.63090029516E+02  0.15835983405E+03  0.24216154066E+03  0.17200000000E+03 0. -1.
         -6    1    1    2    0  502 -0.15136108794E+00 -0.63090029516E+02  0.16374626543E+03  0.24571775308E+03  0.17200000000E+03 0. -1.
</event>
<event>
 4    1  0.1241325E+000  0.2070054E+03  0.7818608E-02  0.1143960E+00
         21   -1    0    0  501  502  0.00000000000E+00  0.00000000000E+00  0.17156611953E+03  0.17156611953E+03  0.00000000000E+00 0.  1.
         21   -1    0    0  502  503 -0.00000000000E+00 -0.00000000000E+00 -0.25988158029E+03  0.25988158029E+03  0.00000000000E+00 0.  1.
          6    1    1    2  501    0 -0.32150941834E+02  0.11060535995E+03 -0.86720038249E+02  0.22443616853E+03  0.17200000000E+03 0. -1.
         -6    1    1    2    0  503  0.32150941834E+02 -0.11060535995E+03 -0.15954225088E+01  0.20701153128E+03  0.17200000000E+03 0. -1.
</event>
<event>
 4    1  0.1241325E+000  0.1762486E+03  0.7818608E-02  0.1171484E+00
         21   -1    0    0  503  502  0.00000000000E+00  0.00000000000E+00  0.47072486119E+02  0.47072486119E+02  0.00000000000E+00 0.  1.
         21   -1    0    0  501  503 -0.00000000000E+00 -0.00000000000E+00 -0.68538858238E+03  0.68538858238E+03  0.00000000000E+00 0.  1.
          6    1    1    2  501    0 -0.37535735845E+02 -0.84036985194E+01 -0.38977076594E+03  0.42776723063E+03  0.17200000000E+03 0. -1.
         -6    1    1    2    0  502  0.37535735845E+02  0.84036985194E+01 -0.24854533032E+03  0.30469383787E+03  0.17200000000E+03 0. -1.
</event>
<event>
 4    1  0.1241325E+000  0.1883384E+03  0.7818608E-02  0.1159969E+00
         21   -1    0    0  503  502  0.00000000000E+00  0.00000000000E+00  0.22156797784E+03  0.22156797784E+03  0.00000000000E+00 0. -1.
         21   -1    0    0  501  503 -0.00000000000E+00 -0.00000000000E+00 -0.66067613572E+03  0.66067613572E+03  0.00000000000E+00 0. -1.
          6    1    1    2  501    0  0.26784708090E+02  0.71902129171E+02 -0.60352899653E+03  0.63223301592E+03  0.17200000000E+03 0. -1.
         -6    1    1    2    0  502 -0.26784708090E+02 -0.71902129171E+02  0.16442083864E+03  0.25001109765E+03  0.17200000000E+03 0. -1.
</event>
<event>
 4    1  0.1241325E+000  0.1878861E+03  0.7818608E-02  0.1160382E+00
         21   -1    0    0  503  502  0.00000000000E+00  0.00000000000E+00  0.10847801981E+04  0.10847801981E+04  0.00000000000E+00 0.  1.
         21   -1    0    0  501  503 -0.00000000000E+00 -0.00000000000E+00 -0.36603487069E+02  0.36603487069E+02  0.00000000000E+00 0.  1.
          6    1    1    2  501    0  0.65496920351E+02  0.37780033145E+02  0.33732454926E+03  0.38612048510E+03  0.17200000000E+03 0.  1.
         -6    1    1    2    0  502 -0.65496920351E+02 -0.37780033145E+02  0.71085216176E+03  0.73526320006E+03  0.17200000000E+03 0.  1.
</event>
<event>
 4    1  0.1241325E+000  0.1929334E+03  0.7818608E-02  0.1155842E+00
         21   -1    0    0  503  502  0.00000000000E+00  0.00000000000E+00  0.22136104272E+03  0.22136104272E+03  0.00000000000E+00 0. -1.
         21   -1    0    0  501  503 -0.00000000000E+00 -0.00000000000E+00 -0.17180187755E+03  0.17180187755E+03  0.00000000000E+00 0.  1.
          6    1    1    2  501    0  0.63332970422E+02 -0.60234671232E+02 -0.38559027826E+01  0.19297188590E+03  0.17200000000E+03 0.  1.
         -6    1    1    2    0  502 -0.63332970422E+02  0.60234671232E+02  0.53415067948E+02  0.20019103438E+03  0.17200000000E+03 0.  1.
</event>
<event>
 4    1  0.1241325E+000  0.2168110E+03  0.7818608E-02  0.1136283E+00
         21   -1    0    0  503  502  0.00000000000E+00  0.00000000000E+00  0.70710738270E+03  0.70710738270E+03  0.00000000000E+00 0.  1.
         21   -1    0    0  501  503 -0.00000000000E+00 -0.00000000000E+00 -0.69310386391E+02  0.69310386391E+02  0.00000000000E+00 0.  1.
          6    1    1    2  501    0 -0.12138455200E+02  0.13143687819E+03  0.24041971359E+03  0.32374161568E+03  0.17200000000E+03 0.  1.
         -6    1    1    2    0  502  0.12138455200E+02 -0.13143687819E+03  0.39737728272E+03  0.45267615340E+03  0.17200000000E+03 0.  1.
</event>
<event>
 4    1  0.1241325E+000  0.1778264E+03  0.7818608E-02  0.1169923E+00
         21   -1    0    0  503  502  0.00000000000E+00  0.00000000000E+00  0.48827182903E+03  0.48827182903E+03  0.00000000000E+00 0.  1.
         21   -1    0    0  501  503 -0.00000000000E+00 -0.00000000000E+00 -0.46271680338E+03  0.46271680338E+03  0.00000000000E+00 0.  1.
          6    1    1    2  501    0  0.43462998494E+02 -0.12214100452E+02 -0.42818708565E+03  0.46364468810E+03  0.17200000000E+03 0.  1.
         -6    1    1    2    0  502 -0.43462998494E+02  0.12214100452E+02  0.45374211130E+03  0.48734394431E+03  0.17200000000E+03 0.  1.
</event>
<event>
 4    1  0.1241325E+000  0.2206239E+03  0.7818608E-02  0.1133419E+00
         21   -1    0    0  501  502  0.00000000000E+00  0.00000000000E+00  0.27042669771E+03  0.27042669771E+03  0.00000000000E+00 0. -1.
         21   -1    0    0  502  503 -0.00000000000E+00 -0.00000000000E+00 -0.18409843856E+03  0.18409843856E+03  0.00000000000E+00 0.  1.
          6    1    1    2  501    0  0.34447441616E+00  0.13816947431E+03  0.77101699366E+02  0.23370835316E+03  0.17200000000E+03 0. -1.
         -6    1    1    2    0  503 -0.34447441616E+00 -0.13816947431E+03  0.92265597862E+01  0.22081678310E+03  0.17200000000E+03 0. -1.
</event>
<event>
 4    1  0.1241325E+000  0.2411495E+03  0.7818608E-02  0.1119029E+00
         21   -1    0    0  503  502  0.00000000000E+00  0.00000000000E+00  0.18493200747E+03  0.18493200747E+03  0.00000000000E+00 0. -1.
         21   -1    0    0  501  503 -0.00000000000E+00 -0.00000000000E+00 -0.49343444664E+03  0.49343444664E+03  0.00000000000E+00 0. -1.
          6    1    1    2  501    0 -0.13781532029E+03  0.97857227670E+02 -0.35852809885E+03  0.43208274344E+03  0.17200000000E+03 0. -1.
         -6    1    1    2    0  502  0.13781532029E+03 -0.97857227670E+02  0.50025659687E+02  0.24628371067E+03  0.17200000000E+03 0. -1.
</event>
<event>
 4    1  0.1241325E+000  0.1873304E+03  0.7818608E-02  0.1160891E+00
         21   -1    0    0  501  502  0.00000000000E+00  0.00000000000E+00  0.22840064171E+03  0.22840064171E+03  0.00000000000E+00 0. -1.
         21   -1    0    0  502  503 -0.00000000000E+00 -0.00000000000E+00 -0.19031969354E+03  0.19031969354E+03  0.00000000000E+00 0. -1.
          6    1    1    2  501    0 -0.68702440042E+02  0.28083001758E+02  0.11094434184E+03  0.21771845866E+03  0.17200000000E+03 0.  1.
         -6    1    1    2    0  503  0.68702440042E+02 -0.28083001758E+02 -0.72863393669E+02  0.20100187659E+03  0.17200000000E+03 0.  1.
</event>
<event>
 4    1  0.1241325E+000  0.1800345E+03  0.7818608E-02  0.1167770E+00
         21   -1    0    0  501  502  0.00000000000E+00  0.00000000000E+00  0.13107924563E+03  0.13107924563E+03  0.00000000000E+00 0. -1.
         21   -1    0    0  502  503 -0.00000000000E+00 -0.00000000000E+00 -0.25370020172E+03  0.25370020172E+03  0.00000000000E+00 0. -1.
          6    1    1    2  501    0 -0.41889788186E+00 -0.53181350066E+02 -0.91931069184E+02  0.20214784924E+03  0.17200000000E+03 0. -1.
         -6    1    1    2    0  503  0.41889788186E+00  0.53181350066E+02 -0.30689886913E+02  0.18263159811E+03  0.17200000000E+03 0. -1.
</event>
<event>
 4    1  0.1241325E+000  0.2207512E+03  0.7818608E-02  0.1133324E+00
         21   -1    0    0  501  502  0.00000000000E+00  0.00000000000E+00  0.14251338190E+03  0.14251338190E+03  0.00000000000E+00 0. -1.
         21   -1    0    0  502  503 -0.00000000000E+00 -0.00000000000E+00 -0.53210325642E+03  0.53210325642E+03  0.00000000000E+00 0.  1.
          6    1    1    2  501    0 -0.87526631628E+02  0.10717356073E+03  0.68521419705E+01  0.22085749979E+03  0.17200000000E+03 0. -1.
         -6    1    1    2    0  503  0.87526631628E+02 -0.10717356073E+03 -0.39644201649E+03  0.45375913853E+03  0.17200000000E+03 0.  1.
</event>
<event>
 4    1  0.1241325E+000  0.2568331E+03  0.7818608E-02  0.1109061E+00
         21   -1    0    0  503  502  0.00000000000E+00  0.00000000000E+00  0.62106476055E+03  0.62106476055E+03  0.00000000000E+00 0.  1.
         21   -1    0    0  501  503 -0.00000000000E+00 -0.00000000000E+00 -0.15758082575E+04  0.15758082575E+04  0.00000000000E+00 0. -1.
          6    1    1    2  501    0  0.24264286741E+02 -0.18918378338E+03 -0.15381450836E+04  0.15594401424E+04  0.17200000000E+03 0. -1.
         -6    1    1    2    0  502 -0.24264286741E+02  0.18918378338E+03  0.58340158671E+03  0.63743287559E+03  0.17200000000E+03 0.  1.
</event>
<event>
 4    1  0.1241325E+000  0.2174968E+03  0.7818608E-02  0.1135763E+00
         21   -1    0    0  503  502  0.00000000000E+00  0.00000000000E+00  0.15529192287E+03  0.15529192287E+03  0.00000000000E+00 0. -1.
         21   -1    0    0  501  503 -0.00000000000E+00 -0.00000000000E+00 -0.47937859719E+03  0.47937859719E+03  0.00000000000E+00 0. -1.
          6    1    1    2  501    0 -0.86432755831E+02 -0.10124347885E+03 -0.35364513667E+03  0.41517435612E+03  0.17200000000E+03 0. -1.
         -6    1    1    2    0  502  0.86432755831E+02  0.10124347885E+03  0.29558462351E+02  0.21949616395E+03  0.17200000000E+03 0. -1.
</event>
<event>
 4    1  0.1241325E+000  0.1964188E+03  0.7818608E-02  0.1152796E+00
         21   -1    0    0  501  502  0.00000000000E+00  0.00000000000E+00  0.71297416237E+03  0.71297416237E+03  0.00000000000E+00 0. -1.
         21   -1    0    0  502  503 -0.00000000000E+00 -0.00000000000E+00 -0.54333724778E+02  0.54333724778E+02  0.00000000000E+00 0.  1.
          6    1    1    2  501    0  0.92931580527E+02  0.18975808126E+02  0.35383604345E+03  0.40469779540E+03  0.17200000000E+03 0.  1.
         -6    1    1    2    0  503 -0.92931580527E+02 -0.18975808126E+02  0.30480439414E+03  0.36261009175E+03  0.17200000000E+03 0. -1.
</event>
<event>
 4    1  0.1241325E+000  0.2708037E+03  0.7818608E-02  0.1100821E+00
         21   -1    0    0  503  502  0.00000000000E+00  0.00000000000E+00  0.24458357457E+03  0.24458357457E+03  0.00000000000E+00 0. -1.
         21   -1    0    0  501  503 -0.00000000000E+00 -0.00000000000E+00 -0.32485017352E+03  0.32485017352E+03  0.00000000000E+00 0.  1.
          6    1    1    2  501    0 -0.16510367283E+03  0.12841895640E+03 -0.11914214572E+03  0.29585385248E+03  0.17200000000E+03 0.  1.
         -6    1    1    2    0  502  0.16510367283E+03 -0.12841895640E+03  0.38875546773E+02  0.27357989561E+03  0.17200000000E+03 0. -1.
</event>
<event>
 4    1  0.1241325E+000  0.2777141E+03  0.7818608E-02  0.1096944E+00
         21   -1    0    0  503  502  0.00000000000E+00  0.00000000000E+00  0.35670385267E+02  0.35670385267E+02  0.00000000000E+00 0.  1.
         21   -1    0    0  501  503 -0.00000000000E+00 -0.00000000000E+00 -0.23788568688E+04  0.23788568688E+04  0.00000000000E+00 0. -1.
          6    1    1    2  501    0  0.16337929164E+03  0.14438944197E+03 -0.15359640809E+04  0.15608685921E+04  0.17200000000E+03 0. -1.
         -6    1    1    2    0  502 -0.16337929164E+03 -0.14438944197E+03 -0.80722240259E+03  0.85365866196E+03  0.17200000000E+03 0.  1.
</event>
<event>
 4    1  0.1241325E+000  0.1881620E+03  0.7818608E-02  0.1160130E+00
         21   -1    0    0  503  502  0.00000000000E+00  0.00000000000E+00  0.63412303665E+03  0.63412303665E+03  0.00000000000E+00 0.  1.
         21   -1    0    0  501  503 -0.00000000000E+00 -0.00000000000E+00 -0.92132418076E+02  0.92132418076E+02  0.00000000000E+00 0. -1.
          6    1    1    2  501    0  0.66514903126E+02  0.37372696374E+02  0.43064311077E+02  0.19302716301E+03  0.17200000000E+03 0. -1.
         -6    1    1    2    0  502 -0.66514903126E+02 -0.37372696374E+02  0.49892630750E+03  0.53322829172E+03  0.17200000000E+03 0.  1.
</event>
<event>
 4    1  0.1241325E+000  0.2092798E+03  0.7818608E-02  0.1142138E+00
         21   -1    0    0  501  502  0.00000000000E+00  0.00000000000E+00  0.20349085219E+03  0.20349085219E+03  0.00000000000E+00 0. -1.
         21   -1    0    0  502  503 -0.00000000000E+00 -0.00000000000E+00 -0.26740645074E+03  0.26740645074E+03  0.00000000000E+00 0.  1.
          6    1    1    2  501    0  0.81656938070E+02 -0.86868803057E+02  0.72042130550E+02  0.22133258471E+03  0.17200000000E+03 0. -1.
         -6    1    1    2    0  503 -0.81656938070E+02  0.86868803057E+02 -0.13595772910E+03  0.24956471822E+03  0.17200000000E+03 0. -1.
</event>
<event>
 4    1  0.1241325E+000  0.1829492E+03  0.7818608E-02  0.1164979E+00
         21   -1    0    0  503  502  0.00000000000E+00  0.00000000000E+00  0.54061893661E+02  0.54061893661E+02  0.00000000000E+00 0.  1.
         21   -1    0    0  501  503 -0.00000000000E+00 -0.00000000000E+00 -0.22092561510E+04  0.22092561510E+04  0.00000000000E+00 0.  1.
          6    1    1    2  501    0  0.59305608573E+02 -0.19215663653E+02 -0.20376844323E+04  0.20458807987E+04  0.17200000000E+03 0.  1.
         -6    1    1    2    0  502 -0.59305608573E+02  0.19215663653E+02 -0.11750982502E+03  0.21743724592E+03  0.17200000000E+03 0.  1.
</event>
<event>
 4    1  0.1241325E+000  0.3352039E+03  0.7818608E-02  0.1068857E+00
         21   -1    0    0  503  502  0.00000000000E+00  0.00000000000E+00  0.36512027435E+03  0.36512027435E+03  0.00000000000E+00 0.  1.
         21   -1    0    0  501  503 -0.00000000000E+00 -0.00000000000E+00 -0.37309763699E+03  0.37309763699E+03  0.00000000000E+00 0. -1.
          6    1    1    2  501    0 -0.26605033031E+03 -0.10952125299E+03 -0.15847691867E+03  0.37077839321E+03  0.17200000000E+03 0.  1.
         -6    1    1    2    0  502  0.26605033031E+03  0.10952125299E+03  0.15049955604E+03  0.36743951813E+03  0.17200000000E+03 0.  1.
</event>
<event>
 4    1  0.1241325E+000  0.1968709E+03  0.7818608E-02  0.1152406E+00
         21   -1    0    0  501  502  0.00000000000E+00  0.00000000000E+00  0.38800513067E+02  0.38800513067E+02  0.00000000000E+00 0.  1.
         21   -1    0    0  502  503 -0.00000000000E+00 -0.00000000000E+00 -0.10229115319E+04  0.10229115319E+04  0.00000000000E+00 0. -1.
          6    1    1    2  501    0 -0.31106257457E+02  0.90590125968E+02 -0.57337392872E+03  0.60623084078E+03  0.17200000000E+03 0. -1.
         -6    1    1    2    0  503  0.31106257457E+02 -0.90590125968E+02 -0.41073709013E+03  0.45548120421E+03  0.17200000000E+03 0.  1.
</event>
<event>
 4    1  0.1241325E+000  0.1949894E+03  0.7818608E-02  0.1154037E+00
         21   -1    0    0  503  502  0.00000000000E+00  0.00000000000E+00  0.10115836195E+04  0.10115836195E+04  0.00000000000E+00 0. -1.
         21   -1    0    0  501  503 -0.00000000000E+00 -0.00000000000E+00 -0.69560287905E+02  0.69560287905E+02  0.00000000000E+00 0. -1.
          6    1    1    2  501    0 -0.74618175238E+02  0.53563094342E+02  0.10450940874E+03  0.22123086057E+03  0.17200000000E+03 0. -1.
         -6    1    1    2    0  502  0.74618175238E+02 -0.53563094342E+02  0.83751392287E+03  0.85991304685E+03  0.17200000000E+03 0. -1.
</event>
<event>
 4    1  0.1241325E+000  0.1903399E+03  0.7818608E-02  0.1158155E+00
         21   -1    0    0  503  502  0.00000000000E+00  0.00000000000E+00  0.57421961698E+02  0.57421961698E+02  0.00000000000E+00 0.  1.
         21   -1    0    0  501  503 -0.00000000000E+00 -0.00000000000E+00 -0.74226269360E+03  0.74226269360E+03  0.00000000000E+00 0.  1.
          6    1    1    2  501    0  0.39613694286E+01 -0.81422289190E+02 -0.49727344204E+03  0.53245671917E+03  0.17200000000E+03 0.  1.
         -6    1    1    2    0  502 -0.39613694286E+01  0.81422289190E+02 -0.18756728986E+03  0.26722793613E+03  0.17200000000E+03 0.  1.
</event>
<event>
 4    1  0.1241325E+000  0.2107338E+03  0.7818608E-02  0.1140986E+00
         21   -1    0    0  503  502  0.00000000000E+00  0.00000000000E+00  0.47548775774E+03  0.47548775774E+03  0.00000000000E+00 0.  1.
         21   -1    0    0  501  503 -0.00000000000E+00 -0.00000000000E+00 -0.17792271164E+03  0.17792271164E+03  0.00000000000E+00 0.  1.
          6    1    1    2  501    0 -0.12147707195E+03  0.82486727358E+01 -0.76401220359E+02  0.22415589683E+03  0.17200000000E+03 0.  1.
         -6    1    1    2    0  502  0.12147707195E+03 -0.82486727358E+01  0.37396626645E+03  0.42925457255E+03  0.17200000000E+03 0.  1.
</event>
<event>
 4    1  0.1241325E+000  0.1885732E+03  0.7818608E-02  0.1159755E+00
         21   -1    0    0  501  502  0.00000000000E+00  0.00000000000E+00  0.48624097080E+02  0.48624097080E+02  0.00000000000E+00 0. -1.
         21   -1    0    0  502  503 -0.00000000000E+00 -0.00000000000E+00 -0.88242433902E+03  0.88242433902E+03  0.00000000000E+00 0. -1.
          6    1    1    2  501    0 -0.73274294909E+02 -0.24632138264E+02 -0.22426327797E+03  0.29300833158E+03  0.17200000000E+03 0.  1.
         -6    1    1    2    0  503  0.73274294909E+02  0.24632138264E+02 -0.60953696397E+03  0.63804010452E+03  0.17200000000E+03 0.  1.
</event>
<event>
 4    1  0.1241325E+000  0.1841229E+03  0.7818608E-02  0.1163871E+00
         21   -1    0    0  501  502  0.00000000000E+00  0.00000000000E+00  0.14735979154E+03  0.14735979154E+03  0.00000000000E+00 0. -1.
         21   -1    0    0  502  503 -0.00000000000E+00 -0.00000000000E+00 -0.27792134186E+03  0.27792134186E+03  0.00000000000E+00 0.  1.
          6    1    1    2  501    0 -0.43659679665E+02 -0.49102761887E+02  0.22963841864E+02  0.18554941899E+03  0.17200000000E+03 0. -1.
         -6    1    1    2    0  503  0.43659679665E+02  0.49102761887E+02 -0.15352539219E+03  0.23973171442E+03  0.17200000000E+03 0.  1.
</event>
<event>
 4    1  0.1241325E+000  0.1768861E+03  0.7818608E-02  0.1170851E+00
         21   -1    0    0  503  502  0.00000000000E+00  0.00000000000E+00  0.24581395694E+02  0.24581395694E+02  0.00000000000E+00 0.  1.
         21   -1    0    0  501  503 -0.00000000000E+00 -0.00000000000E+00 -0.13045524640E+04  0.13045524640E+04  0.00000000000E+00 0.  1.
          6    1    1    2  501    0 -0.35495692037E+02 -0.21089131129E+02 -0.74356658214E+03  0.76431666061E+03  0.17200000000E+03 0. -1.
         -6    1    1    2    0  502  0.35495692037E+02  0.21089131129E+02 -0.53640448613E+03  0.56481719906E+03  0.17200000000E+03 0. -1.
</event>
<event>
 4    1  0.1241325E+000  0.1881009E+03  0.7818608E-02  0.1160185E+00
         21   -1    0    0  503  502  0.00000000000E+00  0.00000000000E+00  0.14833091189E+03  0.14833091189E+03  0.00000000000E+00 0. -1.
         21   -1    0    0  501  503 -0.00000000000E+00 -0.00000000000E+00 -0.25206766478E+03  0.25206766478E+03  0.00000000000E+00 0. -1.
          6    1    1    2  501    0  0.40117238146E+02 -0.64719071868E+02 -0.54795639304E+01  0.18818070220E+03  0.17200000000E+03 0. -1.
         -6    1    1    2    0  502 -0.40117238146E+02  0.64719071868E+02 -0.98257188958E+02  0.21221787446E+03  0.17200000000E+03 0. -1.
</event>
<event>
 4    1  0.1241325E+000  0.2026609E+03  0.7818608E-02  0.1147513E+00
         21   -1    0    0  503  502  0.00000000000E+00  0.00000000000E+00  0.20690961793E+03  0.20690961793E+03  0.00000000000E+00 0.  1.
         21   -1    0    0  501  503 -0.00000000000E+00 -0.00000000000E+00 -0.25746716077E+03  0.25746716077E+03  0.00000000000E+00 0.  1.
          6    1    1    2  501    0  0.57740336787E+02 -0.90296795082E+02 -0.13639730246E+03  0.24428606553E+03  0.17200000000E+03 0.  1.
         -6    1    1    2    0  502 -0.57740336787E+02  0.90296795082E+02  0.85839759617E+02  0.22009071317E+03  0.17200000000E+03 0.  1.
</event>
<event>
 4    1  0.1241325E+000  0.2387433E+03  0.7818608E-02  0.1120633E+00
         21   -1    0    0  501  502  0.00000000000E+00  0.00000000000E+00  0.70992260011E+03  0.70992260011E+03  0.00000000000E+00 0.  1.
         21   -1    0    0  502  503 -0.00000000000E+00 -0.00000000000E+00 -0.12602102793E+03  0.12602102793E+03  0.00000000000E+00 0. -1.
          6    1    1    2  501    0 -0.12986387965E+03  0.10271195976E+03  0.54374151887E+03  0.59384611917E+03  0.17200000000E+03 0.  1.
         -6    1    1    2    0  503  0.12986387965E+03 -0.10271195976E+03  0.40160053312E+02  0.24209750886E+03  0.17200000000E+03 0. -1.
</event>
<event>
 4    1  0.1241325E+000  0.2565400E+03  0.7818608E-02  0.1109240E+00
         21   -1    0    0  501  502  0.00000000000E+00  0.00000000000E+00  0.42584068673E+03  0.42584068673E+03  0.00000000000E+00 0. -1.
         21   -1    0    0  502  503 -0.00000000000E+00 -0.00000000000E+00 -0.19979460228E+03  0.19979460228E+03  0.00000000000E+00 0.  1.
          6    1    1    2  501    0 -0.18074879937E+03  0.59654483789E+02  0.26188811325E+03  0.36660355941E+03  0.17200000000E+03 0. -1.
         -6    1    1    2    0  503  0.18074879937E+03 -0.59654483789E+02 -0.35842028807E+02  0.25903172960E+03  0.17200000000E+03 0.  1.
</event>
<event>
 4    1  0.1241325E+000  0.2258574E+03  0.7818608E-02  0.1129590E+00
         21   -1    0    0  503  502  0.00000000000E+00  0.00000000000E+00  0.19825870969E+04  0.19825870969E+04  0.00000000000E+00 0. -1.
         21   -1    0    0  501  503 -0.00000000000E+00 -0.00000000000E+00 -0.34929374759E+02  0.34929374759E+02  0.00000000000E+00 0. -1.
          6    1    1    2  501    0 -0.91101499304E+01  0.14609779586E+03  0.14915258842E+04  0.15085294243E+04  0.17200000000E+03 0. -1.
         -6    1    1    2    0  502  0.91101499304E+01 -0.14609779586E+03  0.45613183802E+03  0.50898704742E+03  0.17200000000E+03 0. -1.
</event>
<event>
 4    1  0.1241325E+000  0.2062652E+03  0.7818608E-02  0.1144558E+00
         21   -1    0    0  501  502  0.00000000000E+00  0.00000000000E+00  0.88558933349E+03  0.88558933349E+03  0.00000000000E+00 0. -1.
         21   -1    0    0  502  503 -0.00000000000E+00 -0.00000000000E+00 -0.10270459378E+03  0.10270459378E+03  0.00000000000E+00 0. -1.
          6    1    1    2  501    0  0.68368645215E+02  0.91033330699E+02  0.75194377294E+03  0.77972096074E+03  0.17200000000E+03 0. -1.
         -6    1    1    2    0  503 -0.68368645215E+02 -0.91033330699E+02  0.30940966772E+02  0.20857296654E+03  0.17200000000E+03 0. -1.
</event>
<event>
 4    1  0.1241325E+000  0.1796381E+03  0.7818608E-02  0.1168154E+00
         21   -1    0    0  503  502  0.00000000000E+00  0.00000000000E+00  0.41503244082E+02  0.41503244082E+02  0.00000000000E+00 0. -1.
         21   -1    0    0  501  503 -0.00000000000E+00 -0.00000000000E+00 -0.10961455752E+04  0.10961455752E+04  0.00000000000E+00 0. -1.
          6    1    1    2  501    0 -0.13717363917E+02 -0.49976660748E+02 -0.83399776629E+03  0.85312490696E+03  0.17200000000E+03 0. -1.
         -6    1    1    2    0  502  0.13717363917E+02  0.49976660748E+02 -0.22064456479E+03  0.28452391229E+03  0.17200000000E+03 0. -1.
</event>
<event>
 4    1  0.1241325E+000  0.2028306E+03  0.7818608E-02  0.1147373E+00
         21   -1    0    0  501  502  0.00000000000E+00  0.00000000000E+00  0.56676918425E+03  0.56676918425E+03  0.00000000000E+00 0. -1.
         21   -1    0    0  502  503 -0.00000000000E+00 -0.00000000000E+00 -0.95317462149E+02  0.95317462149E+02  0.00000000000E+00 0. -1.
          6    1    1    2  501    0 -0.23328017666E+02  0.10493840451E+03  0.39738472474E+03  0.44615567306E+03  0.17200000000E+03 0. -1.
         -6    1    1    2    0  503  0.23328017666E+02 -0.10493840451E+03  0.74066997361E+02  0.21593097334E+03  0.17200000000E+03 0. -1.
</event>
<event>
 4    1  0.1241325E+000  0.2034339E+03  0.7818608E-02  0.1146874E+00
         21   -1    0    0  503  502  0.00000000000E+00  0.00000000000E+00  0.57224031161E+02  0.57224031161E+02  0.00000000000E+00 0. -1.
         21   -1    0    0  501  503 -0.00000000000E+00 -0.00000000000E+00 -0.80085761220E+03  0.80085761220E+03  0.00000000000E+00 0.  1.
          6    1    1    2  501    0 -0.10597639876E+03 -0.23881676230E+02 -0.23822849806E+03  0.31327008928E+03  0.17200000000E+03 0. -1.
         -6    1    1    2    0  502  0.10597639876E+03  0.23881676230E+02 -0.50540508299E+03  0.54481155408E+03  0.17200000000E+03 0.  1.
</event>
<event>
 4    1  0.1241325E+000  0.1757523E+03  0.7818608E-02  0.1171978E+00
         21   -1    0    0  501  502  0.00000000000E+00  0.00000000000E+00  0.51156931317E+03  0.51156931317E+03  0.00000000000E+00 0. -1.
         21   -1    0    0  502  503 -0.00000000000E+00 -0.00000000000E+00 -0.14334815186E+03  0.14334815186E+03  0.00000000000E+00 0. -1.
          6    1    1    2  501    0 -0.25623171533E+01  0.36031907843E+02  0.43323405729E+03  0.46752605515E+03  0.17200000000E+03 0. -1.
         -6    1    1    2    0  503  0.25623171533E+01 -0.36031907843E+02 -0.65012895983E+02  0.18739140988E+03  0.17200000000E+03 0. -1.
</event>
<event>
 4    1  0.1241325E+000  0.4350108E+03  0.7818608E-02  0.1032289E+00
         21   -1    0    0  503  502  0.00000000000E+00  0.00000000000E+00  0.26976906496E+04  0.26976906496E+04  0.00000000000E+00 0.  1.
         21   -1    0    0  501  503 -0.00000000000E+00 -0.00000000000E+00 -0.71483957722E+02  0.71483957722E+02  0.00000000000E+00 0. -1.
          6    1    1    2  501    0  0.70122109428E+02  0.39336155361E+03  0.11237364676E+04  0.12049971248E+04  0.17200000000E+03 0.  1.
         -6    1    1    2    0  502 -0.70122109428E+02 -0.39336155361E+03  0.15024702243E+04  0.15641774826E+04  0.17200000000E+03 0.  1.
</event>
<event>
 4    1  0.1241325E+000  0.2433616E+03  0.7818608E-02  0.1117573E+00
         21   -1    0    0  501  502  0.00000000000E+00  0.00000000000E+00  0.40958925184E+03  0.40958925184E+03  0.00000000000E+00 0.  1.
         21   -1    0    0  502  503 -0.00000000000E+00 -0.00000000000E+00 -0.14500616643E+03  0.14500616643E+03  0.00000000000E+00 0.  1.
          6    1    1    2  501    0  0.17150937663E+03 -0.15013825665E+02  0.14704332613E+03  0.28433540228E+03  0.17200000000E+03 0.  1.
         -6    1    1    2    0  503 -0.17150937663E+03  0.15013825665E+02  0.11753975928E+03  0.27026001599E+03  0.17200000000E+03 0.  1.
</event>
<event>
 4    1  0.1241325E+000  0.2551311E+03  0.7818608E-02  0.1110104E+00
         21   -1    0    0  501  502  0.00000000000E+00  0.00000000000E+00  0.59483444287E+02  0.59483444287E+02  0.00000000000E+00 0.  1.
         21   -1    0    0  502  503 -0.00000000000E+00 -0.00000000000E+00 -0.13004157623E+04  0.13004157623E+04  0.00000000000E+00 0. -1.
          6    1    1    2  501    0  0.29415401416E+02  0.18612524575E+03 -0.34975481924E+03  0.43292067002E+03  0.17200000000E+03 0.  1.
         -6    1    1    2    0  503 -0.29415401416E+02 -0.18612524575E+03 -0.89117749881E+03  0.92697853661E+03  0.17200000000E+03 0. -1.
</event>
<event>
 4    1  0.1241325E+000  0.2017442E+03  0.7818608E-02  0.1148276E+00
         21   -1    0    0  501  502  0.00000000000E+00  0.00000000000E+00  0.30093146492E+03  0.30093146492E+03  0.00000000000E+00 0. -1.
         21   -1    0    0  502  503 -0.00000000000E+00 -0.00000000000E+00 -0.13924515522E+03  0.13924515522E+03  0.00000000000E+00 0. -1.
          6    1    1    2  501    0 -0.97975791188E+02 -0.38954802901E+02  0.11812682010E+03  0.23378339965E+03  0.17200000000E+03 0. -1.
         -6    1    1    2    0  503  0.97975791188E+02  0.38954802901E+02  0.43559489610E+02  0.20639322049E+03  0.17200000000E+03 0. -1.
</event>
<event>
 4    1  0.1241325E+000  0.1864008E+03  0.7818608E-02  0.1161748E+00
         21   -1    0    0  501  502  0.00000000000E+00  0.00000000000E+00  0.33712859204E+03  0.33712859204E+03  0.00000000000E+00 0. -1.
         21   -1    0    0  502  503 -0.00000000000E+00 -0.00000000000E+00 -0.14815237396E+03  0.14815237396E+03  0.00000000000E+00 0. -1.
          6    1    1    2  501    0 -0.38919794154E+02 -0.60386260313E+02  0.22834766787E+03  0.29476754950E+03  0.17200000000E+03 0. -1.
         -6    1    1    2    0  503  0.38919794154E+02  0.60386260313E+02 -0.39371449793E+02  0.19051341651E+03  0.17200000000E+03 0. -1.
</event>
<event>
 4    1  0.1241325E+000  0.1799568E+03  0.7818608E-02  0.1167845E+00
         21   -1    0    0  503  502  0.00000000000E+00  0.00000000000E+00  0.16527217152E+03  0.16527217152E+03  0.00000000000E+00 0. -1.
         21   -1    0    0  501  503 -0.00000000000E+00 -0.00000000000E+00 -0.21781345886E+03  0.21781345886E+03  0.00000000000E+00 0. -1.
          6    1    1    2  501    0 -0.38266724879E+02 -0.36553040236E+02 -0.86961029951E+02  0.19986667485E+03  0.17200000000E+03 0. -1.
         -6    1    1    2    0  502  0.38266724879E+02  0.36553040236E+02  0.34419742615E+02  0.18321895553E+03  0.17200000000E+03 0. -1.
</event>
<event>
 4    1  0.1241325E+000  0.3450334E+03  0.7818608E-02  0.1064672E+00
         21   -1    0    0  503  502  0.00000000000E+00  0.00000000000E+00  0.28121566909E+03  0.28121566909E+03  0.00000000000E+00 0. -1.
         21   -1    0    0  501  503 -0.00000000000E+00 -0.00000000000E+00 -0.46586308156E+03  0.46586308156E+03  0.00000000000E+00 0. -1.
          6    1    1    2  501    0 -0.28331425188E+03 -0.95901513500E+02 -0.20518677341E+03  0.40143452466E+03  0.17200000000E+03 0. -1.
         -6    1    1    2    0  502  0.28331425188E+03  0.95901513500E+02  0.20539360935E+02  0.34564422599E+03  0.17200000000E+03 0. -1.
</event>
<event>
 4    1  0.1241325E+000  0.1979412E+03  0.7818608E-02  0.1151488E+00
         21   -1    0    0  503  502  0.00000000000E+00  0.00000000000E+00  0.23320196598E+03  0.23320196598E+03  0.00000000000E+00 0.  1.
         21   -1    0    0  501  503 -0.00000000000E+00 -0.00000000000E+00 -0.23034676207E+03  0.23034676207E+03  0.00000000000E+00 0.  1.
          6    1    1    2  501    0 -0.68123255076E+02 -0.70398570870E+02 -0.11914243010E+03  0.23103171928E+03  0.17200000000E+03 0.  1.
         -6    1    1    2    0  502  0.68123255076E+02  0.70398570870E+02  0.12199763401E+03  0.23251700877E+03  0.17200000000E+03 0.  1.
</event>
<event>
 4    1  0.1241325E+000  0.2149082E+03  0.7818608E-02  0.1137737E+00
         21   -1    0    0  503  502  0.00000000000E+00  0.00000000000E+00  0.26534297849E+03  0.26534297849E+03  0.00000000000E+00 0. -1.
         21   -1    0    0  501  503 -0.00000000000E+00 -0.00000000000E+00 -0.19363134243E+03  0.19363134243E+03  0.00000000000E+00 0. -1.
          6    1    1    2  501    0 -0.59128650123E+02 -0.11447847205E+03 -0.37104086858E+02  0.21808766836E+03  0.17200000000E+03 0. -1.
         -6    1    1    2    0  502  0.59128650123E+02  0.11447847205E+03  0.10881572291E+03  0.24088665256E+03  0.17200000000E+03 0. -1.
</event>
<event>
 4    1  0.1241325E+000  0.2058589E+03  0.7818608E-02  0.1144888E+00
         21   -1    0    0  501  502  0.00000000000E+00  0.00000000000E+00  0.13724241285E+04  0.13724241285E+04  0.00000000000E+00 0.  1.
         21   -1    0    0  502  503 -0.00000000000E+00 -0.00000000000E+00 -0.32078684366E+02  0.32078684366E+02  0.00000000000E+00 0.  1.
          6    1    1    2  501    0  0.37527510801E+02  0.10670316338E+03  0.80602808168E+03  0.83190092415E+03  0.17200000000E+03 0.  1.
         -6    1    1    2    0  503 -0.37527510801E+02 -0.10670316338E+03  0.53431736245E+03  0.57260188872E+03  0.17200000000E+03 0.  1.
</event>
<event>
 4    1  0.1241325E+000  0.3075531E+03  0.7818608E-02  0.1081525E+00
         21   -1    0    0  501  502  0.00000000000E+00  0.00000000000E+00  0.65990960504E+02  0.65990960504E+02  0.00000000000E+00 0.  1.
         21   -1    0    0  502  503 -0.00000000000E+00 -0.00000000000E+00 -0.16133529708E+04  0.16133529708E+04  0.00000000000E+00 0. -1.
          6    1    1    2  501    0  0.20861666105E+03 -0.14657424616E+03 -0.49322123310E+03  0.58125390811E+03  0.17200000000E+03 0.  1.
         -6    1    1    2    0  503 -0.20861666105E+03  0.14657424616E+03 -0.10541407772E+04  0.10980900232E+04  0.17200000000E+03 0. -1.
</event>
<event>
 4    1  0.1241325E+000  0.3153811E+03  0.7818608E-02  0.1077795E+00
         21   -1    0    0  503  502  0.00000000000E+00  0.00000000000E+00  0.14464357781E+03  0.14464357781E+03  0.00000000000E+00 0. -1.
         21   -1    0    0  501  503 -0.00000000000E+00 -0.00000000000E+00 -0.11454888976E+04  0.11454888976E+04  0.00000000000E+00 0.  1.
          6    1    1    2  501    0  0.20952120608E+03 -0.16118965589E+03 -0.90823621469E+03  0.96143552183E+03  0.17200000000E+03 0. -1.
         -6    1    1    2    0  502 -0.20952120608E+03  0.16118965589E+03 -0.92609105147E+02  0.32869695362E+03  0.17200000000E+03 0. -1.
</event>
<event>
 4    1  0.1241325E+000  0.2389674E+03  0.7818608E-02  0.1120483E+00
         21   -1    0    0  501  502  0.00000000000E+00  0.00000000000E+00  0.15782132940E+03  0.15782132940E+03  0.00000000000E+00 0. -1.
         21   -1    0    0  502  503 -0.00000000000E+00 -0.00000000000E+00 -0.36572730076E+03  0.36572730076E+03  0.00000000000E+00 0. -1.
          6    1    1    2  501    0 -0.16506846904E+03 -0.16547434632E+02 -0.13095544594E+03  0.27249724015E+03  0.17200000000E+03 0. -1.
         -6    1    1    2    0  503  0.16506846904E+03  0.16547434632E+02 -0.76950525414E+02  0.25105139001E+03  0.17200000000E+03 0. -1.
</event>
<event>
 4    1  0.1241325E+000  0.1829991E+03  0.7818608E-02  0.1164932E+00
         21   -1    0    0  501  502  0.00000000000E+00  0.00000000000E+00  0.33017676499E+02  0.33017676499E+02  0.00000000000E+00 0.  1.
         21   -1    0    0  502  503 -0.00000000000E+00 -0.00000000000E+00 -0.10604858048E+04  0.10604858048E+04  0.00000000000E+00 0.  1.
          6    1    1    2  501    0 -0.24430715391E+02 -0.57513666628E+02 -0.62787865897E+03  0.65400328141E+03  0.17200000000E+03 0.  1.
         -6    1    1    2    0  503  0.24430715391E+02  0.57513666628E+02 -0.39958946933E+03  0.43950019989E+03  0.17200000000E+03 0.  1.
</event>
<event>
 4    1  0.1241325E+000  0.2571391E+03  0.7818608E-02  0.1108874E+00
         21   -1    0    0  501  502  0.00000000000E+00  0.00000000000E+00  0.72324160925E+02  0.72324160925E+02  0.00000000000E+00 0.  1.
         21   -1    0    0  502  503 -0.00000000000E+00 -0.00000000000E+00 -0.95023014322E+03  0.95023014322E+03  0.00000000000E+00 0. -1.
          6    1    1    2  501    0  0.17945564915E+03  0.65819310495E+02 -0.33942896060E+03  0.42583157579E+03  0.17200000000E+03 0. -1.
         -6    1    1    2    0  503 -0.17945564915E+03 -0.65819310495E+02 -0.53847702169E+03  0.59672272836E+03  0.17200000000E+03 0. -1.
</event>
<event>
 4    1  0.1241325E+000  0.1722735E+03  0.7818608E-02  0.1175497E+00
         21   -1    0    0  501  502  0.00000000000E+00  0.00000000000E+00  0.44129109635E+03  0.44129109635E+03  0.00000000000E+00 0. -1.
         21   -1    0    0  502  503 -0.00000000000E+00 -0.00000000000E+00 -0.75764321606E+02  0.75764321606E+02  0.00000000000E+00 0. -1.
          6    1    1    2  501    0  0.95995793744E+01 -0.14201462263E+01  0.26941410247E+03  0.31978450142E+03  0.17200000000E+03 0. -1.
         -6    1    1    2    0  503 -0.95995793744E+01  0.14201462263E+01  0.96112672277E+02  0.19727091654E+03  0.17200000000E+03 0. -1.
</event>
<event>
 4    1  0.1241325E+000  0.2260422E+03  0.7818608E-02  0.1129457E+00
         21   -1    0    0  503  502  0.00000000000E+00  0.00000000000E+00  0.42050671577E+03  0.42050671577E+03  0.00000000000E+00 0. -1.
         21   -1    0    0  501  503 -0.00000000000E+00 -0.00000000000E+00 -0.16890534022E+03  0.16890534022E+03  0.00000000000E+00 0.  1.
          6    1    1    2  501    0  0.14345334941E+03  0.30531826025E+02  0.28191508026E+03  0.36134632741E+03  0.17200000000E+03 0. -1.
         -6    1    1    2    0  502 -0.14345334941E+03 -0.30531826025E+02 -0.30313704713E+02  0.22806572858E+03  0.17200000000E+03 0.  1.
</event>
<event>
 4    1  0.1241325E+000  0.1817365E+03  0.7818608E-02  0.1166133E+00
         21   -1    0    0  503  502  0.00000000000E+00  0.00000000000E+00  0.10451813989E+03  0.10451813989E+03  0.00000000000E+00 0. -1.
         21   -1    0    0  501  503 -0.00000000000E+00 -0.00000000000E+00 -0.47362813206E+03  0.47362813206E+03  0.00000000000E+00 0. -1.
          6    1    1    2  501    0 -0.27049453334E+01  0.58624697970E+02 -0.35131813355E+03  0.39554089915E+03  0.17200000000E+03 0. -1.
         -6    1    1    2    0  502  0.27049453334E+01 -0.58624697970E+02 -0.17791858629E+02  0.18260537280E+03  0.17200000000E+03 0. -1.
</event>
<event>
 4    1  0.1241325E+000  0.2191658E+03  0.7818608E-02  0.1134506E+00
         21   -1    0    0  503  502  0.00000000000E+00  0.00000000000E+00  0.45261691561E+03  0.45261691561E+03  0.00000000000E+00 0. -1.
         21   -1    0    0  501  503 -0.00000000000E+00 -0.00000000000E+00 -0.16513169580E+03  0.16513169580E+03  0.00000000000E+00 0.  1.
          6    1    1    2  501    0 -0.12426488228E+03 -0.54844318697E+02 -0.40894812892E+02  0.22294852765E+03  0.17200000000E+03 0.  1.
         -6    1    1    2    0  502  0.12426488228E+03  0.54844318697E+02  0.32838003270E+03  0.39480008376E+03  0.17200000000E+03 0. -1.
</event>
<event>
 4    1  0.1241325E+000  0.2184063E+03  0.7818608E-02  0.1135077E+00
         21   -1    0    0  501  502  0.00000000000E+00  0.00000000000E+00  0.41570282752E+02  0.41570282752E+02  0.00000000000E+00 0.  1.
         21   -1    0    0  502  503 -0.00000000000E+00 -0.00000000000E+00 -0.11491984060E+04  0.11491984060E+04  0.00000000000E+00 0.  1.
          6    1    1    2  501    0  0.13292919877E+03  0.21145688970E+02 -0.53083036795E+03  0.57400539334E+03  0.17200000000E+03 0. -1.
         -6    1    1    2    0  503 -0.13292919877E+03 -0.21145688970E+02 -0.57679775530E+03  0.61676329541E+03  0.17200000000E+03 0. -1.
</event>
<event>
 4    1  0.1241325E+000  0.2291103E+03  0.7818608E-02  0.1127268E+00
         21   -1    0    0  503  502  0.00000000000E+00  0.00000000000E+00  0.60193258953E+03  0.60193258953E+03  0.00000000000E+00 0.  1.
         21   -1    0    0  501  503 -0.00000000000E+00 -0.00000000000E+00 -0.91914990777E+02  0.91914990777E+02  0.00000000000E+00 0. -1.
          6    1    1    2  501    0  0.85468017752E+02 -0.12491102153E+03  0.33354138078E+03  0.40464972267E+03  0.17200000000E+03 0. -1.
         -6    1    1    2    0  502 -0.85468017752E+02  0.12491102153E+03  0.17647621797E+03  0.28919785764E+03  0.17200000000E+03 0. -1.
</event>
<event>
 4    1  0.1241325E+000  0.2378421E+03  0.7818608E-02  0.1121239E+00
         21   -1    0    0  503  502  0.00000000000E+00  0.00000000000E+00  0.19746407402E+03  0.19746407402E+03  0.00000000000E+00 0. -1.
         21   -1    0    0  501  503 -0.00000000000E+00 -0.00000000000E+00 -0.28806263230E+03  0.28806263230E+03  0.00000000000E+00 0. -1.
          6    1    1    2  501    0  0.18239967814E+02 -0.16325489503E+03 -0.63312085208E+02  0.24612451587E+03  0.17200000000E+03 0. -1.
         -6    1    1    2    0  502 -0.18239967814E+02  0.16325489503E+03 -0.27286473078E+02  0.23940219045E+03  0.17200000000E+03 0. -1.
</event>
<event>
 4    1  0.1241325E+000  0.2209274E+03  0.7818608E-02  0.1133194E+00
         21   -1    0    0  503  502  0.00000000000E+00  0.00000000000E+00  0.46649750297E+03  0.46649750297E+03  0.00000000000E+00 0.  1.
         21   -1    0    0  501  503 -0.00000000000E+00 -0.00000000000E+00 -0.10465152931E+03  0.10465152931E+03  0.00000000000E+00 0. -1.
          6    1    1    2  501    0  0.23461900368E+02 -0.13665449806E+03  0.17668246912E+03  0.28288797695E+03  0.17200000000E+03 0. -1.
         -6    1    1    2    0  502 -0.23461900368E+02  0.13665449806E+03  0.18516350453E+03  0.28826105533E+03  0.17200000000E+03 0.  1.
</event>
<event>
 4    1  0.1241325E+000  0.2298115E+03  0.7818608E-02  0.1126772E+00
         21   -1    0    0  503  502  0.00000000000E+00  0.00000000000E+00  0.45024568322E+03  0.45024568322E+03  0.00000000000E+00 0. -1.
         21   -1    0    0  501  503 -0.00000000000E+00 -0.00000000000E+00 -0.77676792511E+03  0.77676792511E+03  0.00000000000E+00 0. -1.
          6    1    1    2  501    0  0.45827184137E+02  0.14535888587E+03 -0.72855063947E+03  0.76393675836E+03  0.17200000000E+03 0. -1.
         -6    1    1    2    0  502 -0.45827184137E+02 -0.14535888587E+03  0.40202839758E+03  0.46307684996E+03  0.17200000000E+03 0. -1.
</event>
<event>
 4    1  0.1241325E+000  0.2000277E+03  0.7818608E-02  0.1149716E+00
         21   -1    0    0  503  502  0.00000000000E+00  0.00000000000E+00  0.22406422605E+02  0.22406422605E+02  0.00000000000E+00 0.  1.
         21   -1    0    0  501  503 -0.00000000000E+00 -0.00000000000E+00 -0.19643505598E+04  0.19643505598E+04  0.00000000000E+00 0.  1.
          6    1    1    2  501    0 -0.69777055904E+02 -0.74553588180E+02 -0.12705511254E+04  0.12862003100E+04  0.17200000000E+03 0.  1.
         -6    1    1    2    0  502  0.69777055904E+02  0.74553588180E+02 -0.67139301171E+03  0.70055667238E+03  0.17200000000E+03 0.  1.
</event>
<event>
 4    1  0.1241325E+000  0.3289486E+03  0.7818608E-02  0.1071603E+00
         21   -1    0    0  503  502  0.00000000000E+00  0.00000000000E+00  0.24848147660E+04  0.24848147660E+04  0.00000000000E+00 0.  1.
         21   -1    0    0  501  503 -0.00000000000E+00 -0.00000000000E+00 -0.91298686893E+02  0.91298686893E+02  0.00000000000E+00 0.  1.
          6    1    1    2  501    0 -0.18573409811E+03  0.21006201031E+03  0.21282847224E+04  0.21535559113E+04  0.17200000000E+03 0.  1.
         -6    1    1    2    0  502  0.18573409811E+03 -0.21006201031E+03  0.26523135663E+03  0.42255754155E+03  0.17200000000E+03 0.  1.
</event>
<event>
 4    1  0.1241325E+000  0.1989874E+03  0.7818608E-02  0.1150596E+00
         21   -1    0    0  503  502  0.00000000000E+00  0.00000000000E+00  0.47057547425E+03  0.47057547425E+03  0.00000000000E+00 0. -1.
         21   -1    0    0  501  503 -0.00000000000E+00 -0.00000000000E+00 -0.98431276908E+02  0.98431276908E+02  0.00000000000E+00 0.  1.
          6    1    1    2  501    0  0.86945384712E+02 -0.49522384334E+02  0.77679408498E+02  0.21361193079E+03  0.17200000000E+03 0.  1.
         -6    1    1    2    0  502 -0.86945384712E+02  0.49522384334E+02  0.29446478885E+03  0.35539482037E+03  0.17200000000E+03 0. -1.
</event>
<event>
 4    1  0.1241325E+000  0.4758063E+03  0.7818608E-02  0.1020294E+00
         21   -1    0    0  503  502  0.00000000000E+00  0.00000000000E+00  0.15788955673E+04  0.15788955673E+04  0.00000000000E+00 0. -1.
         21   -1    0    0  501  503 -0.00000000000E+00 -0.00000000000E+00 -0.14831961112E+03  0.14831961112E+03  0.00000000000E+00 0.  1.
          6    1    1    2  501    0 -0.42404908234E+02 -0.44159873273E+03  0.55778204807E+03  0.73315239217E+03  0.17200000000E+03 0. -1.
         -6    1    1    2    0  502  0.42404908234E+02  0.44159873273E+03  0.87279390815E+03  0.99406278630E+03  0.17200000000E+03 0. -1.
</event>
<event>
 4    1  0.1241325E+000  0.2413272E+03  0.7818608E-02  0.1118912E+00
         21   -1    0    0  501  502  0.00000000000E+00  0.00000000000E+00  0.38967053405E+03  0.38967053405E+03  0.00000000000E+00 0.  1.
         21   -1    0    0  502  503 -0.00000000000E+00 -0.00000000000E+00 -0.67222490857E+03  0.67222490857E+03  0.00000000000E+00 0.  1.
          6    1    1    2  501    0 -0.13503818108E+03 -0.10207587332E+03  0.32694191530E+03  0.40636167418E+03  0.17200000000E+03 0.  1.
         -6    1    1    2    0  503  0.13503818108E+03  0.10207587332E+03 -0.60949628982E+03  0.65553376844E+03  0.17200000000E+03 0.  1.
</event>
<event>
 4    1  0.1241325E+000  0.2014824E+03  0.7818608E-02  0.1148494E+00
         21   -1    0    0  501  502  0.00000000000E+00  0.00000000000E+00  0.24238932151E+03  0.24238932151E+03  0.00000000000E+00 0. -1.
         21   -1    0    0  502  503 -0.00000000000E+00 -0.00000000000E+00 -0.16880855281E+03  0.16880855281E+03  0.00000000000E+00 0.  1.
          6    1    1    2  501    0  0.86785793162E+02 -0.58986326130E+02  0.55035637609E+02  0.20886378808E+03  0.17200000000E+03 0. -1.
         -6    1    1    2    0  503 -0.86785793162E+02  0.58986326130E+02  0.18545131090E+02  0.20233408623E+03  0.17200000000E+03 0. -1.
</event>
<event>
 4    1  0.1241325E+000  0.2193376E+03  0.7818608E-02  0.1134378E+00
         21   -1    0    0  503  502  0.00000000000E+00  0.00000000000E+00  0.25803955929E+03  0.25803955929E+03  0.00000000000E+00 0.  1.
         21   -1    0    0  501  503 -0.00000000000E+00 -0.00000000000E+00 -0.19843566173E+03  0.19843566173E+03  0.00000000000E+00 0.  1.
          6    1    1    2  501    0  0.13016291167E+03 -0.39782148237E+02 -0.26313432314E+02  0.22091038819E+03  0.17200000000E+03 0.  1.
         -6    1    1    2    0  502 -0.13016291167E+03  0.39782148237E+02  0.85917329869E+02  0.23556483282E+03  0.17200000000E+03 0.  1.
</event>
<event>
 4    1  0.1241325E+000  0.2129193E+03  0.7818608E-02  0.1139275E+00
         21   -1    0    0  503  502  0.00000000000E+00  0.00000000000E+00  0.26921683988E+02  0.26921683988E+02  0.00000000000E+00 0. -1.
         21   -1    0    0  501  503 -0.00000000000E+00 -0.00000000000E+00 -0.16867833374E+04  0.16867833374E+04  0.00000000000E+00 0. -1.
          6    1    1    2  501    0  0.12482155668E+03  0.13045793718E+02 -0.86508437984E+03  0.89090156471E+03  0.17200000000E+03 0.  1.
         -6    1    1    2    0  502 -0.12482155668E+03 -0.13045793718E+02 -0.79477727355E+03  0.82280345666E+03  0.17200000000E+03 0.  1.
</event>
<event>
 4    1  0.1241325E+000  0.2156030E+03  0.7818608E-02  0.1137204E+00
         21   -1    0    0  503  502  0.00000000000E+00  0.00000000000E+00  0.27781647660E+03  0.27781647660E+03  0.00000000000E+00 0. -1.
         21   -1    0    0  501  503 -0.00000000000E+00 -0.00000000000E+00 -0.18685837361E+03  0.18685837361E+03  0.00000000000E+00 0. -1.
          6    1    1    2  501    0 -0.28013093649E+02  0.12694856666E+03 -0.29646959067E+02  0.21763183172E+03  0.17200000000E+03 0. -1.
         -6    1    1    2    0  502  0.28013093649E+02 -0.12694856666E+03  0.12060506206E+03  0.24704301850E+03  0.17200000000E+03 0. -1.
</event>
<event>
 4    1  0.1241325E+000  0.1919834E+03  0.7818608E-02  0.1156684E+00
         21   -1    0    0  501  502  0.00000000000E+00  0.00000000000E+00  0.38971814260E+03  0.38971814260E+03  0.00000000000E+00 0. -1.
         21   -1    0    0  502  503 -0.00000000000E+00 -0.00000000000E+00 -0.13330065296E+03  0.13330065296E+03  0.00000000000E+00 0. -1.
          6    1    1    2  501    0 -0.80584184264E+02 -0.27925405927E+02  0.26916030230E+03  0.33061292683E+03  0.17200000000E+03 0. -1.
         -6    1    1    2    0  503  0.80584184264E+02  0.27925405927E+02 -0.12742812655E+02  0.19240586874E+03  0.17200000000E+03 0. -1.
</event>
<event>
 4    1  0.1241325E+000  0.2081334E+03  0.7818608E-02  0.1143053E+00
         21   -1    0    0  501  502  0.00000000000E+00  0.00000000000E+00  0.84073291970E+03  0.84073291970E+03  0.00000000000E+00 0.  1.
         21   -1    0    0  502  503 -0.00000000000E+00 -0.00000000000E+00 -0.59750686894E+02  0.59750686894E+02  0.00000000000E+00 0. -1.
          6    1    1    2  501    0 -0.32695149718E+02 -0.11254569140E+03  0.55753753089E+03  0.59511982307E+03  0.17200000000E+03 0. -1.
         -6    1    1    2    0  503  0.32695149718E+02  0.11254569140E+03  0.22344470192E+03  0.30536378352E+03  0.17200000000E+03 0. -1.
</event>
<event>
 4    1  0.1241325E+000  0.1804547E+03  0.7818608E-02  0.1167364E+00
         21   -1    0    0  503  502  0.00000000000E+00  0.00000000000E+00  0.49950266268E+03  0.49950266268E+03  0.00000000000E+00 0.  1.
         21   -1    0    0  501  503 -0.00000000000E+00 -0.00000000000E+00 -0.65940637877E+02  0.65940637877E+02  0.00000000000E+00 0.  1.
          6    1    1    2  501    0  0.50952671990E+02  0.19588947579E+02  0.18666966909E+03  0.25963333185E+03  0.17200000000E+03 0. -1.
         -6    1    1    2    0  502 -0.50952671990E+02 -0.19588947579E+02  0.24689235572E+03  0.30580996871E+03  0.17200000000E+03 0. -1.
</event>
<event>
 4    1  0.1241325E+000  0.1997538E+03  0.7818608E-02  0.1149947E+00
         21   -1    0    0  501  502  0.00000000000E+00  0.00000000000E+00  0.27125028529E+03  0.27125028529E+03  0.00000000000E+00 0. -1.
         21   -1    0    0  502  503 -0.00000000000E+00 -0.00000000000E+00 -0.15761344548E+03  0.15761344548E+03  0.00000000000E+00 0. -1.
          6    1    1    2  501    0 -0.21142526659E+02 -0.99350670609E+02  0.11219371966E+03  0.22910476406E+03  0.17200000000E+03 0. -1.
         -6    1    1    2    0  503  0.21142526659E+02  0.99350670609E+02  0.14431201445E+01  0.19975896671E+03  0.17200000000E+03 0. -1.
</event>
<event>
 4    1  0.1241325E+000  0.2728353E+03  0.7818608E-02  0.1099668E+00
         21   -1    0    0  501  502  0.00000000000E+00  0.00000000000E+00  0.20130239105E+03  0.20130239105E+03  0.00000000000E+00 0. -1.
         21   -1    0    0  502  503 -0.00000000000E+00 -0.00000000000E+00 -0.66790130815E+03  0.66790130815E+03  0.00000000000E+00 0. -1.
          6    1    1    2  501    0  0.96697452371E+02 -0.18842690254E+03  0.57053674446E+02  0.27873682330E+03  0.17200000000E+03 0.  1.
         -6    1    1    2    0  503 -0.96697452371E+02  0.18842690254E+03 -0.52365259156E+03  0.59046687590E+03  0.17200000000E+03 0.  1.
</event>
<event>
 4    1  0.1241325E+000  0.2132156E+03  0.7818608E-02  0.1139045E+00
         21   -1    0    0  503  502  0.00000000000E+00  0.00000000000E+00  0.11568434667E+03  0.11568434667E+03  0.00000000000E+00 0.  1.
         21   -1    0    0  501  503 -0.00000000000E+00 -0.00000000000E+00 -0.39537249757E+03  0.39537249757E+03  0.00000000000E+00 0.  1.
          6    1    1    2  501    0  0.12600349123E+03 -0.16405214683E+00 -0.11994045750E+03  0.24463568844E+03  0.17200000000E+03 0.  1.
         -6    1    1    2    0  502 -0.12600349123E+03  0.16405214683E+00 -0.15974769340E+03  0.26642115581E+03  0.17200000000E+03 0.  1.
</event>
<event>
 4    1  0.1241325E+000  0.2534955E+03  0.7818608E-02  0.1111115E+00
         21   -1    0    0  501  502  0.00000000000E+00  0.00000000000E+00  0.33279582095E+03  0.33279582095E+03  0.00000000000E+00 0.  1.
         21   -1    0    0  502  503 -0.00000000000E+00 -0.00000000000E+00 -0.32603603312E+03  0.32603603312E+03  0.00000000000E+00 0.  1.
          6    1    1    2  501    0  0.10035491343E+03 -0.15685942518E+03  0.21373221625E+03  0.33157419710E+03  0.17200000000E+03 0.  1.
         -6    1    1    2    0  503 -0.10035491343E+03  0.15685942518E+03 -0.20697242843E+03  0.32725765697E+03  0.17200000000E+03 0.  1.
</event>
<event>
 4    1  0.1241325E+000  0.2466029E+03  0.7818608E-02  0.1115471E+00
         21   -1    0    0  503  502  0.00000000000E+00  0.00000000000E+00  0.13319858831E+04  0.13319858831E+04  0.00000000000E+00 0. -1.
         21   -1    0    0  501  503 -0.00000000000E+00 -0.00000000000E+00 -0.15407523253E+03  0.15407523253E+03  0.00000000000E+00 0.  1.
          6    1    1    2  501    0  0.53176846967E+02 -0.16852663273E+03 -0.34339671171E+02  0.24898236084E+03  0.17200000000E+03 0.  1.
         -6    1    1    2    0  502 -0.53176846967E+02  0.16852663273E+03  0.12122503217E+04  0.12370787547E+04  0.17200000000E+03 0. -1.
</event>
<event>
 4    1  0.1241325E+000  0.1887918E+03  0.7818608E-02  0.1159556E+00
         21   -1    0    0  503  502  0.00000000000E+00  0.00000000000E+00  0.72876310509E+03  0.72876310509E+03  0.00000000000E+00 0. -1.
         21   -1    0    0  501  503 -0.00000000000E+00 -0.00000000000E+00 -0.57495493760E+02  0.57495493760E+02  0.00000000000E+00 0. -1.
          6    1    1    2  501    0 -0.74222601311E+02 -0.23437975812E+02  0.48756682409E+03  0.52284198493E+03  0.17200000000E+03 0. -1.
         -6    1    1    2    0  502  0.74222601311E+02  0.23437975812E+02  0.18370078725E+03  0.26341661392E+03  0.17200000000E+03 0. -1.
</event>
<event>
 4    1  0.1241325E+000  0.1998043E+03  0.7818608E-02  0.1149904E+00
         21   -1    0    0  503  502  0.00000000000E+00  0.00000000000E+00  0.22246555511E+03  0.22246555511E+03  0.00000000000E+00 0.  1.
         21   -1    0    0  501  503 -0.00000000000E+00 -0.00000000000E+00 -0.41307861782E+03  0.41307861782E+03  0.00000000000E+00 0.  1.
          6    1    1    2  501    0 -0.98448064703E+02  0.25410960682E+02 -0.33428632255E+03  0.38944715150E+03  0.17200000000E+03 0.  1.
         -6    1    1    2    0  502  0.98448064703E+02 -0.25410960682E+02  0.14367325984E+03  0.24609702144E+03  0.17200000000E+03 0.  1.
</event>
<event>
 4    1  0.1241325E+000  0.1792523E+03  0.7818608E-02  0.1168529E+00
         21   -1    0    0  503  502  0.00000000000E+00  0.00000000000E+00  0.49653249792E+02  0.49653249792E+02  0.00000000000E+00 0.  1.
         21   -1    0    0  501  503 -0.00000000000E+00 -0.00000000000E+00 -0.70996910222E+03  0.70996910222E+03  0.00000000000E+00 0. -1.
          6    1    1    2  501    0  0.53371673871E+01 -0.50188817264E+02 -0.44316666977E+03  0.47804612740E+03  0.17200000000E+03 0. -1.
         -6    1    1    2    0  502 -0.53371673871E+01  0.50188817264E+02 -0.21714918266E+03  0.28157622461E+03  0.17200000000E+03 0.  1.
</event>
<event>
 4    1  0.1241325E+000  0.4226112E+03  0.7818608E-02  0.1036220E+00
         21   -1    0    0  503  502  0.00000000000E+00  0.00000000000E+00  0.42787753759E+03  0.42787753759E+03  0.00000000000E+00 0.  1.
         21   -1    0    0  501  503 -0.00000000000E+00 -0.00000000000E+00 -0.52147051269E+03  0.52147051269E+03  0.00000000000E+00 0. -1.
          6    1    1    2  501    0 -0.38595211363E+03  0.75602862490E+01  0.16524673898E+03  0.45376940916E+03  0.17200000000E+03 0.  1.
         -6    1    1    2    0  502  0.38595211363E+03 -0.75602862490E+01 -0.25883971408E+03  0.49557864112E+03  0.17200000000E+03 0. -1.
</event>
<event>
 4    1  0.1241325E+000  0.2938950E+03  0.7818608E-02  0.1088333E+00
         21   -1    0    0  501  502  0.00000000000E+00  0.00000000000E+00  0.40942563104E+03  0.40942563104E+03  0.00000000000E+00 0.  1.
         21   -1    0    0  502  503 -0.00000000000E+00 -0.00000000000E+00 -0.37114596770E+03  0.37114596770E+03  0.00000000000E+00 0. -1.
          6    1    1    2  501    0  0.14441507403E+03  0.18956404784E+03  0.27553900209E+03  0.40285975663E+03  0.17200000000E+03 0.  1.
         -6    1    1    2    0  503 -0.14441507403E+03 -0.18956404784E+03 -0.23725933875E+03  0.37771184210E+03  0.17200000000E+03 0. -1.
</event>
<event>
 4    1  0.1241325E+000  0.1815556E+03  0.7818608E-02  0.1166306E+00
         21   -1    0    0  501  502  0.00000000000E+00  0.00000000000E+00  0.75925620135E+03  0.75925620135E+03  0.00000000000E+00 0. -1.
         21   -1    0    0  502  503 -0.00000000000E+00 -0.00000000000E+00 -0.43820710292E+02  0.43820710292E+02  0.00000000000E+00 0. -1.
          6    1    1    2  501    0  0.43653355001E+02 -0.38377512113E+02  0.39639535356E+03  0.43599509764E+03  0.17200000000E+03 0. -1.
         -6    1    1    2    0  503 -0.43653355001E+02  0.38377512113E+02  0.31904013749E+03  0.36708181400E+03  0.17200000000E+03 0. -1.
</event>
<event>
 4    1  0.1241325E+000  0.1721720E+03  0.7818608E-02  0.1175602E+00
         21   -1    0    0  503  502  0.00000000000E+00  0.00000000000E+00  0.51923774878E+02  0.51923774878E+02  0.00000000000E+00 0. -1.
         21   -1    0    0  501  503 -0.00000000000E+00 -0.00000000000E+00 -0.14778598732E+04  0.14778598732E+04  0.00000000000E+00 0. -1.
          6    1    1    2  501    0 -0.43347702695E+01  0.63573032831E+01 -0.13121762990E+04  0.13234235320E+04  0.17200000000E+03 0. -1.
         -6    1    1    2    0  502  0.43347702695E+01 -0.63573032831E+01 -0.11375979930E+03  0.20636011600E+03  0.17200000000E+03 0. -1.
</event>
<event>
 4    1  0.1241325E+000  0.1872355E+03  0.7818608E-02  0.1160979E+00
         21   -1    0    0  503  502  0.00000000000E+00  0.00000000000E+00  0.23528353601E+03  0.23528353601E+03  0.00000000000E+00 0.  1.
         21   -1    0    0  501  503 -0.00000000000E+00 -0.00000000000E+00 -0.15208658833E+03  0.15208658833E+03  0.00000000000E+00 0.  1.
          6    1    1    2  501    0 -0.57318355737E+02  0.46773430270E+02  0.14004155036E+02  0.18775852588E+03  0.17200000000E+03 0.  1.
         -6    1    1    2    0  502  0.57318355737E+02 -0.46773430270E+02  0.69192792651E+02  0.19961159846E+03  0.17200000000E+03 0.  1.
</event>
<event>
 4    1  0.1241325E+000  0.2119596E+03  0.7818608E-02  0.1140024E+00
         21   -1    0    0  501  502  0.00000000000E+00  0.00000000000E+00  0.21404492195E+03  0.21404492195E+03  0.00000000000E+00 0. -1.
         21   -1    0    0  502  503 -0.00000000000E+00 -0.00000000000E+00 -0.21629053455E+03  0.21629053455E+03  0.00000000000E+00 0.  1.
          6    1    1    2  501    0 -0.99565505228E+02 -0.73685594697E+02  0.35878155440E+02  0.21497464673E+03  0.17200000000E+03 0.  1.
         -6    1    1    2    0  503  0.99565505228E+02  0.73685594697E+02 -0.38123768037E+02  0.21536080977E+03  0.17200000000E+03 0.  1.
</event>
<event>
 4    1  0.1241325E+000  0.2228276E+03  0.7818608E-02  0.1131792E+00
         21   -1    0    0  501  502  0.00000000000E+00  0.00000000000E+00  0.42105393671E+03  0.42105393671E+03  0.00000000000E+00 0. -1.
         21   -1    0    0  502  503 -0.00000000000E+00 -0.00000000000E+00 -0.12775802697E+03  0.12775802697E+03  0.00000000000E+00 0. -1.
          6    1    1    2  501    0  0.54790107445E+02 -0.13063760096E+03  0.22278166840E+03  0.31509333607E+03  0.17200000000E+03 0. -1.
         -6    1    1    2    0  503 -0.54790107445E+02  0.13063760096E+03  0.70514241334E+02  0.23371862761E+03  0.17200000000E+03 0. -1.
</event>
<event>
 4    1  0.1241325E+000  0.1932612E+03  0.7818608E-02  0.1155552E+00
         21   -1    0    0  501  502  0.00000000000E+00  0.00000000000E+00  0.62784919391E+03  0.62784919391E+03  0.00000000000E+00 0.  1.
         21   -1    0    0  502  503 -0.00000000000E+00 -0.00000000000E+00 -0.61088486607E+02  0.61088486607E+02  0.00000000000E+00 0.  1.
          6    1    1    2  501    0  0.11815327583E+02 -0.87328597515E+02  0.33912604759E+03  0.39032853094E+03  0.17200000000E+03 0.  1.
         -6    1    1    2    0  503 -0.11815327583E+02  0.87328597515E+02  0.22763465971E+03  0.29860914957E+03  0.17200000000E+03 0.  1.
</event>
<event>
 4    1  0.1241325E+000  0.1777974E+03  0.7818608E-02  0.1169952E+00
         21   -1    0    0  501  502  0.00000000000E+00  0.00000000000E+00  0.14872711219E+03  0.14872711219E+03  0.00000000000E+00 0. -1.
         21   -1    0    0  502  503 -0.00000000000E+00 -0.00000000000E+00 -0.33378828429E+03  0.33378828429E+03  0.00000000000E+00 0. -1.
          6    1    1    2  501    0  0.22643978113E+02  0.38925188802E+02  0.52869900252E+02  0.18549163437E+03  0.17200000000E+03 0. -1.
         -6    1    1    2    0  503 -0.22643978113E+02 -0.38925188802E+02 -0.23793107235E+03  0.29702376211E+03  0.17200000000E+03 0. -1.
</event>
<event>
 4    1  0.1241325E+000  0.2366704E+03  0.7818608E-02  0.1122031E+00
         21   -1    0    0  501  502  0.00000000000E+00  0.00000000000E+00  0.10903383388E+03  0.10903383388E+03  0.00000000000E+00 0. -1.
         21   -1    0    0  502  503 -0.00000000000E+00 -0.00000000000E+00 -0.53618928805E+03  0.53618928805E+03  0.00000000000E+00 0.  1.
          6    1    1    2  501    0  0.68528750482E+02 -0.14742007423E+03 -0.27961892072E+03  0.36633264768E+03  0.17200000000E+03 0.  1.
         -6    1    1    2    0  503 -0.68528750482E+02  0.14742007423E+03 -0.14753653344E+03  0.27889047425E+03  0.17200000000E+03 0. -1.
</event>
<event>
 4    1  0.1241325E+000  0.1996763E+03  0.7818608E-02  0.1150012E+00
         21   -1    0    0  503  502  0.00000000000E+00  0.00000000000E+00  0.39945678240E+03  0.39945678240E+03  0.00000000000E+00 0.  1.
         21   -1    0    0  501  503 -0.00000000000E+00 -0.00000000000E+00 -0.10007736256E+03  0.10007736256E+03  0.00000000000E+00 0.  1.
          6    1    1    2  501    0  0.15224965691E+01  0.10141155786E+03  0.16254854561E+03  0.25747359426E+03  0.17200000000E+03 0.  1.
         -6    1    1    2    0  502 -0.15224965691E+01 -0.10141155786E+03  0.13683087423E+03  0.24206055070E+03  0.17200000000E+03 0.  1.
</event>
<event>
 4    1  0.1241325E+000  0.2521260E+03  0.7818608E-02  0.1111969E+00
         21   -1    0    0  501  502  0.00000000000E+00  0.00000000000E+00  0.11339999848E+03  0.11339999848E+03  0.00000000000E+00 0. -1.
         21   -1    0    0  502  503 -0.00000000000E+00 -0.00000000000E+00 -0.64854507520E+03  0.64854507520E+03  0.00000000000E+00 0. -1.
          6    1    1    2  501    0 -0.11326575619E+03  0.14544547132E+03 -0.12724988190E+03  0.28241821665E+03  0.17200000000E+03 0.  1.
         -6    1    1    2    0  503  0.11326575619E+03 -0.14544547132E+03 -0.40789519482E+03  0.47952685702E+03  0.17200000000E+03 0.  1.
</event>
<event>
 4    1  0.1241325E+000  0.1805298E+03  0.7818608E-02  0.1167291E+00
         21   -1    0    0  503  502  0.00000000000E+00  0.00000000000E+00  0.16152047684E+03  0.16152047684E+03  0.00000000000E+00 0.  1.
         21   -1    0    0  501  503 -0.00000000000E+00 -0.00000000000E+00 -0.53175313536E+03  0.53175313536E+03  0.00000000000E+00 0.  1.
          6    1    1    2  501    0  0.54226659642E+02  0.81531673782E+01 -0.45817839356E+03  0.49246161787E+03  0.17200000000E+03 0.  1.
         -6    1    1    2    0  502 -0.54226659642E+02 -0.81531673782E+01  0.87945735044E+02  0.20081199433E+03  0.17200000000E+03 0.  1.
</event>
<event>
 4    1  0.1241325E+000  0.2094668E+03  0.7818608E-02  0.1141989E+00
         21   -1    0    0  503  502  0.00000000000E+00  0.00000000000E+00  0.76686321812E+03  0.76686321812E+03  0.00000000000E+00 0. -1.
         21   -1    0    0  501  503 -0.00000000000E+00 -0.00000000000E+00 -0.73089362024E+02  0.73089362024E+02  0.00000000000E+00 0.  1.
          6    1    1    2  501    0  0.22147953183E+02 -0.11748113572E+03  0.15116431275E+03  0.25831569548E+03  0.17200000000E+03 0.  1.
         -6    1    1    2    0  502 -0.22147953183E+02  0.11748113572E+03  0.54260954334E+03  0.58163688466E+03  0.17200000000E+03 0. -1.
</event>
<event>
 4    1  0.1241325E+000  0.4255881E+03  0.7818608E-02  0.1035263E+00
         21   -1    0    0  501  502  0.00000000000E+00  0.00000000000E+00  0.66701702723E+03  0.66701702723E+03  0.00000000000E+00 0. -1.
         21   -1    0    0  502  503 -0.00000000000E+00 -0.00000000000E+00 -0.27884645064E+03  0.27884645064E+03  0.00000000000E+00 0.  1.
          6    1    1    2  501    0  0.33195325979E+03  0.20334262841E+03  0.27061289544E+03  0.50433771462E+03  0.17200000000E+03 0.  1.
         -6    1    1    2    0  503 -0.33195325979E+03 -0.20334262841E+03  0.11755768116E+03  0.44152576325E+03  0.17200000000E+03 0. -1.
</event>
<event>
 4    1  0.1241325E+000  0.2528068E+03  0.7818608E-02  0.1111544E+00
         21   -1    0    0  501  502  0.00000000000E+00  0.00000000000E+00  0.23012229598E+04  0.23012229598E+04  0.00000000000E+00 0.  1.
         21   -1    0    0  502  503 -0.00000000000E+00 -0.00000000000E+00 -0.27777135608E+02  0.27777135608E+02  0.00000000000E+00 0. -1.
          6    1    1    2  501    0 -0.10442692142E+03 -0.15304350195E+03  0.11513511957E+04  0.11787793989E+04  0.17200000000E+03 0. -1.
         -6    1    1    2    0  503  0.10442692142E+03  0.15304350195E+03  0.11220946285E+04  0.11502206965E+04  0.17200000000E+03 0. -1.
</event>
<event>
 4    1  0.1241325E+000  0.1820929E+03  0.7818608E-02  0.1165793E+00
         21   -1    0    0  501  502  0.00000000000E+00  0.00000000000E+00  0.14223887647E+03  0.14223887647E+03  0.00000000000E+00 0.  1.
         21   -1    0    0  502  503 -0.00000000000E+00 -0.00000000000E+00 -0.25691721118E+03  0.25691721118E+03  0.00000000000E+00 0.  1.
          6    1    1    2  501    0 -0.53006212440E+02  0.27643312647E+02  0.34096633818E+01  0.18212478441E+03  0.17200000000E+03 0.  1.
         -6    1    1    2    0  503  0.53006212440E+02 -0.27643312647E+02 -0.11808799810E+03  0.21703130324E+03  0.17200000000E+03 0.  1.
</event>
<event>
 4    1  0.1241325E+000  0.2432123E+03  0.7818608E-02  0.1117671E+00
         21   -1    0    0  501  502  0.00000000000E+00  0.00000000000E+00  0.30806692470E+03  0.30806692470E+03  0.00000000000E+00 0. -1.
         21   -1    0    0  502  503 -0.00000000000E+00 -0.00000000000E+00 -0.24170319027E+03  0.24170319027E+03  0.00000000000E+00 0. -1.
          6    1    1    2  501    0  0.16031842382E+03  0.62178931743E+02  0.15782097139E+03  0.28993046680E+03  0.17200000000E+03 0.  1.
         -6    1    1    2    0  503 -0.16031842382E+03 -0.62178931743E+02 -0.91457236957E+02  0.25983964817E+03  0.17200000000E+03 0.  1.
</event>
<event>
 4    1  0.1241325E+000  0.1939697E+03  0.7818608E-02  0.1154929E+00
         21   -1    0    0  501  502  0.00000000000E+00  0.00000000000E+00  0.62014497697E+02  0.62014497697E+02  0.00000000000E+00 0.  1.
         21   -1    0    0  502  503 -0.00000000000E+00 -0.00000000000E+00 -0.61470825651E+03  0.61470825651E+03  0.00000000000E+00 0.  1.
          6    1    1    2  501    0 -0.89662425135E+02 -0.94638574470E+00 -0.31496518559E+03  0.36990176298E+03  0.17200000000E+03 0. -1.
         -6    1    1    2    0  503  0.89662425135E+02  0.94638574470E+00 -0.23772857322E+03  0.30682099122E+03  0.17200000000E+03 0. -1.
</event>
<event>
 4    1  0.1241325E+000  0.3103806E+03  0.7818608E-02  0.1080164E+00
         21   -1    0    0  501  502  0.00000000000E+00  0.00000000000E+00  0.17162787764E+04  0.17162787764E+04  0.00000000000E+00 0.  1.
         21   -1    0    0  502  503 -0.00000000000E+00 -0.00000000000E+00 -0.71557343812E+02  0.71557343812E+02  0.00000000000E+00 0.  1.
          6    1    1    2  501    0 -0.13164947766E+03 -0.22230732870E+03  0.40730666546E+03  0.51208871603E+03  0.17200000000E+03 0.  1.
         -6    1    1    2    0  503  0.13164947766E+03  0.22230732870E+03  0.12374147671E+04  0.12757474042E+04  0.17200000000E+03 0.  1.
</event>
<event>
 4    1  0.1241325E+000  0.2367338E+03  0.7818608E-02  0.1121988E+00
         21   -1    0    0  503  502  0.00000000000E+00  0.00000000000E+00  0.41885405137E+02  0.41885405137E+02  0.00000000000E+00 0. -1.
         21   -1    0    0  501  503 -0.00000000000E+00 -0.00000000000E+00 -0.20495381401E+04  0.20495381401E+04  0.00000000000E+00 0. -1.
          6    1    1    2  501    0  0.90135748980E+02  0.13540479249E+03 -0.38768361297E+03  0.45424827445E+03  0.17200000000E+03 0. -1.
         -6    1    1    2    0  502 -0.90135748980E+02 -0.13540479249E+03 -0.16199691220E+04  0.16371752708E+04  0.17200000000E+03 0. -1.
</event>
<event>
 4    1  0.1241325E+000  0.2003331E+03  0.7818608E-02  0.1149458E+00
         21   -1    0    0  501  502  0.00000000000E+00  0.00000000000E+00  0.13253330344E+04  0.13253330344E+04  0.00000000000E+00 0. -1.
         21   -1    0    0  502  503 -0.00000000000E+00 -0.00000000000E+00 -0.15039244653E+03  0.15039244653E+03  0.00000000000E+00 0. -1.
          6    1    1    2  501    0 -0.60625847368E+02 -0.82908815912E+02  0.12468771580E+04  0.12628681690E+04  0.17200000000E+03 0. -1.
         -6    1    1    2    0  503  0.60625847368E+02  0.82908815912E+02 -0.71936570128E+02  0.21285731194E+03  0.17200000000E+03 0. -1.
</event>
<event>
 4    1  0.1241325E+000  0.2297651E+03  0.7818608E-02  0.1126805E+00
         21   -1    0    0  501  502  0.00000000000E+00  0.00000000000E+00  0.13622254794E+04  0.13622254794E+04  0.00000000000E+00 0. -1.
         21   -1    0    0  502  503 -0.00000000000E+00 -0.00000000000E+00 -0.11172170264E+03  0.11172170264E+03  0.00000000000E+00 0.  1.
          6    1    1    2  501    0  0.96494077509E+02 -0.11788499277E+03  0.12208425099E+04  0.12422754978E+04  0.17200000000E+03 0.  1.
         -6    1    1    2    0  503 -0.96494077509E+02  0.11788499277E+03  0.29661266862E+02  0.23167168421E+03  0.17200000000E+03 0.  1.
</event>
<event>
 4    1  0.1241325E+000  0.2006774E+03  0.7818608E-02  0.1149169E+00
         21   -1    0    0  503  502  0.00000000000E+00  0.00000000000E+00  0.13221578293E+04  0.13221578293E+04  0.00000000000E+00 0. -1.
         21   -1    0    0  501  503 -0.00000000000E+00 -0.00000000000E+00 -0.31671921161E+02  0.31671921161E+02  0.00000000000E+00 0. -1.
          6    1    1    2  501    0 -0.10213160465E+03 -0.16016874643E+02  0.51276601908E+03  0.55063635483E+03  0.17200000000E+03 0.  1.
         -6    1    1    2    0  502  0.10213160465E+03  0.16016874643E+02  0.77771988908E+03  0.80319339565E+03  0.17200000000E+03 0.  1.
</event>
<event>
 4    1  0.1241325E+000  0.2099807E+03  0.7818608E-02  0.1141581E+00
         21   -1    0    0  503  502  0.00000000000E+00  0.00000000000E+00  0.38319253838E+03  0.38319253838E+03  0.00000000000E+00 0. -1.
         21   -1    0    0  501  503 -0.00000000000E+00 -0.00000000000E+00 -0.13866718164E+03  0.13866718164E+03  0.00000000000E+00 0.  1.
          6    1    1    2  501    0  0.61082957875E+02  0.10381119190E+03  0.14611990955E+02  0.21048848326E+03  0.17200000000E+03 0.  1.
         -6    1    1    2    0  502 -0.61082957875E+02 -0.10381119190E+03  0.22991336579E+03  0.31137123675E+03  0.17200000000E+03 0. -1.
</event>
<event>
 4    1  0.1241325E+000  0.1778137E+03  0.7818608E-02  0.1169936E+00
         21   -1    0    0  503  502  0.00000000000E+00  0.00000000000E+00  0.76475624693E+03  0.76475624693E+03  0.00000000000E+00 0.  1.
         21   -1    0    0  501  503 -0.00000000000E+00 -0.00000000000E+00 -0.41345413162E+02  0.41345413162E+02  0.00000000000E+00 0. -1.
          6    1    1    2  501    0 -0.18663755151E+02  0.41053145773E+02  0.36445027753E+03  0.40551411977E+03  0.17200000000E+03 0.  1.
         -6    1    1    2    0  502  0.18663755151E+02 -0.41053145773E+02  0.35896055624E+03  0.40058754033E+03  0.17200000000E+03 0. -1.
</event>
<event>
 4    1  0.1241325E+000  0.1946729E+03  0.7818608E-02  0.1154313E+00
         21   -1    0    0  501  502  0.00000000000E+00  0.00000000000E+00  0.27702045221E+02  0.27702045221E+02  0.00000000000E+00 0.  1.
         21   -1    0    0  502  503 -0.00000000000E+00 -0.00000000000E+00 -0.13976993034E+04  0.13976993034E+04  0.00000000000E+00 0. -1.
          6    1    1    2  501    0 -0.91171128954E+02 -0.11649127907E+01 -0.58118032232E+03  0.61291769335E+03  0.17200000000E+03 0. -1.
         -6    1    1    2    0  503  0.91171128954E+02  0.11649127907E+01 -0.78881693588E+03  0.81248365529E+03  0.17200000000E+03 0.  1.
</event>
<event>
 4    1  0.1241325E+000  0.2182277E+03  0.7818608E-02  0.1135211E+00
         21   -1    0    0  503  502  0.00000000000E+00  0.00000000000E+00  0.13312565669E+03  0.13312565669E+03  0.00000000000E+00 0.  1.
         21   -1    0    0  501  503 -0.00000000000E+00 -0.00000000000E+00 -0.43178758899E+03  0.43178758899E+03  0.00000000000E+00 0.  1.
          6    1    1    2  501    0 -0.97556814215E+02 -0.92314749583E+02 -0.32355501942E+02  0.22061328948E+03  0.17200000000E+03 0.  1.
         -6    1    1    2    0  502  0.97556814215E+02  0.92314749583E+02 -0.26630643035E+03  0.34429995620E+03  0.17200000000E+03 0.  1.
</event>
<event>
 4    1  0.1241325E+000  0.1766888E+03  0.7818608E-02  0.1171047E+00
         21   -1    0    0  503  502  0.00000000000E+00  0.00000000000E+00  0.54725214547E+02  0.54725214547E+02  0.00000000000E+00 0.  1.
         21   -1    0    0  501  503 -0.00000000000E+00 -0.00000000000E+00 -0.67643257442E+03  0.67643257442E+03  0.00000000000E+00 0. -1.
          6    1    1    2  501    0 -0.14435761708E+02  0.37769437109E+02 -0.45554801651E+03  0.48861325907E+03  0.17200000000E+03 0. -1.
         -6    1    1    2    0  502  0.14435761708E+02 -0.37769437109E+02 -0.16615934337E+03  0.24254452990E+03  0.17200000000E+03 0.  1.
</event>
<event>
 4    1  0.1241325E+000  0.1920482E+03  0.7818608E-02  0.1156627E+00
         21   -1    0    0  501  502  0.00000000000E+00  0.00000000000E+00  0.10223772390E+04  0.10223772390E+04  0.00000000000E+00 0.  1.
         21   -1    0    0  502  503 -0.00000000000E+00 -0.00000000000E+00 -0.37283871401E+02  0.37283871401E+02  0.00000000000E+00 0.  1.
          6    1    1    2  501    0 -0.54166144796E+02  0.66064661594E+02  0.39715241212E+03  0.44114912354E+03  0.17200000000E+03 0.  1.
         -6    1    1    2    0  503  0.54166144796E+02 -0.66064661594E+02  0.58794095550E+03  0.61851198687E+03  0.17200000000E+03 0.  1.
</event>
<event>
 4    1  0.1241325E+000  0.3794155E+03  0.7818608E-02  0.1051150E+00
         21   -1    0    0  503  502  0.00000000000E+00  0.00000000000E+00  0.38682441798E+03  0.38682441798E+03  0.00000000000E+00 0. -1.
         21   -1    0    0  501  503 -0.00000000000E+00 -0.00000000000E+00 -0.39214384092E+03  0.39214384092E+03  0.00000000000E+00 0.  1.
          6    1    1    2  501    0 -0.28304331977E+03  0.18509075446E+03 -0.90608932509E+02  0.39008471760E+03  0.17200000000E+03 0.  1.
         -6    1    1    2    0  502  0.28304331977E+03 -0.18509075446E+03  0.85289509571E+02  0.38888354130E+03  0.17200000000E+03 0.  1.
</event>
<event>
 4    1  0.1241325E+000  0.2192664E+03  0.7818608E-02  0.1134431E+00
         21   -1    0    0  501  502  0.00000000000E+00  0.00000000000E+00  0.27877635528E+02  0.27877635528E+02  0.00000000000E+00 0.  1.
         21   -1    0    0  502  503 -0.00000000000E+00 -0.00000000000E+00 -0.23179315117E+04  0.23179315117E+04  0.00000000000E+00 0.  1.
          6    1    1    2  501    0  0.82118889249E+02  0.10839857189E+03 -0.55160828919E+03  0.59359031921E+03  0.17200000000E+03 0.  1.
         -6    1    1    2    0  503 -0.82118889249E+02 -0.10839857189E+03 -0.17384455870E+04  0.17522188280E+04  0.17200000000E+03 0.  1.
</event>
<event>
 4    1  0.1241325E+000  0.2005603E+03  0.7818608E-02  0.1149267E+00
         21   -1    0    0  503  502  0.00000000000E+00  0.00000000000E+00  0.81608069068E+02  0.81608069068E+02  0.00000000000E+00 0. -1.
         21   -1    0    0  501  503 -0.00000000000E+00 -0.00000000000E+00 -0.49370266270E+03  0.49370266270E+03  0.00000000000E+00 0. -1.
          6    1    1    2  501    0  0.47471889217E+02  0.91579821850E+02 -0.21766124053E+03  0.29597442400E+03  0.17200000000E+03 0. -1.
         -6    1    1    2    0  502 -0.47471889217E+02 -0.91579821850E+02 -0.19443335310E+03  0.27933630776E+03  0.17200000000E+03 0. -1.
</event>
<event>
 4    1  0.1241325E+000  0.1766347E+03  0.7818608E-02  0.1171100E+00
         21   -1    0    0  501  502  0.00000000000E+00  0.00000000000E+00  0.29353837385E+03  0.29353837385E+03  0.00000000000E+00 0. -1.
         21   -1    0    0  502  503 -0.00000000000E+00 -0.00000000000E+00 -0.10743779271E+03  0.10743779271E+03  0.00000000000E+00 0. -1.
          6    1    1    2  501    0  0.28076926933E+02 -0.28766399644E+02  0.11378427578E+03  0.21011111582E+03  0.17200000000E+03 0.  1.
         -6    1    1    2    0  503 -0.28076926933E+02  0.28766399644E+02  0.72316305367E+02  0.19086505075E+03  0.17200000000E+03 0.  1.
</event>
<event>
 4    1  0.1241325E+000  0.3473878E+03  0.7818608E-02  0.1063692E+00
         21   -1    0    0  501  502  0.00000000000E+00  0.00000000000E+00  0.31927935180E+03  0.31927935180E+03  0.00000000000E+00 0.  1.
         21   -1    0    0  502  503 -0.00000000000E+00 -0.00000000000E+00 -0.44071670636E+03  0.44071670636E+03  0.00000000000E+00 0. -1.
          6    1    1    2  501    0  0.17670342452E+03 -0.24468382529E+03 -0.20410055311E+03  0.40290856329E+03  0.17200000000E+03 0. -1.
         -6    1    1    2    0  503 -0.17670342452E+03  0.24468382529E+03  0.82663198542E+02  0.35708749486E+03  0.17200000000E+03 0. -1.
</event>
<event>
 4    1  0.1241325E+000  0.2360563E+03  0.7818608E-02  0.1122448E+00
         21   -1    0    0  503  502  0.00000000000E+00  0.00000000000E+00  0.42429609023E+03  0.42429609023E+03  0.00000000000E+00 0.  1.
         21   -1    0    0  501  503 -0.00000000000E+00 -0.00000000000E+00 -0.14971959413E+03  0.14971959413E+03  0.00000000000E+00 0.  1.
          6    1    1    2  501    0 -0.80022185032E+02  0.14048137857E+03  0.36700026328E+02  0.23889215088E+03  0.17200000000E+03 0.  1.
         -6    1    1    2    0  502  0.80022185032E+02 -0.14048137857E+03  0.23787646977E+03  0.33512353348E+03  0.17200000000E+03 0.  1.
</event>
<event>
 4    1  0.1241325E+000  0.2971169E+03  0.7818608E-02  0.1086691E+00
         21   -1    0    0  503  502  0.00000000000E+00  0.00000000000E+00  0.71734970496E+03  0.71734970496E+03  0.00000000000E+00 0.  1.
         21   -1    0    0  501  503 -0.00000000000E+00 -0.00000000000E+00 -0.18360149702E+03  0.18360149702E+03  0.00000000000E+00 0. -1.
          6    1    1    2  501    0 -0.11241666832E+03 -0.21460886591E+03  0.82001793180E+01  0.29723007180E+03  0.17200000000E+03 0.  1.
         -6    1    1    2    0  502  0.11241666832E+03  0.21460886591E+03  0.52554802862E+03  0.60372113018E+03  0.17200000000E+03 0.  1.
</event>
<event>
 4    1  0.1241325E+000  0.1767478E+03  0.7818608E-02  0.1170988E+00
         21   -1    0    0  501  502  0.00000000000E+00  0.00000000000E+00  0.46201446148E+02  0.46201446148E+02  0.00000000000E+00 0. -1.
         21   -1    0    0  502  503 -0.00000000000E+00 -0.00000000000E+00 -0.93395813138E+03  0.93395813138E+03  0.00000000000E+00 0. -1.
          6    1    1    2  501    0 -0.36352732291E+02  0.18282446585E+02 -0.18640080930E+03  0.25687551597E+03  0.17200000000E+03 0. -1.
         -6    1    1    2    0  503  0.36352732291E+02 -0.18282446585E+02 -0.70135587593E+03  0.72328406155E+03  0.17200000000E+03 0. -1.
</event>
<event>
 4    1  0.1241325E+000  0.1978109E+03  0.7818608E-02  0.1151599E+00
         21   -1    0    0  503  502  0.00000000000E+00  0.00000000000E+00  0.12310826656E+03  0.12310826656E+03  0.00000000000E+00 0.  1.
         21   -1    0    0  501  503 -0.00000000000E+00 -0.00000000000E+00 -0.32124809206E+03  0.32124809206E+03  0.00000000000E+00 0.  1.
          6    1    1    2  501    0  0.84634392450E+02  0.48807532750E+02 -0.12194259672E+03  0.23237717731E+03  0.17200000000E+03 0.  1.
         -6    1    1    2    0  502 -0.84634392450E+02 -0.48807532750E+02 -0.76197228776E+02  0.21197918132E+03  0.17200000000E+03 0.  1.
</event>
<event>
 4    1  0.1241325E+000  0.3099731E+03  0.7818608E-02  0.1080359E+00
         21   -1    0    0  501  502  0.00000000000E+00  0.00000000000E+00  0.12924794134E+04  0.12924794134E+04  0.00000000000E+00 0. -1.
         21   -1    0    0  502  503 -0.00000000000E+00 -0.00000000000E+00 -0.98480497842E+02  0.98480497842E+02  0.00000000000E+00 0.  1.
          6    1    1    2  501    0 -0.23642460583E+03  0.10296943150E+03  0.94133351279E+03  0.99105604300E+03  0.17200000000E+03 0. -1.
         -6    1    1    2    0  503  0.23642460583E+03 -0.10296943150E+03  0.25266540273E+03  0.39990386820E+03  0.17200000000E+03 0.  1.
</event>
<event>
 4    1  0.1241325E+000  0.2207162E+03  0.7818608E-02  0.1133350E+00
         21   -1    0    0  503  502  0.00000000000E+00  0.00000000000E+00  0.11865989239E+03  0.11865989239E+03  0.00000000000E+00 0. -1.
         21   -1    0    0  501  503 -0.00000000000E+00 -0.00000000000E+00 -0.50606899903E+03  0.50606899903E+03  0.00000000000E+00 0.  1.
          6    1    1    2  501    0 -0.12514596149E+03  0.58907636903E+02 -0.32941253535E+03  0.39652016318E+03  0.17200000000E+03 0.  1.
         -6    1    1    2    0  502  0.12514596149E+03 -0.58907636903E+02 -0.57996571281E+02  0.22820872823E+03  0.17200000000E+03 0. -1.
</event>
<event>
 4    1  0.1241325E+000  0.1723191E+03  0.7818608E-02  0.1175451E+00
         21   -1    0    0  503  502  0.00000000000E+00  0.00000000000E+00  0.21776830550E+03  0.21776830550E+03  0.00000000000E+00 0. -1.
         21   -1    0    0  501  503 -0.00000000000E+00 -0.00000000000E+00 -0.13705788420E+03  0.13705788420E+03  0.00000000000E+00 0. -1.
          6    1    1    2  501    0  0.10206735093E+02  0.23864342819E+01  0.53057114591E+02  0.18030232921E+03  0.17200000000E+03 0. -1.
         -6    1    1    2    0  502 -0.10206735093E+02 -0.23864342819E+01  0.27653306704E+02  0.17452386049E+03  0.17200000000E+03 0. -1.
</event>
<event>
 4    1  0.1241325E+000  0.3428518E+03  0.7818608E-02  0.1065588E+00
         21   -1    0    0  503  502  0.00000000000E+00  0.00000000000E+00  0.14277249481E+03  0.14277249481E+03  0.00000000000E+00 0.  1.
         21   -1    0    0  501  503 -0.00000000000E+00 -0.00000000000E+00 -0.87953556161E+03  0.87953556161E+03  0.00000000000E+00 0. -1.
          6    1    1    2  501    0  0.12636454100E+03  0.26831952318E+03 -0.49760926109E+03  0.60428663767E+03  0.17200000000E+03 0.  1.
         -6    1    1    2    0  502 -0.12636454100E+03 -0.26831952318E+03 -0.23915380571E+03  0.41802141874E+03  0.17200000000E+03 0.  1.
</event>
<event>
 4    1  0.1241325E+000  0.2998499E+03  0.7818608E-02  0.1085316E+00
         21   -1    0    0  503  502  0.00000000000E+00  0.00000000000E+00  0.16060648877E+03  0.16060648877E+03  0.00000000000E+00 0. -1.
         21   -1    0    0  501  503 -0.00000000000E+00 -0.00000000000E+00 -0.56002186718E+03  0.56002186718E+03  0.00000000000E+00 0. -1.
          6    1    1    2  501    0 -0.18851083445E+03  0.15744716433E+03 -0.19278498262E+03  0.35647719953E+03  0.17200000000E+03 0. -1.
         -6    1    1    2    0  502  0.18851083445E+03 -0.15744716433E+03 -0.20663039579E+03  0.36415115642E+03  0.17200000000E+03 0. -1.
</event>
<event>
 4    1  0.1241325E+000  0.1759745E+03  0.7818608E-02  0.1171757E+00
         21   -1    0    0  503  502  0.00000000000E+00  0.00000000000E+00  0.17252594261E+04  0.17252594261E+04  0.00000000000E+00 0.  1.
         21   -1    0    0  501  503 -0.00000000000E+00 -0.00000000000E+00 -0.51279023149E+02  0.51279023149E+02  0.00000000000E+00 0.  1.
          6    1    1    2  501    0  0.28038587094E+02 -0.24430654717E+02  0.12086117706E+03  0.21348171673E+03  0.17200000000E+03 0.  1.
         -6    1    1    2    0  502 -0.28038587094E+02  0.24430654717E+02  0.15531192259E+04  0.15630567325E+04  0.17200000000E+03 0.  1.
</event>
<event>
 4    1  0.1241325E+000  0.2009933E+03  0.7818608E-02  0.1148904E+00
         21   -1    0    0  503  502  0.00000000000E+00  0.00000000000E+00  0.61099149608E+03  0.61099149608E+03  0.00000000000E+00 0.  1.
         21   -1    0    0  501  503 -0.00000000000E+00 -0.00000000000E+00 -0.87575922648E+02  0.87575922648E+02  0.00000000000E+00 0.  1.
          6    1    1    2  501    0 -0.23155389614E+02  0.10138108150E+03  0.88818843682E+02  0.21974322003E+03  0.17200000000E+03 0.  1.
         -6    1    1    2    0  502  0.23155389614E+02 -0.10138108150E+03  0.43459672975E+03  0.47882419870E+03  0.17200000000E+03 0.  1.
</event>
<event>
 4    1  0.1241325E+000  0.2031646E+03  0.7818608E-02  0.1147096E+00
         21   -1    0    0  501  502  0.00000000000E+00  0.00000000000E+00  0.56243871929E+03  0.56243871929E+03  0.00000000000E+00 0. -1.
         21   -1    0    0  502  503 -0.00000000000E+00 -0.00000000000E+00 -0.18187335568E+03  0.18187335568E+03  0.00000000000E+00 0.  1.
          6    1    1    2  501    0  0.97157890108E+02  0.47457282937E+02  0.47770965619E+03  0.51911690873E+03  0.17200000000E+03 0. -1.
         -6    1    1    2    0  503 -0.97157890108E+02 -0.47457282937E+02 -0.97144292590E+02  0.22519516624E+03  0.17200000000E+03 0.  1.
</event>
<event>
 4    1  0.1241325E+000  0.1779176E+03  0.7818608E-02  0.1169834E+00
         21   -1    0    0  501  502  0.00000000000E+00  0.00000000000E+00  0.14440781572E+03  0.14440781572E+03  0.00000000000E+00 0. -1.
         21   -1    0    0  502  503 -0.00000000000E+00 -0.00000000000E+00 -0.27498407636E+03  0.27498407636E+03  0.00000000000E+00 0. -1.
          6    1    1    2  501    0  0.37443152018E+02 -0.25859074715E+02  0.29156707584E+02  0.18029086215E+03  0.17200000000E+03 0. -1.
         -6    1    1    2    0  503 -0.37443152018E+02  0.25859074715E+02 -0.15973296822E+03  0.23910102993E+03  0.17200000000E+03 0. -1.
</event>
<event>
 4    1  0.1241325E+000  0.1996300E+03  0.7818608E-02  0.1150052E+00
         21   -1    0    0  501  502  0.00000000000E+00  0.00000000000E+00  0.48441754675E+02  0.48441754675E+02  0.00000000000E+00 0. -1.
         21   -1    0    0  502  503 -0.00000000000E+00 -0.00000000000E+00 -0.82276742623E+03  0.82276742623E+03  0.00000000000E+00 0. -1.
          6    1    1    2  501    0  0.12916154529E+02 -0.10050532995E+03 -0.38271818485E+03  0.43165421047E+03  0.17200000000E+03 0.  1.
         -6    1    1    2    0  503 -0.12916154529E+02  0.10050532995E+03 -0.39160748670E+03  0.43955497044E+03  0.17200000000E+03 0.  1.
</event>
<event>
 4    1  0.1241325E+000  0.2741818E+03  0.7818608E-02  0.1098910E+00
         21   -1    0    0  503  502  0.00000000000E+00  0.00000000000E+00  0.11958645762E+03  0.11958645762E+03  0.00000000000E+00 0. -1.
         21   -1    0    0  501  503 -0.00000000000E+00 -0.00000000000E+00 -0.85129358816E+03  0.85129358816E+03  0.00000000000E+00 0.  1.
          6    1    1    2  501    0  0.19483992703E+03  0.87344490417E+02 -0.61412132083E+03  0.67254788222E+03  0.17200000000E+03 0. -1.
         -6    1    1    2    0  502 -0.19483992703E+03 -0.87344490417E+02 -0.11758580970E+03  0.29833216356E+03  0.17200000000E+03 0. -1.
</event>
<event>
 4    1  0.1241325E+000  0.2098019E+03  0.7818608E-02  0.1141723E+00
         21   -1    0    0  501  502  0.00000000000E+00  0.00000000000E+00  0.27895440595E+04  0.27895440595E+04  0.00000000000E+00 0.  1.
         21   -1    0    0  502  503 -0.00000000000E+00 -0.00000000000E+00 -0.19987151042E+02  0.19987151042E+02  0.00000000000E+00 0.  1.
          6    1    1    2  501    0 -0.89426156314E+02  0.80223562913E+02  0.20293367554E+04  0.20401530639E+04  0.17200000000E+03 0.  1.
         -6    1    1    2    0  503  0.89426156314E+02 -0.80223562913E+02  0.74022015307E+03  0.76937814661E+03  0.17200000000E+03 0.  1.
</event>
<event>
 4    1  0.1241325E+000  0.2017751E+03  0.7818608E-02  0.1148250E+00
         21   -1    0    0  503  502  0.00000000000E+00  0.00000000000E+00  0.25881374923E+03  0.25881374923E+03  0.00000000000E+00 0.  1.
         21   -1    0    0  501  503 -0.00000000000E+00 -0.00000000000E+00 -0.21998658478E+03  0.21998658478E+03  0.00000000000E+00 0. -1.
          6    1    1    2  501    0  0.10162139950E+03 -0.28324686807E+02 -0.10837429124E+03  0.22903751597E+03  0.17200000000E+03 0. -1.
         -6    1    1    2    0  502 -0.10162139950E+03  0.28324686807E+02  0.14720145569E+03  0.24976281804E+03  0.17200000000E+03 0.  1.
</event>
<event>
 4    1  0.1241325E+000  0.1914350E+03  0.7818608E-02  0.1157173E+00
         21   -1    0    0  503  502  0.00000000000E+00  0.00000000000E+00  0.50901155535E+03  0.50901155535E+03  0.00000000000E+00 0. -1.
         21   -1    0    0  501  503 -0.00000000000E+00 -0.00000000000E+00 -0.88080293729E+02  0.88080293729E+02  0.00000000000E+00 0. -1.
          6    1    1    2  501    0  0.59234002289E+01  0.83834818094E+02  0.82892939858E+02  0.20861112835E+03  0.17200000000E+03 0. -1.
         -6    1    1    2    0  502 -0.59234002289E+01 -0.83834818094E+02  0.33803832177E+03  0.38848072073E+03  0.17200000000E+03 0. -1.
</event>
<event>
 4    1  0.1241325E+000  0.2655856E+03  0.7818608E-02  0.1103833E+00
         21   -1    0    0  503  502  0.00000000000E+00  0.00000000000E+00  0.87573273633E+03  0.87573273633E+03  0.00000000000E+00 0. -1.
         21   -1    0    0  501  503 -0.00000000000E+00 -0.00000000000E+00 -0.11196704406E+03  0.11196704406E+03  0.00000000000E+00 0. -1.
          6    1    1    2  501    0 -0.19970098149E+03  0.32729995403E+02  0.12026442309E+03  0.29154633606E+03  0.17200000000E+03 0.  1.
         -6    1    1    2    0  502  0.19970098149E+03 -0.32729995403E+02  0.64350126918E+03  0.69615344433E+03  0.17200000000E+03 0.  1.
</event>
<event>
 4    1  0.1241325E+000  0.2246055E+03  0.7818608E-02  0.1130495E+00
         21   -1    0    0  503  502  0.00000000000E+00  0.00000000000E+00  0.44237805920E+03  0.44237805920E+03  0.00000000000E+00 0. -1.
         21   -1    0    0  501  503 -0.00000000000E+00 -0.00000000000E+00 -0.11628130165E+03  0.11628130165E+03  0.00000000000E+00 0. -1.
          6    1    1    2  501    0 -0.49384648070E+02 -0.13573791136E+03  0.12424510674E+03  0.25667970429E+03  0.17200000000E+03 0.  1.
         -6    1    1    2    0  502  0.49384648070E+02  0.13573791136E+03  0.20185165080E+03  0.30197965656E+03  0.17200000000E+03 0.  1.
</event>
<event>
 4    1  0.1241325E+000  0.2102869E+03  0.7818608E-02  0.1141339E+00
         21   -1    0    0  501  502  0.00000000000E+00  0.00000000000E+00  0.15687965016E+03  0.15687965016E+03  0.00000000000E+00 0. -1.
         21   -1    0    0  502  503 -0.00000000000E+00 -0.00000000000E+00 -0.38536091452E+03  0.38536091452E+03  0.00000000000E+00 0.  1.
          6    1    1    2  501    0 -0.17744875152E+02 -0.11967323711E+03  0.26256444242E+02  0.21191971390E+03  0.17200000000E+03 0. -1.
         -6    1    1    2    0  503  0.17744875152E+02  0.11967323711E+03 -0.25473770860E+03  0.33032085078E+03  0.17200000000E+03 0.  1.
</event>
<event>
 4    1  0.1241325E+000  0.1833019E+03  0.7818608E-02  0.1164645E+00
         21   -1    0    0  501  502  0.00000000000E+00  0.00000000000E+00  0.10333228959E+04  0.10333228959E+04  0.00000000000E+00 0. -1.
         21   -1    0    0  502  503 -0.00000000000E+00 -0.00000000000E+00 -0.71723232702E+02  0.71723232702E+02  0.00000000000E+00 0. -1.
          6    1    1    2  501    0  0.52242671511E+02 -0.35865052300E+02  0.88931030565E+03  0.90800463569E+03  0.17200000000E+03 0. -1.
         -6    1    1    2    0  503 -0.52242671511E+02  0.35865052300E+02  0.72289357507E+02  0.19704149287E+03  0.17200000000E+03 0. -1.
</event>
<event>
 4    1  0.1241325E+000  0.1918905E+03  0.7818608E-02  0.1156767E+00
         21   -1    0    0  503  502  0.00000000000E+00  0.00000000000E+00  0.11473762038E+04  0.11473762038E+04  0.00000000000E+00 0.  1.
         21   -1    0    0  501  503 -0.00000000000E+00 -0.00000000000E+00 -0.33255475779E+02  0.33255475779E+02  0.00000000000E+00 0. -1.
          6    1    1    2  501    0 -0.84559234252E+02  0.93648108857E+01  0.44665965092E+03  0.48613455703E+03  0.17200000000E+03 0. -1.
         -6    1    1    2    0  502  0.84559234252E+02 -0.93648108857E+01  0.66746107705E+03  0.69449712250E+03  0.17200000000E+03 0. -1.
</event>
<event>
 4    1  0.1241325E+000  0.2222624E+03  0.7818608E-02  0.1132207E+00
         21   -1    0    0  503  502  0.00000000000E+00  0.00000000000E+00  0.10740978030E+03  0.10740978030E+03  0.00000000000E+00 0.  1.
         21   -1    0    0  501  503 -0.00000000000E+00 -0.00000000000E+00 -0.94368673341E+03  0.94368673341E+03  0.00000000000E+00 0. -1.
          6    1    1    2  501    0  0.14058192420E+03 -0.73019236212E+01 -0.79442078053E+03  0.82492725258E+03  0.17200000000E+03 0. -1.
         -6    1    1    2    0  502 -0.14058192420E+03  0.73019236212E+01 -0.41856172582E+02  0.22616926114E+03  0.17200000000E+03 0.  1.
</event>
<event>
 4    1  0.1241325E+000  0.1941682E+03  0.7818608E-02  0.1154755E+00
         21   -1    0    0  501  502  0.00000000000E+00  0.00000000000E+00  0.22624981267E+03  0.22624981267E+03  0.00000000000E+00 0.  1.
         21   -1    0    0  502  503 -0.00000000000E+00 -0.00000000000E+00 -0.16944568384E+03  0.16944568384E+03  0.00000000000E+00 0. -1.
          6    1    1    2  501    0 -0.73914125681E+02 -0.51516802975E+02  0.29235820784E+01  0.19419018074E+03  0.17200000000E+03 0.  1.
         -6    1    1    2    0  503  0.73914125681E+02  0.51516802975E+02  0.53880546751E+02  0.20150531577E+03  0.17200000000E+03 0. -1.
</event>
<event>
 4    1  0.1241325E+000  0.3528432E+03  0.7818608E-02  0.1061454E+00
         21   -1    0    0  503  502  0.00000000000E+00  0.00000000000E+00  0.48812234902E+03  0.48812234902E+03  0.00000000000E+00 0.  1.
         21   -1    0    0  501  503 -0.00000000000E+00 -0.00000000000E+00 -0.60810787436E+03  0.60810787436E+03  0.00000000000E+00 0.  1.
          6    1    1    2  501    0 -0.23771963010E+03 -0.19596862567E+03  0.35764617895E+03  0.50240333807E+03  0.17200000000E+03 0.  1.
         -6    1    1    2    0  502  0.23771963010E+03  0.19596862567E+03 -0.47763170429E+03  0.59382688532E+03  0.17200000000E+03 0.  1.
</event>
<event>
 4    1  0.1241325E+000  0.2851573E+03  0.7818608E-02  0.1092905E+00
         21   -1    0    0  501  502  0.00000000000E+00  0.00000000000E+00  0.78085506336E+03  0.78085506336E+03  0.00000000000E+00 0.  1.
         21   -1    0    0  502  503 -0.00000000000E+00 -0.00000000000E+00 -0.13737999633E+03  0.13737999633E+03  0.00000000000E+00 0. -1.
          6    1    1    2  501    0  0.19908861373E+03  0.10997453596E+03  0.54758877751E+03  0.61738816310E+03  0.17200000000E+03 0. -1.
         -6    1    1    2    0  503 -0.19908861373E+03 -0.10997453596E+03  0.95886289515E+02  0.30084689660E+03  0.17200000000E+03 0. -1.
</event>
<event>
 4    1  0.1241325E+000  0.2111776E+03  0.7818608E-02  0.1140637E+00
         21   -1    0    0  501  502  0.00000000000E+00  0.00000000000E+00  0.75893876234E+03  0.75893876234E+03  0.00000000000E+00 0. -1.
         21   -1    0    0  502  503 -0.00000000000E+00 -0.00000000000E+00 -0.76662329140E+02  0.76662329140E+02  0.00000000000E+00 0. -1.
          6    1    1    2  501    0 -0.57348474289E+00 -0.12252209411E+03  0.54303098709E+03  0.58264796006E+03  0.17200000000E+03 0.  1.
         -6    1    1    2    0  503  0.57348474289E+00  0.12252209411E+03  0.13924544611E+03  0.25295313142E+03  0.17200000000E+03 0.  1.
</event>
<event>
 4    1  0.1241325E+000  0.1924404E+03  0.7818608E-02  0.1156278E+00
         21   -1    0    0  501  502  0.00000000000E+00  0.00000000000E+00  0.88645792406E+02  0.88645792406E+02  0.00000000000E+00 0. -1.
         21   -1    0    0  502  503 -0.00000000000E+00 -0.00000000000E+00 -0.63633027453E+03  0.63633027453E+03  0.00000000000E+00 0. -1.
          6    1    1    2  501    0 -0.86273893178E+02  0.24761066854E+01 -0.61400109408E+02  0.20199824055E+03  0.17200000000E+03 0. -1.
         -6    1    1    2    0  503  0.86273893178E+02 -0.24761066854E+01 -0.48628437271E+03  0.52297782639E+03  0.17200000000E+03 0. -1.
</event>
<event>
 4    1  0.1241325E+000  0.2630362E+03  0.7818608E-02  0.1105333E+00
         21   -1    0    0  501  502  0.00000000000E+00  0.00000000000E+00  0.12534346835E+04  0.12534346835E+04  0.00000000000E+00 0. -1.
         21   -1    0    0  502  503 -0.00000000000E+00 -0.00000000000E+00 -0.56722482354E+02  0.56722482354E+02  0.00000000000E+00 0.  1.
          6    1    1    2  501    0 -0.10096867372E+02  0.19875137339E+03  0.70572215996E+03  0.75314794179E+03  0.17200000000E+03 0. -1.
         -6    1    1    2    0  503  0.10096867372E+02 -0.19875137339E+03  0.49099004119E+03  0.55700922408E+03  0.17200000000E+03 0.  1.
</event>
<event>
 4    1  0.1241325E+000  0.1902818E+03  0.7818608E-02  0.1158207E+00
         21   -1    0    0  501  502  0.00000000000E+00  0.00000000000E+00  0.86703117132E+03  0.86703117132E+03  0.00000000000E+00 0.  1.
         21   -1    0    0  502  503 -0.00000000000E+00 -0.00000000000E+00 -0.46766379926E+02  0.46766379926E+02  0.00000000000E+00 0.  1.
          6    1    1    2  501    0 -0.32441982130E+02  0.74636937392E+02  0.26064024990E+03  0.32270806389E+03  0.17200000000E+03 0. -1.
         -6    1    1    2    0  503  0.32441982130E+02 -0.74636937392E+02  0.55962454149E+03  0.59108948736E+03  0.17200000000E+03 0. -1.
</event>
<event>
 4    1  0.1241325E+000  0.1794938E+03  0.7818608E-02  0.1168294E+00
         21   -1    0    0  503  502  0.00000000000E+00  0.00000000000E+00  0.24532898381E+03  0.24532898381E+03  0.00000000000E+00 0. -1.
         21   -1    0    0  501  503 -0.00000000000E+00 -0.00000000000E+00 -0.52685756167E+03  0.52685756167E+03  0.00000000000E+00 0. -1.
          6    1    1    2  501    0  0.37106765835E+01  0.51188396361E+02 -0.47529524873E+03  0.50805865263E+03  0.17200000000E+03 0. -1.
         -6    1    1    2    0  502 -0.37106765835E+01 -0.51188396361E+02  0.19376667087E+03  0.26412789286E+03  0.17200000000E+03 0. -1.
</event>
<event>
 4    1  0.1241325E+000  0.2001423E+03  0.7818608E-02  0.1149619E+00
         21   -1    0    0  503  502  0.00000000000E+00  0.00000000000E+00  0.20034849756E+03  0.20034849756E+03  0.00000000000E+00 0. -1.
         21   -1    0    0  501  503 -0.00000000000E+00 -0.00000000000E+00 -0.25273931759E+03  0.25273931759E+03  0.00000000000E+00 0. -1.
          6    1    1    2  501    0 -0.25996333382E+02  0.98980416312E+02 -0.12974430288E+03  0.23851732912E+03  0.17200000000E+03 0. -1.
         -6    1    1    2    0  502  0.25996333382E+02 -0.98980416312E+02  0.77353482848E+02  0.21457048602E+03  0.17200000000E+03 0. -1.
</event>
<event>
 4    1  0.1241325E+000  0.2901596E+03  0.7818608E-02  0.1090266E+00
         21   -1    0    0  503  502  0.00000000000E+00  0.00000000000E+00  0.66929970161E+03  0.66929970161E+03  0.00000000000E+00 0.  1.
         21   -1    0    0  501  503 -0.00000000000E+00 -0.00000000000E+00 -0.12886213037E+03  0.12886213037E+03  0.00000000000E+00 0. -1.
          6    1    1    2  501    0 -0.21564666448E+03 -0.90028528005E+02  0.20862042705E+03  0.35737249802E+03  0.17200000000E+03 0. -1.
         -6    1    1    2    0  502  0.21564666448E+03  0.90028528005E+02  0.33181714418E+03  0.44078933396E+03  0.17200000000E+03 0.  1.
</event>
<event>
 4    1  0.1241325E+000  0.2415036E+03  0.7818608E-02  0.1118795E+00
         21   -1    0    0  503  502  0.00000000000E+00  0.00000000000E+00  0.59206289721E+02  0.59206289721E+02  0.00000000000E+00 0. -1.
         21   -1    0    0  501  503 -0.00000000000E+00 -0.00000000000E+00 -0.21522507827E+04  0.21522507827E+04  0.00000000000E+00 0. -1.
          6    1    1    2  501    0 -0.12384058706E+03  0.11577337812E+03 -0.18607877468E+04  0.18763941497E+04  0.17200000000E+03 0. -1.
         -6    1    1    2    0  502  0.12384058706E+03 -0.11577337812E+03 -0.23225674615E+03  0.33506292277E+03  0.17200000000E+03 0. -1.
</event>
<event>
 4    1  0.1241325E+000  0.1726432E+03  0.7818608E-02  0.1175119E+00
         21   -1    0    0  501  502  0.00000000000E+00  0.00000000000E+00  0.16177616322E+03  0.16177616322E+03  0.00000000000E+00 0.  1.
         21   -1    0    0  502  503 -0.00000000000E+00 -0.00000000000E+00 -0.23947014108E+03  0.23947014108E+03  0.00000000000E+00 0.  1.
          6    1    1    2  501    0 -0.12603997450E+02  0.79250009793E+01  0.57501033959E+02  0.18196712697E+03  0.17200000000E+03 0. -1.
         -6    1    1    2    0  503  0.12603997450E+02 -0.79250009793E+01 -0.13519501182E+03  0.21927917733E+03  0.17200000000E+03 0. -1.
</event>
<event>
 4    1  0.1241325E+000  0.1814718E+03  0.7818608E-02  0.1166386E+00
         21   -1    0    0  503  502  0.00000000000E+00  0.00000000000E+00  0.75579807378E+02  0.75579807378E+02  0.00000000000E+00 0. -1.
         21   -1    0    0  501  503 -0.00000000000E+00 -0.00000000000E+00 -0.61790054425E+03  0.61790054425E+03  0.00000000000E+00 0. -1.
          6    1    1    2  501    0 -0.54950921570E+02 -0.18121996947E+02 -0.45943418656E+03  0.49397548759E+03  0.17200000000E+03 0. -1.
         -6    1    1    2    0  502  0.54950921570E+02  0.18121996947E+02 -0.82886550313E+02  0.19950486404E+03  0.17200000000E+03 0. -1.
</event>
<event>
 4    1  0.1241325E+000  0.2159363E+03  0.7818608E-02  0.1136949E+00
         21   -1    0    0  503  502  0.00000000000E+00  0.00000000000E+00  0.82379850410E+02  0.82379850410E+02  0.00000000000E+00 0. -1.
         21   -1    0    0  501  503 -0.00000000000E+00 -0.00000000000E+00 -0.75207919973E+03  0.75207919973E+03  0.00000000000E+00 0. -1.
          6    1    1    2  501    0 -0.10789038667E+03  0.73512951943E+02 -0.54237494617E+03  0.58377998584E+03  0.17200000000E+03 0. -1.
         -6    1    1    2    0  502  0.10789038667E+03 -0.73512951943E+02 -0.12732440315E+03  0.25067906430E+03  0.17200000000E+03 0. -1.
</event>
<event>
 4    1  0.1241325E+000  0.2271128E+03  0.7818608E-02  0.1128689E+00
         21   -1    0    0  503  502  0.00000000000E+00  0.00000000000E+00  0.40742058635E+03  0.40742058635E+03  0.00000000000E+00 0.  1.
         21   -1    0    0  501  503 -0.00000000000E+00 -0.00000000000E+00 -0.17342857714E+03  0.17342857714E+03  0.00000000000E+00 0.  1.
          6    1    1    2  501    0 -0.10930912775E+03 -0.10023838964E+03 -0.33914584484E+02  0.22963105019E+03  0.17200000000E+03 0.  1.
         -6    1    1    2    0  502  0.10930912775E+03  0.10023838964E+03  0.26790659369E+03  0.35121811330E+03  0.17200000000E+03 0.  1.
</event>
<event>
 4    1  0.1241325E+000  0.1982316E+03  0.7818608E-02  0.1151240E+00
         21   -1    0    0  501  502  0.00000000000E+00  0.00000000000E+00  0.12700168814E+03  0.12700168814E+03  0.00000000000E+00 0. -1.
         21   -1    0    0  502  503 -0.00000000000E+00 -0.00000000000E+00 -0.38753708458E+03  0.38753708458E+03  0.00000000000E+00 0.  1.
          6    1    1    2  501    0 -0.97049829689E+02  0.17119665152E+02 -0.14755251437E+02  0.19877995327E+03  0.17200000000E+03 0. -1.
         -6    1    1    2    0  503  0.97049829689E+02 -0.17119665152E+02 -0.24578014501E+03  0.31575881945E+03  0.17200000000E+03 0.  1.
</event>
<event>
 4    1  0.1241325E+000  0.1919035E+03  0.7818608E-02  0.1156756E+00
         21   -1    0    0  503  502  0.00000000000E+00  0.00000000000E+00  0.24615104202E+03  0.24615104202E+03  0.00000000000E+00 0.  1.
         21   -1    0    0  501  503 -0.00000000000E+00 -0.00000000000E+00 -0.40954246825E+03  0.40954246825E+03  0.00000000000E+00 0.  1.
          6    1    1    2  501    0 -0.46687990879E+02 -0.71156130069E+02 -0.34288216454E+03  0.39293147252E+03  0.17200000000E+03 0.  1.
         -6    1    1    2    0  502  0.46687990879E+02  0.71156130069E+02  0.17949073831E+03  0.26276203774E+03  0.17200000000E+03 0.  1.
</event>
<event>
 4    1  0.1241325E+000  0.2768678E+03  0.7818608E-02  0.1097412E+00
         21   -1    0    0  501  502  0.00000000000E+00  0.00000000000E+00  0.35277138078E+02  0.35277138078E+02  0.00000000000E+00 0.  1.
         21   -1    0    0  502  503 -0.00000000000E+00 -0.00000000000E+00 -0.22167952090E+04  0.22167952090E+04  0.00000000000E+00 0. -1.
          6    1    1    2  501    0  0.18873471977E+03 -0.10700927410E+03 -0.93241364826E+03  0.97265152581E+03  0.17200000000E+03 0.  1.
         -6    1    1    2    0  503 -0.18873471977E+03  0.10700927410E+03 -0.12491044226E+04  0.12794208212E+04  0.17200000000E+03 0. -1.
</event>
<event>
 4    1  0.1241325E+000  0.3311208E+03  0.7818608E-02  0.1070642E+00
         21   -1    0    0  503  502  0.00000000000E+00  0.00000000000E+00  0.12076630230E+03  0.12076630230E+03  0.00000000000E+00 0. -1.
         21   -1    0    0  501  503 -0.00000000000E+00 -0.00000000000E+00 -0.13590628551E+04  0.13590628551E+04  0.00000000000E+00 0.  1.
          6    1    1    2  501    0  0.19949486801E+03 -0.20064594486E+03 -0.19282469622E+03  0.38317406100E+03  0.17200000000E+03 0. -1.
         -6    1    1    2    0  502 -0.19949486801E+03  0.20064594486E+03 -0.10454718565E+04  0.10966550964E+04  0.17200000000E+03 0.  1.
</event>
<event>
 4    1  0.1241325E+000  0.1883416E+03  0.7818608E-02  0.1159966E+00
         21   -1    0    0  503  502  0.00000000000E+00  0.00000000000E+00  0.94007584193E+02  0.94007584193E+02  0.00000000000E+00 0. -1.
         21   -1    0    0  501  503 -0.00000000000E+00 -0.00000000000E+00 -0.38591925590E+03  0.38591925590E+03  0.00000000000E+00 0.  1.
          6    1    1    2  501    0  0.56687129631E+02  0.51721809304E+02 -0.18173974185E+03  0.26172869539E+03  0.17200000000E+03 0.  1.
         -6    1    1    2    0  502 -0.56687129631E+02 -0.51721809304E+02 -0.11017192986E+03  0.21819814470E+03  0.17200000000E+03 0. -1.
</event>
<event>
 4    1  0.1241325E+000  0.1944544E+03  0.7818608E-02  0.1154504E+00
         21   -1    0    0  501  502  0.00000000000E+00  0.00000000000E+00  0.31847905161E+02  0.31847905161E+02  0.00000000000E+00 0.  1.
         21   -1    0    0  502  503 -0.00000000000E+00 -0.00000000000E+00 -0.13599452647E+04  0.13599452647E+04  0.00000000000E+00 0.  1.
          6    1    1    2  501    0 -0.87213086526E+02  0.24947771776E+02 -0.41608890659E+03  0.45928476130E+03  0.17200000000E+03 0. -1.
         -6    1    1    2    0  503  0.87213086526E+02 -0.24947771776E+02 -0.91200845292E+03  0.93250840853E+03  0.17200000000E+03 0. -1.
</event>
<event>
 4    1  0.1241325E+000  0.2110250E+03  0.7818608E-02  0.1140757E+00
         21   -1    0    0  501  502  0.00000000000E+00  0.00000000000E+00  0.24169218521E+03  0.24169218521E+03  0.00000000000E+00 0. -1.
         21   -1    0    0  502  503 -0.00000000000E+00 -0.00000000000E+00 -0.26120589029E+03  0.26120589029E+03  0.00000000000E+00 0.  1.
          6    1    1    2  501    0 -0.12062250343E+03 -0.19943731346E+02  0.12672731691E+03  0.24615311009E+03  0.17200000000E+03 0. -1.
         -6    1    1    2    0  503  0.12062250343E+03  0.19943731346E+02 -0.14624102199E+03  0.25674496542E+03  0.17200000000E+03 0.  1.
</event>
<event>
 4    1  0.1241325E+000  0.1903188E+03  0.7818608E-02  0.1158174E+00
         21   -1    0    0  501  502  0.00000000000E+00  0.00000000000E+00  0.17051729699E+03  0.17051729699E+03  0.00000000000E+00 0. -1.
         21   -1    0    0  502  503 -0.00000000000E+00 -0.00000000000E+00 -0.21417208243E+03  0.21417208243E+03  0.00000000000E+00 0. -1.
          6    1    1    2  501    0  0.64899952543E+02  0.49246819904E+02 -0.44294197368E+01  0.19037035712E+03  0.17200000000E+03 0.  1.
         -6    1    1    2    0  503 -0.64899952543E+02 -0.49246819904E+02 -0.39225365705E+02  0.19431902229E+03  0.17200000000E+03 0.  1.
</event>
<event>
 4    1  0.1241325E+000  0.2718474E+03  0.7818608E-02  0.1100227E+00
         21   -1    0    0  503  502  0.00000000000E+00  0.00000000000E+00  0.27263491982E+03  0.27263491982E+03  0.00000000000E+00 0. -1.
         21   -1    0    0  501  503 -0.00000000000E+00 -0.00000000000E+00 -0.40369792842E+03  0.40369792842E+03  0.00000000000E+00 0. -1.
          6    1    1    2  501    0  0.76694939645E+02  0.19604823209E+03 -0.25936662842E+03  0.37572871997E+03  0.17200000000E+03 0. -1.
         -6    1    1    2    0  502 -0.76694939645E+02 -0.19604823209E+03  0.12830361982E+03  0.30060412827E+03  0.17200000000E+03 0. -1.
</event>
<event>
 4    1  0.1241325E+000  0.1876088E+03  0.7818608E-02  0.1160636E+00
         21   -1    0    0  503  502  0.00000000000E+00  0.00000000000E+00  0.23969953035E+02  0.23969953035E+02  0.00000000000E+00 0.  1.
         21   -1    0    0  501  503 -0.00000000000E+00 -0.00000000000E+00 -0.17900460246E+04  0.17900460246E+04  0.00000000000E+00 0.  1.
          6    1    1    2  501    0 -0.62107342604E+02  0.41901492716E+02 -0.12675235580E+04  0.12813325202E+04  0.17200000000E+03 0. -1.
         -6    1    1    2    0  502  0.62107342604E+02 -0.41901492716E+02 -0.49855251350E+03  0.53268345742E+03  0.17200000000E+03 0. -1.
</event>
<event>
 4    1  0.1241325E+000  0.1824563E+03  0.7818608E-02  0.1165447E+00
         21   -1    0    0  503  502  0.00000000000E+00  0.00000000000E+00  0.19248166221E+04  0.19248166221E+04  0.00000000000E+00 0. -1.
         21   -1    0    0  501  503 -0.00000000000E+00 -0.00000000000E+00 -0.36187633044E+02  0.36187633044E+02  0.00000000000E+00 0. -1.
          6    1    1    2  501    0  0.58301676262E+02 -0.17528010921E+02  0.23586150904E+03  0.29819619056E+03  0.17200000000E+03 0. -1.
         -6    1    1    2    0  502 -0.58301676262E+02  0.17528010921E+02  0.16527674800E+04  0.16628080646E+04  0.17200000000E+03 0. -1.
</event>
<event>
 4    1  0.1241325E+000  0.2042188E+03  0.7818608E-02  0.1146228E+00
         21   -1    0    0  501  502  0.00000000000E+00  0.00000000000E+00  0.42416763017E+03  0.42416763017E+03  0.00000000000E+00 0. -1.
         21   -1    0    0  502  503 -0.00000000000E+00 -0.00000000000E+00 -0.10570341389E+03  0.10570341389E+03  0.00000000000E+00 0. -1.
          6    1    1    2  501    0 -0.85375193231E+02  0.69515553414E+02  0.89224885412E+02  0.22285963287E+03  0.17200000000E+03 0. -1.
         -6    1    1    2    0  503  0.85375193231E+02 -0.69515553414E+02  0.22923933086E+03  0.30701141119E+03  0.17200000000E+03 0. -1.
</event>
<event>
 4    1  0.1241325E+000  0.1725604E+03  0.7818608E-02  0.1175204E+00
         21   -1    0    0  503  502  0.00000000000E+00  0.00000000000E+00  0.41803044971E+03  0.41803044971E+03  0.00000000000E+00 0.  1.
         21   -1    0    0  501  503 -0.00000000000E+00 -0.00000000000E+00 -0.81693339730E+02  0.81693339730E+02  0.00000000000E+00 0.  1.
          6    1    1    2  501    0  0.56332899273E+01 -0.12703151693E+02  0.78755199971E+02  0.18968259156E+03  0.17200000000E+03 0.  1.
         -6    1    1    2    0  502 -0.56332899273E+01  0.12703151693E+02  0.25758191001E+03  0.31004119788E+03  0.17200000000E+03 0.  1.
</event>
<event>
 4    1  0.1241325E+000  0.1805089E+03  0.7818608E-02  0.1167311E+00
         21   -1    0    0  501  502  0.00000000000E+00  0.00000000000E+00  0.25505196780E+03  0.25505196780E+03  0.00000000000E+00 0. -1.
         21   -1    0    0  502  503 -0.00000000000E+00 -0.00000000000E+00 -0.33580697021E+03  0.33580697021E+03  0.00000000000E+00 0. -1.
          6    1    1    2  501    0 -0.52844642915E+02 -0.14383943087E+02  0.19216256015E+03  0.26364730916E+03  0.17200000000E+03 0. -1.
         -6    1    1    2    0  503  0.52844642915E+02  0.14383943087E+02 -0.27291756255E+03  0.32721162885E+03  0.17200000000E+03 0. -1.
</event>
<event>
 4    1  0.1241325E+000  0.1936061E+03  0.7818608E-02  0.1155249E+00
         21   -1    0    0  503  502  0.00000000000E+00  0.00000000000E+00  0.69099202177E+03  0.69099202177E+03  0.00000000000E+00 0.  1.
         21   -1    0    0  501  503 -0.00000000000E+00 -0.00000000000E+00 -0.59078167362E+02  0.59078167362E+02  0.00000000000E+00 0. -1.
          6    1    1    2  501    0 -0.75562004022E+02 -0.46794242800E+02  0.42321863502E+03  0.46540018332E+03  0.17200000000E+03 0.  1.
         -6    1    1    2    0  502  0.75562004022E+02  0.46794242800E+02  0.20869521939E+03  0.28467000581E+03  0.17200000000E+03 0. -1.
</event>
<event>
 4    1  0.1241325E+000  0.1955299E+03  0.7818608E-02  0.1153566E+00
         21   -1    0    0  503  502  0.00000000000E+00  0.00000000000E+00  0.61729925716E+03  0.61729925716E+03  0.00000000000E+00 0.  1.
         21   -1    0    0  501  503 -0.00000000000E+00 -0.00000000000E+00 -0.75733874048E+02  0.75733874048E+02  0.00000000000E+00 0. -1.
          6    1    1    2  501    0 -0.81555485347E+02 -0.44683644376E+02  0.12286722292E+03  0.23092916605E+03  0.17200000000E+03 0. -1.
         -6    1    1    2    0  502  0.81555485347E+02  0.44683644376E+02  0.41869816020E+03  0.46210396516E+03  0.17200000000E+03 0.  1.
</event>
<event>
 4    1  0.1241325E+000  0.2229904E+03  0.7818608E-02  0.1131673E+00
         21   -1    0    0  503  502  0.00000000000E+00  0.00000000000E+00  0.46739700238E+03  0.46739700238E+03  0.00000000000E+00 0.  1.
         21   -1    0    0  501  503 -0.00000000000E+00 -0.00000000000E+00 -0.11138322098E+03  0.11138322098E+03  0.00000000000E+00 0.  1.
          6    1    1    2  501    0  0.30320527625E+02 -0.13864112738E+03  0.11671266443E+03  0.25168739070E+03  0.17200000000E+03 0.  1.
         -6    1    1    2    0  502 -0.30320527625E+02  0.13864112738E+03  0.23930111697E+03  0.32709283266E+03  0.17200000000E+03 0.  1.
</event>
<event>
 4    1  0.1241325E+000  0.1780099E+03  0.7818608E-02  0.1169743E+00
         21   -1    0    0  503  502  0.00000000000E+00  0.00000000000E+00  0.12554268448E+03  0.12554268448E+03  0.00000000000E+00 0.  1.
         21   -1    0    0  501  503 -0.00000000000E+00 -0.00000000000E+00 -0.27305190580E+03  0.27305190580E+03  0.00000000000E+00 0.  1.
          6    1    1    2  501    0 -0.14240538961E+02 -0.43597183642E+02 -0.12855884988E+03  0.21957888162E+03  0.17200000000E+03 0.  1.
         -6    1    1    2    0  502  0.14240538961E+02  0.43597183642E+02 -0.18950371441E+02  0.17901570867E+03  0.17200000000E+03 0.  1.
</event>
<event>
 4    1  0.1241325E+000  0.1803440E+03  0.7818608E-02  0.1167471E+00
         21   -1    0    0  503  502  0.00000000000E+00  0.00000000000E+00  0.11656015160E+03  0.11656015160E+03  0.00000000000E+00 0.  1.
         21   -1    0    0  501  503 -0.00000000000E+00 -0.00000000000E+00 -0.73491400780E+03  0.73491400780E+03  0.00000000000E+00 0.  1.
          6    1    1    2  501    0  0.12644808453E+02  0.52726420205E+02 -0.64448933796E+03  0.66924619784E+03  0.17200000000E+03 0.  1.
         -6    1    1    2    0  502 -0.12644808453E+02 -0.52726420205E+02  0.26135481766E+02  0.18222796156E+03  0.17200000000E+03 0.  1.
</event>
<event>
 4    1  0.1241325E+000  0.2152679E+03  0.7818608E-02  0.1137461E+00
         21   -1    0    0  503  502  0.00000000000E+00  0.00000000000E+00  0.70811430377E+03  0.70811430377E+03  0.00000000000E+00 0.  1.
         21   -1    0    0  501  503 -0.00000000000E+00 -0.00000000000E+00 -0.12449745912E+03  0.12449745912E+03  0.00000000000E+00 0. -1.
          6    1    1    2  501    0 -0.49180635694E+02 -0.11973950668E+03  0.57853173949E+03  0.61728377428E+03  0.17200000000E+03 0.  1.
         -6    1    1    2    0  502  0.49180635694E+02  0.11973950668E+03  0.50851051667E+01  0.21532798861E+03  0.17200000000E+03 0. -1.
</event>
<event>
 4    1  0.1241325E+000  0.2490518E+03  0.7818608E-02  0.1113906E+00
         21   -1    0    0  501  502  0.00000000000E+00  0.00000000000E+00  0.14392861407E+03  0.14392861407E+03  0.00000000000E+00 0. -1.
         21   -1    0    0  502  503 -0.00000000000E+00 -0.00000000000E+00 -0.53386917964E+03  0.53386917964E+03  0.00000000000E+00 0. -1.
          6    1    1    2  501    0  0.41172274263E+02 -0.17535009907E+03 -0.46174886251E+02  0.25329613801E+03  0.17200000000E+03 0. -1.
         -6    1    1    2    0  503 -0.41172274263E+02  0.17535009907E+03 -0.34376567932E+03  0.42450165570E+03  0.17200000000E+03 0. -1.
</event>
<event>
 4    1  0.1241325E+000  0.2274943E+03  0.7818608E-02  0.1128416E+00
         21   -1    0    0  501  502  0.00000000000E+00  0.00000000000E+00  0.45173056918E+03  0.45173056918E+03  0.00000000000E+00 0. -1.
         21   -1    0    0  502  503 -0.00000000000E+00 -0.00000000000E+00 -0.12949143856E+03  0.12949143856E+03  0.00000000000E+00 0. -1.
          6    1    1    2  501    0  0.13753412940E+03 -0.57043972778E+02  0.62461420656E+02  0.23591329054E+03  0.17200000000E+03 0.  1.
         -6    1    1    2    0  503 -0.13753412940E+03  0.57043972778E+02  0.25977770996E+03  0.34530871720E+03  0.17200000000E+03 0.  1.
</event>
<event>
 4    1  0.1241325E+000  0.1731313E+03  0.7818608E-02  0.1174621E+00
         21   -1    0    0  503  502  0.00000000000E+00  0.00000000000E+00  0.56070538883E+02  0.56070538883E+02  0.00000000000E+00 0.  1.
         21   -1    0    0  501  503 -0.00000000000E+00 -0.00000000000E+00 -0.53461393413E+03  0.53461393413E+03  0.00000000000E+00 0.  1.
          6    1    1    2  501    0 -0.19075329471E+02  0.51548881510E+01 -0.24146309630E+03  0.29711759952E+03  0.17200000000E+03 0.  1.
         -6    1    1    2    0  502  0.19075329471E+02 -0.51548881510E+01 -0.23708029894E+03  0.29356687349E+03  0.17200000000E+03 0.  1.
</event>
<event>
 4    1  0.1241325E+000  0.1736280E+03  0.7818608E-02  0.1174116E+00
         21   -1    0    0  501  502  0.00000000000E+00  0.00000000000E+00  0.34908354958E+03  0.34908354958E+03  0.00000000000E+00 0. -1.
         21   -1    0    0  502  503 -0.00000000000E+00 -0.00000000000E+00 -0.97442720117E+02  0.97442720117E+02  0.00000000000E+00 0. -1.
          6    1    1    2  501    0  0.17656301710E+02 -0.15840626502E+02  0.20111710378E+03  0.26569674419E+03  0.17200000000E+03 0.  1.
         -6    1    1    2    0  503 -0.17656301710E+02  0.15840626502E+02  0.50523725677E+02  0.18082952551E+03  0.17200000000E+03 0.  1.
</event>
<event>
 4    1  0.1241325E+000  0.1988633E+03  0.7818608E-02  0.1150702E+00
         21   -1    0    0  501  502  0.00000000000E+00  0.00000000000E+00  0.40766818078E+03  0.40766818078E+03  0.00000000000E+00 0. -1.
         21   -1    0    0  502  503 -0.00000000000E+00 -0.00000000000E+00 -0.98436366662E+02  0.98436366662E+02  0.00000000000E+00 0. -1.
          6    1    1    2  501    0  0.67421433069E+02  0.73599885211E+02  0.12412066877E+03  0.23441956650E+03  0.17200000000E+03 0. -1.
         -6    1    1    2    0  503 -0.67421433069E+02 -0.73599885211E+02  0.18511114535E+03  0.27168498095E+03  0.17200000000E+03 0. -1.
</event>
<event>
 4    1  0.1241325E+000  0.1887070E+03  0.7818608E-02  0.1159633E+00
         21   -1    0    0  503  502  0.00000000000E+00  0.00000000000E+00  0.13233575015E+04  0.13233575015E+04  0.00000000000E+00 0.  1.
         21   -1    0    0  501  503 -0.00000000000E+00 -0.00000000000E+00 -0.45461385318E+02  0.45461385318E+02  0.00000000000E+00 0. -1.
          6    1    1    2  501    0 -0.36821306316E+02 -0.68341344355E+02  0.20173465344E+03  0.27623761211E+03  0.17200000000E+03 0. -1.
         -6    1    1    2    0  502  0.36821306316E+02  0.68341344355E+02  0.10761614628E+04  0.10925812747E+04  0.17200000000E+03 0.  1.
</event>
<event>
 4    1  0.1241325E+000  0.2282138E+03  0.7818608E-02  0.1127903E+00
         21   -1    0    0  503  502  0.00000000000E+00  0.00000000000E+00  0.12854753055E+03  0.12854753055E+03  0.00000000000E+00 0. -1.
         21   -1    0    0  501  503 -0.00000000000E+00 -0.00000000000E+00 -0.40581516250E+03  0.40581516250E+03  0.00000000000E+00 0. -1.
          6    1    1    2  501    0  0.30777909182E+02 -0.14680007067E+03 -0.14941858364E+03  0.27277729667E+03  0.17200000000E+03 0.  1.
         -6    1    1    2    0  502 -0.30777909182E+02  0.14680007067E+03 -0.12784904831E+03  0.26158539638E+03  0.17200000000E+03 0.  1.
</event>
<event>
 4    1  0.1241325E+000  0.1734533E+03  0.7818608E-02  0.1174294E+00
         21   -1    0    0  503  502  0.00000000000E+00  0.00000000000E+00  0.24912031527E+03  0.24912031527E+03  0.00000000000E+00 0. -1.
         21   -1    0    0  501  503 -0.00000000000E+00 -0.00000000000E+00 -0.14562963527E+03  0.14562963527E+03  0.00000000000E+00 0. -1.
          6    1    1    2  501    0  0.20955457802E+02 -0.79312508328E+01 -0.29804376630E+02  0.17599527499E+03  0.17200000000E+03 0. -1.
         -6    1    1    2    0  502 -0.20955457802E+02  0.79312508328E+01  0.13329505664E+03  0.21875467555E+03  0.17200000000E+03 0. -1.
</event>
<event>
 4    1  0.1241325E+000  0.2310715E+03  0.7818608E-02  0.1125888E+00
         21   -1    0    0  503  502  0.00000000000E+00  0.00000000000E+00  0.13919647106E+03  0.13919647106E+03  0.00000000000E+00 0.  1.
         21   -1    0    0  501  503 -0.00000000000E+00 -0.00000000000E+00 -0.41615410928E+03  0.41615410928E+03  0.00000000000E+00 0.  1.
          6    1    1    2  501    0  0.15181074977E+03  0.27632269847E+02 -0.21615635976E+03  0.31641368167E+03  0.17200000000E+03 0.  1.
         -6    1    1    2    0  502 -0.15181074977E+03 -0.27632269847E+02 -0.60801278458E+02  0.23893689867E+03  0.17200000000E+03 0.  1.
</event>
<event>
 4    1  0.1241325E+000  0.1802641E+03  0.7818608E-02  0.1167548E+00
         21   -1    0    0  503  502  0.00000000000E+00  0.00000000000E+00  0.19337249738E+03  0.19337249738E+03  0.00000000000E+00 0. -1.
         21   -1    0    0  501  503 -0.00000000000E+00 -0.00000000000E+00 -0.31294075445E+03  0.31294075445E+03  0.00000000000E+00 0. -1.
          6    1    1    2  501    0 -0.51363936726E+02  0.16519456000E+02 -0.23204518717E+03  0.29383688555E+03  0.17200000000E+03 0. -1.
         -6    1    1    2    0  502  0.51363936726E+02 -0.16519456000E+02  0.11247693010E+03  0.21247636628E+03  0.17200000000E+03 0. -1.
</event>
<event>
 4    1  0.1241325E+000  0.1788101E+03  0.7818608E-02  0.1168960E+00
         21   -1    0    0  501  502  0.00000000000E+00  0.00000000000E+00  0.25328171474E+04  0.25328171474E+04  0.00000000000E+00 0.  1.
         21   -1    0    0  502  503 -0.00000000000E+00 -0.00000000000E+00 -0.17960576351E+02  0.17960576351E+02  0.00000000000E+00 0.  1.
          6    1    1    2  501    0 -0.20418102278E+02  0.44408815472E+02  0.19526667620E+04  0.19608366901E+04  0.17200000000E+03 0.  1.
         -6    1    1    2    0  503  0.20418102278E+02 -0.44408815472E+02  0.56218980900E+03  0.58994103361E+03  0.17200000000E+03 0.  1.
</event>
<event>
 4    1  0.1241325E+000  0.1817704E+03  0.7818608E-02  0.1166101E+00
         21   -1    0    0  501  502  0.00000000000E+00  0.00000000000E+00  0.10381909828E+03  0.10381909828E+03  0.00000000000E+00 0. -1.
         21   -1    0    0  502  503 -0.00000000000E+00 -0.00000000000E+00 -0.32277808199E+03  0.32277808199E+03  0.00000000000E+00 0. -1.
          6    1    1    2  501    0  0.14986883443E+02 -0.56849405483E+02 -0.84216917286E+02  0.20033210111E+03  0.17200000000E+03 0. -1.
         -6    1    1    2    0  503 -0.14986883443E+02  0.56849405483E+02 -0.13474206643E+03  0.22626507915E+03  0.17200000000E+03 0. -1.
</event>
<event>
 4    1  0.1241325E+000  0.2495612E+03  0.7818608E-02  0.1113582E+00
         21   -1    0    0  503  502  0.00000000000E+00  0.00000000000E+00  0.16603950167E+04  0.16603950167E+04  0.00000000000E+00 0. -1.
         21   -1    0    0  501  503 -0.00000000000E+00 -0.00000000000E+00 -0.55093151934E+02  0.55093151934E+02  0.00000000000E+00 0.  1.
          6    1    1    2  501    0 -0.30603163492E+02 -0.17821397383E+03  0.31807474505E+03  0.40429236639E+03  0.17200000000E+03 0.  1.
         -6    1    1    2    0  502  0.30603163492E+02  0.17821397383E+03  0.12872271197E+04  0.13111958023E+04  0.17200000000E+03 0.  1.
</event>
<event>
 4    1  0.1241325E+000  0.1795622E+03  0.7818608E-02  0.1168227E+00
         21   -1    0    0  503  502  0.00000000000E+00  0.00000000000E+00  0.13042046614E+03  0.13042046614E+03  0.00000000000E+00 0.  1.
         21   -1    0    0  501  503 -0.00000000000E+00 -0.00000000000E+00 -0.40436879999E+03  0.40436879999E+03  0.00000000000E+00 0. -1.
          6    1    1    2  501    0 -0.25725358173E+02  0.44685307418E+02  0.29719521474E+02  0.18200500188E+03  0.17200000000E+03 0.  1.
         -6    1    1    2    0  502  0.25725358173E+02 -0.44685307418E+02 -0.30366785532E+03  0.35278426426E+03  0.17200000000E+03 0. -1.
</event>
<event>
 4    1  0.1241325E+000  0.1908577E+03  0.7818608E-02  0.1157690E+00
         21   -1    0    0  503  502  0.00000000000E+00  0.00000000000E+00  0.35357288215E+03  0.35357288215E+03  0.00000000000E+00 0.  1.
         21   -1    0    0  501  503 -0.00000000000E+00 -0.00000000000E+00 -0.17153480868E+03  0.17153480868E+03  0.00000000000E+00 0.  1.
          6    1    1    2  501    0 -0.65566918169E+02  0.50434495803E+02 -0.74909203179E+02  0.20503182154E+03  0.17200000000E+03 0.  1.
         -6    1    1    2    0  502  0.65566918169E+02 -0.50434495803E+02  0.25694727664E+03  0.32007586928E+03  0.17200000000E+03 0.  1.
</event>
<event>
 4    1  0.1241325E+000  0.1823838E+03  0.7818608E-02  0.1165516E+00
         21   -1    0    0  501  502  0.00000000000E+00  0.00000000000E+00  0.18978467725E+03  0.18978467725E+03  0.00000000000E+00 0.  1.
         21   -1    0    0  502  503 -0.00000000000E+00 -0.00000000000E+00 -0.19752249596E+03  0.19752249596E+03  0.00000000000E+00 0.  1.
          6    1    1    2  501    0 -0.57980265148E+02 -0.17836306665E+02  0.61127893394E+02  0.19235504759E+03  0.17200000000E+03 0. -1.
         -6    1    1    2    0  503  0.57980265148E+02  0.17836306665E+02 -0.68865712102E+02  0.19495212562E+03  0.17200000000E+03 0. -1.
</event>
<event>
 4    1  0.1241325E+000  0.1853219E+03  0.7818608E-02  0.1162750E+00
         21   -1    0    0  503  502  0.00000000000E+00  0.00000000000E+00  0.16046126818E+02  0.16046126818E+02  0.00000000000E+00 0.  1.
         21   -1    0    0  501  503 -0.00000000000E+00 -0.00000000000E+00 -0.23350689447E+04  0.23350689447E+04  0.00000000000E+00 0. -1.
          6    1    1    2  501    0  0.52028810935E+02 -0.45312254281E+02 -0.14989859209E+04  0.15103982881E+04  0.17200000000E+03 0.  1.
         -6    1    1    2    0  502 -0.52028810935E+02  0.45312254281E+02 -0.82003689699E+03  0.84071678345E+03  0.17200000000E+03 0.  1.
</event>
<event>
 4    1  0.1241325E+000  0.2712670E+03  0.7818608E-02  0.1100557E+00
         21   -1    0    0  503  502  0.00000000000E+00  0.00000000000E+00  0.30795326182E+02  0.30795326182E+02  0.00000000000E+00 0.  1.
         21   -1    0    0  501  503 -0.00000000000E+00 -0.00000000000E+00 -0.24995831518E+04  0.24995831518E+04  0.00000000000E+00 0. -1.
          6    1    1    2  501    0 -0.20812789686E+03  0.26164666695E+02 -0.14998898161E+04  0.15242228418E+04  0.17200000000E+03 0. -1.
         -6    1    1    2    0  502  0.20812789686E+03 -0.26164666695E+02 -0.96889800954E+03  0.10061556361E+04  0.17200000000E+03 0. -1.
</event>
<event>
 4    1  0.1241325E+000  0.2620756E+03  0.7818608E-02  0.1105903E+00
         21   -1    0    0  503  502  0.00000000000E+00  0.00000000000E+00  0.94560359466E+02  0.94560359466E+02  0.00000000000E+00 0. -1.
         21   -1    0    0  501  503 -0.00000000000E+00 -0.00000000000E+00 -0.15293017500E+04  0.15293017500E+04  0.00000000000E+00 0.  1.
          6    1    1    2  501    0  0.10934532090E+03  0.16475206881E+03 -0.13056967298E+04  0.13317385605E+04  0.17200000000E+03 0.  1.
         -6    1    1    2    0  502 -0.10934532090E+03 -0.16475206881E+03 -0.12904466073E+03  0.29212354894E+03  0.17200000000E+03 0. -1.
</event>
<event>
 4    1  0.1241325E+000  0.1744459E+03  0.7818608E-02  0.1173289E+00
         21   -1    0    0  503  502  0.00000000000E+00  0.00000000000E+00  0.65954115939E+02  0.65954115939E+02  0.00000000000E+00 0.  1.
         21   -1    0    0  501  503 -0.00000000000E+00 -0.00000000000E+00 -0.63636440233E+03  0.63636440233E+03  0.00000000000E+00 0.  1.
          6    1    1    2  501    0  0.14979827210E+02 -0.24959447548E+02 -0.46933465292E+03  0.50070588740E+03  0.17200000000E+03 0.  1.
         -6    1    1    2    0  502 -0.14979827210E+02  0.24959447548E+02 -0.10107563348E+03  0.20161263087E+03  0.17200000000E+03 0.  1.
</event>
<event>
 4    1  0.1241325E+000  0.2653828E+03  0.7818608E-02  0.1103952E+00
         21   -1    0    0  503  502  0.00000000000E+00  0.00000000000E+00  0.57059976188E+03  0.57059976188E+03  0.00000000000E+00 0. -1.
         21   -1    0    0  501  503 -0.00000000000E+00 -0.00000000000E+00 -0.13306949333E+03  0.13306949333E+03  0.00000000000E+00 0. -1.
          6    1    1    2  501    0  0.24800234194E+00 -0.20209891317E+03  0.31346943748E+03  0.41072024596E+03  0.17200000000E+03 0. -1.
         -6    1    1    2    0  502 -0.24800234194E+00  0.20209891317E+03  0.12406083107E+03  0.29294900924E+03  0.17200000000E+03 0. -1.
</event>
<event>
 4    1  0.1241325E+000  0.3200842E+03  0.7818608E-02  0.1075611E+00
         21   -1    0    0  503  502  0.00000000000E+00  0.00000000000E+00  0.34830905628E+03  0.34830905628E+03  0.00000000000E+00 0.  1.
         21   -1    0    0  501  503 -0.00000000000E+00 -0.00000000000E+00 -0.64544874597E+03  0.64544874597E+03  0.00000000000E+00 0. -1.
          6    1    1    2  501    0 -0.42753873054E+02  0.26653702196E+03 -0.51514257977E+03  0.60648640152E+03  0.17200000000E+03 0. -1.
         -6    1    1    2    0  502  0.42753873054E+02 -0.26653702196E+03  0.21800289008E+03  0.38727140073E+03  0.17200000000E+03 0.  1.
</event>
<event>
 4    1  0.1241325E+000  0.1790694E+03  0.7818608E-02  0.1168707E+00
         21   -1    0    0  503  502  0.00000000000E+00  0.00000000000E+00  0.37738274195E+03  0.37738274195E+03  0.00000000000E+00 0.  1.
         21   -1    0    0  501  503 -0.00000000000E+00 -0.00000000000E+00 -0.16751425745E+03  0.16751425745E+03  0.00000000000E+00 0.  1.
          6    1    1    2  501    0  0.15137278568E+02 -0.47462590451E+02  0.29618562869E+03  0.34610946439E+03  0.17200000000E+03 0.  1.
         -6    1    1    2    0  502 -0.15137278568E+02  0.47462590451E+02 -0.86317144186E+02  0.19878753501E+03  0.17200000000E+03 0.  1.
</event>
<event>
 4    1  0.1241325E+000  0.1847019E+03  0.7818608E-02  0.1163329E+00
         21   -1    0    0  501  502  0.00000000000E+00  0.00000000000E+00  0.58305215509E+03  0.58305215509E+03  0.00000000000E+00 0. -1.
         21   -1    0    0  502  503 -0.00000000000E+00 -0.00000000000E+00 -0.60722756327E+02  0.60722756327E+02  0.00000000000E+00 0.  1.
          6    1    1    2  501    0  0.56476421377E+02  0.36622388942E+02  0.32260129038E+03  0.37173428427E+03  0.17200000000E+03 0. -1.
         -6    1    1    2    0  503 -0.56476421377E+02 -0.36622388942E+02  0.19972810839E+03  0.27204062715E+03  0.17200000000E+03 0.  1.
</event>
<event>
 4    1  0.1241325E+000  0.2475155E+03  0.7818608E-02  0.1114885E+00
         21   -1    0    0  501  502  0.00000000000E+00  0.00000000000E+00  0.10507652195E+03  0.10507652195E+03  0.00000000000E+00 0.  1.
         21   -1    0    0  502  503 -0.00000000000E+00 -0.00000000000E+00 -0.14333101249E+04  0.14333101249E+04  0.00000000000E+00 0. -1.
          6    1    1    2  501    0 -0.84902042644E+02 -0.15643390513E+03 -0.71677830863E+02  0.25768514694E+03  0.17200000000E+03 0.  1.
         -6    1    1    2    0  503  0.84902042644E+02  0.15643390513E+03 -0.12565557721E+04  0.12807014999E+04  0.17200000000E+03 0. -1.
</event>
<event>
 4    1  0.1241325E+000  0.1925243E+03  0.7818608E-02  0.1156204E+00
         21   -1    0    0  501  502  0.00000000000E+00  0.00000000000E+00  0.12615266404E+04  0.12615266404E+04  0.00000000000E+00 0.  1.
         21   -1    0    0  502  503 -0.00000000000E+00 -0.00000000000E+00 -0.31541346317E+02  0.31541346317E+02  0.00000000000E+00 0.  1.
          6    1    1    2  501    0  0.46029097249E+02  0.73231905630E+02  0.44580871884E+03  0.48560375163E+03  0.17200000000E+03 0. -1.
         -6    1    1    2    0  503 -0.46029097249E+02 -0.73231905630E+02  0.78417657523E+03  0.80746423508E+03  0.17200000000E+03 0. -1.
</event>
<event>
 4    1  0.1241325E+000  0.2040589E+03  0.7818608E-02  0.1146359E+00
         21   -1    0    0  501  502  0.00000000000E+00  0.00000000000E+00  0.69154844263E+03  0.69154844263E+03  0.00000000000E+00 0.  1.
         21   -1    0    0  502  503 -0.00000000000E+00 -0.00000000000E+00 -0.78762556051E+02  0.78762556051E+02  0.00000000000E+00 0. -1.
          6    1    1    2  501    0 -0.62868838026E+02  0.90019724713E+02  0.49330863020E+03  0.53384777443E+03  0.17200000000E+03 0. -1.
         -6    1    1    2    0  503  0.62868838026E+02 -0.90019724713E+02  0.11947725638E+03  0.23646322425E+03  0.17200000000E+03 0. -1.
</event>
<event>
 4    1  0.1241325E+000  0.2658719E+03  0.7818608E-02  0.1103666E+00
         21   -1    0    0  501  502  0.00000000000E+00  0.00000000000E+00  0.24687683276E+03  0.24687683276E+03  0.00000000000E+00 0. -1.
         21   -1    0    0  502  503 -0.00000000000E+00 -0.00000000000E+00 -0.28809534250E+03  0.28809534250E+03  0.00000000000E+00 0.  1.
          6    1    1    2  501    0  0.19024254031E+03  0.70083095617E+02  0.33844614711E+00  0.26587211020E+03  0.17200000000E+03 0. -1.
         -6    1    1    2    0  503 -0.19024254031E+03 -0.70083095617E+02 -0.41556955893E+02  0.26910006506E+03  0.17200000000E+03 0.  1.
</event>
<event>
 4    1  0.1241325E+000  0.1775799E+03  0.7818608E-02  0.1170166E+00
         21   -1    0    0  503  502  0.00000000000E+00  0.00000000000E+00  0.22988952135E+03  0.22988952135E+03  0.00000000000E+00 0. -1.
         21   -1    0    0  501  503 -0.00000000000E+00 -0.00000000000E+00 -0.15609831496E+03  0.15609831496E+03  0.00000000000E+00 0. -1.
          6    1    1    2  501    0  0.33643588802E+01 -0.44037544433E+02 -0.30303987330E+02  0.18014703961E+03  0.17200000000E+03 0.  1.
         -6    1    1    2    0  502 -0.33643588802E+01  0.44037544433E+02  0.10409519372E+03  0.20584079670E+03  0.17200000000E+03 0.  1.
</event>
<event>
 4    1  0.1241325E+000  0.1860816E+03  0.7818608E-02  0.1162044E+00
         21   -1    0    0  501  502  0.00000000000E+00  0.00000000000E+00  0.12918900239E+03  0.12918900239E+03  0.00000000000E+00 0.  1.
         21   -1    0    0  502  503 -0.00000000000E+00 -0.00000000000E+00 -0.41888914752E+03  0.41888914752E+03  0.00000000000E+00 0. -1.
          6    1    1    2  501    0  0.21699802294E+01  0.70976373464E+02  0.19606297695E+02  0.18711162795E+03  0.17200000000E+03 0.  1.
         -6    1    1    2    0  503 -0.21699802294E+01 -0.70976373464E+02 -0.30930644282E+03  0.36096652196E+03  0.17200000000E+03 0. -1.
</event>
<event>
 4    1  0.1241325E+000  0.4884826E+03  0.7818608E-02  0.1016830E+00
         21   -1    0    0  503  502  0.00000000000E+00  0.00000000000E+00  0.96371228426E+03  0.96371228426E+03  0.00000000000E+00 0.  1.
         21   -1    0    0  501  503 -0.00000000000E+00 -0.00000000000E+00 -0.24821330091E+03  0.24821330091E+03  0.00000000000E+00 0. -1.
          6    1    1    2  501    0  0.41518424914E+02 -0.45531026560E+03  0.38786912407E+03  0.62374487972E+03  0.17200000000E+03 0. -1.
         -6    1    1    2    0  502 -0.41518424914E+02  0.45531026560E+03  0.32762985928E+03  0.58818070545E+03  0.17200000000E+03 0.  1.
</event>
<event>
 4    1  0.1241325E+000  0.2190437E+03  0.7818608E-02  0.1134598E+00
         21   -1    0    0  501  502  0.00000000000E+00  0.00000000000E+00  0.24282020865E+03  0.24282020865E+03  0.00000000000E+00 0. -1.
         21   -1    0    0  502  503 -0.00000000000E+00 -0.00000000000E+00 -0.25793132988E+03  0.25793132988E+03  0.00000000000E+00 0. -1.
          6    1    1    2  501    0 -0.12036543865E+03 -0.62516492710E+02  0.11354003168E+03  0.24672148159E+03  0.17200000000E+03 0. -1.
         -6    1    1    2    0  503  0.12036543865E+03  0.62516492710E+02 -0.12865115292E+03  0.25403005694E+03  0.17200000000E+03 0. -1.
</event>
<event>
 4    1  0.1241325E+000  0.2283000E+03  0.7818608E-02  0.1127842E+00
         21   -1    0    0  503  502  0.00000000000E+00  0.00000000000E+00  0.12260898059E+04  0.12260898059E+04  0.00000000000E+00 0. -1.
         21   -1    0    0  501  503 -0.00000000000E+00 -0.00000000000E+00 -0.57696404076E+02  0.57696404076E+02  0.00000000000E+00 0.  1.
          6    1    1    2  501    0 -0.91494486309E+02  0.11901957122E+03  0.25487686358E+03  0.34217410034E+03  0.17200000000E+03 0.  1.
         -6    1    1    2    0  502  0.91494486309E+02 -0.11901957122E+03  0.91351653826E+03  0.94161210965E+03  0.17200000000E+03 0. -1.
</event>
<event>
 4    1  0.1241325E+000  0.2123794E+03  0.7818608E-02  0.1139695E+00
         21   -1    0    0  501  502  0.00000000000E+00  0.00000000000E+00  0.31608740531E+03  0.31608740531E+03  0.00000000000E+00 0.  1.
         21   -1    0    0  502  503 -0.00000000000E+00 -0.00000000000E+00 -0.15425071567E+03  0.15425071567E+03  0.00000000000E+00 0. -1.
          6    1    1    2  501    0  0.85204521465E+02  0.90891235762E+02  0.14527736541E+03  0.25731408845E+03  0.17200000000E+03 0.  1.
         -6    1    1    2    0  503 -0.85204521465E+02 -0.90891235762E+02  0.16559324223E+02  0.21302403253E+03  0.17200000000E+03 0. -1.
</event>
<event>
 4    1  0.1241325E+000  0.2125785E+03  0.7818608E-02  0.1139540E+00
         21   -1    0    0  501  502  0.00000000000E+00  0.00000000000E+00  0.36359281283E+03  0.36359281283E+03  0.00000000000E+00 0.  1.
         21   -1    0    0  502  503 -0.00000000000E+00 -0.00000000000E+00 -0.25549785169E+03  0.25549785169E+03  0.00000000000E+00 0. -1.
          6    1    1    2  501    0  0.12438444320E+03  0.11581704194E+02  0.27587558958E+03  0.34827714037E+03  0.17200000000E+03 0.  1.
         -6    1    1    2    0  503 -0.12438444320E+03 -0.11581704194E+02 -0.16778062844E+03  0.27081352415E+03  0.17200000000E+03 0. -1.
</event>
<event>
 4    1  0.1241325E+000  0.2242157E+03  0.7818608E-02  0.1130779E+00
         21   -1    0    0  503  502  0.00000000000E+00  0.00000000000E+00  0.11542864692E+04  0.11542864692E+04  0.00000000000E+00 0. -1.
         21   -1    0    0  501  503 -0.00000000000E+00 -0.00000000000E+00 -0.13694544986E+03  0.13694544986E+03  0.00000000000E+00 0. -1.
          6    1    1    2  501    0  0.13878177803E+03  0.37792650461E+02 -0.24487922401E+02  0.22554894078E+03  0.17200000000E+03 0. -1.
         -6    1    1    2    0  502 -0.13878177803E+03 -0.37792650461E+02  0.10418289418E+04  0.10656829783E+04  0.17200000000E+03 0. -1.
</event>
<event>
 4    1  0.1241325E+000  0.1729594E+03  0.7818608E-02  0.1174796E+00
         21   -1    0    0  501  502  0.00000000000E+00  0.00000000000E+00  0.17176530432E+03  0.17176530432E+03  0.00000000000E+00 0. -1.
         21   -1    0    0  502  503 -0.00000000000E+00 -0.00000000000E+00 -0.25204798180E+03  0.25204798180E+03  0.00000000000E+00 0. -1.
          6    1    1    2  501    0 -0.93683296182E+01  0.15594079325E+02  0.77655432916E+02  0.18959247657E+03  0.17200000000E+03 0. -1.
         -6    1    1    2    0  503  0.93683296182E+01 -0.15594079325E+02 -0.15793811040E+03  0.23422080955E+03  0.17200000000E+03 0. -1.
</event>
<event>
 4    1  0.1241325E+000  0.2066946E+03  0.7818608E-02  0.1144211E+00
         21   -1    0    0  503  502  0.00000000000E+00  0.00000000000E+00  0.78471250032E+02  0.78471250032E+02  0.00000000000E+00 0. -1.
         21   -1    0    0  501  503 -0.00000000000E+00 -0.00000000000E+00 -0.66584171357E+03  0.66584171357E+03  0.00000000000E+00 0. -1.
          6    1    1    2  501    0 -0.10656598110E+03 -0.42218112570E+02 -0.45259744750E+03  0.49756117899E+03  0.17200000000E+03 0. -1.
         -6    1    1    2    0  502  0.10656598110E+03  0.42218112570E+02 -0.13477301604E+03  0.24675178461E+03  0.17200000000E+03 0. -1.
</event>
<event>
 4    1  0.1241325E+000  0.2341133E+03  0.7818608E-02  0.1123778E+00
         21   -1    0    0  501  502  0.00000000000E+00  0.00000000000E+00  0.25740015454E+02  0.25740015454E+02  0.00000000000E+00 0.  1.
         21   -1    0    0  502  503 -0.00000000000E+00 -0.00000000000E+00 -0.21347371433E+04  0.21347371433E+04  0.00000000000E+00 0. -1.
          6    1    1    2  501    0  0.15844262336E+03 -0.10998839427E+02 -0.10001422663E+04  0.10271774882E+04  0.17200000000E+03 0.  1.
         -6    1    1    2    0  503 -0.15844262336E+03  0.10998839427E+02 -0.11088548615E+04  0.11332996705E+04  0.17200000000E+03 0.  1.
</event>
<event>
 4    1  0.1241325E+000  0.1769443E+03  0.7818608E-02  0.1170794E+00
         21   -1    0    0  503  502  0.00000000000E+00  0.00000000000E+00  0.49030709849E+02  0.49030709849E+02  0.00000000000E+00 0.  1.
         21   -1    0    0  501  503 -0.00000000000E+00 -0.00000000000E+00 -0.64164896068E+03  0.64164896068E+03  0.00000000000E+00 0.  1.
          6    1    1    2  501    0  0.40737122092E+02 -0.81106055669E+01 -0.32025069549E+03  0.36588222559E+03  0.17200000000E+03 0. -1.
         -6    1    1    2    0  502 -0.40737122092E+02  0.81106055669E+01 -0.27236755534E+03  0.32479744495E+03  0.17200000000E+03 0. -1.
</event>
<event>
 4    1  0.1241325E+000  0.1869129E+03  0.7818608E-02  0.1161275E+00
         21   -1    0    0  501  502  0.00000000000E+00  0.00000000000E+00  0.94700004676E+02  0.94700004676E+02  0.00000000000E+00 0. -1.
         21   -1    0    0  502  503 -0.00000000000E+00 -0.00000000000E+00 -0.50259817924E+03  0.50259817924E+03  0.00000000000E+00 0. -1.
          6    1    1    2  501    0 -0.22406584006E+02 -0.69644727402E+02 -0.49925989998E+02  0.19346588211E+03  0.17200000000E+03 0. -1.
         -6    1    1    2    0  503  0.22406584006E+02  0.69644727402E+02 -0.35797218456E+03  0.40383230181E+03  0.17200000000E+03 0. -1.
</event>
<event>
 4    1  0.1241325E+000  0.3231107E+03  0.7818608E-02  0.1074226E+00
         21   -1    0    0  501  502  0.00000000000E+00  0.00000000000E+00  0.42870643674E+03  0.42870643674E+03  0.00000000000E+00 0. -1.
         21   -1    0    0  502  503 -0.00000000000E+00 -0.00000000000E+00 -0.37583255417E+03  0.37583255417E+03  0.00000000000E+00 0.  1.
          6    1    1    2  501    0  0.15578849568E+03 -0.22482548019E+03  0.26511523502E+03  0.41795530834E+03  0.17200000000E+03 0.  1.
         -6    1    1    2    0  503 -0.15578849568E+03  0.22482548019E+03 -0.21224135245E+03  0.38658368256E+03  0.17200000000E+03 0.  1.
</event>
<event>
 4    1  0.1241325E+000  0.3086995E+03  0.7818608E-02  0.1080971E+00
         21   -1    0    0  503  502  0.00000000000E+00  0.00000000000E+00  0.11272587521E+03  0.11272587521E+03  0.00000000000E+00 0.  1.
         21   -1    0    0  501  503 -0.00000000000E+00 -0.00000000000E+00 -0.16735345725E+04  0.16735345725E+04  0.00000000000E+00 0. -1.
          6    1    1    2  501    0 -0.25091551059E+03 -0.52467047381E+02 -0.14086869624E+04  0.14421145386E+04  0.17200000000E+03 0. -1.
         -6    1    1    2    0  502  0.25091551059E+03  0.52467047381E+02 -0.15212173492E+03  0.34414590910E+03  0.17200000000E+03 0.  1.
</event>
<event>
 4    1  0.1241325E+000  0.1763271E+03  0.7818608E-02  0.1171406E+00
         21   -1    0    0  503  502  0.00000000000E+00  0.00000000000E+00  0.27366729233E+03  0.27366729233E+03  0.00000000000E+00 0.  1.
         21   -1    0    0  501  503 -0.00000000000E+00 -0.00000000000E+00 -0.11361686734E+03  0.11361686734E+03  0.00000000000E+00 0.  1.
          6    1    1    2  501    0 -0.37258031469E+02 -0.10911900371E+02  0.81574350392E+02  0.19428228205E+03  0.17200000000E+03 0. -1.
         -6    1    1    2    0  502  0.37258031469E+02  0.10911900371E+02  0.78476074598E+02  0.19300187762E+03  0.17200000000E+03 0. -1.
</event>
<event>
 4    1  0.1241325E+000  0.2185861E+03  0.7818608E-02  0.1134942E+00
         21   -1    0    0  501  502  0.00000000000E+00  0.00000000000E+00  0.24922549700E+03  0.24922549700E+03  0.00000000000E+00 0.  1.
         21   -1    0    0  502  503 -0.00000000000E+00 -0.00000000000E+00 -0.40940663228E+03  0.40940663228E+03  0.00000000000E+00 0.  1.
          6    1    1    2  501    0 -0.89151173281E+02  0.10123208125E+03  0.16004580689E+03  0.27091424155E+03  0.17200000000E+03 0.  1.
         -6    1    1    2    0  503  0.89151173281E+02 -0.10123208125E+03 -0.32022694217E+03  0.38771788773E+03  0.17200000000E+03 0.  1.
</event>
<event>
 4    1  0.1241325E+000  0.2543201E+03  0.7818608E-02  0.1110605E+00
         21   -1    0    0  503  502  0.00000000000E+00  0.00000000000E+00  0.18132009146E+04  0.18132009146E+04  0.00000000000E+00 0.  1.
         21   -1    0    0  501  503 -0.00000000000E+00 -0.00000000000E+00 -0.10335752640E+03  0.10335752640E+03  0.00000000000E+00 0. -1.
          6    1    1    2  501    0 -0.16641244556E+03 -0.86032576814E+02  0.79439015351E+02  0.26643810439E+03  0.17200000000E+03 0. -1.
         -6    1    1    2    0  502  0.16641244556E+03  0.86032576814E+02  0.16304043729E+04  0.16501203366E+04  0.17200000000E+03 0.  1.
</event>
<event>
 4    1  0.1241325E+000  0.2232834E+03  0.7818608E-02  0.1131459E+00
         21   -1    0    0  503  502  0.00000000000E+00  0.00000000000E+00  0.10836340145E+04  0.10836340145E+04  0.00000000000E+00 0. -1.
         21   -1    0    0  501  503 -0.00000000000E+00 -0.00000000000E+00 -0.98287084649E+02  0.98287084649E+02  0.00000000000E+00 0. -1.
          6    1    1    2  501    0  0.20070328368E+02  0.14095623734E+03  0.61675111811E+02  0.23164476757E+03  0.17200000000E+03 0. -1.
         -6    1    1    2    0  502 -0.20070328368E+02 -0.14095623734E+03  0.92367181809E+03  0.95027633163E+03  0.17200000000E+03 0. -1.
</event>
<event>
 4    1  0.1241325E+000  0.1739401E+03  0.7818608E-02  0.1173800E+00
         21   -1    0    0  501  502  0.00000000000E+00  0.00000000000E+00  0.15919638365E+02  0.15919638365E+02  0.00000000000E+00 0. -1.
         21   -1    0    0  502  503 -0.00000000000E+00 -0.00000000000E+00 -0.24913274871E+04  0.24913274871E+04  0.00000000000E+00 0. -1.
          6    1    1    2  501    0  0.17367127422E+02 -0.19223353105E+02 -0.62720512600E+03  0.65087742663E+03  0.17200000000E+03 0. -1.
         -6    1    1    2    0  503 -0.17367127422E+02  0.19223353105E+02 -0.18482027228E+04  0.18563696989E+04  0.17200000000E+03 0. -1.
</event>
<event>
 4    1  0.1241325E+000  0.2483456E+03  0.7818608E-02  0.1114355E+00
         21   -1    0    0  503  502  0.00000000000E+00  0.00000000000E+00  0.28658649118E+02  0.28658649118E+02  0.00000000000E+00 0.  1.
         21   -1    0    0  501  503 -0.00000000000E+00 -0.00000000000E+00 -0.24291325793E+04  0.24291325793E+04  0.00000000000E+00 0.  1.
          6    1    1    2  501    0 -0.16258455452E+03  0.75218462292E+02 -0.16152623086E+04  0.16342422953E+04  0.17200000000E+03 0.  1.
         -6    1    1    2    0  502  0.16258455452E+03 -0.75218462292E+02 -0.78521162167E+03  0.82354893312E+03  0.17200000000E+03 0.  1.
</event>
<event>
 4    1  0.1241325E+000  0.1873684E+03  0.7818608E-02  0.1160857E+00
         21   -1    0    0  503  502  0.00000000000E+00  0.00000000000E+00  0.18998533049E+02  0.18998533049E+02  0.00000000000E+00 0. -1.
         21   -1    0    0  501  503 -0.00000000000E+00 -0.00000000000E+00 -0.19825922179E+04  0.19825922179E+04  0.00000000000E+00 0. -1.
          6    1    1    2  501    0 -0.55332064332E+02 -0.49611180334E+02 -0.12426768493E+04  0.12567229839E+04  0.17200000000E+03 0. -1.
         -6    1    1    2    0  502  0.55332064332E+02  0.49611180334E+02 -0.72091683552E+03  0.74486776698E+03  0.17200000000E+03 0. -1.
</event>
<event>
 4    1  0.1241325E+000  0.3119519E+03  0.7818608E-02  0.1079414E+00
         21   -1    0    0  503  502  0.00000000000E+00  0.00000000000E+00  0.27453258101E+03  0.27453258101E+03  0.00000000000E+00 0.  1.
         21   -1    0    0  501  503 -0.00000000000E+00 -0.00000000000E+00 -0.37572635655E+03  0.37572635655E+03  0.00000000000E+00 0.  1.
          6    1    1    2  501    0 -0.25370519032E+03  0.57997311769E+02  0.26733155666E+02  0.31309531038E+03  0.17200000000E+03 0.  1.
         -6    1    1    2    0  502  0.25370519032E+03 -0.57997311769E+02 -0.12792693120E+03  0.33716362718E+03  0.17200000000E+03 0.  1.
</event>
<event>
 4    1  0.1241325E+000  0.1823514E+03  0.7818608E-02  0.1165547E+00
         21   -1    0    0  503  502  0.00000000000E+00  0.00000000000E+00  0.17558954830E+03  0.17558954830E+03  0.00000000000E+00 0.  1.
         21   -1    0    0  501  503 -0.00000000000E+00 -0.00000000000E+00 -0.20688969428E+03  0.20688969428E+03  0.00000000000E+00 0.  1.
          6    1    1    2  501    0 -0.52527358389E+02 -0.30148395825E+02 -0.71294973453E+02  0.19579331549E+03  0.17200000000E+03 0.  1.
         -6    1    1    2    0  502  0.52527358389E+02  0.30148395825E+02  0.39994827479E+02  0.18668592709E+03  0.17200000000E+03 0.  1.
</event>
<event>
 4    1  0.1241325E+000  0.2415030E+03  0.7818608E-02  0.1118796E+00
         21   -1    0    0  503  502  0.00000000000E+00  0.00000000000E+00  0.13160606671E+03  0.13160606671E+03  0.00000000000E+00 0. -1.
         21   -1    0    0  501  503 -0.00000000000E+00 -0.00000000000E+00 -0.52978403592E+03  0.52978403592E+03  0.00000000000E+00 0. -1.
          6    1    1    2  501    0  0.16175840316E+03 -0.50733609461E+02 -0.33280266349E+03  0.41119495735E+03  0.17200000000E+03 0. -1.
         -6    1    1    2    0  502 -0.16175840316E+03  0.50733609461E+02 -0.65375305720E+02  0.25019514528E+03  0.17200000000E+03 0. -1.
</event>
<event>
 4    1  0.1241325E+000  0.1900272E+03  0.7818608E-02  0.1158437E+00
         21   -1    0    0  501  502  0.00000000000E+00  0.00000000000E+00  0.34480136312E+03  0.34480136312E+03  0.00000000000E+00 0.  1.
         21   -1    0    0  502  503 -0.00000000000E+00 -0.00000000000E+00 -0.12441949918E+03  0.12441949918E+03  0.00000000000E+00 0.  1.
          6    1    1    2  501    0  0.67384171464E+02  0.44561366456E+02  0.20352559645E+03  0.27844750017E+03  0.17200000000E+03 0. -1.
         -6    1    1    2    0  503 -0.67384171464E+02 -0.44561366456E+02  0.16856267496E+02  0.19077336213E+03  0.17200000000E+03 0. -1.
</event>
<event>
 4    1  0.1241325E+000  0.2186908E+03  0.7818608E-02  0.1134863E+00
         21   -1    0    0  503  502  0.00000000000E+00  0.00000000000E+00  0.24776397008E+03  0.24776397008E+03  0.00000000000E+00 0.  1.
         21   -1    0    0  501  503 -0.00000000000E+00 -0.00000000000E+00 -0.27966912179E+03  0.27966912179E+03  0.00000000000E+00 0.  1.
          6    1    1    2  501    0  0.12187338183E+03  0.58211368074E+02 -0.16273501780E+03  0.27259561733E+03  0.17200000000E+03 0.  1.
         -6    1    1    2    0  502 -0.12187338183E+03 -0.58211368074E+02  0.13082986609E+03  0.25483747454E+03  0.17200000000E+03 0.  1.
</event>
<event>
 4    1  0.1241325E+000  0.1730497E+03  0.7818608E-02  0.1174704E+00
         21   -1    0    0  503  502  0.00000000000E+00  0.00000000000E+00  0.26100774298E+03  0.26100774298E+03  0.00000000000E+00 0. -1.
         21   -1    0    0  501  503 -0.00000000000E+00 -0.00000000000E+00 -0.11825709430E+03  0.11825709430E+03  0.00000000000E+00 0. -1.
          6    1    1    2  501    0 -0.17199302253E+02 -0.81483068884E+01  0.10411093853E+03  0.20195370367E+03  0.17200000000E+03 0. -1.
         -6    1    1    2    0  502  0.17199302253E+02  0.81483068884E+01  0.38639710151E+02  0.17731113361E+03  0.17200000000E+03 0. -1.
</event>
<event>
 4    1  0.1241325E+000  0.1787435E+03  0.7818608E-02  0.1169025E+00
         21   -1    0    0  503  502  0.00000000000E+00  0.00000000000E+00  0.66295998359E+03  0.66295998359E+03  0.00000000000E+00 0. -1.
         21   -1    0    0  501  503 -0.00000000000E+00 -0.00000000000E+00 -0.52567534180E+02  0.52567534180E+02  0.00000000000E+00 0. -1.
          6    1    1    2  501    0  0.38014723753E+02 -0.30333716803E+02  0.40841569140E+03  0.44581681280E+03  0.17200000000E+03 0. -1.
         -6    1    1    2    0  502 -0.38014723753E+02  0.30333716803E+02  0.20197675801E+03  0.26971070497E+03  0.17200000000E+03 0. -1.
</event>
<event>
 4    1  0.1241325E+000  0.2315650E+03  0.7818608E-02  0.1125543E+00
         21   -1    0    0  503  502  0.00000000000E+00  0.00000000000E+00  0.39595504324E+03  0.39595504324E+03  0.00000000000E+00 0.  1.
         21   -1    0    0  501  503 -0.00000000000E+00 -0.00000000000E+00 -0.19717084343E+03  0.19717084343E+03  0.00000000000E+00 0.  1.
          6    1    1    2  501    0 -0.15184442184E+03  0.31330812722E+02 -0.66565898106E+02  0.24094266343E+03  0.17200000000E+03 0.  1.
         -6    1    1    2    0  502  0.15184442184E+03 -0.31330812722E+02  0.26535009791E+03  0.35218322324E+03  0.17200000000E+03 0.  1.
</event>
<event>
 4    1  0.1241325E+000  0.1799027E+03  0.7818608E-02  0.1167897E+00
         21   -1    0    0  503  502  0.00000000000E+00  0.00000000000E+00  0.16719945301E+02  0.16719945301E+02  0.00000000000E+00 0. -1.
         21   -1    0    0  501  503 -0.00000000000E+00 -0.00000000000E+00 -0.23463445642E+04  0.23463445642E+04  0.00000000000E+00 0.  1.
          6    1    1    2  501    0  0.27250251942E+02 -0.45148634398E+02 -0.16590969542E+04  0.16688222430E+04  0.17200000000E+03 0.  1.
         -6    1    1    2    0  502 -0.27250251942E+02  0.45148634398E+02 -0.67052766468E+03  0.69424226645E+03  0.17200000000E+03 0. -1.
</event>
<event>
 4    1  0.1241325E+000  0.1725237E+03  0.7818608E-02  0.1175241E+00
         21   -1    0    0  503  502  0.00000000000E+00  0.00000000000E+00  0.34471049345E+03  0.34471049345E+03  0.00000000000E+00 0.  1.
         21   -1    0    0  501  503 -0.00000000000E+00 -0.00000000000E+00 -0.45597837269E+03  0.45597837269E+03  0.00000000000E+00 0.  1.
          6    1    1    2  501    0 -0.13430619691E+02 -0.18878473189E+00 -0.41608523879E+03  0.45043461581E+03  0.17200000000E+03 0.  1.
         -6    1    1    2    0  502  0.13430619691E+02  0.18878473189E+00  0.30481735955E+03  0.35025425033E+03  0.17200000000E+03 0.  1.
</event>
<event>
 4    1  0.1241325E+000  0.1744552E+03  0.7818608E-02  0.1173280E+00
         21   -1    0    0  501  502  0.00000000000E+00  0.00000000000E+00  0.14454222453E+04  0.14454222453E+04  0.00000000000E+00 0.  1.
         21   -1    0    0  502  503 -0.00000000000E+00 -0.00000000000E+00 -0.32278154272E+02  0.32278154272E+02  0.00000000000E+00 0.  1.
          6    1    1    2  501    0 -0.15269074045E+02 -0.24848897624E+02  0.11422271659E+04  0.11554728516E+04  0.17200000000E+03 0.  1.
         -6    1    1    2    0  503  0.15269074045E+02  0.24848897624E+02  0.27091692517E+03  0.32222754798E+03  0.17200000000E+03 0.  1.
</event>
