<event>
 4    1  0.3141404E-002  0.1997782E+03  0.7818608E-02  0.1149926E+00
         -2   -1    0    0    0  501 -0.00000000000E+00  0.00000000000E+00  0.98078545081E+02  0.98078545081E+02  0.00000000000E+00 0.  1.
          2   -1    0    0  502    0  0.00000000000E+00 -0.00000000000E+00 -0.94199095340E+03  0.94199095340E+03  0.00000000000E+00 0. -1.
          6    1    1    2  502    0 -0.30253349664E+02 -0.97015755332E+02 -0.30025110427E+02  0.20202185329E+03  0.17200000000E+03 0.  1.
         -6    1    1    2    0  501  0.30253349664E+02  0.97015755332E+02 -0.81388729789E+03  0.83804764520E+03  0.17200000000E+03 0. -1.
</event>
<event>
 4    1  0.3141404E-002  0.1937592E+03  0.7818608E-02  0.1155114E+00
          3   -1    0    0  502    0  0.00000000000E+00  0.00000000000E+00  0.26776329312E+03  0.26776329312E+03  0.00000000000E+00 0. -1.
         -3   -1    0    0    0  501 -0.00000000000E+00 -0.00000000000E+00 -0.14327062716E+03  0.14327062716E+03  0.00000000000E+00 0.  1.
          6    1    1    2  502    0 -0.40673866915E+02 -0.79399442789E+02  0.92292922806E+02  0.21461737713E+03  0.17200000000E+03 0. -1.
         -6    1    1    2    0  501  0.40673866915E+02  0.79399442789E+02  0.32199743153E+02  0.19641654315E+03  0.17200000000E+03 0. -1.
</event>
<event>
 4    1  0.3141404E-002  0.2023271E+03  0.7818608E-02  0.1147790E+00
          2   -1    0    0  502    0  0.00000000000E+00  0.00000000000E+00  0.18458688158E+04  0.18458688158E+04  0.00000000000E+00 0. -1.
         -2   -1    0    0    0  501 -0.00000000000E+00 -0.00000000000E+00 -0.24587797688E+02  0.24587797688E+02  0.00000000000E+00 0.  1.
          6    1    1    2  502    0  0.77983514790E+02  0.72600453904E+02  0.12034718994E+04  0.12203609577E+04  0.17200000000E+03 0. -1.
         -6    1    1    2    0  501 -0.77983514790E+02 -0.72600453904E+02  0.61780911877E+03  0.65009565582E+03  0.17200000000E+03 0.  1.
</event>
<event>
 4    1  0.3141404E-002  0.1785294E+03  0.7818608E-02  0.1169234E+00
         -2   -1    0    0    0  501 -0.00000000000E+00  0.00000000000E+00  0.18454972246E+03  0.18454972246E+03  0.00000000000E+00 0.  1.
          2   -1    0    0  502    0  0.00000000000E+00 -0.00000000000E+00 -0.46961454646E+03  0.46961454646E+03  0.00000000000E+00 0. -1.
          6    1    1    2  502    0  0.44116941240E+02  0.18505533089E+02 -0.40260689239E+03  0.44041465582E+03  0.17200000000E+03 0. -1.
         -6    1    1    2    0  501 -0.44116941240E+02 -0.18505533089E+02  0.11754206839E+03  0.21374961310E+03  0.17200000000E+03 0.  1.
</event>
<event>
 4    1  0.3141404E-002  0.1858244E+03  0.7818608E-02  0.1162282E+00
          1   -1    0    0  502    0  0.00000000000E+00  0.00000000000E+00  0.30589423978E+04  0.30589423978E+04  0.00000000000E+00 0. -1.
         -1   -1    0    0    0  501 -0.00000000000E+00 -0.00000000000E+00 -0.18110054513E+02  0.18110054513E+02  0.00000000000E+00 0.  1.
          6    1    1    2  502    0  0.31238732456E+02  0.63014597429E+02  0.24646694603E+04  0.24716646711E+04  0.17200000000E+03 0. -1.
         -6    1    1    2    0  501 -0.31238732456E+02 -0.63014597429E+02  0.57616288302E+03  0.60538778123E+03  0.17200000000E+03 0.  1.
</event>
<event>
 4    1  0.3141404E-002  0.1763986E+03  0.7818608E-02  0.1171335E+00
         -3   -1    0    0    0  501 -0.00000000000E+00  0.00000000000E+00  0.36347132437E+02  0.36347132437E+02  0.00000000000E+00 0.  1.
          3   -1    0    0  502    0  0.00000000000E+00 -0.00000000000E+00 -0.10243874755E+04  0.10243874755E+04  0.00000000000E+00 0. -1.
          6    1    1    2  502    0  0.10511180729E+02 -0.37709345364E+02 -0.70899181455E+03  0.73060651020E+03  0.17200000000E+03 0. -1.
         -6    1    1    2    0  501 -0.10511180729E+02  0.37709345364E+02 -0.27904852849E+03  0.33012809771E+03  0.17200000000E+03 0.  1.
</event>
<event>
 4    1  0.3141404E-002  0.8334338E+03  0.7818608E-02  0.9512845E-01
          2   -1    0    0  502    0  0.00000000000E+00  0.00000000000E+00  0.46259416347E+04  0.46259416347E+04  0.00000000000E+00 0. -1.
         -2   -1    0    0    0  501 -0.00000000000E+00 -0.00000000000E+00 -0.15957357789E+03  0.15957357789E+03  0.00000000000E+00 0.  1.
          6    1    1    2  502    0  0.42346027281E+03  0.69692847695E+03  0.28144738874E+04  0.29352811054E+04  0.17200000000E+03 0. -1.
         -6    1    1    2    0  501 -0.42346027281E+03 -0.69692847695E+03  0.16518941694E+04  0.18502341072E+04  0.17200000000E+03 0.  1.
</event>
<event>
 4    1  0.3141404E-002  0.3584863E+03  0.7818608E-02  0.1059185E+00
          2   -1    0    0  502    0  0.00000000000E+00  0.00000000000E+00  0.12160208003E+04  0.12160208003E+04  0.00000000000E+00 0. -1.
         -2   -1    0    0    0  501 -0.00000000000E+00 -0.00000000000E+00 -0.24272391990E+03  0.24272391990E+03  0.00000000000E+00 0.  1.
          6    1    1    2  502    0  0.21369088698E+03  0.23079138204E+03  0.10346963126E+04  0.10950383174E+04  0.17200000000E+03 0. -1.
         -6    1    1    2    0  501 -0.21369088698E+03 -0.23079138204E+03 -0.61399432176E+02  0.36370640285E+03  0.17200000000E+03 0.  1.
</event>
<event>
 4    1  0.3141404E-002  0.1938845E+03  0.7818608E-02  0.1155004E+00
         -2   -1    0    0    0  501 -0.00000000000E+00  0.00000000000E+00  0.16068312245E+03  0.16068312245E+03  0.00000000000E+00 0.  1.
          2   -1    0    0  502    0  0.00000000000E+00 -0.00000000000E+00 -0.26902733628E+03  0.26902733628E+03  0.00000000000E+00 0. -1.
          6    1    1    2  502    0 -0.60890160533E+02  0.65571107729E+02  0.23414270775E+02  0.19529313837E+03  0.17200000000E+03 0.  1.
         -6    1    1    2    0  501  0.60890160533E+02 -0.65571107729E+02 -0.13175848461E+03  0.23441732036E+03  0.17200000000E+03 0. -1.
</event>
<event>
 4    1  0.3141404E-002  0.1998024E+03  0.7818608E-02  0.1149906E+00
          2   -1    0    0  502    0  0.00000000000E+00  0.00000000000E+00  0.53197125882E+03  0.53197125882E+03  0.00000000000E+00 0. -1.
         -2   -1    0    0    0  501 -0.00000000000E+00 -0.00000000000E+00 -0.13143611077E+03  0.13143611077E+03  0.00000000000E+00 0.  1.
          6    1    1    2  502    0 -0.99196819893E+02  0.22293170518E+02  0.41753968253E+03  0.46288268602E+03  0.17200000000E+03 0. -1.
         -6    1    1    2    0  501  0.99196819893E+02 -0.22293170518E+02 -0.17004534489E+02  0.20052468357E+03  0.17200000000E+03 0.  1.
</event>
<event>
 4    1  0.3141404E-002  0.2409118E+03  0.7818608E-02  0.1119187E+00
         -1   -1    0    0    0  501 -0.00000000000E+00  0.00000000000E+00  0.34586528095E+02  0.34586528095E+02  0.00000000000E+00 0.  1.
          1   -1    0    0  502    0  0.00000000000E+00 -0.00000000000E+00 -0.22728641387E+04  0.22728641387E+04  0.00000000000E+00 0. -1.
          6    1    1    2  502    0  0.46821015806E+02 -0.16205639258E+03 -0.17093404807E+04  0.17262338662E+04  0.17200000000E+03 0. -1.
         -6    1    1    2    0  501 -0.46821015806E+02  0.16205639258E+03 -0.52893712999E+03  0.58121680067E+03  0.17200000000E+03 0.  1.
</event>
<event>
 4    1  0.3141404E-002  0.3101877E+03  0.7818608E-02  0.1080256E+00
         -2   -1    0    0    0  501 -0.00000000000E+00  0.00000000000E+00  0.13726783034E+03  0.13726783034E+03  0.00000000000E+00 0.  1.
          2   -1    0    0  502    0  0.00000000000E+00 -0.00000000000E+00 -0.70150871470E+03  0.70150871470E+03  0.00000000000E+00 0. -1.
          6    1    1    2  502    0 -0.25748484260E+03 -0.18275202315E+02 -0.27017270842E+03  0.41135109039E+03  0.17200000000E+03 0. -1.
         -6    1    1    2    0  501  0.25748484260E+03  0.18275202315E+02 -0.29406817594E+03  0.42742545465E+03  0.17200000000E+03 0. -1.
</event>
<event>
 4    1  0.3141404E-002  0.1904035E+03  0.7818608E-02  0.1158098E+00
          2   -1    0    0  502    0  0.00000000000E+00  0.00000000000E+00  0.28100355008E+04  0.28100355008E+04  0.00000000000E+00 0. -1.
         -2   -1    0    0    0  501 -0.00000000000E+00 -0.00000000000E+00 -0.19510281866E+02  0.19510281866E+02  0.00000000000E+00 0.  1.
          6    1    1    2  502    0 -0.86327384155E+01 -0.81209472340E+02  0.22186754960E+04  0.22268305861E+04  0.17200000000E+03 0. -1.
         -6    1    1    2    0  501  0.86327384155E+01  0.81209472340E+02  0.57184972293E+03  0.60271519658E+03  0.17200000000E+03 0.  1.
</event>
<event>
 4    1  0.3141404E-002  0.3278275E+03  0.7818608E-02  0.1072102E+00
         -2   -1    0    0    0  501 -0.00000000000E+00  0.00000000000E+00  0.10188980085E+03  0.10188980085E+03  0.00000000000E+00 0.  1.
          2   -1    0    0  502    0  0.00000000000E+00 -0.00000000000E+00 -0.10669608044E+04  0.10669608044E+04  0.00000000000E+00 0. -1.
          6    1    1    2  502    0  0.20206589627E+03 -0.19249995040E+03 -0.54499153816E+03  0.63599263676E+03  0.17200000000E+03 0. -1.
         -6    1    1    2    0  501 -0.20206589627E+03  0.19249995040E+03 -0.42007946536E+03  0.53285796846E+03  0.17200000000E+03 0.  1.
</event>
<event>
 4    1  0.3141404E-002  0.2201740E+03  0.7818608E-02  0.1133753E+00
         -1   -1    0    0    0  501 -0.00000000000E+00  0.00000000000E+00  0.11524299609E+03  0.11524299609E+03  0.00000000000E+00 0.  1.
          1   -1    0    0  502    0  0.00000000000E+00 -0.00000000000E+00 -0.99505971059E+03  0.99505971059E+03  0.00000000000E+00 0. -1.
          6    1    1    2  502    0  0.80072781972E+01 -0.13721693922E+03 -0.86170090643E+03  0.88938465079E+03  0.17200000000E+03 0. -1.
         -6    1    1    2    0  501 -0.80072781972E+01  0.13721693922E+03 -0.18115808061E+02  0.22091805588E+03  0.17200000000E+03 0.  1.
</event>
<event>
 4    1  0.3141404E-002  0.1761416E+03  0.7818608E-02  0.1171590E+00
          2   -1    0    0  502    0  0.00000000000E+00  0.00000000000E+00  0.15895550617E+04  0.15895550617E+04  0.00000000000E+00 0. -1.
         -2   -1    0    0    0  501 -0.00000000000E+00 -0.00000000000E+00 -0.24581749591E+02  0.24581749591E+02  0.00000000000E+00 0.  1.
          6    1    1    2  502    0 -0.28906194951E+02 -0.24622719240E+02  0.41620472831E+03  0.45194272013E+03  0.17200000000E+03 0.  1.
         -6    1    1    2    0  501  0.28906194951E+02  0.24622719240E+02  0.11487685838E+04  0.11621940911E+04  0.17200000000E+03 0. -1.
</event>
<event>
 4    1  0.3141404E-002  0.2433327E+03  0.7818608E-02  0.1117592E+00
         -1   -1    0    0    0  501 -0.00000000000E+00  0.00000000000E+00  0.44490132506E+02  0.44490132506E+02  0.00000000000E+00 0.  1.
          1   -1    0    0  502    0  0.00000000000E+00 -0.00000000000E+00 -0.19570598086E+04  0.19570598086E+04  0.00000000000E+00 0. -1.
          6    1    1    2  502    0 -0.13640674307E+03 -0.10497615457E+03 -0.15223751823E+04  0.15416993832E+04  0.17200000000E+03 0. -1.
         -6    1    1    2    0  501  0.13640674307E+03  0.10497615457E+03 -0.39019449376E+03  0.45985055784E+03  0.17200000000E+03 0.  1.
</event>
<event>
 4    1  0.3141404E-002  0.1785506E+03  0.7818608E-02  0.1169213E+00
         -1   -1    0    0    0  501 -0.00000000000E+00  0.00000000000E+00  0.11753071213E+03  0.11753071213E+03  0.00000000000E+00 0.  1.
          1   -1    0    0  502    0  0.00000000000E+00 -0.00000000000E+00 -0.32807270221E+03  0.32807270221E+03  0.00000000000E+00 0. -1.
          6    1    1    2  502    0 -0.46500713475E+02  0.11575755546E+02 -0.12547270126E+02  0.17899091725E+03  0.17200000000E+03 0. -1.
         -6    1    1    2    0  501  0.46500713475E+02 -0.11575755546E+02 -0.19799471996E+03  0.26661249708E+03  0.17200000000E+03 0. -1.
</event>
<event>
 4    1  0.3141404E-002  0.2096440E+03  0.7818608E-02  0.1141848E+00
          2   -1    0    0  502    0  0.00000000000E+00  0.00000000000E+00  0.18363792229E+04  0.18363792229E+04  0.00000000000E+00 0. -1.
         -2   -1    0    0    0  501 -0.00000000000E+00 -0.00000000000E+00 -0.44953017652E+02  0.44953017652E+02  0.00000000000E+00 0.  1.
          6    1    1    2  502    0  0.11386619607E+03 -0.37431305212E+02  0.15389478921E+04  0.15531616876E+04  0.17200000000E+03 0. -1.
         -6    1    1    2    0  501 -0.11386619607E+03  0.37431305212E+02  0.25247831315E+03  0.32817055296E+03  0.17200000000E+03 0.  1.
</event>
<event>
 4    1  0.3141404E-002  0.2051606E+03  0.7818608E-02  0.1145457E+00
          2   -1    0    0  502    0  0.00000000000E+00  0.00000000000E+00  0.22620351543E+03  0.22620351543E+03  0.00000000000E+00 0. -1.
         -2   -1    0    0    0  501 -0.00000000000E+00 -0.00000000000E+00 -0.27541908098E+03  0.27541908098E+03  0.00000000000E+00 0.  1.
          6    1    1    2  502    0  0.76666480465E+02 -0.81419503282E+02  0.11824288395E+03  0.23679582840E+03  0.17200000000E+03 0. -1.
         -6    1    1    2    0  501 -0.76666480465E+02  0.81419503282E+02 -0.16745844950E+03  0.26482676800E+03  0.17200000000E+03 0.  1.
</event>
<event>
 4    1  0.3141404E-002  0.2016444E+03  0.7818608E-02  0.1148359E+00
         -2   -1    0    0    0  501 -0.00000000000E+00  0.00000000000E+00  0.16420764800E+03  0.16420764800E+03  0.00000000000E+00 0.  1.
          2   -1    0    0  502    0  0.00000000000E+00 -0.00000000000E+00 -0.37245749870E+03  0.37245749870E+03  0.00000000000E+00 0. -1.
          6    1    1    2  502    0  0.62592031302E+01 -0.10505856607E+03 -0.25947594516E+03  0.32861565095E+03  0.17200000000E+03 0. -1.
         -6    1    1    2    0  501 -0.62592031302E+01  0.10505856607E+03  0.51226094460E+02  0.20804949575E+03  0.17200000000E+03 0.  1.
</event>
<event>
 4    1  0.3141404E-002  0.1940963E+03  0.7818608E-02  0.1154818E+00
         -2   -1    0    0    0  501 -0.00000000000E+00  0.00000000000E+00  0.26013202202E+02  0.26013202202E+02  0.00000000000E+00 0.  1.
          2   -1    0    0  502    0  0.00000000000E+00 -0.00000000000E+00 -0.16475935839E+04  0.16475935839E+04  0.00000000000E+00 0. -1.
          6    1    1    2  502    0 -0.88276997447E+02 -0.17220668534E+02 -0.51971205598E+03  0.55477382854E+03  0.17200000000E+03 0.  1.
         -6    1    1    2    0  501  0.88276997447E+02  0.17220668534E+02 -0.11018683257E+04  0.11188329576E+04  0.17200000000E+03 0. -1.
</event>
<event>
 4    1  0.3141404E-002  0.7964633E+03  0.7818608E-02  0.9565150E-01
         -1   -1    0    0    0  501 -0.00000000000E+00  0.00000000000E+00  0.36849525940E+03  0.36849525940E+03  0.00000000000E+00 0.  1.
          1   -1    0    0  502    0  0.00000000000E+00 -0.00000000000E+00 -0.18950980644E+04  0.18950980644E+04  0.00000000000E+00 0. -1.
          6    1    1    2  502    0 -0.76684227954E+03  0.12931639707E+03 -0.11058810695E+04  0.13628377570E+04  0.17200000000E+03 0. -1.
         -6    1    1    2    0  501  0.76684227954E+03 -0.12931639707E+03 -0.42072173550E+03  0.90075556671E+03  0.17200000000E+03 0.  1.
</event>
<event>
 4    1  0.3141404E-002  0.1740476E+03  0.7818608E-02  0.1173691E+00
          2   -1    0    0  502    0  0.00000000000E+00  0.00000000000E+00  0.63673519949E+03  0.63673519949E+03  0.00000000000E+00 0. -1.
         -2   -1    0    0    0  501 -0.00000000000E+00 -0.00000000000E+00 -0.53766923449E+02  0.53766923449E+02  0.00000000000E+00 0.  1.
          6    1    1    2  502    0  0.85478291411E+01 -0.25209228226E+02  0.40864864960E+03  0.44416921257E+03  0.17200000000E+03 0. -1.
         -6    1    1    2    0  501 -0.85478291411E+01  0.25209228226E+02  0.17431962644E+03  0.24633291037E+03  0.17200000000E+03 0.  1.
</event>
<event>
 4    1  0.3141404E-002  0.2462349E+03  0.7818608E-02  0.1115708E+00
         -2   -1    0    0    0  501 -0.00000000000E+00  0.00000000000E+00  0.22316963358E+03  0.22316963358E+03  0.00000000000E+00 0.  1.
          2   -1    0    0  502    0  0.00000000000E+00 -0.00000000000E+00 -0.36529960908E+03  0.36529960908E+03  0.00000000000E+00 0. -1.
          6    1    1    2  502    0  0.14694875378E+03  0.97229987175E+02  0.77886014043E+02  0.25825924539E+03  0.17200000000E+03 0. -1.
         -6    1    1    2    0  501 -0.14694875378E+03 -0.97229987175E+02 -0.22001598955E+03  0.33020999728E+03  0.17200000000E+03 0. -1.
</event>
<event>
 4    1  0.3141404E-002  0.5482745E+03  0.7818608E-02  0.1001894E+00
         -2   -1    0    0    0  501 -0.00000000000E+00  0.00000000000E+00  0.25087851188E+03  0.25087851188E+03  0.00000000000E+00 0.  1.
          2   -1    0    0  502    0  0.00000000000E+00 -0.00000000000E+00 -0.11988559949E+04  0.11988559949E+04  0.00000000000E+00 0. -1.
          6    1    1    2  502    0 -0.49902219898E+03  0.14831630429E+03 -0.45714888766E+03  0.71385571840E+03  0.17200000000E+03 0. -1.
         -6    1    1    2    0  501  0.49902219898E+03 -0.14831630429E+03 -0.49082859537E+03  0.73587878841E+03  0.17200000000E+03 0.  1.
</event>
<event>
 4    1  0.3141404E-002  0.1737586E+03  0.7818608E-02  0.1173984E+00
          2   -1    0    0  502    0  0.00000000000E+00  0.00000000000E+00  0.26430521458E+04  0.26430521458E+04  0.00000000000E+00 0. -1.
         -2   -1    0    0    0  501 -0.00000000000E+00 -0.00000000000E+00 -0.15332205103E+02  0.15332205103E+02  0.00000000000E+00 0.  1.
          6    1    1    2  502    0  0.17753446143E+02  0.17112854337E+02  0.64270897688E+03  0.66578289525E+03  0.17200000000E+03 0.  1.
         -6    1    1    2    0  501 -0.17753446143E+02 -0.17112854337E+02  0.19850109639E+04  0.19926014557E+04  0.17200000000E+03 0. -1.
</event>
<event>
 4    1  0.3141404E-002  0.7907165E+03  0.7818608E-02  0.9573553E-01
         -1   -1    0    0    0  501 -0.00000000000E+00  0.00000000000E+00  0.13284476132E+04  0.13284476132E+04  0.00000000000E+00 0.  1.
          1   -1    0    0  502    0  0.00000000000E+00 -0.00000000000E+00 -0.60772923759E+03  0.60772923759E+03  0.00000000000E+00 0. -1.
          6    1    1    2  502    0 -0.66415750392E+03  0.39312010059E+03 -0.99417885799E+02  0.79694198002E+03  0.17200000000E+03 0. -1.
         -6    1    1    2    0  501  0.66415750392E+03 -0.39312010059E+03  0.82013626145E+03  0.11392348708E+04  0.17200000000E+03 0.  1.
</event>
<event>
 4    1  0.3141404E-002  0.1865473E+03  0.7818608E-02  0.1161613E+00
         -2   -1    0    0    0  501 -0.00000000000E+00  0.00000000000E+00  0.29908063038E+02  0.29908063038E+02  0.00000000000E+00 0.  1.
          2   -1    0    0  502    0  0.00000000000E+00 -0.00000000000E+00 -0.12781846608E+04  0.12781846608E+04  0.00000000000E+00 0. -1.
          6    1    1    2  502    0  0.70434812983E+02  0.15963038438E+02 -0.81999897105E+03  0.84095076788E+03  0.17200000000E+03 0. -1.
         -6    1    1    2    0  501 -0.70434812983E+02 -0.15963038438E+02 -0.42827762674E+03  0.46714195599E+03  0.17200000000E+03 0.  1.
</event>
<event>
 4    1  0.3141404E-002  0.2154146E+03  0.7818608E-02  0.1137349E+00
          2   -1    0    0  502    0  0.00000000000E+00  0.00000000000E+00  0.28031951754E+04  0.28031951754E+04  0.00000000000E+00 0. -1.
         -2   -1    0    0    0  501 -0.00000000000E+00 -0.00000000000E+00 -0.61309047921E+02  0.61309047921E+02  0.00000000000E+00 0.  1.
          6    1    1    2  502    0 -0.12730150181E+03  0.24774711142E+02  0.25946552819E+04  0.26035820499E+04  0.17200000000E+03 0. -1.
         -6    1    1    2    0  501  0.12730150181E+03 -0.24774711142E+02  0.14723084550E+03  0.26092217334E+03  0.17200000000E+03 0.  1.
</event>
<event>
 4    1  0.3141404E-002  0.1776968E+03  0.7818608E-02  0.1170051E+00
          1   -1    0    0  502    0  0.00000000000E+00  0.00000000000E+00  0.11311062475E+03  0.11311062475E+03  0.00000000000E+00 0. -1.
         -1   -1    0    0    0  501 -0.00000000000E+00 -0.00000000000E+00 -0.29622058898E+03  0.29622058898E+03  0.00000000000E+00 0.  1.
          6    1    1    2  502    0  0.40313201062E+02  0.19157323422E+02 -0.42440192414E+02  0.18269462814E+03  0.17200000000E+03 0. -1.
         -6    1    1    2    0  501 -0.40313201062E+02 -0.19157323422E+02 -0.14066977182E+03  0.22663658558E+03  0.17200000000E+03 0.  1.
</event>
<event>
 4    1  0.3141404E-002  0.2187224E+03  0.7818608E-02  0.1134839E+00
          1   -1    0    0  502    0  0.00000000000E+00  0.00000000000E+00  0.30380028228E+02  0.30380028228E+02  0.00000000000E+00 0. -1.
         -1   -1    0    0    0  501 -0.00000000000E+00 -0.00000000000E+00 -0.15818089721E+04  0.15818089721E+04  0.00000000000E+00 0.  1.
          6    1    1    2  502    0 -0.11564521300E+02 -0.13461708122E+03 -0.72168313456E+03  0.75409949173E+03  0.17200000000E+03 0. -1.
         -6    1    1    2    0  501  0.11564521300E+02  0.13461708122E+03 -0.82974580934E+03  0.85808950864E+03  0.17200000000E+03 0.  1.
</event>
<event>
 4    1  0.3141404E-002  0.2150115E+03  0.7818608E-02  0.1137658E+00
         -2   -1    0    0    0  501 -0.00000000000E+00  0.00000000000E+00  0.22288100737E+03  0.22288100737E+03  0.00000000000E+00 0.  1.
          2   -1    0    0  502    0  0.00000000000E+00 -0.00000000000E+00 -0.39701602818E+03  0.39701602818E+03  0.00000000000E+00 0. -1.
          6    1    1    2  502    0 -0.11630316995E+03  0.55852750255E+02  0.12712302267E+03  0.24978034339E+03  0.17200000000E+03 0.  1.
         -6    1    1    2    0  501  0.11630316995E+03 -0.55852750255E+02 -0.30125804348E+03  0.37011669216E+03  0.17200000000E+03 0. -1.
</event>
<event>
 4    1  0.3141404E-002  0.1867637E+03  0.7818608E-02  0.1161413E+00
         -2   -1    0    0    0  501 -0.00000000000E+00  0.00000000000E+00  0.52127076640E+03  0.52127076640E+03  0.00000000000E+00 0.  1.
          2   -1    0    0  502    0  0.00000000000E+00 -0.00000000000E+00 -0.10772408576E+03  0.10772408576E+03  0.00000000000E+00 0. -1.
          6    1    1    2  502    0  0.72078802863E+02 -0.10066611149E+02  0.13202213647E+02  0.18722977575E+03  0.17200000000E+03 0. -1.
         -6    1    1    2    0  501 -0.72078802863E+02  0.10066611149E+02  0.40034446699E+03  0.44176507641E+03  0.17200000000E+03 0.  1.
</event>
<event>
 4    1  0.3141404E-002  0.1923332E+03  0.7818608E-02  0.1156374E+00
         -2   -1    0    0    0  501 -0.00000000000E+00  0.00000000000E+00  0.17924175712E+03  0.17924175712E+03  0.00000000000E+00 0.  1.
          2   -1    0    0  502    0  0.00000000000E+00 -0.00000000000E+00 -0.31204348261E+03  0.31204348261E+03  0.00000000000E+00 0. -1.
          6    1    1    2  502    0  0.46097514194E+02 -0.72684769872E+02 -0.20934191872E+03  0.28428171858E+03  0.17200000000E+03 0. -1.
         -6    1    1    2    0  501 -0.46097514194E+02  0.72684769872E+02  0.76540193228E+02  0.20700352114E+03  0.17200000000E+03 0.  1.
</event>
<event>
 4    1  0.3141404E-002  0.2660427E+03  0.7818608E-02  0.1103566E+00
          3   -1    0    0  502    0  0.00000000000E+00  0.00000000000E+00  0.13164238012E+04  0.13164238012E+04  0.00000000000E+00 0. -1.
         -3   -1    0    0    0  501 -0.00000000000E+00 -0.00000000000E+00 -0.60961490696E+02  0.60961490696E+02  0.00000000000E+00 0.  1.
          6    1    1    2  502    0  0.18392979234E+03 -0.85816986571E+02  0.86433978390E+03  0.90435722241E+03  0.17200000000E+03 0. -1.
         -6    1    1    2    0  501 -0.18392979234E+03  0.85816986571E+02  0.39112252656E+03  0.47302806944E+03  0.17200000000E+03 0.  1.
</event>
<event>
 4    1  0.3141404E-002  0.2764933E+03  0.7818608E-02  0.1097620E+00
          1   -1    0    0  502    0  0.00000000000E+00  0.00000000000E+00  0.13221982421E+04  0.13221982421E+04  0.00000000000E+00 0. -1.
         -1   -1    0    0    0  501 -0.00000000000E+00 -0.00000000000E+00 -0.10576200684E+03  0.10576200684E+03  0.00000000000E+00 0.  1.
          6    1    1    2  502    0 -0.23369777050E+02  0.21521714098E+03  0.10889275005E+04  0.11234819382E+04  0.17200000000E+03 0. -1.
         -6    1    1    2    0  501  0.23369777050E+02 -0.21521714098E+03  0.12750873480E+03  0.30447831073E+03  0.17200000000E+03 0.  1.
</event>
<event>
 4    1  0.3141404E-002  0.4149541E+03  0.7818608E-02  0.1038721E+00
          1   -1    0    0  502    0  0.00000000000E+00  0.00000000000E+00  0.34075611604E+04  0.34075611604E+04  0.00000000000E+00 0. -1.
         -1   -1    0    0    0  501 -0.00000000000E+00 -0.00000000000E+00 -0.50761491679E+02  0.50761491679E+02  0.00000000000E+00 0.  1.
          6    1    1    2  502    0 -0.84404432166E+02 -0.36807439967E+03  0.15618364669E+04  0.16160198084E+04  0.17200000000E+03 0. -1.
         -6    1    1    2    0  501  0.84404432166E+02  0.36807439967E+03  0.17949632018E+04  0.18423028436E+04  0.17200000000E+03 0. -1.
</event>
<event>
 4    1  0.3141404E-002  0.2199812E+03  0.7818608E-02  0.1133897E+00
          1   -1    0    0  502    0  0.00000000000E+00  0.00000000000E+00  0.91519294578E+03  0.91519294578E+03  0.00000000000E+00 0. -1.
         -1   -1    0    0    0  501 -0.00000000000E+00 -0.00000000000E+00 -0.75553780897E+02  0.75553780897E+02  0.00000000000E+00 0.  1.
          6    1    1    2  502    0 -0.13227143396E+03 -0.36221516251E+02  0.14842264073E+03  0.26536957392E+03  0.17200000000E+03 0.  1.
         -6    1    1    2    0  501  0.13227143396E+03  0.36221516251E+02  0.69121652415E+03  0.72537715275E+03  0.17200000000E+03 0.  1.
</event>
<event>
 4    1  0.3141404E-002  0.1729027E+03  0.7818608E-02  0.1174854E+00
         -2   -1    0    0    0  501 -0.00000000000E+00  0.00000000000E+00  0.51691459425E+02  0.51691459425E+02  0.00000000000E+00 0.  1.
          2   -1    0    0  502    0  0.00000000000E+00 -0.00000000000E+00 -0.98258392250E+03  0.98258392250E+03  0.00000000000E+00 0. -1.
          6    1    1    2  502    0  0.11085980466E+02 -0.13727026946E+02 -0.79714370461E+03  0.81567972638E+03  0.17200000000E+03 0. -1.
         -6    1    1    2    0  501 -0.11085980466E+02  0.13727026946E+02 -0.13374875847E+03  0.21859565555E+03  0.17200000000E+03 0.  1.
</event>
<event>
 4    1  0.3141404E-002  0.2240126E+03  0.7818608E-02  0.1130926E+00
         -2   -1    0    0    0  501 -0.00000000000E+00  0.00000000000E+00  0.79533759426E+03  0.79533759426E+03  0.00000000000E+00 0.  1.
          2   -1    0    0  502    0  0.00000000000E+00 -0.00000000000E+00 -0.10261404255E+03  0.10261404255E+03  0.00000000000E+00 0. -1.
          6    1    1    2  502    0 -0.10280153581E+03  0.10014741315E+03  0.67734324896E+02  0.23402905566E+03  0.17200000000E+03 0. -1.
         -6    1    1    2    0  501  0.10280153581E+03 -0.10014741315E+03  0.62498922682E+03  0.66392258115E+03  0.17200000000E+03 0.  1.
</event>
<event>
 4    1  0.3141404E-002  0.1795542E+03  0.7818608E-02  0.1168235E+00
         -2   -1    0    0    0  501 -0.00000000000E+00  0.00000000000E+00  0.25351765066E+02  0.25351765066E+02  0.00000000000E+00 0.  1.
          2   -1    0    0  502    0  0.00000000000E+00 -0.00000000000E+00 -0.16638163951E+04  0.16638163951E+04  0.00000000000E+00 0. -1.
          6    1    1    2  502    0 -0.49819240695E+02 -0.13181413957E+02 -0.40921650629E+03  0.44687565993E+03  0.17200000000E+03 0.  1.
         -6    1    1    2    0  501  0.49819240695E+02  0.13181413957E+02 -0.12292481238E+04  0.12422925003E+04  0.17200000000E+03 0. -1.
</event>
<event>
 4    1  0.3141404E-002  0.2012661E+03  0.7818608E-02  0.1148675E+00
         -2   -1    0    0    0  501 -0.00000000000E+00  0.00000000000E+00  0.29367215345E+02  0.29367215345E+02  0.00000000000E+00 0.  1.
          2   -1    0    0  502    0  0.00000000000E+00 -0.00000000000E+00 -0.13997798149E+04  0.13997798149E+04  0.00000000000E+00 0. -1.
          6    1    1    2  502    0 -0.27652219648E+01  0.10448156597E+03 -0.59890580476E+03  0.63181975836E+03  0.17200000000E+03 0. -1.
         -6    1    1    2    0  501  0.27652219648E+01 -0.10448156597E+03 -0.77150679483E+03  0.79732727192E+03  0.17200000000E+03 0.  1.
</event>
<event>
 4    1  0.3141404E-002  0.2785644E+03  0.7818608E-02  0.1096476E+00
          1   -1    0    0  502    0  0.00000000000E+00  0.00000000000E+00  0.22945663753E+03  0.22945663753E+03  0.00000000000E+00 0. -1.
         -1   -1    0    0    0  501 -0.00000000000E+00 -0.00000000000E+00 -0.33947641789E+03  0.33947641789E+03  0.00000000000E+00 0.  1.
          6    1    1    2  502    0  0.16536981363E+03 -0.14376003750E+03 -0.37444827912E+02  0.28106981122E+03  0.17200000000E+03 0. -1.
         -6    1    1    2    0  501 -0.16536981363E+03  0.14376003750E+03 -0.72574952447E+02  0.28786324421E+03  0.17200000000E+03 0.  1.
</event>
<event>
 4    1  0.3141404E-002  0.1741765E+03  0.7818608E-02  0.1173561E+00
         -3   -1    0    0    0  501 -0.00000000000E+00  0.00000000000E+00  0.43996755346E+03  0.43996755346E+03  0.00000000000E+00 0.  1.
          3   -1    0    0  502    0  0.00000000000E+00 -0.00000000000E+00 -0.69021171834E+02  0.69021171834E+02  0.00000000000E+00 0. -1.
          6    1    1    2  502    0  0.21542704312E+02  0.17010696487E+02  0.19342196258E+03  0.26028735565E+03  0.17200000000E+03 0.  1.
         -6    1    1    2    0  501 -0.21542704312E+02 -0.17010696487E+02  0.17752441905E+03  0.24870136964E+03  0.17200000000E+03 0. -1.
</event>
<event>
 4    1  0.3141404E-002  0.2975515E+03  0.7818608E-02  0.1086471E+00
          1   -1    0    0  502    0  0.00000000000E+00  0.00000000000E+00  0.23018884217E+03  0.23018884217E+03  0.00000000000E+00 0. -1.
         -1   -1    0    0    0  501 -0.00000000000E+00 -0.00000000000E+00 -0.40048649004E+03  0.40048649004E+03  0.00000000000E+00 0.  1.
          6    1    1    2  502    0 -0.24165614840E+03  0.23562576977E+02 -0.22397364795E+02  0.29839324899E+03  0.17200000000E+03 0. -1.
         -6    1    1    2    0  501  0.24165614840E+03 -0.23562576977E+02 -0.14790028308E+03  0.33228208322E+03  0.17200000000E+03 0.  1.
</event>
<event>
 4    1  0.3141404E-002  0.2056802E+03  0.7818608E-02  0.1145033E+00
         -3   -1    0    0    0  501 -0.00000000000E+00  0.00000000000E+00  0.24400165098E+03  0.24400165098E+03  0.00000000000E+00 0.  1.
          3   -1    0    0  502    0  0.00000000000E+00 -0.00000000000E+00 -0.18539856501E+03  0.18539856501E+03  0.00000000000E+00 0. -1.
          6    1    1    2  502    0 -0.10910889511E+03  0.28558769299E+02  0.83972119932E+02  0.22216136303E+03  0.17200000000E+03 0. -1.
         -6    1    1    2    0  501  0.10910889511E+03 -0.28558769299E+02 -0.25369033968E+02  0.20723885297E+03  0.17200000000E+03 0.  1.
</event>
<event>
 4    1  0.3141404E-002  0.2032860E+03  0.7818608E-02  0.1146996E+00
         -2   -1    0    0    0  501 -0.00000000000E+00  0.00000000000E+00  0.32972063812E+02  0.32972063812E+02  0.00000000000E+00 0.  1.
          2   -1    0    0  502    0  0.00000000000E+00 -0.00000000000E+00 -0.27472910940E+04  0.27472910940E+04  0.00000000000E+00 0. -1.
          6    1    1    2  502    0 -0.10831443665E+03  0.30315893904E+01 -0.23822725472E+04  0.23909302995E+04  0.17200000000E+03 0. -1.
         -6    1    1    2    0  501  0.10831443665E+03 -0.30315893904E+01 -0.33204648291E+03  0.38933285828E+03  0.17200000000E+03 0.  1.
</event>
<event>
 4    1  0.3141404E-002  0.1879574E+03  0.7818608E-02  0.1160317E+00
          2   -1    0    0  502    0  0.00000000000E+00  0.00000000000E+00  0.83754326849E+03  0.83754326849E+03  0.00000000000E+00 0. -1.
         -2   -1    0    0    0  501 -0.00000000000E+00 -0.00000000000E+00 -0.43479579482E+02  0.43479579482E+02  0.00000000000E+00 0.  1.
          6    1    1    2  502    0  0.27213302480E+01 -0.75740238990E+02  0.47317541667E+03  0.50913943511E+03  0.17200000000E+03 0. -1.
         -6    1    1    2    0  501 -0.27213302480E+01  0.75740238990E+02  0.32088827234E+03  0.37188341287E+03  0.17200000000E+03 0. -1.
</event>
<event>
 4    1  0.3141404E-002  0.2275015E+03  0.7818608E-02  0.1128411E+00
         -3   -1    0    0    0  501 -0.00000000000E+00  0.00000000000E+00  0.13744848026E+04  0.13744848026E+04  0.00000000000E+00 0.  1.
          3   -1    0    0  502    0  0.00000000000E+00 -0.00000000000E+00 -0.13122991029E+03  0.13122991029E+03  0.00000000000E+00 0. -1.
          6    1    1    2  502    0  0.14529985943E+03 -0.32571185226E+02 -0.14105619041E+02  0.22793836831E+03  0.17200000000E+03 0. -1.
         -6    1    1    2    0  501 -0.14529985943E+03  0.32571185226E+02  0.12573605113E+04  0.12777763445E+04  0.17200000000E+03 0.  1.
</event>
<event>
 4    1  0.3141404E-002  0.8163947E+03  0.7818608E-02  0.9536585E-01
         -2   -1    0    0    0  501 -0.00000000000E+00  0.00000000000E+00  0.60604806329E+03  0.60604806329E+03  0.00000000000E+00 0.  1.
          2   -1    0    0  502    0  0.00000000000E+00 -0.00000000000E+00 -0.12440233135E+04  0.12440233135E+04  0.00000000000E+00 0. -1.
          6    1    1    2  502    0 -0.77593355532E+03  0.18666375635E+03 -0.63400898863E+03  0.10336670827E+04  0.17200000000E+03 0. -1.
         -6    1    1    2    0  501  0.77593355532E+03 -0.18666375635E+03 -0.39662615949E+01  0.81640429411E+03  0.17200000000E+03 0.  1.
</event>
<event>
 4    1  0.3141404E-002  0.2141824E+03  0.7818608E-02  0.1138296E+00
          4   -1    0    0  502    0  0.00000000000E+00  0.00000000000E+00  0.82527881308E+02  0.82527881308E+02  0.00000000000E+00 0. -1.
         -4   -1    0    0    0  501 -0.00000000000E+00 -0.00000000000E+00 -0.78802929182E+03  0.78802929182E+03  0.00000000000E+00 0.  1.
          6    1    1    2  502    0  0.10810636890E+03  0.67846168257E+02 -0.58901435445E+03  0.62674715739E+03  0.17200000000E+03 0.  1.
         -6    1    1    2    0  501 -0.10810636890E+03 -0.67846168257E+02 -0.11648705606E+03  0.24381001574E+03  0.17200000000E+03 0. -1.
</event>
<event>
 4    1  0.3141404E-002  0.1182077E+04  0.7818608E-02  0.9128691E-01
         -2   -1    0    0    0  501 -0.00000000000E+00  0.00000000000E+00  0.11859865919E+04  0.11859865919E+04  0.00000000000E+00 0.  1.
          2   -1    0    0  502    0  0.00000000000E+00 -0.00000000000E+00 -0.13822370244E+04  0.13822370244E+04  0.00000000000E+00 0. -1.
          6    1    1    2  502    0  0.98227756939E+03  0.63470628355E+03 -0.59151222058E+03  0.13218139040E+04  0.17200000000E+03 0. -1.
         -6    1    1    2    0  501 -0.98227756939E+03 -0.63470628355E+03  0.39526178805E+03  0.12464097123E+04  0.17200000000E+03 0.  1.
</event>
<event>
 4    1  0.3141404E-002  0.2157951E+03  0.7818608E-02  0.1137057E+00
         -2   -1    0    0    0  501 -0.00000000000E+00  0.00000000000E+00  0.16595947880E+03  0.16595947880E+03  0.00000000000E+00 0.  1.
          2   -1    0    0  502    0  0.00000000000E+00 -0.00000000000E+00 -0.78797115148E+03  0.78797115148E+03  0.00000000000E+00 0. -1.
          6    1    1    2  502    0  0.42686680141E+02  0.12313153773E+03 -0.69373921003E+03  0.72652709500E+03  0.17200000000E+03 0. -1.
         -6    1    1    2    0  501 -0.42686680141E+02 -0.12313153773E+03  0.71727537351E+02  0.22740353528E+03  0.17200000000E+03 0.  1.
</event>
<event>
 4    1  0.3141404E-002  0.2443376E+03  0.7818608E-02  0.1116937E+00
         -1   -1    0    0    0  501 -0.00000000000E+00  0.00000000000E+00  0.48822707467E+03  0.48822707467E+03  0.00000000000E+00 0.  1.
          1   -1    0    0  502    0  0.00000000000E+00 -0.00000000000E+00 -0.12266964531E+03  0.12266964531E+03  0.00000000000E+00 0. -1.
          6    1    1    2  502    0  0.50042334354E+02 -0.16617046960E+03  0.19997306191E+03  0.31573736821E+03  0.17200000000E+03 0. -1.
         -6    1    1    2    0  501 -0.50042334354E+02  0.16617046960E+03  0.16558436745E+03  0.29515935177E+03  0.17200000000E+03 0. -1.
</event>
<event>
 4    1  0.3141404E-002  0.1732533E+03  0.7818608E-02  0.1174497E+00
         -1   -1    0    0    0  501 -0.00000000000E+00  0.00000000000E+00  0.13764973967E+03  0.13764973967E+03  0.00000000000E+00 0.  1.
          1   -1    0    0  502    0  0.00000000000E+00 -0.00000000000E+00 -0.22111622775E+03  0.22111622775E+03  0.00000000000E+00 0. -1.
          6    1    1    2  502    0 -0.15142703925E+02  0.14262387616E+02 -0.62802186224E+02  0.18428464878E+03  0.17200000000E+03 0. -1.
         -6    1    1    2    0  501  0.15142703925E+02 -0.14262387616E+02 -0.20664301858E+02  0.17448131864E+03  0.17200000000E+03 0.  1.
</event>
<event>
 4    1  0.3141404E-002  0.2875995E+03  0.7818608E-02  0.1091609E+00
          2   -1    0    0  502    0  0.00000000000E+00  0.00000000000E+00  0.16376056726E+04  0.16376056726E+04  0.00000000000E+00 0. -1.
         -2   -1    0    0    0  501 -0.00000000000E+00 -0.00000000000E+00 -0.59227549768E+02  0.59227549768E+02  0.00000000000E+00 0.  1.
          6    1    1    2  502    0  0.23032181611E+03  0.90176006094E+01  0.46367105684E+03  0.54562285972E+03  0.17200000000E+03 0.  1.
         -6    1    1    2    0  501 -0.23032181611E+03 -0.90176006094E+01  0.11147070659E+04  0.11512103626E+04  0.17200000000E+03 0. -1.
</event>
<event>
 4    1  0.3141404E-002  0.4258238E+03  0.7818608E-02  0.1035187E+00
          2   -1    0    0  502    0  0.00000000000E+00  0.00000000000E+00  0.30859331349E+04  0.30859331349E+04  0.00000000000E+00 0. -1.
         -2   -1    0    0    0  501 -0.00000000000E+00 -0.00000000000E+00 -0.61769829526E+02  0.61769829526E+02  0.00000000000E+00 0.  1.
          6    1    1    2  502    0 -0.21152056477E+03 -0.32711000888E+03  0.11646024135E+04  0.12400099551E+04  0.17200000000E+03 0. -1.
         -6    1    1    2    0  501  0.21152056477E+03  0.32711000888E+03  0.18595608919E+04  0.19076930093E+04  0.17200000000E+03 0.  1.
</event>
<event>
 4    1  0.3141404E-002  0.2576851E+03  0.7818608E-02  0.1108542E+00
          4   -1    0    0  502    0  0.00000000000E+00  0.00000000000E+00  0.44469305538E+03  0.44469305538E+03  0.00000000000E+00 0. -1.
         -4   -1    0    0    0  501 -0.00000000000E+00 -0.00000000000E+00 -0.17386270240E+03  0.17386270240E+03  0.00000000000E+00 0.  1.
          6    1    1    2  502    0 -0.19181475603E+03  0.49731329433E+01  0.25161501639E+03  0.36015517371E+03  0.17200000000E+03 0. -1.
         -6    1    1    2    0  501  0.19181475603E+03 -0.49731329433E+01  0.19215336596E+02  0.25840058406E+03  0.17200000000E+03 0.  1.
</event>
<event>
 4    1  0.3141404E-002  0.2699050E+03  0.7818608E-02  0.1101334E+00
          2   -1    0    0  502    0  0.00000000000E+00  0.00000000000E+00  0.83931832356E+03  0.83931832356E+03  0.00000000000E+00 0. -1.
         -2   -1    0    0    0  501 -0.00000000000E+00 -0.00000000000E+00 -0.17321191211E+03  0.17321191211E+03  0.00000000000E+00 0.  1.
          6    1    1    2  502    0  0.16200376737E+03 -0.13045879350E+03  0.69064558008E+03  0.74151199231E+03  0.17200000000E+03 0. -1.
         -6    1    1    2    0  501 -0.16200376737E+03  0.13045879350E+03 -0.24539168630E+02  0.27101824337E+03  0.17200000000E+03 0.  1.
</event>
<event>
 4    1  0.3141404E-002  0.1847197E+03  0.7818608E-02  0.1163312E+00
          2   -1    0    0  502    0  0.00000000000E+00  0.00000000000E+00  0.12398803373E+04  0.12398803373E+04  0.00000000000E+00 0. -1.
         -2   -1    0    0    0  501 -0.00000000000E+00 -0.00000000000E+00 -0.27534134768E+02  0.27534134768E+02  0.00000000000E+00 0.  1.
          6    1    1    2  502    0  0.25043968751E+02 -0.62531473105E+02  0.59176535322E+03  0.61992549453E+03  0.17200000000E+03 0. -1.
         -6    1    1    2    0  501 -0.25043968751E+02  0.62531473105E+02  0.62058084935E+03  0.64748897757E+03  0.17200000000E+03 0.  1.
</event>
<event>
 4    1  0.3141404E-002  0.2351451E+03  0.7818608E-02  0.1123070E+00
         -2   -1    0    0    0  501 -0.00000000000E+00  0.00000000000E+00  0.39704867028E+02  0.39704867028E+02  0.00000000000E+00 0.  1.
          2   -1    0    0  502    0  0.00000000000E+00 -0.00000000000E+00 -0.14239660504E+04  0.14239660504E+04  0.00000000000E+00 0. -1.
          6    1    1    2  502    0  0.15859818500E+03 -0.23575669859E+02 -0.80073786361E+03  0.83455037158E+03  0.17200000000E+03 0. -1.
         -6    1    1    2    0  501 -0.15859818500E+03  0.23575669859E+02 -0.58352331974E+03  0.62912054583E+03  0.17200000000E+03 0.  1.
</event>
<event>
 4    1  0.3141404E-002  0.2104779E+03  0.7818608E-02  0.1141188E+00
         -2   -1    0    0    0  501 -0.00000000000E+00  0.00000000000E+00  0.38138215911E+02  0.38138215911E+02  0.00000000000E+00 0.  1.
          2   -1    0    0  502    0  0.00000000000E+00 -0.00000000000E+00 -0.16744322610E+04  0.16744322610E+04  0.00000000000E+00 0. -1.
          6    1    1    2  502    0 -0.63619452025E+02  0.10329340368E+03 -0.12920360587E+04  0.13090676602E+04  0.17200000000E+03 0. -1.
         -6    1    1    2    0  501  0.63619452025E+02 -0.10329340368E+03 -0.34425798633E+03  0.40350281668E+03  0.17200000000E+03 0.  1.
</event>
<event>
 4    1  0.3141404E-002  0.2630561E+03  0.7818608E-02  0.1105321E+00
         -2   -1    0    0    0  501 -0.00000000000E+00  0.00000000000E+00  0.23656943939E+03  0.23656943939E+03  0.00000000000E+00 0.  1.
          2   -1    0    0  502    0  0.00000000000E+00 -0.00000000000E+00 -0.29271621921E+03  0.29271621921E+03  0.00000000000E+00 0. -1.
          6    1    1    2  502    0 -0.13080017591E+03  0.15001944281E+03 -0.21019844164E+02  0.26389458707E+03  0.17200000000E+03 0. -1.
         -6    1    1    2    0  501  0.13080017591E+03 -0.15001944281E+03 -0.35126935649E+02  0.26539107153E+03  0.17200000000E+03 0. -1.
</event>
<event>
 4    1  0.3141404E-002  0.3377484E+03  0.7818608E-02  0.1067759E+00
          2   -1    0    0  502    0  0.00000000000E+00  0.00000000000E+00  0.13077017988E+04  0.13077017988E+04  0.00000000000E+00 0. -1.
         -2   -1    0    0    0  501 -0.00000000000E+00 -0.00000000000E+00 -0.11167936239E+03  0.11167936239E+03  0.00000000000E+00 0.  1.
          6    1    1    2  502    0  0.25765677173E+03 -0.13454725225E+03  0.93005470917E+03  0.98948256031E+03  0.17200000000E+03 0. -1.
         -6    1    1    2    0  501 -0.25765677173E+03  0.13454725225E+03  0.26596772726E+03  0.42989860089E+03  0.17200000000E+03 0.  1.
</event>
<event>
 4    1  0.3141404E-002  0.2275737E+03  0.7818608E-02  0.1128359E+00
         -1   -1    0    0    0  501 -0.00000000000E+00  0.00000000000E+00  0.12271325332E+03  0.12271325332E+03  0.00000000000E+00 0.  1.
          1   -1    0    0  502    0  0.00000000000E+00 -0.00000000000E+00 -0.19130731208E+04  0.19130731208E+04  0.00000000000E+00 0. -1.
          6    1    1    2  502    0 -0.97233969437E+02  0.11292194471E+03 -0.17938084088E+04  0.18081864997E+04  0.17200000000E+03 0. -1.
         -6    1    1    2    0  501  0.97233969437E+02 -0.11292194471E+03  0.34485412478E+01  0.22759987444E+03  0.17200000000E+03 0.  1.
</event>
<event>
 4    1  0.3141404E-002  0.2682965E+03  0.7818608E-02  0.1102259E+00
          2   -1    0    0  502    0  0.00000000000E+00  0.00000000000E+00  0.38397369967E+04  0.38397369967E+04  0.00000000000E+00 0. -1.
         -2   -1    0    0    0  501 -0.00000000000E+00 -0.00000000000E+00 -0.32202500036E+02  0.32202500036E+02  0.00000000000E+00 0.  1.
          6    1    1    2  502    0  0.13772001219E+03 -0.15307589138E+03  0.31551952690E+04  0.31665817873E+04  0.17200000000E+03 0. -1.
         -6    1    1    2    0  501 -0.13772001219E+03  0.15307589138E+03  0.65233922764E+03  0.70535770939E+03  0.17200000000E+03 0.  1.
</event>
<event>
 4    1  0.3141404E-002  0.2581142E+03  0.7818608E-02  0.1108282E+00
          2   -1    0    0  502    0  0.00000000000E+00  0.00000000000E+00  0.17978541647E+04  0.17978541647E+04  0.00000000000E+00 0. -1.
         -2   -1    0    0    0  501 -0.00000000000E+00 -0.00000000000E+00 -0.38032665997E+02  0.38032665997E+02  0.00000000000E+00 0.  1.
          6    1    1    2  502    0  0.62512514239E+02  0.18201962942E+03  0.10269398141E+04  0.10588807023E+04  0.17200000000E+03 0. -1.
         -6    1    1    2    0  501 -0.62512514239E+02 -0.18201962942E+03  0.73288168462E+03  0.77700612841E+03  0.17200000000E+03 0.  1.
</event>
<event>
 4    1  0.3141404E-002  0.1784344E+03  0.7818608E-02  0.1169327E+00
          1   -1    0    0  502    0  0.00000000000E+00  0.00000000000E+00  0.73170998182E+03  0.73170998182E+03  0.00000000000E+00 0. -1.
         -1   -1    0    0    0  501 -0.00000000000E+00 -0.00000000000E+00 -0.45381376200E+02  0.45381376200E+02  0.00000000000E+00 0.  1.
          6    1    1    2  502    0  0.15232088066E+02  0.44975574444E+02  0.42200450818E+03  0.45817750242E+03  0.17200000000E+03 0. -1.
         -6    1    1    2    0  501 -0.15232088066E+02 -0.44975574444E+02  0.26432409744E+03  0.31891385559E+03  0.17200000000E+03 0.  1.
</event>
<event>
 4    1  0.3141404E-002  0.2450135E+03  0.7818608E-02  0.1116497E+00
         -1   -1    0    0    0  501 -0.00000000000E+00  0.00000000000E+00  0.15076325241E+03  0.15076325241E+03  0.00000000000E+00 0.  1.
          1   -1    0    0  502    0  0.00000000000E+00 -0.00000000000E+00 -0.71538880407E+03  0.71538880407E+03  0.00000000000E+00 0. -1.
          6    1    1    2  502    0  0.89431038125E+02  0.14983229150E+03 -0.57069099029E+03  0.62106346902E+03  0.17200000000E+03 0. -1.
         -6    1    1    2    0  501 -0.89431038125E+02 -0.14983229150E+03  0.60654386207E+01  0.24508858746E+03  0.17200000000E+03 0.  1.
</event>
<event>
 4    1  0.3141404E-002  0.2363654E+03  0.7818608E-02  0.1122238E+00
          2   -1    0    0  502    0  0.00000000000E+00  0.00000000000E+00  0.12684422550E+03  0.12684422550E+03  0.00000000000E+00 0. -1.
         -2   -1    0    0    0  501 -0.00000000000E+00 -0.00000000000E+00 -0.44045356638E+03  0.44045356638E+03  0.00000000000E+00 0.  1.
          6    1    1    2  502    0 -0.21266629692E+02  0.16072444909E+03 -0.15753799602E+03  0.28405428752E+03  0.17200000000E+03 0.  1.
         -6    1    1    2    0  501  0.21266629692E+02 -0.16072444909E+03 -0.15607134486E+03  0.28324350435E+03  0.17200000000E+03 0.  1.
</event>
<event>
 4    1  0.3141404E-002  0.1826388E+03  0.7818608E-02  0.1165273E+00
         -1   -1    0    0    0  501 -0.00000000000E+00  0.00000000000E+00  0.23646198577E+03  0.23646198577E+03  0.00000000000E+00 0.  1.
          1   -1    0    0  502    0  0.00000000000E+00 -0.00000000000E+00 -0.14120416523E+03  0.14120416523E+03  0.00000000000E+00 0. -1.
          6    1    1    2  502    0  0.24207571058E+02  0.56452937797E+02  0.41739672258E+02  0.18734764723E+03  0.17200000000E+03 0. -1.
         -6    1    1    2    0  501 -0.24207571058E+02 -0.56452937797E+02  0.53518148275E+02  0.19031850377E+03  0.17200000000E+03 0.  1.
</event>
<event>
 4    1  0.3141404E-002  0.1773761E+03  0.7818608E-02  0.1170367E+00
          1   -1    0    0  502    0  0.00000000000E+00  0.00000000000E+00  0.37006451389E+03  0.37006451389E+03  0.00000000000E+00 0. -1.
         -1   -1    0    0    0  501 -0.00000000000E+00 -0.00000000000E+00 -0.14461415022E+03  0.14461415022E+03  0.00000000000E+00 0.  1.
          6    1    1    2  502    0 -0.38535859258E+02 -0.19830790728E+02  0.27792463998E+03  0.32970347014E+03  0.17200000000E+03 0. -1.
         -6    1    1    2    0  501  0.38535859258E+02  0.19830790728E+02 -0.52474276315E+02  0.18497519397E+03  0.17200000000E+03 0.  1.
</event>
<event>
 4    1  0.3141404E-002  0.2363619E+03  0.7818608E-02  0.1122240E+00
         -1   -1    0    0    0  501 -0.00000000000E+00  0.00000000000E+00  0.40968162066E+03  0.40968162066E+03  0.00000000000E+00 0.  1.
          1   -1    0    0  502    0  0.00000000000E+00 -0.00000000000E+00 -0.24238797033E+03  0.24238797033E+03  0.00000000000E+00 0. -1.
          6    1    1    2  502    0  0.10722960772E+03  0.12159262170E+03 -0.13198100060E+03  0.27071375832E+03  0.17200000000E+03 0. -1.
         -6    1    1    2    0  501 -0.10722960772E+03 -0.12159262170E+03  0.29927465093E+03  0.38135583267E+03  0.17200000000E+03 0.  1.
</event>
<event>
 4    1  0.3141404E-002  0.1921533E+03  0.7818608E-02  0.1156533E+00
         -1   -1    0    0    0  501 -0.00000000000E+00  0.00000000000E+00  0.27898238120E+02  0.27898238120E+02  0.00000000000E+00 0.  1.
          1   -1    0    0  502    0  0.00000000000E+00 -0.00000000000E+00 -0.15745324650E+04  0.15745324650E+04  0.00000000000E+00 0. -1.
          6    1    1    2  502    0  0.82472838008E+02 -0.23176251290E+02 -0.10932442844E+04  0.11100026906E+04  0.17200000000E+03 0. -1.
         -6    1    1    2    0  501 -0.82472838008E+02  0.23176251290E+02 -0.45338994249E+03  0.49242801259E+03  0.17200000000E+03 0.  1.
</event>
<event>
 4    1  0.3141404E-002  0.2312282E+03  0.7818608E-02  0.1125778E+00
          2   -1    0    0  502    0  0.00000000000E+00  0.00000000000E+00  0.34419831794E+03  0.34419831794E+03  0.00000000000E+00 0. -1.
         -2   -1    0    0    0  501 -0.00000000000E+00 -0.00000000000E+00 -0.22279360413E+03  0.22279360413E+03  0.00000000000E+00 0.  1.
          6    1    1    2  502    0  0.12981724136E+03 -0.83845004833E+02 -0.95292375606E+02  0.25009425791E+03  0.17200000000E+03 0.  1.
         -6    1    1    2    0  501 -0.12981724136E+03  0.83845004833E+02  0.21669708941E+03  0.31689766416E+03  0.17200000000E+03 0. -1.
</event>
<event>
 4    1  0.3141404E-002  0.3808254E+03  0.7818608E-02  0.1050629E+00
         -1   -1    0    0    0  501 -0.00000000000E+00  0.00000000000E+00  0.26969799418E+03  0.26969799418E+03  0.00000000000E+00 0.  1.
          1   -1    0    0  502    0  0.00000000000E+00 -0.00000000000E+00 -0.62908450905E+03  0.62908450905E+03  0.00000000000E+00 0. -1.
          6    1    1    2  502    0 -0.13775445401E+03  0.31059244211E+03 -0.35093374133E+03  0.51786334636E+03  0.17200000000E+03 0. -1.
         -6    1    1    2    0  501  0.13775445401E+03 -0.31059244211E+03 -0.84527735375E+01  0.38091915688E+03  0.17200000000E+03 0.  1.
</event>
<event>
 4    1  0.3141404E-002  0.2456303E+03  0.7818608E-02  0.1116098E+00
          2   -1    0    0  502    0  0.00000000000E+00  0.00000000000E+00  0.70483317613E+03  0.70483317613E+03  0.00000000000E+00 0. -1.
         -2   -1    0    0    0  501 -0.00000000000E+00 -0.00000000000E+00 -0.91831531467E+02  0.91831531467E+02  0.00000000000E+00 0.  1.
          6    1    1    2  502    0  0.17086753445E+03  0.39427547139E+02  0.20274294886E+03  0.31849481804E+03  0.17200000000E+03 0. -1.
         -6    1    1    2    0  501 -0.17086753445E+03 -0.39427547139E+02  0.41025869580E+03  0.47816988956E+03  0.17200000000E+03 0.  1.
</event>
<event>
 4    1  0.3141404E-002  0.2898489E+03  0.7818608E-02  0.1090428E+00
         -2   -1    0    0    0  501 -0.00000000000E+00  0.00000000000E+00  0.49353869276E+02  0.49353869276E+02  0.00000000000E+00 0.  1.
          2   -1    0    0  502    0  0.00000000000E+00 -0.00000000000E+00 -0.36646837566E+04  0.36646837566E+04  0.00000000000E+00 0. -1.
          6    1    1    2  502    0 -0.12597593815E+03  0.19636309947E+03 -0.31665916957E+04  0.31798294563E+04  0.17200000000E+03 0. -1.
         -6    1    1    2    0  501  0.12597593815E+03 -0.19636309947E+03 -0.44873819160E+03  0.53420816956E+03  0.17200000000E+03 0.  1.
</event>
<event>
 4    1  0.3141404E-002  0.1947436E+03  0.7818608E-02  0.1154251E+00
         -1   -1    0    0    0  501 -0.00000000000E+00  0.00000000000E+00  0.19567274093E+03  0.19567274093E+03  0.00000000000E+00 0.  1.
          1   -1    0    0  502    0  0.00000000000E+00 -0.00000000000E+00 -0.28790379749E+03  0.28790379749E+03  0.00000000000E+00 0. -1.
          6    1    1    2  502    0  0.27600562944E+02  0.87058979860E+02 -0.18433578791E+03  0.26815059156E+03  0.17200000000E+03 0. -1.
         -6    1    1    2    0  501 -0.27600562944E+02 -0.87058979860E+02  0.92104731344E+02  0.21542594687E+03  0.17200000000E+03 0.  1.
</event>
<event>
 4    1  0.3141404E-002  0.6234029E+03  0.7818608E-02  0.9858008E-01
         -2   -1    0    0    0  501 -0.00000000000E+00  0.00000000000E+00  0.67852054294E+03  0.67852054294E+03  0.00000000000E+00 0.  1.
          2   -1    0    0  502    0  0.00000000000E+00 -0.00000000000E+00 -0.88383687500E+03  0.88383687500E+03  0.00000000000E+00 0. -1.
          6    1    1    2  502    0 -0.55717849204E+03  0.22045252013E+03 -0.56610123689E+03  0.84208182265E+03  0.17200000000E+03 0. -1.
         -6    1    1    2    0  501  0.55717849204E+03 -0.22045252013E+03  0.36078490483E+03  0.72027559530E+03  0.17200000000E+03 0.  1.
</event>
<event>
 4    1  0.3141404E-002  0.2146910E+03  0.7818608E-02  0.1137904E+00
         -1   -1    0    0    0  501 -0.00000000000E+00  0.00000000000E+00  0.29528089008E+02  0.29528089008E+02  0.00000000000E+00 0.  1.
          1   -1    0    0  502    0  0.00000000000E+00 -0.00000000000E+00 -0.24015283376E+04  0.24015283376E+04  0.00000000000E+00 0. -1.
          6    1    1    2  502    0 -0.77792777220E+02  0.10225707249E+03 -0.46687049789E+03  0.51386796637E+03  0.17200000000E+03 0.  1.
         -6    1    1    2    0  501  0.77792777220E+02 -0.10225707249E+03 -0.19051297507E+04  0.19171884602E+04  0.17200000000E+03 0. -1.
</event>
<event>
 4    1  0.3141404E-002  0.2054363E+03  0.7818608E-02  0.1145232E+00
          2   -1    0    0  502    0  0.00000000000E+00  0.00000000000E+00  0.18199798755E+04  0.18199798755E+04  0.00000000000E+00 0. -1.
         -2   -1    0    0    0  501 -0.00000000000E+00 -0.00000000000E+00 -0.29892537469E+02  0.29892537469E+02  0.00000000000E+00 0.  1.
          6    1    1    2  502    0  0.11154840971E+03 -0.13305025780E+02  0.45704531717E+03  0.50109329806E+03  0.17200000000E+03 0.  1.
         -6    1    1    2    0  501 -0.11154840971E+03  0.13305025780E+02  0.13330420209E+04  0.13487791149E+04  0.17200000000E+03 0.  1.
</event>
<event>
 4    1  0.3141404E-002  0.2947857E+03  0.7818608E-02  0.1087877E+00
         -1   -1    0    0    0  501 -0.00000000000E+00  0.00000000000E+00  0.69503340425E+03  0.69503340425E+03  0.00000000000E+00 0.  1.
          1   -1    0    0  502    0  0.00000000000E+00 -0.00000000000E+00 -0.22957529496E+03  0.22957529496E+03  0.00000000000E+00 0. -1.
          6    1    1    2  502    0  0.11480422652E+03  0.21008233252E+03 -0.79247474882E+02  0.30525196009E+03  0.17200000000E+03 0. -1.
         -6    1    1    2    0  501 -0.11480422652E+03 -0.21008233252E+03  0.54470558417E+03  0.61935673912E+03  0.17200000000E+03 0.  1.
</event>
<event>
 4    1  0.3141404E-002  0.1726311E+03  0.7818608E-02  0.1175131E+00
          2   -1    0    0  502    0  0.00000000000E+00  0.00000000000E+00  0.89165196233E+03  0.89165196233E+03  0.00000000000E+00 0. -1.
         -2   -1    0    0    0  501 -0.00000000000E+00 -0.00000000000E+00 -0.33533592501E+02  0.33533592501E+02  0.00000000000E+00 0.  1.
          6    1    1    2  502    0  0.12708092969E+02 -0.74840611032E+01  0.40246966517E+03  0.43793074587E+03  0.17200000000E+03 0.  1.
         -6    1    1    2    0  501 -0.12708092969E+02  0.74840611032E+01  0.45564870465E+03  0.48725480896E+03  0.17200000000E+03 0. -1.
</event>
<event>
 4    1  0.3141404E-002  0.2075107E+03  0.7818608E-02  0.1143553E+00
          2   -1    0    0  502    0  0.00000000000E+00  0.00000000000E+00  0.93754233232E+03  0.93754233232E+03  0.00000000000E+00 0. -1.
         -2   -1    0    0    0  501 -0.00000000000E+00 -0.00000000000E+00 -0.47037427007E+02  0.47037427007E+02  0.00000000000E+00 0.  1.
          6    1    1    2  502    0  0.11287265834E+03  0.27137615280E+02  0.36969299059E+03  0.42394999051E+03  0.17200000000E+03 0.  1.
         -6    1    1    2    0  501 -0.11287265834E+03 -0.27137615280E+02  0.52081191472E+03  0.56062976881E+03  0.17200000000E+03 0.  1.
</event>
<event>
 4    1  0.3141404E-002  0.1869985E+03  0.7818608E-02  0.1161197E+00
          2   -1    0    0  502    0  0.00000000000E+00  0.00000000000E+00  0.80352774510E+03  0.80352774510E+03  0.00000000000E+00 0. -1.
         -2   -1    0    0    0  501 -0.00000000000E+00 -0.00000000000E+00 -0.11620873618E+03  0.11620873618E+03  0.00000000000E+00 0.  1.
          6    1    1    2  502    0  0.57786187822E+02  0.45223873840E+02  0.70736647280E+03  0.73166643296E+03  0.17200000000E+03 0. -1.
         -6    1    1    2    0  501 -0.57786187822E+02 -0.45223873840E+02 -0.20047463892E+02  0.18807004832E+03  0.17200000000E+03 0.  1.
</event>
<event>
 4    1  0.3141404E-002  0.3284591E+03  0.7818608E-02  0.1071821E+00
         -3   -1    0    0    0  501 -0.00000000000E+00  0.00000000000E+00  0.10866620428E+04  0.10866620428E+04  0.00000000000E+00 0.  1.
          3   -1    0    0  502    0  0.00000000000E+00 -0.00000000000E+00 -0.10617896697E+03  0.10617896697E+03  0.00000000000E+00 0. -1.
          6    1    1    2  502    0  0.27807155182E+03 -0.31266230026E+02  0.33822871137E+03  0.47147006932E+03  0.17200000000E+03 0. -1.
         -6    1    1    2    0  501 -0.27807155182E+03  0.31266230026E+02  0.64225436444E+03  0.72137094044E+03  0.17200000000E+03 0.  1.
</event>
<event>
 4    1  0.3141404E-002  0.1966808E+03  0.7818608E-02  0.1152570E+00
         -1   -1    0    0    0  501 -0.00000000000E+00  0.00000000000E+00  0.49656768256E+02  0.49656768256E+02  0.00000000000E+00 0.  1.
          1   -1    0    0  502    0  0.00000000000E+00 -0.00000000000E+00 -0.12760945992E+04  0.12760945992E+04  0.00000000000E+00 0. -1.
          6    1    1    2  502    0  0.83351502524E+02  0.46388208639E+02 -0.10269363975E+04  0.10456011206E+04  0.17200000000E+03 0. -1.
         -6    1    1    2    0  501 -0.83351502524E+02 -0.46388208639E+02 -0.19950143346E+03  0.28015024688E+03  0.17200000000E+03 0.  1.
</event>
<event>
 4    1  0.3141404E-002  0.2434273E+03  0.7818608E-02  0.1117531E+00
          2   -1    0    0  502    0  0.00000000000E+00  0.00000000000E+00  0.29434107231E+03  0.29434107231E+03  0.00000000000E+00 0. -1.
         -2   -1    0    0    0  501 -0.00000000000E+00 -0.00000000000E+00 -0.24667734116E+03  0.24667734116E+03  0.00000000000E+00 0.  1.
          6    1    1    2  502    0  0.15015465001E+03  0.84418158830E+02  0.13982695197E+03  0.28072837576E+03  0.17200000000E+03 0. -1.
         -6    1    1    2    0  501 -0.15015465001E+03 -0.84418158830E+02 -0.92163220815E+02  0.26029003771E+03  0.17200000000E+03 0. -1.
</event>
<event>
 4    1  0.3141404E-002  0.2551844E+03  0.7818608E-02  0.1110072E+00
         -2   -1    0    0    0  501 -0.00000000000E+00  0.00000000000E+00  0.27602693194E+03  0.27602693194E+03  0.00000000000E+00 0.  1.
          2   -1    0    0  502    0  0.00000000000E+00 -0.00000000000E+00 -0.24425773809E+03  0.24425773809E+03  0.00000000000E+00 0. -1.
          6    1    1    2  502    0 -0.14453520134E+03 -0.12101517660E+03  0.63959892200E+02  0.26307786909E+03  0.17200000000E+03 0. -1.
         -6    1    1    2    0  501  0.14453520134E+03  0.12101517660E+03 -0.32190698345E+02  0.25720680095E+03  0.17200000000E+03 0.  1.
</event>
<event>
 4    1  0.3141404E-002  0.1782715E+03  0.7818608E-02  0.1169486E+00
          2   -1    0    0  502    0  0.00000000000E+00  0.00000000000E+00  0.31781205075E+03  0.31781205075E+03  0.00000000000E+00 0. -1.
         -2   -1    0    0    0  501 -0.00000000000E+00 -0.00000000000E+00 -0.10078723913E+03  0.10078723913E+03  0.00000000000E+00 0.  1.
          6    1    1    2  502    0 -0.32320441624E+02 -0.33942629827E+02  0.12702834112E+03  0.21889932050E+03  0.17200000000E+03 0. -1.
         -6    1    1    2    0  501  0.32320441624E+02  0.33942629827E+02  0.89996470507E+02  0.19969996938E+03  0.17200000000E+03 0.  1.
</event>
<event>
 4    1  0.3141404E-002  0.3248292E+03  0.7818608E-02  0.1073448E+00
         -2   -1    0    0    0  501 -0.00000000000E+00  0.00000000000E+00  0.40282875911E+02  0.40282875911E+02  0.00000000000E+00 0.  1.
          2   -1    0    0  502    0  0.00000000000E+00 -0.00000000000E+00 -0.30515351543E+04  0.30515351543E+04  0.00000000000E+00 0. -1.
          6    1    1    2  502    0  0.38601926671E+02  0.27283679755E+03 -0.20874227542E+04  0.21125453325E+04  0.17200000000E+03 0. -1.
         -6    1    1    2    0  501 -0.38601926671E+02 -0.27283679755E+03 -0.92382952414E+03  0.97927269773E+03  0.17200000000E+03 0.  1.
</event>
<event>
 4    1  0.3141404E-002  0.3531827E+03  0.7818608E-02  0.1061316E+00
          1   -1    0    0  502    0  0.00000000000E+00  0.00000000000E+00  0.49336586164E+04  0.49336586164E+04  0.00000000000E+00 0. -1.
         -1   -1    0    0    0  501 -0.00000000000E+00 -0.00000000000E+00 -0.38028003883E+02  0.38028003883E+02  0.00000000000E+00 0.  1.
          6    1    1    2  502    0 -0.28843022358E+03 -0.10937091699E+03  0.38869151752E+04  0.39029280766E+04  0.17200000000E+03 0. -1.
         -6    1    1    2    0  501  0.28843022358E+03  0.10937091699E+03  0.10087154372E+04  0.10687585437E+04  0.17200000000E+03 0.  1.
</event>
<event>
 4    1  0.3141404E-002  0.2268687E+03  0.7818608E-02  0.1128863E+00
         -2   -1    0    0    0  501 -0.00000000000E+00  0.00000000000E+00  0.35975485727E+02  0.35975485727E+02  0.00000000000E+00 0.  1.
          2   -1    0    0  502    0  0.00000000000E+00 -0.00000000000E+00 -0.20881085454E+04  0.20881085454E+04  0.00000000000E+00 0. -1.
          6    1    1    2  502    0  0.11649866679E+02 -0.14747779975E+03 -0.16219883984E+04  0.16377776972E+04  0.17200000000E+03 0. -1.
         -6    1    1    2    0  501 -0.11649866679E+02  0.14747779975E+03 -0.43014466119E+03  0.48630633388E+03  0.17200000000E+03 0.  1.
</event>
<event>
 4    1  0.3141404E-002  0.1920775E+03  0.7818608E-02  0.1156601E+00
         -1   -1    0    0    0  501 -0.00000000000E+00  0.00000000000E+00  0.82148648869E+02  0.82148648869E+02  0.00000000000E+00 0.  1.
          1   -1    0    0  502    0  0.00000000000E+00 -0.00000000000E+00 -0.44929418602E+03  0.44929418602E+03  0.00000000000E+00 0. -1.
          6    1    1    2  502    0  0.19462352258E+02 -0.83252532667E+02 -0.18895505188E+03  0.26943975019E+03  0.17200000000E+03 0.  1.
         -6    1    1    2    0  501 -0.19462352258E+02  0.83252532667E+02 -0.17819048527E+03  0.26200308470E+03  0.17200000000E+03 0.  1.
</event>
<event>
 4    1  0.3141404E-002  0.2461740E+03  0.7818608E-02  0.1115747E+00
         -2   -1    0    0    0  501 -0.00000000000E+00  0.00000000000E+00  0.71123501018E+02  0.71123501018E+02  0.00000000000E+00 0.  1.
          2   -1    0    0  502    0  0.00000000000E+00 -0.00000000000E+00 -0.19524854168E+04  0.19524854168E+04  0.00000000000E+00 0. -1.
          6    1    1    2  502    0  0.16772701288E+03 -0.53714805142E+02 -0.18108506971E+03  0.30560339268E+03  0.17200000000E+03 0.  1.
         -6    1    1    2    0  501 -0.16772701288E+03  0.53714805142E+02 -0.17002768461E+04  0.17180055251E+04  0.17200000000E+03 0. -1.
</event>
<event>
 4    1  0.3141404E-002  0.2823130E+03  0.7818608E-02  0.1094432E+00
         -2   -1    0    0    0  501 -0.00000000000E+00  0.00000000000E+00  0.29143095711E+02  0.29143095711E+02  0.00000000000E+00 0.  1.
          2   -1    0    0  502    0  0.00000000000E+00 -0.00000000000E+00 -0.30727303622E+04  0.30727303622E+04  0.00000000000E+00 0. -1.
          6    1    1    2  502    0 -0.14034445439E+03 -0.17441343845E+03 -0.10074613282E+04  0.10462690577E+04  0.17200000000E+03 0. -1.
         -6    1    1    2    0  501  0.14034445439E+03  0.17441343845E+03 -0.20361259383E+04  0.20556044002E+04  0.17200000000E+03 0.  1.
</event>
<event>
 4    1  0.3141404E-002  0.3758799E+03  0.7818608E-02  0.1052467E+00
          2   -1    0    0  502    0  0.00000000000E+00  0.00000000000E+00  0.14100628432E+04  0.14100628432E+04  0.00000000000E+00 0. -1.
         -2   -1    0    0    0  501 -0.00000000000E+00 -0.00000000000E+00 -0.12024623449E+03  0.12024623449E+03  0.00000000000E+00 0.  1.
          6    1    1    2  502    0 -0.25575602203E+03 -0.21515246755E+03  0.95733602459E+03  0.10284833451E+04  0.17200000000E+03 0. -1.
         -6    1    1    2    0  501  0.25575602203E+03  0.21515246755E+03  0.33248058407E+03  0.50182573258E+03  0.17200000000E+03 0.  1.
</event>
<event>
 4    1  0.3141404E-002  0.2273325E+03  0.7818608E-02  0.1128531E+00
          3   -1    0    0  502    0  0.00000000000E+00  0.00000000000E+00  0.46897405701E+03  0.46897405701E+03  0.00000000000E+00 0. -1.
         -3   -1    0    0    0  501 -0.00000000000E+00 -0.00000000000E+00 -0.12241533737E+03  0.12241533737E+03  0.00000000000E+00 0.  1.
          6    1    1    2  502    0  0.12974205572E+03 -0.72547036555E+02  0.79865517788E+02  0.24095346950E+03  0.17200000000E+03 0.  1.
         -6    1    1    2    0  501 -0.12974205572E+03  0.72547036555E+02  0.26669320185E+03  0.35043592488E+03  0.17200000000E+03 0.  1.
</event>
<event>
 4    1  0.3141404E-002  0.2878935E+03  0.7818608E-02  0.1091454E+00
          2   -1    0    0  502    0  0.00000000000E+00  0.00000000000E+00  0.18295081911E+04  0.18295081911E+04  0.00000000000E+00 0. -1.
         -2   -1    0    0    0  501 -0.00000000000E+00 -0.00000000000E+00 -0.51539549708E+02  0.51539549708E+02  0.00000000000E+00 0.  1.
          6    1    1    2  502    0 -0.20834345875E+03 -0.99456950944E+02  0.12161462176E+04  0.12497576983E+04  0.17200000000E+03 0. -1.
         -6    1    1    2    0  501  0.20834345875E+03  0.99456950944E+02  0.56182242388E+03  0.63129004259E+03  0.17200000000E+03 0.  1.
</event>
<event>
 4    1  0.3141404E-002  0.5103336E+03  0.7818608E-02  0.1011116E+00
         -2   -1    0    0    0  501 -0.00000000000E+00  0.00000000000E+00  0.20756973706E+03  0.20756973706E+03  0.00000000000E+00 0.  1.
          2   -1    0    0  502    0  0.00000000000E+00 -0.00000000000E+00 -0.15411741296E+04  0.15411741296E+04  0.00000000000E+00 0. -1.
          6    1    1    2  502    0 -0.42337808553E+03  0.22717250523E+03 -0.10437693913E+04  0.11618497720E+04  0.17200000000E+03 0. -1.
         -6    1    1    2    0  501  0.42337808553E+03 -0.22717250523E+03 -0.28983500123E+03  0.58689409468E+03  0.17200000000E+03 0.  1.
</event>
<event>
 4    1  0.3141404E-002  0.1890720E+03  0.7818608E-02  0.1159301E+00
          2   -1    0    0  502    0  0.00000000000E+00  0.00000000000E+00  0.89682651432E+02  0.89682651432E+02  0.00000000000E+00 0. -1.
         -2   -1    0    0    0  501 -0.00000000000E+00 -0.00000000000E+00 -0.62240911538E+03  0.62240911538E+03  0.00000000000E+00 0.  1.
          6    1    1    2  502    0 -0.44023804181E+02  0.65008571065E+02 -0.52862554684E+02  0.19632284466E+03  0.17200000000E+03 0.  1.
         -6    1    1    2    0  501  0.44023804181E+02 -0.65008571065E+02 -0.47986390927E+03  0.51576892216E+03  0.17200000000E+03 0.  1.
</event>
<event>
 4    1  0.3141404E-002  0.2083731E+03  0.7818608E-02  0.1142861E+00
          2   -1    0    0  502    0  0.00000000000E+00  0.00000000000E+00  0.78185849560E+03  0.78185849560E+03  0.00000000000E+00 0. -1.
         -2   -1    0    0    0  501 -0.00000000000E+00 -0.00000000000E+00 -0.15780401328E+03  0.15780401328E+03  0.00000000000E+00 0.  1.
          6    1    1    2  502    0  0.11597387461E+03  0.19632132344E+02  0.69025904277E+03  0.72102489995E+03  0.17200000000E+03 0. -1.
         -6    1    1    2    0  501 -0.11597387461E+03 -0.19632132344E+02 -0.66204560454E+02  0.21863760893E+03  0.17200000000E+03 0.  1.
</event>
<event>
 4    1  0.3141404E-002  0.1999372E+03  0.7818608E-02  0.1149792E+00
         -1   -1    0    0    0  501 -0.00000000000E+00  0.00000000000E+00  0.28474934949E+03  0.28474934949E+03  0.00000000000E+00 0.  1.
          1   -1    0    0  502    0  0.00000000000E+00 -0.00000000000E+00 -0.18774563771E+03  0.18774563771E+03  0.00000000000E+00 0. -1.
          6    1    1    2  502    0  0.85353849432E+02  0.55728121623E+02 -0.70152903796E+02  0.21188754816E+03  0.17200000000E+03 0. -1.
         -6    1    1    2    0  501 -0.85353849432E+02 -0.55728121623E+02  0.16715661557E+03  0.26060743904E+03  0.17200000000E+03 0.  1.
</event>
<event>
 4    1  0.3141404E-002  0.1775801E+03  0.7818608E-02  0.1170166E+00
         -1   -1    0    0    0  501 -0.00000000000E+00  0.00000000000E+00  0.20737851470E+03  0.20737851470E+03  0.00000000000E+00 0.  1.
          1   -1    0    0  502    0  0.00000000000E+00 -0.00000000000E+00 -0.15209408057E+03  0.15209408057E+03  0.00000000000E+00 0. -1.
          6    1    1    2  502    0 -0.37594062406E+02 -0.23181559051E+02  0.30191737921E+02  0.18012839656E+03  0.17200000000E+03 0. -1.
         -6    1    1    2    0  501  0.37594062406E+02  0.23181559051E+02  0.25092696201E+02  0.17934419871E+03  0.17200000000E+03 0. -1.
</event>
<event>
 4    1  0.3141404E-002  0.2976014E+03  0.7818608E-02  0.1086446E+00
         -1   -1    0    0    0  501 -0.00000000000E+00  0.00000000000E+00  0.94596319924E+02  0.94596319924E+02  0.00000000000E+00 0.  1.
          1   -1    0    0  502    0  0.00000000000E+00 -0.00000000000E+00 -0.94154433085E+03  0.94154433085E+03  0.00000000000E+00 0. -1.
          6    1    1    2  502    0 -0.22868584360E+03 -0.81764074272E+02 -0.46229242560E+03  0.54980075088E+03  0.17200000000E+03 0.  1.
         -6    1    1    2    0  501  0.22868584360E+03  0.81764074272E+02 -0.38465558533E+03  0.48633989989E+03  0.17200000000E+03 0. -1.
</event>
<event>
 4    1  0.3141404E-002  0.3241948E+03  0.7818608E-02  0.1073735E+00
         -1   -1    0    0    0  501 -0.00000000000E+00  0.00000000000E+00  0.49243582717E+02  0.49243582717E+02  0.00000000000E+00 0.  1.
          1   -1    0    0  502    0  0.00000000000E+00 -0.00000000000E+00 -0.29509583779E+04  0.29509583779E+04  0.00000000000E+00 0. -1.
          6    1    1    2  502    0 -0.17206815544E+02 -0.27426668718E+03 -0.22399898823E+04  0.22633287350E+04  0.17200000000E+03 0. -1.
         -6    1    1    2    0  501  0.17206815544E+02  0.27426668718E+03 -0.66172491293E+03  0.73687322559E+03  0.17200000000E+03 0.  1.
</event>
<event>
 4    1  0.3141404E-002  0.4369298E+03  0.7818608E-02  0.1031693E+00
          2   -1    0    0  502    0  0.00000000000E+00  0.00000000000E+00  0.63213434498E+03  0.63213434498E+03  0.00000000000E+00 0. -1.
         -2   -1    0    0    0  501 -0.00000000000E+00 -0.00000000000E+00 -0.43272666968E+03  0.43272666968E+03  0.00000000000E+00 0.  1.
          6    1    1    2  502    0  0.40067355840E+03  0.28005597189E+02  0.39234149163E+03  0.58723032954E+03  0.17200000000E+03 0. -1.
         -6    1    1    2    0  501 -0.40067355840E+03 -0.28005597189E+02 -0.19293381633E+03  0.47763068511E+03  0.17200000000E+03 0.  1.
</event>
<event>
 4    1  0.3141404E-002  0.1738092E+03  0.7818608E-02  0.1173933E+00
         -2   -1    0    0    0  501 -0.00000000000E+00  0.00000000000E+00  0.27981073338E+02  0.27981073338E+02  0.00000000000E+00 0.  1.
          2   -1    0    0  502    0  0.00000000000E+00 -0.00000000000E+00 -0.10910109395E+04  0.10910109395E+04  0.00000000000E+00 0. -1.
          6    1    1    2  502    0  0.94631060515E+01  0.23153590691E+02 -0.58862018951E+03  0.61374535977E+03  0.17200000000E+03 0. -1.
         -6    1    1    2    0  501 -0.94631060515E+01 -0.23153590691E+02 -0.47440967665E+03  0.50524665307E+03  0.17200000000E+03 0.  1.
</event>
<event>
 4    1  0.3141404E-002  0.4766135E+03  0.7818608E-02  0.1020070E+00
          1   -1    0    0  502    0  0.00000000000E+00  0.00000000000E+00  0.20603371681E+03  0.20603371681E+03  0.00000000000E+00 0. -1.
         -1   -1    0    0    0  501 -0.00000000000E+00 -0.00000000000E+00 -0.11050605097E+04  0.11050605097E+04  0.00000000000E+00 0.  1.
          6    1    1    2  502    0 -0.23681470049E+03  0.37615845713E+03 -0.48082218849E+03  0.67701577838E+03  0.17200000000E+03 0. -1.
         -6    1    1    2    0  501  0.23681470049E+03 -0.37615845713E+03 -0.41820460441E+03  0.63407844814E+03  0.17200000000E+03 0. -1.
</event>
<event>
 4    1  0.3141404E-002  0.2129743E+03  0.7818608E-02  0.1139232E+00
          1   -1    0    0  502    0  0.00000000000E+00  0.00000000000E+00  0.23853861671E+03  0.23853861671E+03  0.00000000000E+00 0. -1.
         -1   -1    0    0    0  501 -0.00000000000E+00 -0.00000000000E+00 -0.19232189667E+03  0.19232189667E+03  0.00000000000E+00 0.  1.
          6    1    1    2  502    0 -0.19861834694E+02  0.12401427166E+03  0.21297667470E+00  0.21297435858E+03  0.17200000000E+03 0. -1.
         -6    1    1    2    0  501  0.19861834694E+02 -0.12401427166E+03  0.46003743363E+02  0.21788615480E+03  0.17200000000E+03 0.  1.
</event>
<event>
 4    1  0.3141404E-002  0.2376258E+03  0.7818608E-02  0.1121385E+00
          2   -1    0    0  502    0  0.00000000000E+00  0.00000000000E+00  0.71300930980E+03  0.71300930980E+03  0.00000000000E+00 0. -1.
         -2   -1    0    0    0  501 -0.00000000000E+00 -0.00000000000E+00 -0.94816629871E+02  0.94816629871E+02  0.00000000000E+00 0.  1.
          6    1    1    2  502    0 -0.16248951056E+03 -0.21890630501E+02  0.47305070157E+03  0.52937983245E+03  0.17200000000E+03 0.  1.
         -6    1    1    2    0  501  0.16248951056E+03  0.21890630501E+02  0.14514197835E+03  0.27844610722E+03  0.17200000000E+03 0.  1.
</event>
<event>
 4    1  0.3141404E-002  0.1953768E+03  0.7818608E-02  0.1153699E+00
          1   -1    0    0  502    0  0.00000000000E+00  0.00000000000E+00  0.99370010875E+03  0.99370010875E+03  0.00000000000E+00 0. -1.
         -1   -1    0    0    0  501 -0.00000000000E+00 -0.00000000000E+00 -0.40171904224E+02  0.40171904224E+02  0.00000000000E+00 0.  1.
          6    1    1    2  502    0 -0.29047358428E+02  0.88001909002E+02  0.36863014170E+03  0.41720530484E+03  0.17200000000E+03 0. -1.
         -6    1    1    2    0  501  0.29047358428E+02 -0.88001909002E+02  0.58489806283E+03  0.61666670813E+03  0.17200000000E+03 0.  1.
</event>
<event>
 4    1  0.3141404E-002  0.3812566E+03  0.7818608E-02  0.1050470E+00
         -2   -1    0    0    0  501 -0.00000000000E+00  0.00000000000E+00  0.19590075521E+03  0.19590075521E+03  0.00000000000E+00 0.  1.
          2   -1    0    0  502    0  0.00000000000E+00 -0.00000000000E+00 -0.74199117568E+03  0.74199117568E+03  0.00000000000E+00 0. -1.
          6    1    1    2  502    0  0.31562738576E+03  0.12709041261E+03 -0.27291014857E+03  0.46886732538E+03  0.17200000000E+03 0. -1.
         -6    1    1    2    0  501 -0.31562738576E+03 -0.12709041261E+03 -0.27318027190E+03  0.46902460551E+03  0.17200000000E+03 0.  1.
</event>
<event>
 4    1  0.3141404E-002  0.1725542E+03  0.7818608E-02  0.1175210E+00
         -1   -1    0    0    0  501 -0.00000000000E+00  0.00000000000E+00  0.30995638495E+03  0.30995638495E+03  0.00000000000E+00 0.  1.
          1   -1    0    0  502    0  0.00000000000E+00 -0.00000000000E+00 -0.97726070980E+02  0.97726070980E+02  0.00000000000E+00 0. -1.
          6    1    1    2  502    0 -0.12803696394E+02  0.51967078679E+01  0.79513386063E+02  0.18999294455E+03  0.17200000000E+03 0. -1.
         -6    1    1    2    0  501  0.12803696394E+02 -0.51967078679E+01  0.13271692791E+03  0.21768951139E+03  0.17200000000E+03 0. -1.
</event>
<event>
 4    1  0.3141404E-002  0.1979482E+03  0.7818608E-02  0.1151482E+00
          2   -1    0    0  502    0  0.00000000000E+00  0.00000000000E+00  0.48204810646E+03  0.48204810646E+03  0.00000000000E+00 0. -1.
         -2   -1    0    0    0  501 -0.00000000000E+00 -0.00000000000E+00 -0.24026480816E+03  0.24026480816E+03  0.00000000000E+00 0.  1.
          6    1    1    2  502    0 -0.90062437379E+02 -0.38577890092E+02  0.41467059954E+03  0.45949450742E+03  0.17200000000E+03 0. -1.
         -6    1    1    2    0  501  0.90062437379E+02  0.38577890092E+02 -0.17288730124E+03  0.26281840720E+03  0.17200000000E+03 0.  1.
</event>
<event>
 4    1  0.3141404E-002  0.1820787E+03  0.7818608E-02  0.1165806E+00
          1   -1    0    0  502    0  0.00000000000E+00  0.00000000000E+00  0.67845979470E+03  0.67845979470E+03  0.00000000000E+00 0. -1.
         -1   -1    0    0    0  501 -0.00000000000E+00 -0.00000000000E+00 -0.56702890947E+02  0.56702890947E+02  0.00000000000E+00 0.  1.
          6    1    1    2  502    0 -0.10697145185E+02  0.58772666099E+02  0.17421197148E+03  0.25199695674E+03  0.17200000000E+03 0. -1.
         -6    1    1    2    0  501  0.10697145185E+02 -0.58772666099E+02  0.44754493227E+03  0.48316572891E+03  0.17200000000E+03 0. -1.
</event>
<event>
 4    1  0.3141404E-002  0.4102913E+03  0.7818608E-02  0.1040273E+00
          3   -1    0    0  502    0  0.00000000000E+00  0.00000000000E+00  0.13039107417E+04  0.13039107417E+04  0.00000000000E+00 0. -1.
         -3   -1    0    0    0  501 -0.00000000000E+00 -0.00000000000E+00 -0.13291289021E+03  0.13291289021E+03  0.00000000000E+00 0.  1.
          6    1    1    2  502    0  0.36894176328E+03 -0.51351352395E+02  0.70712803008E+03  0.81753840094E+03  0.17200000000E+03 0. -1.
         -6    1    1    2    0  501 -0.36894176328E+03  0.51351352395E+02  0.46386982140E+03  0.61928523096E+03  0.17200000000E+03 0.  1.
</event>
<event>
 4    1  0.3141404E-002  0.3852548E+03  0.7818608E-02  0.1049008E+00
          2   -1    0    0  502    0  0.00000000000E+00  0.00000000000E+00  0.81370515624E+03  0.81370515624E+03  0.00000000000E+00 0. -1.
         -2   -1    0    0    0  501 -0.00000000000E+00 -0.00000000000E+00 -0.19918421069E+03  0.19918421069E+03  0.00000000000E+00 0.  1.
          6    1    1    2  502    0  0.87135388203E+02 -0.33353364462E+03  0.45426543934E+03  0.59563273697E+03  0.17200000000E+03 0. -1.
         -6    1    1    2    0  501 -0.87135388203E+02  0.33353364462E+03  0.16025550621E+03  0.41725662996E+03  0.17200000000E+03 0.  1.
</event>
<event>
 4    1  0.3141404E-002  0.3446055E+03  0.7818608E-02  0.1064851E+00
          2   -1    0    0  502    0  0.00000000000E+00  0.00000000000E+00  0.51194800967E+03  0.51194800967E+03  0.00000000000E+00 0. -1.
         -2   -1    0    0    0  501 -0.00000000000E+00 -0.00000000000E+00 -0.30698024794E+03  0.30698024794E+03  0.00000000000E+00 0.  1.
          6    1    1    2  502    0 -0.26457638913E+03  0.13844947297E+03  0.30489838403E+03  0.46012601191E+03  0.17200000000E+03 0. -1.
         -6    1    1    2    0  501  0.26457638913E+03 -0.13844947297E+03 -0.99930622299E+02  0.35880224571E+03  0.17200000000E+03 0.  1.
</event>
<event>
 4    1  0.3141404E-002  0.2642947E+03  0.7818608E-02  0.1104590E+00
          2   -1    0    0  502    0  0.00000000000E+00  0.00000000000E+00  0.72847478505E+03  0.72847478505E+03  0.00000000000E+00 0. -1.
         -2   -1    0    0    0  501 -0.00000000000E+00 -0.00000000000E+00 -0.13924240873E+03  0.13924240873E+03  0.00000000000E+00 0.  1.
          6    1    1    2  502    0 -0.18819414816E+03  0.69646705533E+02  0.53670853798E+03  0.59825392246E+03  0.17200000000E+03 0. -1.
         -6    1    1    2    0  501  0.18819414816E+03 -0.69646705533E+02  0.52523838345E+02  0.26946327132E+03  0.17200000000E+03 0.  1.
</event>
<event>
 4    1  0.3141404E-002  0.1770493E+03  0.7818608E-02  0.1170690E+00
          2   -1    0    0  502    0  0.00000000000E+00  0.00000000000E+00  0.17249536741E+04  0.17249536741E+04  0.00000000000E+00 0. -1.
         -2   -1    0    0    0  501 -0.00000000000E+00 -0.00000000000E+00 -0.28491139059E+02  0.28491139059E+02  0.00000000000E+00 0.  1.
          6    1    1    2  502    0  0.16422876196E+02 -0.38635921989E+02  0.13758518989E+04  0.13871967751E+04  0.17200000000E+03 0. -1.
         -6    1    1    2    0  501 -0.16422876196E+02  0.38635921989E+02  0.32061063621E+03  0.36624803805E+03  0.17200000000E+03 0.  1.
</event>
<event>
 4    1  0.3141404E-002  0.2589271E+03  0.7818608E-02  0.1107790E+00
         -2   -1    0    0    0  501 -0.00000000000E+00  0.00000000000E+00  0.92750803988E+02  0.92750803988E+02  0.00000000000E+00 0.  1.
          2   -1    0    0  502    0  0.00000000000E+00 -0.00000000000E+00 -0.21013545890E+04  0.21013545890E+04  0.00000000000E+00 0. -1.
          6    1    1    2  502    0 -0.11810535695E+03 -0.15333083742E+03 -0.18928579034E+04  0.19104853476E+04  0.17200000000E+03 0. -1.
         -6    1    1    2    0  501  0.11810535695E+03  0.15333083742E+03 -0.11574588169E+03  0.28362004544E+03  0.17200000000E+03 0.  1.
</event>
<event>
 4    1  0.3141404E-002  0.2254618E+03  0.7818608E-02  0.1129875E+00
          2   -1    0    0  502    0  0.00000000000E+00  0.00000000000E+00  0.27757738875E+03  0.27757738875E+03  0.00000000000E+00 0. -1.
         -2   -1    0    0    0  501 -0.00000000000E+00 -0.00000000000E+00 -0.18848460144E+03  0.18848460144E+03  0.00000000000E+00 0.  1.
          6    1    1    2  502    0  0.11070420496E+03 -0.94834694241E+02  0.52731734724E+01  0.22552349453E+03  0.17200000000E+03 0.  1.
         -6    1    1    2    0  501 -0.11070420496E+03  0.94834694241E+02  0.83819613843E+02  0.24053849566E+03  0.17200000000E+03 0.  1.
</event>
<event>
 4    1  0.3141404E-002  0.3993973E+03  0.7818608E-02  0.1043989E+00
         -1   -1    0    0    0  501 -0.00000000000E+00  0.00000000000E+00  0.38369105688E+03  0.38369105688E+03  0.00000000000E+00 0.  1.
          1   -1    0    0  502    0  0.00000000000E+00 -0.00000000000E+00 -0.46926239070E+03  0.46926239070E+03  0.00000000000E+00 0. -1.
          6    1    1    2  502    0  0.26617780200E+03 -0.24307115685E+03 -0.18680768248E+03  0.44092552636E+03  0.17200000000E+03 0. -1.
         -6    1    1    2    0  501 -0.26617780200E+03  0.24307115685E+03  0.10123634866E+03  0.41202792121E+03  0.17200000000E+03 0.  1.
</event>
<event>
 4    1  0.3141404E-002  0.3700318E+03  0.7818608E-02  0.1054681E+00
         -2   -1    0    0    0  501 -0.00000000000E+00  0.00000000000E+00  0.40156454750E+02  0.40156454750E+02  0.00000000000E+00 0.  1.
          2   -1    0    0  502    0  0.00000000000E+00 -0.00000000000E+00 -0.34194106104E+04  0.34194106104E+04  0.00000000000E+00 0. -1.
          6    1    1    2  502    0  0.32484635346E+03 -0.42595780681E+02 -0.15976938858E+04  0.16399845446E+04  0.17200000000E+03 0. -1.
         -6    1    1    2    0  501 -0.32484635346E+03  0.42595780681E+02 -0.17815602699E+04  0.18195825206E+04  0.17200000000E+03 0.  1.
</event>
<event>
 4    1  0.3141404E-002  0.1939482E+03  0.7818608E-02  0.1154948E+00
          1   -1    0    0  502    0  0.00000000000E+00  0.00000000000E+00  0.33678518591E+02  0.33678518591E+02  0.00000000000E+00 0. -1.
         -1   -1    0    0    0  501 -0.00000000000E+00 -0.00000000000E+00 -0.11249598509E+04  0.11249598509E+04  0.00000000000E+00 0.  1.
          6    1    1    2  502    0 -0.30305885119E+02  0.84341330238E+02 -0.59464306221E+03  0.62547284361E+03  0.17200000000E+03 0.  1.
         -6    1    1    2    0  501  0.30305885119E+02 -0.84341330238E+02 -0.49663827007E+03  0.53316552585E+03  0.17200000000E+03 0. -1.
</event>
<event>
 4    1  0.3141404E-002  0.2362262E+03  0.7818608E-02  0.1122333E+00
          2   -1    0    0  502    0  0.00000000000E+00  0.00000000000E+00  0.26150438772E+04  0.26150438772E+04  0.00000000000E+00 0. -1.
         -2   -1    0    0    0  501 -0.00000000000E+00 -0.00000000000E+00 -0.24855940081E+02  0.24855940081E+02  0.00000000000E+00 0.  1.
          6    1    1    2  502    0 -0.22483669131E+02  0.16035374465E+03  0.17915890842E+04  0.18070955385E+04  0.17200000000E+03 0. -1.
         -6    1    1    2    0  501  0.22483669131E+02 -0.16035374465E+03  0.79859885295E+03  0.83280427877E+03  0.17200000000E+03 0.  1.
</event>
<event>
 4    1  0.3141404E-002  0.2597184E+03  0.7818608E-02  0.1107313E+00
         -2   -1    0    0    0  501 -0.00000000000E+00  0.00000000000E+00  0.40973404563E+02  0.40973404563E+02  0.00000000000E+00 0.  1.
          2   -1    0    0  502    0  0.00000000000E+00 -0.00000000000E+00 -0.16769151097E+04  0.16769151097E+04  0.00000000000E+00 0. -1.
          6    1    1    2  502    0  0.15426007247E+03  0.11863166710E+03 -0.93406986184E+03  0.96950510529E+03  0.17200000000E+03 0. -1.
         -6    1    1    2    0  501 -0.15426007247E+03 -0.11863166710E+03 -0.70187184329E+03  0.74838340895E+03  0.17200000000E+03 0.  1.
</event>
<event>
 4    1  0.3141404E-002  0.6702463E+03  0.7818608E-02  0.9769513E-01
         -2   -1    0    0    0  501 -0.00000000000E+00  0.00000000000E+00  0.24629558485E+03  0.24629558485E+03  0.00000000000E+00 0.  1.
          2   -1    0    0  502    0  0.00000000000E+00 -0.00000000000E+00 -0.22569244043E+04  0.22569244043E+04  0.00000000000E+00 0. -1.
          6    1    1    2  502    0  0.27571412409E+02 -0.64721393666E+03 -0.45710915436E+03  0.81128222068E+03  0.17200000000E+03 0. -1.
         -6    1    1    2    0  501 -0.27571412409E+02  0.64721393666E+03 -0.15535196651E+04  0.16919377685E+04  0.17200000000E+03 0.  1.
</event>
<event>
 4    1  0.3141404E-002  0.2628382E+03  0.7818608E-02  0.1105450E+00
          2   -1    0    0  502    0  0.00000000000E+00  0.00000000000E+00  0.12319194036E+04  0.12319194036E+04  0.00000000000E+00 0. -1.
         -2   -1    0    0    0  501 -0.00000000000E+00 -0.00000000000E+00 -0.72707267244E+02  0.72707267244E+02  0.00000000000E+00 0.  1.
          6    1    1    2  502    0 -0.19864973153E+03  0.61821372113E+01  0.89156692475E+03  0.92950283268E+03  0.17200000000E+03 0. -1.
         -6    1    1    2    0  501  0.19864973153E+03 -0.61821372113E+01  0.26764521159E+03  0.37512383815E+03  0.17200000000E+03 0.  1.
</event>
<event>
 4    1  0.3141404E-002  0.2424633E+03  0.7818608E-02  0.1118163E+00
         -1   -1    0    0    0  501 -0.00000000000E+00  0.00000000000E+00  0.45833778621E+02  0.45833778621E+02  0.00000000000E+00 0.  1.
          1   -1    0    0  502    0  0.00000000000E+00 -0.00000000000E+00 -0.14499165234E+04  0.14499165234E+04  0.00000000000E+00 0. -1.
          6    1    1    2  502    0 -0.22355571115E+02 -0.16942460457E+03 -0.44802098401E+03  0.50942248704E+03  0.17200000000E+03 0.  1.
         -6    1    1    2    0  501  0.22355571115E+02  0.16942460457E+03 -0.95606176074E+03  0.98632781495E+03  0.17200000000E+03 0. -1.
</event>
<event>
 4    1  0.3141404E-002  0.2690611E+03  0.7818608E-02  0.1101818E+00
         -1   -1    0    0    0  501 -0.00000000000E+00  0.00000000000E+00  0.46281103572E+02  0.46281103572E+02  0.00000000000E+00 0.  1.
          1   -1    0    0  502    0  0.00000000000E+00 -0.00000000000E+00 -0.15779429753E+04  0.15779429753E+04  0.00000000000E+00 0. -1.
          6    1    1    2  502    0 -0.25977857779E+02  0.20526820285E+03 -0.84156219278E+03  0.88352748034E+03  0.17200000000E+03 0. -1.
         -6    1    1    2    0  501  0.25977857779E+02 -0.20526820285E+03 -0.69009967897E+03  0.74069659855E+03  0.17200000000E+03 0.  1.
</event>
<event>
 4    1  0.3141404E-002  0.2823374E+03  0.7818608E-02  0.1094419E+00
         -1   -1    0    0    0  501 -0.00000000000E+00  0.00000000000E+00  0.10974690237E+04  0.10974690237E+04  0.00000000000E+00 0.  1.
          1   -1    0    0  502    0  0.00000000000E+00 -0.00000000000E+00 -0.96873029449E+02  0.96873029449E+02  0.00000000000E+00 0. -1.
          6    1    1    2  502    0  0.12036107727E+03 -0.18879510911E+03  0.20158904994E+03  0.34691861755E+03  0.17200000000E+03 0. -1.
         -6    1    1    2    0  501 -0.12036107727E+03  0.18879510911E+03  0.79900694430E+03  0.84742343559E+03  0.17200000000E+03 0.  1.
</event>
<event>
 4    1  0.3141404E-002  0.2294746E+03  0.7818608E-02  0.1127010E+00
         -2   -1    0    0    0  501 -0.00000000000E+00  0.00000000000E+00  0.42656287085E+02  0.42656287085E+02  0.00000000000E+00 0.  1.
          2   -1    0    0  502    0  0.00000000000E+00 -0.00000000000E+00 -0.12855129117E+04  0.12855129117E+04  0.00000000000E+00 0. -1.
          6    1    1    2  502    0  0.53308843714E+02  0.14224191317E+03 -0.75373575785E+03  0.78789351269E+03  0.17200000000E+03 0. -1.
         -6    1    1    2    0  501 -0.53308843714E+02 -0.14224191317E+03 -0.48912086677E+03  0.54027568610E+03  0.17200000000E+03 0.  1.
</event>
<event>
 4    1  0.3141404E-002  0.3809390E+03  0.7818608E-02  0.1050587E+00
          2   -1    0    0  502    0  0.00000000000E+00  0.00000000000E+00  0.22430017887E+04  0.22430017887E+04  0.00000000000E+00 0. -1.
         -2   -1    0    0    0  501 -0.00000000000E+00 -0.00000000000E+00 -0.92141365885E+02  0.92141365885E+02  0.00000000000E+00 0.  1.
          6    1    1    2  502    0  0.32268585518E+02 -0.33836262889E+03  0.43821495446E+03  0.58064350212E+03  0.17200000000E+03 0. -1.
         -6    1    1    2    0  501 -0.32268585518E+02  0.33836262889E+03  0.17126454684E+04  0.17544996525E+04  0.17200000000E+03 0. -1.
</event>
<event>
 4    1  0.3141404E-002  0.2127093E+03  0.7818608E-02  0.1139438E+00
         -4   -1    0    0    0  501 -0.00000000000E+00  0.00000000000E+00  0.36456955784E+02  0.36456955784E+02  0.00000000000E+00 0.  1.
          4   -1    0    0  502    0  0.00000000000E+00 -0.00000000000E+00 -0.12411671484E+04  0.12411671484E+04  0.00000000000E+00 0. -1.
          6    1    1    2  502    0 -0.11582628931E+03  0.47387099561E+02 -0.60829282011E+03  0.64441091044E+03  0.17200000000E+03 0. -1.
         -6    1    1    2    0  501  0.11582628931E+03 -0.47387099561E+02 -0.59641737251E+03  0.63321319375E+03  0.17200000000E+03 0.  1.
</event>
<event>
 4    1  0.3141404E-002  0.1791589E+03  0.7818608E-02  0.1168620E+00
          2   -1    0    0  502    0  0.00000000000E+00  0.00000000000E+00  0.14874813434E+04  0.14874813434E+04  0.00000000000E+00 0. -1.
         -2   -1    0    0    0  501 -0.00000000000E+00 -0.00000000000E+00 -0.21584146011E+02  0.21584146011E+02  0.00000000000E+00 0.  1.
          6    1    1    2  502    0 -0.31061940983E+02 -0.39358124751E+02  0.72095772112E+03  0.74288487789E+03  0.17200000000E+03 0. -1.
         -6    1    1    2    0  501  0.31061940983E+02  0.39358124751E+02  0.74493947630E+03  0.76618061155E+03  0.17200000000E+03 0. -1.
</event>
<event>
 4    1  0.3141404E-002  0.7235167E+03  0.7818608E-02  0.9677840E-01
          2   -1    0    0  502    0  0.00000000000E+00  0.00000000000E+00  0.80455032670E+03  0.80455032670E+03  0.00000000000E+00 0. -1.
         -2   -1    0    0    0  501 -0.00000000000E+00 -0.00000000000E+00 -0.85609762122E+03  0.85609762122E+03  0.00000000000E+00 0.  1.
          6    1    1    2  502    0  0.22184487443E+03  0.66684123849E+03  0.38098998738E+03  0.81769783915E+03  0.17200000000E+03 0. -1.
         -6    1    1    2    0  501 -0.22184487443E+03 -0.66684123849E+03 -0.43253728190E+03  0.84295010878E+03  0.17200000000E+03 0.  1.
</event>
<event>
 4    1  0.3141404E-002  0.2352511E+03  0.7818608E-02  0.1122997E+00
         -2   -1    0    0    0  501 -0.00000000000E+00  0.00000000000E+00  0.55328846591E+02  0.55328846591E+02  0.00000000000E+00 0.  1.
          2   -1    0    0  502    0  0.00000000000E+00 -0.00000000000E+00 -0.14922652953E+04  0.14922652953E+04  0.00000000000E+00 0. -1.
          6    1    1    2  502    0  0.47405176315E+01 -0.16042630797E+03 -0.11627824529E+04  0.11863414793E+04  0.17200000000E+03 0. -1.
         -6    1    1    2    0  501 -0.47405176315E+01  0.16042630797E+03 -0.27415399582E+03  0.36125266258E+03  0.17200000000E+03 0.  1.
</event>
<event>
 4    1  0.3141404E-002  0.1830041E+03  0.7818608E-02  0.1164927E+00
         -2   -1    0    0    0  501 -0.00000000000E+00  0.00000000000E+00  0.33010393688E+02  0.33010393688E+02  0.00000000000E+00 0.  1.
          2   -1    0    0  502    0  0.00000000000E+00 -0.00000000000E+00 -0.10168379818E+04  0.10168379818E+04  0.00000000000E+00 0. -1.
          6    1    1    2  502    0  0.50438677720E+02  0.36911073993E+02 -0.46697977731E+03  0.50155817211E+03  0.17200000000E+03 0.  1.
         -6    1    1    2    0  501 -0.50438677720E+02 -0.36911073993E+02 -0.51684781086E+03  0.54829020343E+03  0.17200000000E+03 0. -1.
</event>
<event>
 4    1  0.3141404E-002  0.2774548E+03  0.7818608E-02  0.1097087E+00
         -1   -1    0    0    0  501 -0.00000000000E+00  0.00000000000E+00  0.88065784433E+02  0.88065784433E+02  0.00000000000E+00 0.  1.
          1   -1    0    0  502    0  0.00000000000E+00 -0.00000000000E+00 -0.15120839575E+04  0.15120839575E+04  0.00000000000E+00 0. -1.
          6    1    1    2  502    0 -0.70952217441E+02  0.20582256570E+03 -0.12316897601E+04  0.12625532903E+04  0.17200000000E+03 0. -1.
         -6    1    1    2    0  501  0.70952217441E+02 -0.20582256570E+03 -0.19232841294E+03  0.33759645160E+03  0.17200000000E+03 0.  1.
</event>
<event>
 4    1  0.3141404E-002  0.1781544E+03  0.7818608E-02  0.1169601E+00
         -2   -1    0    0    0  501 -0.00000000000E+00  0.00000000000E+00  0.26373257421E+02  0.26373257421E+02  0.00000000000E+00 0.  1.
          2   -1    0    0  502    0  0.00000000000E+00 -0.00000000000E+00 -0.12808182681E+04  0.12808182681E+04  0.00000000000E+00 0. -1.
          6    1    1    2  502    0 -0.59694002820E+01  0.46036562628E+02 -0.78785597235E+03  0.80774750511E+03  0.17200000000E+03 0. -1.
         -6    1    1    2    0  501  0.59694002820E+01 -0.46036562628E+02 -0.46658903833E+03  0.49944402041E+03  0.17200000000E+03 0.  1.
</event>
<event>
 4    1  0.3141404E-002  0.3620641E+03  0.7818608E-02  0.1057770E+00
         -2   -1    0    0    0  501 -0.00000000000E+00  0.00000000000E+00  0.38192053296E+03  0.38192053296E+03  0.00000000000E+00 0.  1.
          2   -1    0    0  502    0  0.00000000000E+00 -0.00000000000E+00 -0.73550280903E+03  0.73550280903E+03  0.00000000000E+00 0. -1.
          6    1    1    2  502    0 -0.30496991116E+03 -0.92194206524E+02 -0.58481364634E+03  0.68782077562E+03  0.17200000000E+03 0. -1.
         -6    1    1    2    0  501  0.30496991116E+03  0.92194206524E+02  0.23123137027E+03  0.42960256636E+03  0.17200000000E+03 0.  1.
</event>
<event>
 4    1  0.3141404E-002  0.1743337E+03  0.7818608E-02  0.1173402E+00
         -2   -1    0    0    0  501 -0.00000000000E+00  0.00000000000E+00  0.18600279129E+02  0.18600279129E+02  0.00000000000E+00 0.  1.
          2   -1    0    0  502    0  0.00000000000E+00 -0.00000000000E+00 -0.16384456107E+04  0.16384456107E+04  0.00000000000E+00 0. -1.
          6    1    1    2  502    0 -0.28346027163E+02 -0.21787757285E+01 -0.85323931822E+03  0.87086714169E+03  0.17200000000E+03 0. -1.
         -6    1    1    2    0  501  0.28346027163E+02  0.21787757285E+01 -0.76660601334E+03  0.78617874812E+03  0.17200000000E+03 0.  1.
</event>
<event>
 4    1  0.3141404E-002  0.3723645E+03  0.7818608E-02  0.1053793E+00
          2   -1    0    0  502    0  0.00000000000E+00  0.00000000000E+00  0.15228637169E+04  0.15228637169E+04  0.00000000000E+00 0. -1.
         -2   -1    0    0    0  501 -0.00000000000E+00 -0.00000000000E+00 -0.91052620440E+02  0.91052620440E+02  0.00000000000E+00 0.  1.
          6    1    1    2  502    0  0.30550334545E+03  0.12545534693E+03  0.71087258743E+03  0.80249309885E+03  0.17200000000E+03 0. -1.
         -6    1    1    2    0  501 -0.30550334545E+03 -0.12545534693E+03  0.72093850907E+03  0.81142323852E+03  0.17200000000E+03 0.  1.
</event>
<event>
 4    1  0.3141404E-002  0.6786697E+03  0.7818608E-02  0.9754422E-01
         -1   -1    0    0    0  501 -0.00000000000E+00  0.00000000000E+00  0.35680500803E+03  0.35680500803E+03  0.00000000000E+00 0.  1.
          1   -1    0    0  502    0  0.00000000000E+00 -0.00000000000E+00 -0.16322634071E+04  0.16322634071E+04  0.00000000000E+00 0. -1.
          6    1    1    2  502    0  0.18788760198E+01  0.65650977116E+03 -0.18290295095E+03  0.70288412933E+03  0.17200000000E+03 0. -1.
         -6    1    1    2    0  501 -0.18788760198E+01 -0.65650977116E+03 -0.10925554481E+04  0.12861842858E+04  0.17200000000E+03 0.  1.
</event>
<event>
 4    1  0.3141404E-002  0.1877868E+03  0.7818608E-02  0.1160473E+00
         -2   -1    0    0    0  501 -0.00000000000E+00  0.00000000000E+00  0.55657247259E+02  0.55657247259E+02  0.00000000000E+00 0.  1.
          2   -1    0    0  502    0  0.00000000000E+00 -0.00000000000E+00 -0.71869001348E+03  0.71869001348E+03  0.00000000000E+00 0. -1.
          6    1    1    2  502    0  0.43443547196E+01 -0.75239771048E+02 -0.46474539432E+03  0.50125061407E+03  0.17200000000E+03 0. -1.
         -6    1    1    2    0  501 -0.43443547196E+01  0.75239771048E+02 -0.19828737190E+03  0.27309664667E+03  0.17200000000E+03 0.  1.
</event>
<event>
 4    1  0.3141404E-002  0.2680466E+03  0.7818608E-02  0.1102403E+00
         -1   -1    0    0    0  501 -0.00000000000E+00  0.00000000000E+00  0.95519022601E+03  0.95519022601E+03  0.00000000000E+00 0.  1.
          1   -1    0    0  502    0  0.00000000000E+00 -0.00000000000E+00 -0.13960406369E+03  0.13960406369E+03  0.00000000000E+00 0. -1.
          6    1    1    2  502    0  0.20464442479E+03  0.19637933192E+02  0.36048906155E+02  0.27045981708E+03  0.17200000000E+03 0. -1.
         -6    1    1    2    0  501 -0.20464442479E+03 -0.19637933192E+02  0.77953725616E+03  0.82433447262E+03  0.17200000000E+03 0.  1.
</event>
<event>
 4    1  0.3141404E-002  0.2889338E+03  0.7818608E-02  0.1090907E+00
          2   -1    0    0  502    0  0.00000000000E+00  0.00000000000E+00  0.15708963950E+04  0.15708963950E+04  0.00000000000E+00 0. -1.
         -2   -1    0    0    0  501 -0.00000000000E+00 -0.00000000000E+00 -0.63696449823E+02  0.63696449823E+02  0.00000000000E+00 0.  1.
          6    1    1    2  502    0 -0.56276765063E+02  0.22523687164E+03  0.10862684656E+04  0.11240382120E+04  0.17200000000E+03 0. -1.
         -6    1    1    2    0  501  0.56276765063E+02 -0.22523687164E+03  0.42093147964E+03  0.51055463290E+03  0.17200000000E+03 0.  1.
</event>
<event>
 4    1  0.3141404E-002  0.3095819E+03  0.7818608E-02  0.1080546E+00
          4   -1    0    0  502    0  0.00000000000E+00  0.00000000000E+00  0.26913526882E+03  0.26913526882E+03  0.00000000000E+00 0. -1.
         -4   -1    0    0    0  501 -0.00000000000E+00 -0.00000000000E+00 -0.35628045372E+03  0.35628045372E+03  0.00000000000E+00 0.  1.
          6    1    1    2  502    0  0.82306417931E+02  0.24389058913E+03 -0.50471422073E+02  0.31366914152E+03  0.17200000000E+03 0. -1.
         -6    1    1    2    0  501 -0.82306417931E+02 -0.24389058913E+03 -0.36673762823E+02  0.31174658102E+03  0.17200000000E+03 0.  1.
</event>
<event>
 4    1  0.3141404E-002  0.3287503E+03  0.7818608E-02  0.1071691E+00
          2   -1    0    0  502    0  0.00000000000E+00  0.00000000000E+00  0.21723953475E+04  0.21723953475E+04  0.00000000000E+00 0. -1.
         -2   -1    0    0    0  501 -0.00000000000E+00 -0.00000000000E+00 -0.16406210116E+03  0.16406210116E+03  0.00000000000E+00 0.  1.
          6    1    1    2  502    0 -0.24473278420E+03  0.13637668072E+03  0.19793129556E+04  0.20064287954E+04  0.17200000000E+03 0. -1.
         -6    1    1    2    0  501  0.24473278420E+03 -0.13637668072E+03  0.29020290722E+02  0.33002865327E+03  0.17200000000E+03 0.  1.
</event>
<event>
 4    1  0.3141404E-002  0.1850784E+03  0.7818608E-02  0.1162977E+00
          2   -1    0    0  502    0  0.00000000000E+00  0.00000000000E+00  0.12374160296E+04  0.12374160296E+04  0.00000000000E+00 0. -1.
         -2   -1    0    0    0  501 -0.00000000000E+00 -0.00000000000E+00 -0.28236685432E+02  0.28236685432E+02  0.00000000000E+00 0.  1.
          6    1    1    2  502    0  0.12217593547E+01  0.68326496794E+02  0.69329460964E+03  0.71757328449E+03  0.17200000000E+03 0. -1.
         -6    1    1    2    0  501 -0.12217593547E+01 -0.68326496794E+02  0.51588473449E+03  0.54807943050E+03  0.17200000000E+03 0.  1.
</event>
<event>
 4    1  0.3141404E-002  0.1986592E+03  0.7818608E-02  0.1150875E+00
         -1   -1    0    0    0  501 -0.00000000000E+00  0.00000000000E+00  0.50884621641E+02  0.50884621641E+02  0.00000000000E+00 0.  1.
          1   -1    0    0  502    0  0.00000000000E+00 -0.00000000000E+00 -0.12689752038E+04  0.12689752038E+04  0.00000000000E+00 0. -1.
          6    1    1    2  502    0  0.16828126343E+02 -0.97970957578E+02 -0.19754963740E+03  0.28016308394E+03  0.17200000000E+03 0. -1.
         -6    1    1    2    0  501 -0.16828126343E+02  0.97970957578E+02 -0.10205409447E+04  0.10396967415E+04  0.17200000000E+03 0. -1.
</event>
<event>
 4    1  0.3141404E-002  0.1776636E+03  0.7818608E-02  0.1170084E+00
          3   -1    0    0  502    0  0.00000000000E+00  0.00000000000E+00  0.30090634413E+03  0.30090634413E+03  0.00000000000E+00 0. -1.
         -3   -1    0    0    0  501 -0.00000000000E+00 -0.00000000000E+00 -0.10603633660E+03  0.10603633660E+03  0.00000000000E+00 0.  1.
          6    1    1    2  502    0 -0.32094088126E+02 -0.30827439360E+02  0.11852042789E+03  0.21356838094E+03  0.17200000000E+03 0. -1.
         -6    1    1    2    0  501  0.32094088126E+02  0.30827439360E+02  0.76349579640E+02  0.19337429980E+03  0.17200000000E+03 0.  1.
</event>
<event>
 4    1  0.3141404E-002  0.1862452E+03  0.7818608E-02  0.1161892E+00
         -1   -1    0    0    0  501 -0.00000000000E+00  0.00000000000E+00  0.51850073861E+02  0.51850073861E+02  0.00000000000E+00 0.  1.
          1   -1    0    0  502    0  0.00000000000E+00 -0.00000000000E+00 -0.66959692804E+03  0.66959692804E+03  0.00000000000E+00 0. -1.
          6    1    1    2  502    0  0.49829081408E+02  0.51189269334E+02 -0.31971671156E+03  0.37000818139E+03  0.17200000000E+03 0. -1.
         -6    1    1    2    0  501 -0.49829081408E+02 -0.51189269334E+02 -0.29803014262E+03  0.35143882051E+03  0.17200000000E+03 0.  1.
</event>
<event>
 4    1  0.3141404E-002  0.3416162E+03  0.7818608E-02  0.1066110E+00
         -2   -1    0    0    0  501 -0.00000000000E+00  0.00000000000E+00  0.25000148789E+03  0.25000148789E+03  0.00000000000E+00 0.  1.
          2   -1    0    0  502    0  0.00000000000E+00 -0.00000000000E+00 -0.50506100300E+03  0.50506100300E+03  0.00000000000E+00 0. -1.
          6    1    1    2  502    0 -0.28644632125E+03 -0.71176876974E+02 -0.23143504076E+03  0.41263036833E+03  0.17200000000E+03 0. -1.
         -6    1    1    2    0  501  0.28644632125E+03  0.71176876974E+02 -0.23624474351E+02  0.34243212256E+03  0.17200000000E+03 0. -1.
</event>
<event>
 4    1  0.3141404E-002  0.3637531E+03  0.7818608E-02  0.1057108E+00
          2   -1    0    0  502    0  0.00000000000E+00  0.00000000000E+00  0.83068569015E+03  0.83068569015E+03  0.00000000000E+00 0. -1.
         -2   -1    0    0    0  501 -0.00000000000E+00 -0.00000000000E+00 -0.42286954512E+03  0.42286954512E+03  0.00000000000E+00 0.  1.
          6    1    1    2  502    0 -0.25708164845E+03  0.19141927268E+03  0.69875366792E+03  0.78776455896E+03  0.17200000000E+03 0. -1.
         -6    1    1    2    0  501  0.25708164845E+03 -0.19141927268E+03 -0.29093752289E+03  0.46579067632E+03  0.17200000000E+03 0.  1.
</event>
<event>
 4    1  0.3141404E-002  0.1869096E+03  0.7818608E-02  0.1161279E+00
          2   -1    0    0  502    0  0.00000000000E+00  0.00000000000E+00  0.11044396124E+04  0.11044396124E+04  0.00000000000E+00 0. -1.
         -2   -1    0    0    0  501 -0.00000000000E+00 -0.00000000000E+00 -0.49402623282E+02  0.49402623282E+02  0.00000000000E+00 0.  1.
          6    1    1    2  502    0  0.71969147635E+02  0.13100548008E+02  0.87353574744E+03  0.89330839279E+03  0.17200000000E+03 0. -1.
         -6    1    1    2    0  501 -0.71969147635E+02 -0.13100548008E+02  0.18150124172E+03  0.26053384294E+03  0.17200000000E+03 0.  1.
</event>
<event>
 4    1  0.3141404E-002  0.6404147E+03  0.7818608E-02  0.9824933E-01
          2   -1    0    0  502    0  0.00000000000E+00  0.00000000000E+00  0.28625973137E+04  0.28625973137E+04  0.00000000000E+00 0. -1.
         -2   -1    0    0    0  501 -0.00000000000E+00 -0.00000000000E+00 -0.45689383770E+03  0.45689383770E+03  0.00000000000E+00 0.  1.
          6    1    1    2  502    0  0.26200284766E+03 -0.55848147306E+03  0.25779596273E+04  0.26563145311E+04  0.17200000000E+03 0. -1.
         -6    1    1    2    0  501 -0.26200284766E+03  0.55848147306E+03 -0.17225615139E+03  0.66317662024E+03  0.17200000000E+03 0.  1.
</event>
<event>
 4    1  0.3141404E-002  0.1963042E+03  0.7818608E-02  0.1152895E+00
         -1   -1    0    0    0  501 -0.00000000000E+00  0.00000000000E+00  0.34397948360E+02  0.34397948360E+02  0.00000000000E+00 0.  1.
          1   -1    0    0  502    0  0.00000000000E+00 -0.00000000000E+00 -0.16338104920E+04  0.16338104920E+04  0.00000000000E+00 0. -1.
          6    1    1    2  502    0 -0.82834192991E+02 -0.45714642867E+02 -0.12673365407E+04  0.12824497025E+04  0.17200000000E+03 0. -1.
         -6    1    1    2    0  501  0.82834192991E+02  0.45714642867E+02 -0.33207600303E+03  0.38575873793E+03  0.17200000000E+03 0.  1.
</event>
<event>
 4    1  0.3141404E-002  0.3913182E+03  0.7818608E-02  0.1046828E+00
         -2   -1    0    0    0  501 -0.00000000000E+00  0.00000000000E+00  0.31579938506E+03  0.31579938506E+03  0.00000000000E+00 0.  1.
          2   -1    0    0  502    0  0.00000000000E+00 -0.00000000000E+00 -0.88991111071E+03  0.88991111071E+03  0.00000000000E+00 0. -1.
          6    1    1    2  502    0 -0.18850488212E+03  0.29666784056E+03 -0.69375689759E+03  0.79651022038E+03  0.17200000000E+03 0. -1.
         -6    1    1    2    0  501  0.18850488212E+03 -0.29666784056E+03  0.11964517194E+03  0.40920027539E+03  0.17200000000E+03 0.  1.
</event>
<event>
 4    1  0.3141404E-002  0.2109313E+03  0.7818608E-02  0.1140831E+00
          2   -1    0    0  502    0  0.00000000000E+00  0.00000000000E+00  0.39794904798E+03  0.39794904798E+03  0.00000000000E+00 0. -1.
         -2   -1    0    0    0  501 -0.00000000000E+00 -0.00000000000E+00 -0.11181054389E+03  0.11181054389E+03  0.00000000000E+00 0.  1.
          6    1    1    2  502    0 -0.12173708525E+03 -0.93852409748E+01  0.14101198346E+03  0.25372500892E+03  0.17200000000E+03 0.  1.
         -6    1    1    2    0  501  0.12173708525E+03  0.93852409748E+01  0.14512652063E+03  0.25603458295E+03  0.17200000000E+03 0. -1.
</event>
<event>
 4    1  0.3141404E-002  0.3676360E+03  0.7818608E-02  0.1055601E+00
          1   -1    0    0  502    0  0.00000000000E+00  0.00000000000E+00  0.21654809494E+04  0.21654809494E+04  0.00000000000E+00 0. -1.
         -1   -1    0    0    0  501 -0.00000000000E+00 -0.00000000000E+00 -0.15352241497E+03  0.15352241497E+03  0.00000000000E+00 0.  1.
          6    1    1    2  502    0 -0.15769645133E+02  0.32453587971E+03  0.18992124575E+04  0.19344674144E+04  0.17200000000E+03 0. -1.
         -6    1    1    2    0  501  0.15769645133E+02 -0.32453587971E+03  0.11274607698E+03  0.38453594995E+03  0.17200000000E+03 0.  1.
</event>
<event>
 4    1  0.3141404E-002  0.1892237E+03  0.7818608E-02  0.1159163E+00
          1   -1    0    0  502    0  0.00000000000E+00  0.00000000000E+00  0.18769763937E+03  0.18769763937E+03  0.00000000000E+00 0. -1.
         -1   -1    0    0    0  501 -0.00000000000E+00 -0.00000000000E+00 -0.22024057754E+03  0.22024057754E+03  0.00000000000E+00 0.  1.
          6    1    1    2  502    0 -0.22202825982E+02  0.75687857790E+02  0.58350621553E+02  0.19801619210E+03  0.17200000000E+03 0. -1.
         -6    1    1    2    0  501  0.22202825982E+02 -0.75687857790E+02 -0.90893559725E+02  0.20992202480E+03  0.17200000000E+03 0.  1.
</event>
<event>
 4    1  0.3141404E-002  0.2290077E+03  0.7818608E-02  0.1127340E+00
         -2   -1    0    0    0  501 -0.00000000000E+00  0.00000000000E+00  0.14555623395E+03  0.14555623395E+03  0.00000000000E+00 0.  1.
          2   -1    0    0  502    0  0.00000000000E+00 -0.00000000000E+00 -0.60071710274E+03  0.60071710274E+03  0.00000000000E+00 0. -1.
          6    1    1    2  502    0  0.15004438389E+03  0.18634007707E+02 -0.46363461002E+03  0.51710888118E+03  0.17200000000E+03 0. -1.
         -6    1    1    2    0  501 -0.15004438389E+03 -0.18634007707E+02  0.84737412405E+01  0.22916445551E+03  0.17200000000E+03 0. -1.
</event>
<event>
 4    1  0.3141404E-002  0.2289526E+03  0.7818608E-02  0.1127379E+00
          1   -1    0    0  502    0  0.00000000000E+00  0.00000000000E+00  0.14431528375E+03  0.14431528375E+03  0.00000000000E+00 0. -1.
         -1   -1    0    0    0  501 -0.00000000000E+00 -0.00000000000E+00 -0.71859266607E+03  0.71859266607E+03  0.00000000000E+00 0.  1.
          6    1    1    2  502    0  0.14432443745E+03 -0.44785628474E+02  0.16271695307E+02  0.22953009352E+03  0.17200000000E+03 0. -1.
         -6    1    1    2    0  501 -0.14432443745E+03  0.44785628474E+02 -0.59054907763E+03  0.63337785630E+03  0.17200000000E+03 0.  1.
</event>
<event>
 4    1  0.3141404E-002  0.2110065E+03  0.7818608E-02  0.1140771E+00
          2   -1    0    0  502    0  0.00000000000E+00  0.00000000000E+00  0.10300674395E+04  0.10300674395E+04  0.00000000000E+00 0. -1.
         -2   -1    0    0    0  501 -0.00000000000E+00 -0.00000000000E+00 -0.45875930116E+02  0.45875930116E+02  0.00000000000E+00 0.  1.
          6    1    1    2  502    0 -0.66089898110E+02  0.10281958599E+03  0.36275377106E+03  0.41965943372E+03  0.17200000000E+03 0. -1.
         -6    1    1    2    0  501  0.66089898110E+02 -0.10281958599E+03  0.62143773831E+03  0.65628393587E+03  0.17200000000E+03 0. -1.
</event>
<event>
 4    1  0.3141404E-002  0.1924912E+03  0.7818608E-02  0.1156233E+00
          2   -1    0    0  502    0  0.00000000000E+00  0.00000000000E+00  0.34143347787E+03  0.34143347787E+03  0.00000000000E+00 0. -1.
         -2   -1    0    0    0  501 -0.00000000000E+00 -0.00000000000E+00 -0.17187563651E+03  0.17187563651E+03  0.00000000000E+00 0.  1.
          6    1    1    2  502    0  0.43136657154E+02 -0.74887315857E+02  0.24060108312E+03  0.30812621191E+03  0.17200000000E+03 0. -1.
         -6    1    1    2    0  501 -0.43136657154E+02  0.74887315857E+02 -0.71043241759E+02  0.20518290247E+03  0.17200000000E+03 0.  1.
</event>
<event>
 4    1  0.3141404E-002  0.2458624E+03  0.7818608E-02  0.1115948E+00
         -2   -1    0    0    0  501 -0.00000000000E+00  0.00000000000E+00  0.14644198074E+04  0.14644198074E+04  0.00000000000E+00 0.  1.
          2   -1    0    0  502    0  0.00000000000E+00 -0.00000000000E+00 -0.51470176410E+02  0.51470176410E+02  0.00000000000E+00 0. -1.
          6    1    1    2  502    0 -0.13418414737E+03  0.11339728024E+03  0.10437568527E+04  0.10723230372E+04  0.17200000000E+03 0.  1.
         -6    1    1    2    0  501  0.13418414737E+03 -0.11339728024E+03  0.36919277828E+03  0.44356694659E+03  0.17200000000E+03 0. -1.
</event>
<event>
 4    1  0.3141404E-002  0.1985526E+03  0.7818608E-02  0.1150966E+00
         -2   -1    0    0    0  501 -0.00000000000E+00  0.00000000000E+00  0.59166794228E+03  0.59166794228E+03  0.00000000000E+00 0.  1.
          2   -1    0    0  502    0  0.00000000000E+00 -0.00000000000E+00 -0.81645449482E+02  0.81645449482E+02  0.00000000000E+00 0. -1.
          6    1    1    2  502    0 -0.89579327355E+02 -0.42598862320E+02  0.11063907371E+03  0.22729743419E+03  0.17200000000E+03 0. -1.
         -6    1    1    2    0  501  0.89579327355E+02  0.42598862320E+02  0.39938341909E+03  0.44601595757E+03  0.17200000000E+03 0.  1.
</event>
<event>
 4    1  0.3141404E-002  0.1782588E+03  0.7818608E-02  0.1169499E+00
          2   -1    0    0  502    0  0.00000000000E+00  0.00000000000E+00  0.97493963015E+03  0.97493963015E+03  0.00000000000E+00 0. -1.
         -2   -1    0    0    0  501 -0.00000000000E+00 -0.00000000000E+00 -0.33097707730E+02  0.33097707730E+02  0.00000000000E+00 0.  1.
          6    1    1    2  502    0  0.23280233813E+02 -0.40622996062E+02  0.53316133258E+03  0.56217186310E+03  0.17200000000E+03 0.  1.
         -6    1    1    2    0  501 -0.23280233813E+02  0.40622996062E+02  0.40868058984E+03  0.44586547478E+03  0.17200000000E+03 0.  1.
</event>
<event>
 4    1  0.3141404E-002  0.2691932E+03  0.7818608E-02  0.1101742E+00
         -1   -1    0    0    0  501 -0.00000000000E+00  0.00000000000E+00  0.35746283881E+03  0.35746283881E+03  0.00000000000E+00 0.  1.
          1   -1    0    0  502    0  0.00000000000E+00 -0.00000000000E+00 -0.38969145105E+03  0.38969145105E+03  0.00000000000E+00 0. -1.
          6    1    1    2  502    0  0.14295578426E+03  0.14981520535E+03  0.24265170515E+03  0.36241523426E+03  0.17200000000E+03 0.  1.
         -6    1    1    2    0  501 -0.14295578426E+03 -0.14981520535E+03 -0.27488031740E+03  0.38473905560E+03  0.17200000000E+03 0. -1.
</event>
<event>
 4    1  0.3141404E-002  0.1973817E+03  0.7818608E-02  0.1151967E+00
         -1   -1    0    0    0  501 -0.00000000000E+00  0.00000000000E+00  0.18127186952E+03  0.18127186952E+03  0.00000000000E+00 0.  1.
          1   -1    0    0  502    0  0.00000000000E+00 -0.00000000000E+00 -0.28899465578E+03  0.28899465578E+03  0.00000000000E+00 0. -1.
          6    1    1    2  502    0 -0.46547118136E+02 -0.84905284919E+02 -0.17290180500E+03  0.26240155447E+03  0.17200000000E+03 0. -1.
         -6    1    1    2    0  501  0.46547118136E+02  0.84905284919E+02  0.65179018748E+02  0.20786497083E+03  0.17200000000E+03 0.  1.
</event>
<event>
 4    1  0.3141404E-002  0.1996850E+03  0.7818608E-02  0.1150005E+00
         -2   -1    0    0    0  501 -0.00000000000E+00  0.00000000000E+00  0.35271183362E+02  0.35271183362E+02  0.00000000000E+00 0.  1.
          2   -1    0    0  502    0  0.00000000000E+00 -0.00000000000E+00 -0.15708232375E+04  0.15708232375E+04  0.00000000000E+00 0. -1.
          6    1    1    2  502    0 -0.26002882309E+01  0.10140683430E+03 -0.11929461474E+04  0.12095431444E+04  0.17200000000E+03 0. -1.
         -6    1    1    2    0  501  0.26002882309E+01 -0.10140683430E+03 -0.34260590673E+03  0.39655127646E+03  0.17200000000E+03 0.  1.
</event>
<event>
 4    1  0.3141404E-002  0.2595187E+03  0.7818608E-02  0.1107433E+00
         -2   -1    0    0    0  501 -0.00000000000E+00  0.00000000000E+00  0.11976577574E+04  0.11976577574E+04  0.00000000000E+00 0.  1.
          2   -1    0    0  502    0  0.00000000000E+00 -0.00000000000E+00 -0.92905021426E+02  0.92905021426E+02  0.00000000000E+00 0. -1.
          6    1    1    2  502    0 -0.15841056688E+03 -0.11257020027E+03  0.14697357065E+03  0.29824685775E+03  0.17200000000E+03 0. -1.
         -6    1    1    2    0  501  0.15841056688E+03  0.11257020027E+03  0.95777916529E+03  0.99231592104E+03  0.17200000000E+03 0.  1.
</event>
<event>
 4    1  0.3141404E-002  0.2094183E+03  0.7818608E-02  0.1142027E+00
         -3   -1    0    0    0  501 -0.00000000000E+00  0.00000000000E+00  0.16098139918E+03  0.16098139918E+03  0.00000000000E+00 0.  1.
          3   -1    0    0  502    0  0.00000000000E+00 -0.00000000000E+00 -0.31645122296E+03  0.31645122296E+03  0.00000000000E+00 0. -1.
          6    1    1    2  502    0  0.10613079578E+03  0.54847788070E+02  0.11300741951E+02  0.20972298977E+03  0.17200000000E+03 0. -1.
         -6    1    1    2    0  501 -0.10613079578E+03 -0.54847788070E+02 -0.16677056573E+03  0.26770963237E+03  0.17200000000E+03 0.  1.
</event>
<event>
 4    1  0.3141404E-002  0.2093683E+03  0.7818608E-02  0.1142067E+00
         -1   -1    0    0    0  501 -0.00000000000E+00  0.00000000000E+00  0.41261631377E+03  0.41261631377E+03  0.00000000000E+00 0.  1.
          1   -1    0    0  502    0  0.00000000000E+00 -0.00000000000E+00 -0.10650403098E+03  0.10650403098E+03  0.00000000000E+00 0. -1.
          6    1    1    2  502    0  0.47761657948E+02 -0.10940701461E+03  0.14005649789E+03  0.25189460775E+03  0.17200000000E+03 0. -1.
         -6    1    1    2    0  501 -0.47761657948E+02  0.10940701461E+03  0.16605578490E+03  0.26722573700E+03  0.17200000000E+03 0.  1.
</event>
<event>
 4    1  0.3141404E-002  0.2341160E+03  0.7818608E-02  0.1123776E+00
          2   -1    0    0  502    0  0.00000000000E+00  0.00000000000E+00  0.67473942102E+03  0.67473942102E+03  0.00000000000E+00 0. -1.
         -2   -1    0    0    0  501 -0.00000000000E+00 -0.00000000000E+00 -0.28586353122E+03  0.28586353122E+03  0.00000000000E+00 0.  1.
          6    1    1    2  502    0 -0.94908053907E+02 -0.12735281480E+03  0.60080740718E+03  0.64480990893E+03  0.17200000000E+03 0. -1.
         -6    1    1    2    0  501  0.94908053907E+02  0.12735281480E+03 -0.21193151739E+03  0.31579304330E+03  0.17200000000E+03 0.  1.
</event>
<event>
 4    1  0.3141404E-002  0.4097963E+03  0.7818608E-02  0.1040439E+00
          2   -1    0    0  502    0  0.00000000000E+00  0.00000000000E+00  0.94252021346E+03  0.94252021346E+03  0.00000000000E+00 0. -1.
         -2   -1    0    0    0  501 -0.00000000000E+00 -0.00000000000E+00 -0.72753331466E+03  0.72753331466E+03  0.00000000000E+00 0.  1.
          6    1    1    2  502    0  0.18726235035E+03  0.32137487259E+03  0.83310139816E+03  0.92843466987E+03  0.17200000000E+03 0. -1.
         -6    1    1    2    0  501 -0.18726235035E+03 -0.32137487259E+03 -0.61811449936E+03  0.74161885825E+03  0.17200000000E+03 0.  1.
</event>
<event>
 4    1  0.3141404E-002  0.1768105E+03  0.7818608E-02  0.1170926E+00
         -1   -1    0    0    0  501 -0.00000000000E+00  0.00000000000E+00  0.94226286121E+03  0.94226286121E+03  0.00000000000E+00 0.  1.
          1   -1    0    0  502    0  0.00000000000E+00 -0.00000000000E+00 -0.11116220174E+03  0.11116220174E+03  0.00000000000E+00 0. -1.
          6    1    1    2  502    0  0.39239090308E+02 -0.11757887133E+02 -0.25613304802E+02  0.17865608162E+03  0.17200000000E+03 0. -1.
         -6    1    1    2    0  501 -0.39239090308E+02  0.11757887133E+02  0.85671396427E+03  0.87476898133E+03  0.17200000000E+03 0.  1.
</event>
<event>
 4    1  0.3141404E-002  0.2554286E+03  0.7818608E-02  0.1109921E+00
          2   -1    0    0  502    0  0.00000000000E+00  0.00000000000E+00  0.16942243333E+04  0.16942243333E+04  0.00000000000E+00 0. -1.
         -2   -1    0    0    0  501 -0.00000000000E+00 -0.00000000000E+00 -0.38625317364E+02  0.38625317364E+02  0.00000000000E+00 0.  1.
          6    1    1    2  502    0 -0.14899128921E+03 -0.11602308525E+03  0.87524009267E+03  0.91175050337E+03  0.17200000000E+03 0. -1.
         -6    1    1    2    0  501  0.14899128921E+03  0.11602308525E+03  0.78035892325E+03  0.82109914728E+03  0.17200000000E+03 0.  1.
</event>
<event>
 4    1  0.3141404E-002  0.3807915E+03  0.7818608E-02  0.1050642E+00
         -2   -1    0    0    0  501 -0.00000000000E+00  0.00000000000E+00  0.17098454983E+03  0.17098454983E+03  0.00000000000E+00 0.  1.
          2   -1    0    0  502    0  0.00000000000E+00 -0.00000000000E+00 -0.12004535045E+04  0.12004535045E+04  0.00000000000E+00 0. -1.
          6    1    1    2  502    0  0.24424122176E+03 -0.23614491629E+03 -0.14320083250E+03  0.40682757321E+03  0.17200000000E+03 0.  1.
         -6    1    1    2    0  501 -0.24424122176E+03  0.23614491629E+03 -0.88626812219E+03  0.96461048113E+03  0.17200000000E+03 0. -1.
</event>
<event>
 4    1  0.3141404E-002  0.5162584E+03  0.7818608E-02  0.1009620E+00
          2   -1    0    0  502    0  0.00000000000E+00  0.00000000000E+00  0.73581791715E+03  0.73581791715E+03  0.00000000000E+00 0. -1.
         -2   -1    0    0    0  501 -0.00000000000E+00 -0.00000000000E+00 -0.51218134883E+03  0.51218134883E+03  0.00000000000E+00 0.  1.
          6    1    1    2  502    0  0.34677541856E+03  0.34159269238E+03  0.44947265137E+03  0.68450596983E+03  0.17200000000E+03 0. -1.
         -6    1    1    2    0  501 -0.34677541856E+03 -0.34159269238E+03 -0.22583608304E+03  0.56349329615E+03  0.17200000000E+03 0.  1.
</event>
<event>
 4    1  0.3141404E-002  0.2835832E+03  0.7818608E-02  0.1093748E+00
         -3   -1    0    0    0  501 -0.00000000000E+00  0.00000000000E+00  0.21628762522E+03  0.21628762522E+03  0.00000000000E+00 0.  1.
          3   -1    0    0  502    0  0.00000000000E+00 -0.00000000000E+00 -0.13471310286E+04  0.13471310286E+04  0.00000000000E+00 0. -1.
          6    1    1    2  502    0 -0.21446678211E+03  0.69565954220E+02 -0.12305609920E+04  0.12628142292E+04  0.17200000000E+03 0. -1.
         -6    1    1    2    0  501  0.21446678211E+03 -0.69565954220E+02  0.99717588572E+02  0.30060442460E+03  0.17200000000E+03 0.  1.
</event>
<event>
 4    1  0.3141404E-002  0.1774832E+03  0.7818608E-02  0.1170261E+00
          3   -1    0    0  502    0  0.00000000000E+00  0.00000000000E+00  0.45605129393E+03  0.45605129393E+03  0.00000000000E+00 0. -1.
         -3   -1    0    0    0  501 -0.00000000000E+00 -0.00000000000E+00 -0.69094841067E+02  0.69094841067E+02  0.00000000000E+00 0.  1.
          6    1    1    2  502    0  0.23279045985E+02 -0.37072344665E+02  0.19827563552E+03  0.26610806144E+03  0.17200000000E+03 0. -1.
         -6    1    1    2    0  501 -0.23279045985E+02  0.37072344665E+02  0.18868081735E+03  0.25903807357E+03  0.17200000000E+03 0. -1.
</event>
<event>
 4    1  0.3141404E-002  0.1946375E+03  0.7818608E-02  0.1154344E+00
         -3   -1    0    0    0  501 -0.00000000000E+00  0.00000000000E+00  0.71721276919E+02  0.71721276919E+02  0.00000000000E+00 0.  1.
          3   -1    0    0  502    0  0.00000000000E+00 -0.00000000000E+00 -0.53961608591E+03  0.53961608591E+03  0.00000000000E+00 0. -1.
          6    1    1    2  502    0  0.87851512982E+02 -0.24121816618E+02 -0.18950317441E+03  0.27165272588E+03  0.17200000000E+03 0.  1.
         -6    1    1    2    0  501 -0.87851512982E+02  0.24121816618E+02 -0.27839163458E+03  0.33968463695E+03  0.17200000000E+03 0.  1.
</event>
<event>
 4    1  0.3141404E-002  0.2154070E+03  0.7818608E-02  0.1137354E+00
         -2   -1    0    0    0  501 -0.00000000000E+00  0.00000000000E+00  0.32289976779E+02  0.32289976779E+02  0.00000000000E+00 0.  1.
          2   -1    0    0  502    0  0.00000000000E+00 -0.00000000000E+00 -0.21136591157E+04  0.21136591157E+04  0.00000000000E+00 0. -1.
          6    1    1    2  502    0 -0.80490237386E+02  0.10167340278E+03 -0.16477873978E+04  0.16618072895E+04  0.17200000000E+03 0. -1.
         -6    1    1    2    0  501  0.80490237386E+02 -0.10167340278E+03 -0.43358174119E+03  0.48414180303E+03  0.17200000000E+03 0.  1.
</event>
<event>
 4    1  0.3141404E-002  0.2027661E+03  0.7818608E-02  0.1147426E+00
          2   -1    0    0  502    0  0.00000000000E+00  0.00000000000E+00  0.28474157309E+03  0.28474157309E+03  0.00000000000E+00 0. -1.
         -2   -1    0    0    0  501 -0.00000000000E+00 -0.00000000000E+00 -0.15777112122E+03  0.15777112122E+03  0.00000000000E+00 0.  1.
          6    1    1    2  502    0  0.45862111953E+02 -0.97091429767E+02  0.12791911835E+03  0.23974440533E+03  0.17200000000E+03 0. -1.
         -6    1    1    2    0  501 -0.45862111953E+02  0.97091429767E+02 -0.94866647545E+00  0.20276828898E+03  0.17200000000E+03 0.  1.
</event>
<event>
 4    1  0.3141404E-002  0.2218619E+03  0.7818608E-02  0.1132502E+00
          1   -1    0    0  502    0  0.00000000000E+00  0.00000000000E+00  0.96160967263E+03  0.96160967263E+03  0.00000000000E+00 0. -1.
         -1   -1    0    0    0  501 -0.00000000000E+00 -0.00000000000E+00 -0.55787312914E+02  0.55787312914E+02  0.00000000000E+00 0.  1.
          6    1    1    2  502    0 -0.96505299502E+02 -0.10161418789E+03  0.59897648126E+03  0.63874528657E+03  0.17200000000E+03 0.  1.
         -6    1    1    2    0  501  0.96505299502E+02  0.10161418789E+03  0.30684587846E+03  0.37865169898E+03  0.17200000000E+03 0.  1.
</event>
<event>
 4    1  0.3141404E-002  0.9061819E+03  0.7818608E-02  0.9417887E-01
          2   -1    0    0  502    0  0.00000000000E+00  0.00000000000E+00  0.10756298344E+04  0.10756298344E+04  0.00000000000E+00 0. -1.
         -2   -1    0    0    0  501 -0.00000000000E+00 -0.00000000000E+00 -0.94481967039E+03  0.94481967039E+03  0.00000000000E+00 0.  1.
          6    1    1    2  502    0 -0.15814143723E+03 -0.87554152857E+03 -0.37723678737E+03  0.98156674565E+03  0.17200000000E+03 0. -1.
         -6    1    1    2    0  501  0.15814143723E+03  0.87554152857E+03  0.50804695136E+03  0.10388827591E+04  0.17200000000E+03 0.  1.
</event>
<event>
 4    1  0.3141404E-002  0.2358361E+03  0.7818608E-02  0.1122598E+00
         -1   -1    0    0    0  501 -0.00000000000E+00  0.00000000000E+00  0.51369912293E+03  0.51369912293E+03  0.00000000000E+00 0.  1.
          1   -1    0    0  502    0  0.00000000000E+00 -0.00000000000E+00 -0.18690568004E+03  0.18690568004E+03  0.00000000000E+00 0. -1.
          6    1    1    2  502    0 -0.14569768798E+03 -0.69331526999E+02  0.39061284497E+03  0.45628617290E+03  0.17200000000E+03 0.  1.
         -6    1    1    2    0  501  0.14569768798E+03  0.69331526999E+02 -0.63819402083E+02  0.24431863007E+03  0.17200000000E+03 0. -1.
</event>
<event>
 4    1  0.3141404E-002  0.2681673E+03  0.7818608E-02  0.1102333E+00
          1   -1    0    0  502    0  0.00000000000E+00  0.00000000000E+00  0.30037298135E+03  0.30037298135E+03  0.00000000000E+00 0. -1.
         -1   -1    0    0    0  501 -0.00000000000E+00 -0.00000000000E+00 -0.24909465435E+03  0.24909465435E+03  0.00000000000E+00 0.  1.
          6    1    1    2  502    0  0.20532769174E+03 -0.13048161906E+02  0.79797579236E+02  0.27978807905E+03  0.17200000000E+03 0. -1.
         -6    1    1    2    0  501 -0.20532769174E+03  0.13048161906E+02 -0.28519252232E+02  0.26967955665E+03  0.17200000000E+03 0. -1.
</event>
<event>
 4    1  0.3141404E-002  0.2881107E+03  0.7818608E-02  0.1091340E+00
          2   -1    0    0  502    0  0.00000000000E+00  0.00000000000E+00  0.10502295248E+04  0.10502295248E+04  0.00000000000E+00 0. -1.
         -2   -1    0    0    0  501 -0.00000000000E+00 -0.00000000000E+00 -0.80063610679E+02  0.80063610679E+02  0.00000000000E+00 0.  1.
          6    1    1    2  502    0 -0.25828296578E+02  0.22968823352E+03  0.42111149010E+03  0.51023785886E+03  0.17200000000E+03 0. -1.
         -6    1    1    2    0  501  0.25828296578E+02 -0.22968823352E+03  0.54905442398E+03  0.62005527658E+03  0.17200000000E+03 0.  1.
</event>
<event>
 4    1  0.3141404E-002  0.2970283E+03  0.7818608E-02  0.1086736E+00
         -1   -1    0    0    0  501 -0.00000000000E+00  0.00000000000E+00  0.76633910886E+03  0.76633910886E+03  0.00000000000E+00 0.  1.
          1   -1    0    0  502    0  0.00000000000E+00 -0.00000000000E+00 -0.15731475553E+03  0.15731475553E+03  0.00000000000E+00 0. -1.
          6    1    1    2  502    0  0.46680021716E+02  0.23761905098E+03  0.65350828781E+02  0.30413248534E+03  0.17200000000E+03 0. -1.
         -6    1    1    2    0  501 -0.46680021716E+02 -0.23761905098E+03  0.54367352454E+03  0.61952137905E+03  0.17200000000E+03 0.  1.
</event>
<event>
 4    1  0.3141404E-002  0.1871715E+03  0.7818608E-02  0.1161037E+00
          2   -1    0    0  502    0  0.00000000000E+00  0.00000000000E+00  0.11992662566E+04  0.11992662566E+04  0.00000000000E+00 0. -1.
         -2   -1    0    0    0  501 -0.00000000000E+00 -0.00000000000E+00 -0.68564743574E+02  0.68564743574E+02  0.00000000000E+00 0.  1.
          6    1    1    2  502    0  0.25138862161E+02  0.69406167652E+02  0.10456008660E+04  0.10622214220E+04  0.17200000000E+03 0. -1.
         -6    1    1    2    0  501 -0.25138862161E+02 -0.69406167652E+02  0.85100647068E+02  0.20560957816E+03  0.17200000000E+03 0.  1.
</event>
<event>
 4    1  0.3141404E-002  0.1810718E+03  0.7818608E-02  0.1166770E+00
          4   -1    0    0  502    0  0.00000000000E+00  0.00000000000E+00  0.10305070276E+03  0.10305070276E+03  0.00000000000E+00 0. -1.
         -4   -1    0    0    0  501 -0.00000000000E+00 -0.00000000000E+00 -0.49992482688E+03  0.49992482688E+03  0.00000000000E+00 0.  1.
          6    1    1    2  502    0  0.55454732442E+02  0.11303669908E+02 -0.16647996713E+02  0.18183551935E+03  0.17200000000E+03 0. -1.
         -6    1    1    2    0  501 -0.55454732442E+02 -0.11303669908E+02 -0.38022612740E+03  0.42114001028E+03  0.17200000000E+03 0.  1.
</event>
<event>
 4    1  0.3141404E-002  0.4344985E+03  0.7818608E-02  0.1032448E+00
          2   -1    0    0  502    0  0.00000000000E+00  0.00000000000E+00  0.15273523791E+04  0.15273523791E+04  0.00000000000E+00 0. -1.
         -2   -1    0    0    0  501 -0.00000000000E+00 -0.00000000000E+00 -0.16300270168E+03  0.16300270168E+03  0.00000000000E+00 0.  1.
          6    1    1    2  502    0  0.15507036042E+03  0.36763858876E+03  0.26666244993E+03  0.50980173678E+03  0.17200000000E+03 0. -1.
         -6    1    1    2    0  501 -0.15507036042E+03 -0.36763858876E+03  0.10976872275E+04  0.11805533440E+04  0.17200000000E+03 0.  1.
</event>
<event>
 4    1  0.3141404E-002  0.2183058E+03  0.7818608E-02  0.1135152E+00
         -2   -1    0    0    0  501 -0.00000000000E+00  0.00000000000E+00  0.72765360432E+02  0.72765360432E+02  0.00000000000E+00 0.  1.
          2   -1    0    0  502    0  0.00000000000E+00 -0.00000000000E+00 -0.68197059011E+03  0.68197059011E+03  0.00000000000E+00 0. -1.
          6    1    1    2  502    0  0.60606276539E+02  0.12000127515E+03 -0.37972282648E+03  0.43800325540E+03  0.17200000000E+03 0. -1.
         -6    1    1    2    0  501 -0.60606276539E+02 -0.12000127515E+03 -0.22948240320E+03  0.31673269515E+03  0.17200000000E+03 0.  1.
</event>
<event>
 4    1  0.3141404E-002  0.5090141E+03  0.7818608E-02  0.1011453E+00
         -1   -1    0    0    0  501 -0.00000000000E+00  0.00000000000E+00  0.56931801786E+03  0.56931801786E+03  0.00000000000E+00 0.  1.
          1   -1    0    0  502    0  0.00000000000E+00 -0.00000000000E+00 -0.66787758046E+03  0.66787758046E+03  0.00000000000E+00 0. -1.
          6    1    1    2  502    0 -0.41194507355E+03 -0.24456625837E+03 -0.39844025875E+03  0.64641321007E+03  0.17200000000E+03 0. -1.
         -6    1    1    2    0  501  0.41194507355E+03  0.24456625837E+03  0.29988069615E+03  0.59078238826E+03  0.17200000000E+03 0.  1.
</event>
<event>
 4    1  0.3141404E-002  0.2801499E+03  0.7818608E-02  0.1095607E+00
         -2   -1    0    0    0  501 -0.00000000000E+00  0.00000000000E+00  0.52439922642E+03  0.52439922642E+03  0.00000000000E+00 0.  1.
          2   -1    0    0  502    0  0.00000000000E+00 -0.00000000000E+00 -0.15108299508E+03  0.15108299508E+03  0.00000000000E+00 0. -1.
          6    1    1    2  502    0  0.15075876574E+02 -0.22061889810E+03  0.15393304133E+03  0.31965506639E+03  0.17200000000E+03 0. -1.
         -6    1    1    2    0  501 -0.15075876574E+02  0.22061889810E+03  0.21938319001E+03  0.35582715511E+03  0.17200000000E+03 0.  1.
</event>
<event>
 4    1  0.3141404E-002  0.9995951E+03  0.7818608E-02  0.9308989E-01
         -2   -1    0    0    0  501 -0.00000000000E+00  0.00000000000E+00  0.50969043116E+03  0.50969043116E+03  0.00000000000E+00 0.  1.
          2   -1    0    0  502    0  0.00000000000E+00 -0.00000000000E+00 -0.21486711976E+04  0.21486711976E+04  0.00000000000E+00 0. -1.
          6    1    1    2  502    0 -0.67729109584E+03 -0.71476090394E+03 -0.12129555435E+04  0.15717670084E+04  0.17200000000E+03 0. -1.
         -6    1    1    2    0  501  0.67729109584E+03  0.71476090394E+03 -0.42602522293E+03  0.10865946203E+04  0.17200000000E+03 0.  1.
</event>
<event>
 4    1  0.3141404E-002  0.1875317E+03  0.7818608E-02  0.1160707E+00
          2   -1    0    0  502    0  0.00000000000E+00  0.00000000000E+00  0.24279946891E+04  0.24279946891E+04  0.00000000000E+00 0. -1.
         -2   -1    0    0    0  501 -0.00000000000E+00 -0.00000000000E+00 -0.17464364324E+02  0.17464364324E+02  0.00000000000E+00 0.  1.
          6    1    1    2  502    0 -0.42411313616E+01  0.74606566328E+02  0.17103416133E+04  0.17205919217E+04  0.17200000000E+03 0. -1.
         -6    1    1    2    0  501  0.42411313616E+01 -0.74606566328E+02  0.70018871151E+03  0.72486713173E+03  0.17200000000E+03 0.  1.
</event>
<event>
 4    1  0.3141404E-002  0.1811349E+03  0.7818608E-02  0.1166709E+00
         -2   -1    0    0    0  501 -0.00000000000E+00  0.00000000000E+00  0.18998804319E+03  0.18998804319E+03  0.00000000000E+00 0.  1.
          2   -1    0    0  502    0  0.00000000000E+00 -0.00000000000E+00 -0.13216025147E+04  0.13216025147E+04  0.00000000000E+00 0. -1.
          6    1    1    2  502    0 -0.55687569377E+01  0.56523057559E+02 -0.12704944618E+04  0.12833417489E+04  0.17200000000E+03 0. -1.
         -6    1    1    2    0  501  0.55687569377E+01 -0.56523057559E+02  0.13887999028E+03  0.22824880896E+03  0.17200000000E+03 0.  1.
</event>
<event>
 4    1  0.3141404E-002  0.1783350E+03  0.7818608E-02  0.1169424E+00
         -2   -1    0    0    0  501 -0.00000000000E+00  0.00000000000E+00  0.17466199783E+02  0.17466199783E+02  0.00000000000E+00 0.  1.
          2   -1    0    0  502    0  0.00000000000E+00 -0.00000000000E+00 -0.18388889094E+04  0.18388889094E+04  0.00000000000E+00 0. -1.
          6    1    1    2  502    0  0.31131498044E+02  0.35358207737E+02 -0.81878739725E+03  0.83798339776E+03  0.17200000000E+03 0.  1.
         -6    1    1    2    0  501 -0.31131498044E+02 -0.35358207737E+02 -0.10026353124E+04  0.10183717114E+04  0.17200000000E+03 0. -1.
</event>
<event>
 4    1  0.3141404E-002  0.2225550E+03  0.7818608E-02  0.1131992E+00
         -2   -1    0    0    0  501 -0.00000000000E+00  0.00000000000E+00  0.14819900615E+03  0.14819900615E+03  0.00000000000E+00 0.  1.
          2   -1    0    0  502    0  0.00000000000E+00 -0.00000000000E+00 -0.39481832852E+03  0.39481832852E+03  0.00000000000E+00 0. -1.
          6    1    1    2  502    0  0.10886968050E+03  0.89967229470E+02 -0.16938445231E+02  0.22319861253E+03  0.17200000000E+03 0. -1.
         -6    1    1    2    0  501 -0.10886968050E+03 -0.89967229470E+02 -0.22968087713E+03  0.31981872214E+03  0.17200000000E+03 0.  1.
</event>
<event>
 4    1  0.3141404E-002  0.2481021E+03  0.7818608E-02  0.1114510E+00
         -1   -1    0    0    0  501 -0.00000000000E+00  0.00000000000E+00  0.98647720489E+02  0.98647720489E+02  0.00000000000E+00 0.  1.
          1   -1    0    0  502    0  0.00000000000E+00 -0.00000000000E+00 -0.90201459626E+03  0.90201459626E+03  0.00000000000E+00 0. -1.
          6    1    1    2  502    0  0.17755899512E+03  0.21058186190E+02 -0.67946070982E+03  0.72334051466E+03  0.17200000000E+03 0. -1.
         -6    1    1    2    0  501 -0.17755899512E+03 -0.21058186190E+02 -0.12390616595E+03  0.27732180209E+03  0.17200000000E+03 0.  1.
</event>
<event>
 4    1  0.3141404E-002  0.2362048E+03  0.7818608E-02  0.1122347E+00
          1   -1    0    0  502    0  0.00000000000E+00  0.00000000000E+00  0.16891799954E+03  0.16891799954E+03  0.00000000000E+00 0. -1.
         -1   -1    0    0    0  501 -0.00000000000E+00 -0.00000000000E+00 -0.48289591746E+03  0.48289591746E+03  0.00000000000E+00 0.  1.
          6    1    1    2  502    0 -0.43387592922E+02  0.15596859410E+03  0.26219767384E+02  0.23765555278E+03  0.17200000000E+03 0. -1.
         -6    1    1    2    0  501  0.43387592922E+02 -0.15596859410E+03 -0.34019768530E+03  0.41415836422E+03  0.17200000000E+03 0.  1.
</event>
<event>
 4    1  0.3141404E-002  0.2043149E+03  0.7818608E-02  0.1146149E+00
         -2   -1    0    0    0  501 -0.00000000000E+00  0.00000000000E+00  0.48078202657E+03  0.48078202657E+03  0.00000000000E+00 0.  1.
          2   -1    0    0  502    0  0.00000000000E+00 -0.00000000000E+00 -0.93448924445E+02  0.93448924445E+02  0.00000000000E+00 0. -1.
          6    1    1    2  502    0  0.67582609827E+02 -0.87138776289E+02  0.27009957340E+03  0.33867145589E+03  0.17200000000E+03 0. -1.
         -6    1    1    2    0  501 -0.67582609827E+02  0.87138776289E+02  0.11723352872E+03  0.23555949512E+03  0.17200000000E+03 0.  1.
</event>
<event>
 4    1  0.3141404E-002  0.2217424E+03  0.7818608E-02  0.1132591E+00
          1   -1    0    0  502    0  0.00000000000E+00  0.00000000000E+00  0.50942768963E+03  0.50942768963E+03  0.00000000000E+00 0. -1.
         -1   -1    0    0    0  501 -0.00000000000E+00 -0.00000000000E+00 -0.98036053752E+02  0.98036053752E+02  0.00000000000E+00 0.  1.
          6    1    1    2  502    0  0.13723375454E+03  0.27433713948E+02  0.24347257119E+03  0.32931535793E+03  0.17200000000E+03 0. -1.
         -6    1    1    2    0  501 -0.13723375454E+03 -0.27433713948E+02  0.16791906469E+03  0.27814838546E+03  0.17200000000E+03 0. -1.
</event>
<event>
 4    1  0.3141404E-002  0.1727470E+03  0.7818608E-02  0.1175013E+00
         -2   -1    0    0    0  501 -0.00000000000E+00  0.00000000000E+00  0.18496792872E+02  0.18496792872E+02  0.00000000000E+00 0.  1.
          2   -1    0    0  502    0  0.00000000000E+00 -0.00000000000E+00 -0.19776920565E+04  0.19776920565E+04  0.00000000000E+00 0. -1.
          6    1    1    2  502    0  0.16046062156E+02  0.23752649887E+00 -0.14080036776E+04  0.14185612037E+04  0.17200000000E+03 0. -1.
         -6    1    1    2    0  501 -0.16046062156E+02 -0.23752649887E+00 -0.55119158608E+03  0.57762764572E+03  0.17200000000E+03 0.  1.
</event>
<event>
 4    1  0.3141404E-002  0.2810465E+03  0.7818608E-02  0.1095119E+00
          2   -1    0    0  502    0  0.00000000000E+00  0.00000000000E+00  0.25564442734E+04  0.25564442734E+04  0.00000000000E+00 0. -1.
         -2   -1    0    0    0  501 -0.00000000000E+00 -0.00000000000E+00 -0.39553068557E+02  0.39553068557E+02  0.00000000000E+00 0.  1.
          6    1    1    2  502    0  0.57209951766E+02 -0.21477928685E+03  0.65123687508E+03  0.70929301992E+03  0.17200000000E+03 0.  1.
         -6    1    1    2    0  501 -0.57209951766E+02  0.21477928685E+03  0.18656543298E+04  0.18867043221E+04  0.17200000000E+03 0. -1.
</event>
<event>
 4    1  0.3141404E-002  0.3996936E+03  0.7818608E-02  0.1043886E+00
         -2   -1    0    0    0  501 -0.00000000000E+00  0.00000000000E+00  0.12863374565E+03  0.12863374565E+03  0.00000000000E+00 0.  1.
          2   -1    0    0  502    0  0.00000000000E+00 -0.00000000000E+00 -0.20369692184E+04  0.20369692184E+04  0.00000000000E+00 0. -1.
          6    1    1    2  502    0 -0.33041397188E+03 -0.14490541011E+03 -0.27769694047E+03  0.48669349846E+03  0.17200000000E+03 0.  1.
         -6    1    1    2    0  501  0.33041397188E+03  0.14490541011E+03 -0.16306385322E+04  0.16789094656E+04  0.17200000000E+03 0.  1.
</event>
<event>
 4    1  0.3141404E-002  0.2465312E+03  0.7818608E-02  0.1115517E+00
          1   -1    0    0  502    0  0.00000000000E+00  0.00000000000E+00  0.13883700938E+04  0.13883700938E+04  0.00000000000E+00 0. -1.
         -1   -1    0    0    0  501 -0.00000000000E+00 -0.00000000000E+00 -0.48718318434E+02  0.48718318434E+02  0.00000000000E+00 0.  1.
          6    1    1    2  502    0  0.16710873865E+03 -0.57169097874E+02  0.44097019200E+03  0.50520525187E+03  0.17200000000E+03 0.  1.
         -6    1    1    2    0  501 -0.16710873865E+03  0.57169097874E+02  0.89868158338E+03  0.93188316037E+03  0.17200000000E+03 0.  1.
</event>
<event>
 4    1  0.3141404E-002  0.1918991E+03  0.7818608E-02  0.1156760E+00
         -1   -1    0    0    0  501 -0.00000000000E+00  0.00000000000E+00  0.43488769434E+02  0.43488769434E+02  0.00000000000E+00 0.  1.
          1   -1    0    0  502    0  0.00000000000E+00 -0.00000000000E+00 -0.85620606310E+03  0.85620606310E+03  0.00000000000E+00 0. -1.
          6    1    1    2  502    0 -0.84870312306E+02  0.61886855303E+01 -0.35915006766E+03  0.40720270240E+03  0.17200000000E+03 0. -1.
         -6    1    1    2    0  501  0.84870312306E+02 -0.61886855303E+01 -0.45356722600E+03  0.49249213013E+03  0.17200000000E+03 0. -1.
</event>
<event>
 4    1  0.3141404E-002  0.1748421E+03  0.7818608E-02  0.1172890E+00
          2   -1    0    0  502    0  0.00000000000E+00  0.00000000000E+00  0.21383357414E+04  0.21383357414E+04  0.00000000000E+00 0. -1.
         -2   -1    0    0    0  501 -0.00000000000E+00 -0.00000000000E+00 -0.17217902510E+02  0.17217902510E+02  0.00000000000E+00 0.  1.
          6    1    1    2  502    0 -0.25215765326E+02 -0.18706398247E+02  0.61657470147E+03  0.64088542396E+03  0.17200000000E+03 0.  1.
         -6    1    1    2    0  501  0.25215765326E+02  0.18706398247E+02  0.15045431375E+04  0.15146682200E+04  0.17200000000E+03 0. -1.
</event>
<event>
 4    1  0.3141404E-002  0.2072016E+03  0.7818608E-02  0.1143801E+00
         -2   -1    0    0    0  501 -0.00000000000E+00  0.00000000000E+00  0.52515708067E+03  0.52515708067E+03  0.00000000000E+00 0.  1.
          2   -1    0    0  502    0  0.00000000000E+00 -0.00000000000E+00 -0.24781163422E+03  0.24781163422E+03  0.00000000000E+00 0. -1.
          6    1    1    2  502    0 -0.10423374873E+03  0.49837902265E+02 -0.17770324632E+03  0.27296691123E+03  0.17200000000E+03 0. -1.
         -6    1    1    2    0  501  0.10423374873E+03 -0.49837902265E+02  0.45504869277E+03  0.50000180366E+03  0.17200000000E+03 0.  1.
</event>
<event>
 4    1  0.3141404E-002  0.2290407E+03  0.7818608E-02  0.1127317E+00
         -1   -1    0    0    0  501 -0.00000000000E+00  0.00000000000E+00  0.75834498333E+02  0.75834498333E+02  0.00000000000E+00 0.  1.
          1   -1    0    0  502    0  0.00000000000E+00 -0.00000000000E+00 -0.82808281080E+03  0.82808281080E+03  0.00000000000E+00 0. -1.
          6    1    1    2  502    0  0.70670635160E+02 -0.13372106570E+03 -0.55949821867E+03  0.60456423876E+03  0.17200000000E+03 0. -1.
         -6    1    1    2    0  501 -0.70670635160E+02  0.13372106570E+03 -0.19275009379E+03  0.29935307038E+03  0.17200000000E+03 0. -1.
</event>
<event>
 4    1  0.3141404E-002  0.3834543E+03  0.7818608E-02  0.1049664E+00
          2   -1    0    0  502    0  0.00000000000E+00  0.00000000000E+00  0.19807546106E+04  0.19807546106E+04  0.00000000000E+00 0. -1.
         -2   -1    0    0    0  501 -0.00000000000E+00 -0.00000000000E+00 -0.14859137552E+03  0.14859137552E+03  0.00000000000E+00 0.  1.
          6    1    1    2  502    0 -0.33702418086E+03 -0.62192713664E+02  0.16292626482E+03  0.41663197175E+03  0.17200000000E+03 0. -1.
         -6    1    1    2    0  501  0.33702418086E+03  0.62192713664E+02  0.16692369702E+04  0.17127140143E+04  0.17200000000E+03 0.  1.
</event>
<event>
 4    1  0.3141404E-002  0.1750931E+03  0.7818608E-02  0.1172638E+00
          2   -1    0    0  502    0  0.00000000000E+00  0.00000000000E+00  0.28148605664E+04  0.28148605664E+04  0.00000000000E+00 0. -1.
         -2   -1    0    0    0  501 -0.00000000000E+00 -0.00000000000E+00 -0.12452434937E+02  0.12452434937E+02  0.00000000000E+00 0.  1.
          6    1    1    2  502    0  0.32353097694E+02 -0.51827164978E+01  0.19017367019E+04  0.19097801096E+04  0.17200000000E+03 0. -1.
         -6    1    1    2    0  501 -0.32353097694E+02  0.51827164978E+01  0.90067142958E+03  0.91753289181E+03  0.17200000000E+03 0.  1.
</event>
<event>
 4    1  0.3141404E-002  0.2905132E+03  0.7818608E-02  0.1090081E+00
         -2   -1    0    0    0  501 -0.00000000000E+00  0.00000000000E+00  0.45634805515E+03  0.45634805515E+03  0.00000000000E+00 0.  1.
          2   -1    0    0  502    0  0.00000000000E+00 -0.00000000000E+00 -0.21287614030E+03  0.21287614030E+03  0.00000000000E+00 0. -1.
          6    1    1    2  502    0  0.19788264643E+03 -0.12512553078E+03  0.52399291465E+00  0.29051370842E+03  0.17200000000E+03 0. -1.
         -6    1    1    2    0  501 -0.19788264643E+03  0.12512553078E+03  0.24294792194E+03  0.37871048703E+03  0.17200000000E+03 0.  1.
</event>
<event>
 4    1  0.3141404E-002  0.3456714E+03  0.7818608E-02  0.1064406E+00
          2   -1    0    0  502    0  0.00000000000E+00  0.00000000000E+00  0.10079504554E+04  0.10079504554E+04  0.00000000000E+00 0. -1.
         -2   -1    0    0    0  501 -0.00000000000E+00 -0.00000000000E+00 -0.11984977320E+03  0.11984977320E+03  0.00000000000E+00 0.  1.
          6    1    1    2  502    0  0.29250372672E+03  0.65926120439E+02  0.50286064130E+03  0.61021103568E+03  0.17200000000E+03 0. -1.
         -6    1    1    2    0  501 -0.29250372672E+03 -0.65926120439E+02  0.38524004087E+03  0.51758919288E+03  0.17200000000E+03 0.  1.
</event>
<event>
 4    1  0.3141404E-002  0.2046212E+03  0.7818608E-02  0.1145898E+00
         -1   -1    0    0    0  501 -0.00000000000E+00  0.00000000000E+00  0.13287944971E+03  0.13287944971E+03  0.00000000000E+00 0.  1.
          1   -1    0    0  502    0  0.00000000000E+00 -0.00000000000E+00 -0.37066430460E+03  0.37066430460E+03  0.00000000000E+00 0. -1.
          6    1    1    2  502    0 -0.10743620400E+03 -0.27263160844E+02 -0.21637553964E+03  0.29780562792E+03  0.17200000000E+03 0. -1.
         -6    1    1    2    0  501  0.10743620400E+03  0.27263160844E+02 -0.21409315253E+02  0.20573812639E+03  0.17200000000E+03 0.  1.
</event>
<event>
 4    1  0.3141404E-002  0.2747941E+03  0.7818608E-02  0.1098567E+00
          2   -1    0    0  502    0  0.00000000000E+00  0.00000000000E+00  0.16381956821E+04  0.16381956821E+04  0.00000000000E+00 0. -1.
         -2   -1    0    0    0  501 -0.00000000000E+00 -0.00000000000E+00 -0.10971318357E+03  0.10971318357E+03  0.00000000000E+00 0.  1.
          6    1    1    2  502    0 -0.69548792825E+02  0.20270855433E+03  0.14297469164E+04  0.14559148456E+04  0.17200000000E+03 0. -1.
         -6    1    1    2    0  501  0.69548792825E+02 -0.20270855433E+03  0.98735582075E+02  0.29199402005E+03  0.17200000000E+03 0.  1.
</event>
<event>
 4    1  0.3141404E-002  0.4887490E+03  0.7818608E-02  0.1016758E+00
         -2   -1    0    0    0  501 -0.00000000000E+00  0.00000000000E+00  0.15204955874E+03  0.15204955874E+03  0.00000000000E+00 0.  1.
          2   -1    0    0  502    0  0.00000000000E+00 -0.00000000000E+00 -0.16873395911E+04  0.16873395911E+04  0.00000000000E+00 0. -1.
          6    1    1    2  502    0  0.30887379628E+03  0.33747372935E+03 -0.10091001071E+04  0.11212308264E+04  0.17200000000E+03 0. -1.
         -6    1    1    2    0  501 -0.30887379628E+03 -0.33747372935E+03 -0.52618992529E+03  0.71815832343E+03  0.17200000000E+03 0.  1.
</event>
<event>
 4    1  0.3141404E-002  0.3894793E+03  0.7818608E-02  0.1047485E+00
          1   -1    0    0  502    0  0.00000000000E+00  0.00000000000E+00  0.95966412756E+03  0.95966412756E+03  0.00000000000E+00 0. -1.
         -1   -1    0    0    0  501 -0.00000000000E+00 -0.00000000000E+00 -0.15906709595E+03  0.15906709595E+03  0.00000000000E+00 0.  1.
          6    1    1    2  502    0  0.34677820637E+03  0.43069766601E+02  0.44458481580E+03  0.59105819311E+03  0.17200000000E+03 0. -1.
         -6    1    1    2    0  501 -0.34677820637E+03 -0.43069766601E+02  0.35601221581E+03  0.52767303040E+03  0.17200000000E+03 0. -1.
</event>
<event>
 4    1  0.3141404E-002  0.3757955E+03  0.7818608E-02  0.1052499E+00
          2   -1    0    0  502    0  0.00000000000E+00  0.00000000000E+00  0.68737334446E+03  0.68737334446E+03  0.00000000000E+00 0. -1.
         -2   -1    0    0    0  501 -0.00000000000E+00 -0.00000000000E+00 -0.20786661496E+03  0.20786661496E+03  0.00000000000E+00 0.  1.
          6    1    1    2  502    0  0.32640749106E+03  0.71389333300E+02  0.19151047144E+03  0.42178021267E+03  0.17200000000E+03 0. -1.
         -6    1    1    2    0  501 -0.32640749106E+03 -0.71389333300E+02  0.28799625806E+03  0.47345974675E+03  0.17200000000E+03 0.  1.
</event>
<event>
 4    1  0.3141404E-002  0.4215779E+03  0.7818608E-02  0.1036554E+00
         -1   -1    0    0    0  501 -0.00000000000E+00  0.00000000000E+00  0.27882494261E+03  0.27882494261E+03  0.00000000000E+00 0.  1.
          1   -1    0    0  502    0  0.00000000000E+00 -0.00000000000E+00 -0.90829156472E+03  0.90829156472E+03  0.00000000000E+00 0. -1.
          6    1    1    2  502    0  0.19300797518E+03  0.33300422730E+03 -0.63887465746E+03  0.76543368219E+03  0.17200000000E+03 0. -1.
         -6    1    1    2    0  501 -0.19300797518E+03 -0.33300422730E+03  0.94080353585E+01  0.42168282514E+03  0.17200000000E+03 0.  1.
</event>
<event>
 4    1  0.3141404E-002  0.2923606E+03  0.7818608E-02  0.1089123E+00
         -1   -1    0    0    0  501 -0.00000000000E+00  0.00000000000E+00  0.13580739141E+03  0.13580739141E+03  0.00000000000E+00 0.  1.
          1   -1    0    0  502    0  0.00000000000E+00 -0.00000000000E+00 -0.63307054126E+03  0.63307054126E+03  0.00000000000E+00 0. -1.
          6    1    1    2  502    0  0.33707862236E+02 -0.23399684936E+03 -0.27797568399E+03  0.40341693863E+03  0.17200000000E+03 0. -1.
         -6    1    1    2    0  501 -0.33707862236E+02  0.23399684936E+03 -0.21928746585E+03  0.36546099404E+03  0.17200000000E+03 0.  1.
</event>
<event>
 4    1  0.3141404E-002  0.1776976E+03  0.7818608E-02  0.1170050E+00
          4   -1    0    0  502    0  0.00000000000E+00  0.00000000000E+00  0.80003776562E+02  0.80003776562E+02  0.00000000000E+00 0. -1.
         -4   -1    0    0    0  501 -0.00000000000E+00 -0.00000000000E+00 -0.43025776540E+03  0.43025776540E+03  0.00000000000E+00 0.  1.
          6    1    1    2  502    0  0.11736007214E+02  0.43066233223E+02 -0.10176918943E+03  0.20477646893E+03  0.17200000000E+03 0. -1.
         -6    1    1    2    0  501 -0.11736007214E+02 -0.43066233223E+02 -0.24848479942E+03  0.30548507304E+03  0.17200000000E+03 0.  1.
</event>
<event>
 4    1  0.3141404E-002  0.2786632E+03  0.7818608E-02  0.1096421E+00
         -2   -1    0    0    0  501 -0.00000000000E+00  0.00000000000E+00  0.62513169558E+02  0.62513169558E+02  0.00000000000E+00 0.  1.
          2   -1    0    0  502    0  0.00000000000E+00 -0.00000000000E+00 -0.12896878947E+04  0.12896878947E+04  0.00000000000E+00 0. -1.
          6    1    1    2  502    0  0.15741903494E+03  0.15260541321E+03 -0.74333851396E+03  0.79385471658E+03  0.17200000000E+03 0. -1.
         -6    1    1    2    0  501 -0.15741903494E+03 -0.15260541321E+03 -0.48383621113E+03  0.55834634762E+03  0.17200000000E+03 0.  1.
</event>
<event>
 4    1  0.3141404E-002  0.2723985E+03  0.7818608E-02  0.1099915E+00
          2   -1    0    0  502    0  0.00000000000E+00  0.00000000000E+00  0.48662699417E+03  0.48662699417E+03  0.00000000000E+00 0. -1.
         -2   -1    0    0    0  501 -0.00000000000E+00 -0.00000000000E+00 -0.15248020834E+03  0.15248020834E+03  0.00000000000E+00 0.  1.
          6    1    1    2  502    0 -0.20606747705E+03  0.46401904051E+02  0.16731850656E+03  0.31968175493E+03  0.17200000000E+03 0. -1.
         -6    1    1    2    0  501  0.20606747705E+03 -0.46401904051E+02  0.16682827928E+03  0.31942544758E+03  0.17200000000E+03 0. -1.
</event>
<event>
 4    1  0.3141404E-002  0.9438630E+03  0.7818608E-02  0.9372353E-01
         -2   -1    0    0    0  501 -0.00000000000E+00  0.00000000000E+00  0.52044034220E+03  0.52044034220E+03  0.00000000000E+00 0.  1.
          2   -1    0    0  502    0  0.00000000000E+00 -0.00000000000E+00 -0.23154991276E+04  0.23154991276E+04  0.00000000000E+00 0. -1.
          6    1    1    2  502    0 -0.26667791977E+03  0.88891856537E+03 -0.16215710078E+04  0.18762648699E+04  0.17200000000E+03 0. -1.
         -6    1    1    2    0  501  0.26667791977E+03 -0.88891856537E+03 -0.17348777766E+03  0.95967459993E+03  0.17200000000E+03 0.  1.
</event>
<event>
 4    1  0.3141404E-002  0.2036354E+03  0.7818608E-02  0.1146708E+00
         -2   -1    0    0    0  501 -0.00000000000E+00  0.00000000000E+00  0.81690960210E+02  0.81690960210E+02  0.00000000000E+00 0.  1.
          2   -1    0    0  502    0  0.00000000000E+00 -0.00000000000E+00 -0.51752182241E+03  0.51752182241E+03  0.00000000000E+00 0. -1.
          6    1    1    2  502    0 -0.77164251155E+02  0.77000391311E+02 -0.25937271432E+03  0.32975989272E+03  0.17200000000E+03 0. -1.
         -6    1    1    2    0  501  0.77164251155E+02 -0.77000391311E+02 -0.17645814788E+03  0.26945288990E+03  0.17200000000E+03 0.  1.
</event>
<event>
 4    1  0.3141404E-002  0.2072222E+03  0.7818608E-02  0.1143785E+00
          2   -1    0    0  502    0  0.00000000000E+00  0.00000000000E+00  0.25268292517E+03  0.25268292517E+03  0.00000000000E+00 0. -1.
         -2   -1    0    0    0  501 -0.00000000000E+00 -0.00000000000E+00 -0.20561057128E+03  0.20561057128E+03  0.00000000000E+00 0.  1.
          6    1    1    2  502    0  0.21994530348E+02  0.11346053925E+03  0.11897898134E+03  0.23894989293E+03  0.17200000000E+03 0.  1.
         -6    1    1    2    0  501 -0.21994530348E+02 -0.11346053925E+03 -0.71906627444E+02  0.21934360351E+03  0.17200000000E+03 0.  1.
</event>
<event>
 4    1  0.3141404E-002  0.2181561E+03  0.7818608E-02  0.1135265E+00
          1   -1    0    0  502    0  0.00000000000E+00  0.00000000000E+00  0.10266439387E+03  0.10266439387E+03  0.00000000000E+00 0. -1.
         -1   -1    0    0    0  501 -0.00000000000E+00 -0.00000000000E+00 -0.59631100994E+03  0.59631100994E+03  0.00000000000E+00 0.  1.
          6    1    1    2  502    0  0.13419211631E+03 -0.74522609751E+00 -0.81931569410E+02  0.23303403508E+03  0.17200000000E+03 0. -1.
         -6    1    1    2    0  501 -0.13419211631E+03  0.74522609751E+00 -0.41171504667E+03  0.46594136873E+03  0.17200000000E+03 0.  1.
</event>
<event>
 4    1  0.3141404E-002  0.1974651E+03  0.7818608E-02  0.1151896E+00
         -2   -1    0    0    0  501 -0.00000000000E+00  0.00000000000E+00  0.77897322770E+02  0.77897322770E+02  0.00000000000E+00 0.  1.
          2   -1    0    0  502    0  0.00000000000E+00 -0.00000000000E+00 -0.14046024685E+04  0.14046024685E+04  0.00000000000E+00 0. -1.
          6    1    1    2  502    0  0.85196183090E+02  0.46368789671E+02 -0.12580305048E+04  0.12734336281E+04  0.17200000000E+03 0. -1.
         -6    1    1    2    0  501 -0.85196183090E+02 -0.46368789671E+02 -0.68674640963E+02  0.20906616316E+03  0.17200000000E+03 0.  1.
</event>
<event>
 4    1  0.3141404E-002  0.2931413E+03  0.7818608E-02  0.1088720E+00
         -1   -1    0    0    0  501 -0.00000000000E+00  0.00000000000E+00  0.37547184083E+02  0.37547184083E+02  0.00000000000E+00 0.  1.
          1   -1    0    0  502    0  0.00000000000E+00 -0.00000000000E+00 -0.29849909288E+04  0.29849909288E+04  0.00000000000E+00 0. -1.
          6    1    1    2  502    0  0.23493457452E+03 -0.33964518733E+02 -0.22036591818E+04  0.22230712162E+04  0.17200000000E+03 0. -1.
         -6    1    1    2    0  501 -0.23493457452E+03  0.33964518733E+02 -0.74378456294E+03  0.79946689669E+03  0.17200000000E+03 0.  1.
</event>
<event>
 4    1  0.3141404E-002  0.2689054E+03  0.7818608E-02  0.1101908E+00
          1   -1    0    0  502    0  0.00000000000E+00  0.00000000000E+00  0.22826480961E+04  0.22826480961E+04  0.00000000000E+00 0. -1.
         -1   -1    0    0    0  501 -0.00000000000E+00 -0.00000000000E+00 -0.58622298287E+02  0.58622298287E+02  0.00000000000E+00 0.  1.
          6    1    1    2  502    0  0.13460985321E+03  0.15686394610E+03  0.31837528777E+03  0.41674084757E+03  0.17200000000E+03 0.  1.
         -6    1    1    2    0  501 -0.13460985321E+03 -0.15686394610E+03  0.19056505100E+04  0.19245295468E+04  0.17200000000E+03 0. -1.
</event>
<event>
 4    1  0.3141404E-002  0.2230298E+03  0.7818608E-02  0.1131644E+00
          2   -1    0    0  502    0  0.00000000000E+00  0.00000000000E+00  0.22258610610E+04  0.22258610610E+04  0.00000000000E+00 0. -1.
         -2   -1    0    0    0  501 -0.00000000000E+00 -0.00000000000E+00 -0.48375418799E+02  0.48375418799E+02  0.00000000000E+00 0.  1.
          6    1    1    2  502    0 -0.13997032490E+03  0.23803066511E+02  0.19228340400E+04  0.19357254514E+04  0.17200000000E+03 0. -1.
         -6    1    1    2    0  501  0.13997032490E+03 -0.23803066511E+02  0.25465160212E+03  0.33851102831E+03  0.17200000000E+03 0.  1.
</event>
<event>
 4    1  0.3141404E-002  0.2685001E+03  0.7818608E-02  0.1102141E+00
         -2   -1    0    0    0  501 -0.00000000000E+00  0.00000000000E+00  0.16379317835E+03  0.16379317835E+03  0.00000000000E+00 0.  1.
          2   -1    0    0  502    0  0.00000000000E+00 -0.00000000000E+00 -0.16505658595E+04  0.16505658595E+04  0.00000000000E+00 0. -1.
          6    1    1    2  502    0 -0.19672352242E+03 -0.61710144606E+02 -0.15202512657E+04  0.15437798409E+04  0.17200000000E+03 0. -1.
         -6    1    1    2    0  501  0.19672352242E+03  0.61710144606E+02  0.33478584530E+02  0.27057919699E+03  0.17200000000E+03 0.  1.
</event>
<event>
 4    1  0.3141404E-002  0.3117698E+03  0.7818608E-02  0.1079501E+00
          1   -1    0    0  502    0  0.00000000000E+00  0.00000000000E+00  0.91500845812E+03  0.91500845812E+03  0.00000000000E+00 0. -1.
         -1   -1    0    0    0  501 -0.00000000000E+00 -0.00000000000E+00 -0.11557089503E+03  0.11557089503E+03  0.00000000000E+00 0.  1.
          6    1    1    2  502    0 -0.11928483961E+03  0.23105748614E+03  0.54622115495E+03  0.62893400685E+03  0.17200000000E+03 0. -1.
         -6    1    1    2    0  501  0.11928483961E+03 -0.23105748614E+03  0.25321640814E+03  0.40164534631E+03  0.17200000000E+03 0.  1.
</event>
<event>
 4    1  0.3141404E-002  0.2399157E+03  0.7818608E-02  0.1119849E+00
         -2   -1    0    0    0  501 -0.00000000000E+00  0.00000000000E+00  0.11939727058E+04  0.11939727058E+04  0.00000000000E+00 0.  1.
          2   -1    0    0  502    0  0.00000000000E+00 -0.00000000000E+00 -0.51561277344E+02  0.51561277344E+02  0.00000000000E+00 0. -1.
          6    1    1    2  502    0  0.70645297665E+02  0.15160737376E+03  0.41239843273E+03  0.47710797644E+03  0.17200000000E+03 0. -1.
         -6    1    1    2    0  501 -0.70645297665E+02 -0.15160737376E+03  0.73001299575E+03  0.76842600674E+03  0.17200000000E+03 0.  1.
</event>
<event>
 4    1  0.3141404E-002  0.3135808E+03  0.7818608E-02  0.1078642E+00
         -1   -1    0    0    0  501 -0.00000000000E+00  0.00000000000E+00  0.11732866596E+03  0.11732866596E+03  0.00000000000E+00 0.  1.
          1   -1    0    0  502    0  0.00000000000E+00 -0.00000000000E+00 -0.13501526390E+04  0.13501526390E+04  0.00000000000E+00 0. -1.
          6    1    1    2  502    0 -0.53240684518E+01 -0.26214605948E+03 -0.10682776743E+04  0.11133508394E+04  0.17200000000E+03 0. -1.
         -6    1    1    2    0  501  0.53240684518E+01  0.26214605948E+03 -0.16454629876E+03  0.35413046556E+03  0.17200000000E+03 0.  1.
</event>
<event>
 4    1  0.3141404E-002  0.2939866E+03  0.7818608E-02  0.1088286E+00
         -2   -1    0    0    0  501 -0.00000000000E+00  0.00000000000E+00  0.46976803508E+03  0.46976803508E+03  0.00000000000E+00 0.  1.
          2   -1    0    0  502    0  0.00000000000E+00 -0.00000000000E+00 -0.18490851645E+03  0.18490851645E+03  0.00000000000E+00 0. -1.
          6    1    1    2  502    0  0.73171173426E+02  0.22691435360E+03  0.16561987359E+03  0.33742863989E+03  0.17200000000E+03 0. -1.
         -6    1    1    2    0  501 -0.73171173426E+02 -0.22691435360E+03  0.11923964504E+03  0.31724791164E+03  0.17200000000E+03 0.  1.
</event>
<event>
 4    1  0.3141404E-002  0.3470788E+03  0.7818608E-02  0.1063820E+00
          1   -1    0    0  502    0  0.00000000000E+00  0.00000000000E+00  0.18883571172E+04  0.18883571172E+04  0.00000000000E+00 0. -1.
         -1   -1    0    0    0  501 -0.00000000000E+00 -0.00000000000E+00 -0.84546205178E+02  0.84546205178E+02  0.00000000000E+00 0.  1.
          6    1    1    2  502    0 -0.91812879668E+02  0.28714125478E+03  0.13906397141E+04  0.14332977777E+04  0.17200000000E+03 0. -1.
         -6    1    1    2    0  501  0.91812879668E+02 -0.28714125478E+03  0.41317119788E+03  0.53960554466E+03  0.17200000000E+03 0.  1.
</event>
<event>
 4    1  0.3141404E-002  0.2407155E+03  0.7818608E-02  0.1119317E+00
         -2   -1    0    0    0  501 -0.00000000000E+00  0.00000000000E+00  0.80420561372E+02  0.80420561372E+02  0.00000000000E+00 0.  1.
          2   -1    0    0  502    0  0.00000000000E+00 -0.00000000000E+00 -0.10505666209E+04  0.10505666209E+04  0.00000000000E+00 0. -1.
          6    1    1    2  502    0 -0.13665366338E+03 -0.98416202606E+02 -0.80203623733E+03  0.83738049812E+03  0.17200000000E+03 0. -1.
         -6    1    1    2    0  501  0.13665366338E+03  0.98416202606E+02 -0.16810982217E+03  0.29360668412E+03  0.17200000000E+03 0.  1.
</event>
<event>
 4    1  0.3141404E-002  0.2687827E+03  0.7818608E-02  0.1101978E+00
          1   -1    0    0  502    0  0.00000000000E+00  0.00000000000E+00  0.33554386163E+03  0.33554386163E+03  0.00000000000E+00 0. -1.
         -1   -1    0    0    0  501 -0.00000000000E+00 -0.00000000000E+00 -0.21579979818E+03  0.21579979818E+03  0.00000000000E+00 0.  1.
          6    1    1    2  502    0 -0.20634488788E+03 -0.90516624290E+01  0.46666820117E+02  0.27280384427E+03  0.17200000000E+03 0. -1.
         -6    1    1    2    0  501  0.20634488788E+03  0.90516624290E+01  0.73077243335E+02  0.27853981554E+03  0.17200000000E+03 0.  1.
</event>
<event>
 4    1  0.3141404E-002  0.3106613E+03  0.7818608E-02  0.1080029E+00
         -2   -1    0    0    0  501 -0.00000000000E+00  0.00000000000E+00  0.10303906938E+03  0.10303906938E+03  0.00000000000E+00 0.  1.
          2   -1    0    0  502    0  0.00000000000E+00 -0.00000000000E+00 -0.15991334933E+04  0.15991334933E+04  0.00000000000E+00 0. -1.
          6    1    1    2  502    0 -0.15128375700E+03  0.20985627823E+03 -0.20024687174E+03  0.36960687532E+03  0.17200000000E+03 0.  1.
         -6    1    1    2    0  501  0.15128375700E+03 -0.20985627823E+03 -0.12958475521E+04  0.13325656873E+04  0.17200000000E+03 0. -1.
</event>
<event>
 4    1  0.3141404E-002  0.2437564E+03  0.7818608E-02  0.1117315E+00
          2   -1    0    0  502    0  0.00000000000E+00  0.00000000000E+00  0.26474430827E+03  0.26474430827E+03  0.00000000000E+00 0. -1.
         -2   -1    0    0    0  501 -0.00000000000E+00 -0.00000000000E+00 -0.44908563820E+03  0.44908563820E+03  0.00000000000E+00 0.  1.
          6    1    1    2  502    0 -0.15879830531E+03  0.67943120716E+02  0.16026844451E+03  0.29172443115E+03  0.17200000000E+03 0. -1.
         -6    1    1    2    0  501  0.15879830531E+03 -0.67943120716E+02 -0.34460977445E+03  0.42210551532E+03  0.17200000000E+03 0.  1.
</event>
<event>
 4    1  0.3141404E-002  0.1768115E+03  0.7818608E-02  0.1170925E+00
         -2   -1    0    0    0  501 -0.00000000000E+00  0.00000000000E+00  0.79445906280E+02  0.79445906280E+02  0.00000000000E+00 0.  1.
          2   -1    0    0  502    0  0.00000000000E+00 -0.00000000000E+00 -0.50543904491E+03  0.50543904491E+03  0.00000000000E+00 0. -1.
          6    1    1    2  502    0 -0.17086619274E+02 -0.37233774756E+02 -0.75374369652E+02  0.19220718546E+03  0.17200000000E+03 0.  1.
         -6    1    1    2    0  501  0.17086619274E+02  0.37233774756E+02 -0.35061876897E+03  0.39267776573E+03  0.17200000000E+03 0. -1.
</event>
<event>
 4    1  0.3141404E-002  0.3360711E+03  0.7818608E-02  0.1068482E+00
          1   -1    0    0  502    0  0.00000000000E+00  0.00000000000E+00  0.77264297796E+03  0.77264297796E+03  0.00000000000E+00 0. -1.
         -1   -1    0    0    0  501 -0.00000000000E+00 -0.00000000000E+00 -0.15521556915E+03  0.15521556915E+03  0.00000000000E+00 0.  1.
          6    1    1    2  502    0 -0.28460209396E+03 -0.48594343033E+02  0.19677021093E+03  0.38943841358E+03  0.17200000000E+03 0. -1.
         -6    1    1    2    0  501  0.28460209396E+03  0.48594343033E+02  0.42065719789E+03  0.53842013353E+03  0.17200000000E+03 0.  1.
</event>
<event>
 4    1  0.3141404E-002  0.2884393E+03  0.7818608E-02  0.1091167E+00
         -1   -1    0    0    0  501 -0.00000000000E+00  0.00000000000E+00  0.98061633547E+03  0.98061633547E+03  0.00000000000E+00 0.  1.
          1   -1    0    0  502    0  0.00000000000E+00 -0.00000000000E+00 -0.87852164822E+02  0.87852164822E+02  0.00000000000E+00 0. -1.
          6    1    1    2  502    0 -0.12425546281E+03  0.19538122728E+03  0.54527515736E+03  0.61686484844E+03  0.17200000000E+03 0.  1.
         -6    1    1    2    0  501  0.12425546281E+03 -0.19538122728E+03  0.34748901329E+03  0.45160365185E+03  0.17200000000E+03 0.  1.
</event>
<event>
 4    1  0.3141404E-002  0.5500037E+03  0.7818608E-02  0.1001493E+00
          2   -1    0    0  502    0  0.00000000000E+00  0.00000000000E+00  0.31806488765E+04  0.31806488765E+04  0.00000000000E+00 0. -1.
         -2   -1    0    0    0  501 -0.00000000000E+00 -0.00000000000E+00 -0.18887709770E+03  0.18887709770E+03  0.00000000000E+00 0.  1.
          6    1    1    2  502    0  0.15568936782E+03  0.49867914292E+03  0.26829654357E+04  0.27387602297E+04  0.17200000000E+03 0. -1.
         -6    1    1    2    0  501 -0.15568936782E+03 -0.49867914292E+03  0.30880634308E+03  0.63076574445E+03  0.17200000000E+03 0.  1.
</event>
<event>
 4    1  0.3141404E-002  0.3163455E+03  0.7818608E-02  0.1077344E+00
         -2   -1    0    0    0  501 -0.00000000000E+00  0.00000000000E+00  0.65861898445E+03  0.65861898445E+03  0.00000000000E+00 0.  1.
          2   -1    0    0  502    0  0.00000000000E+00 -0.00000000000E+00 -0.18659531531E+03  0.18659531531E+03  0.00000000000E+00 0. -1.
          6    1    1    2  502    0 -0.94330250920E+02  0.24817796783E+03  0.53901751014E+02  0.32090481255E+03  0.17200000000E+03 0. -1.
         -6    1    1    2    0  501  0.94330250920E+02 -0.24817796783E+03  0.41812191813E+03  0.52430948720E+03  0.17200000000E+03 0.  1.
</event>
<event>
 4    1  0.3141404E-002  0.2032693E+03  0.7818608E-02  0.1147010E+00
         -2   -1    0    0    0  501 -0.00000000000E+00  0.00000000000E+00  0.35835117732E+03  0.35835117732E+03  0.00000000000E+00 0.  1.
          2   -1    0    0  502    0  0.00000000000E+00 -0.00000000000E+00 -0.12151845235E+03  0.12151845235E+03  0.00000000000E+00 0. -1.
          6    1    1    2  502    0 -0.42658515136E+02  0.99572298623E+02  0.64145777725E+02  0.21315035155E+03  0.17200000000E+03 0. -1.
         -6    1    1    2    0  501  0.42658515136E+02 -0.99572298623E+02  0.17268694725E+03  0.26671927811E+03  0.17200000000E+03 0. -1.
</event>
<event>
 4    1  0.3141404E-002  0.2540207E+03  0.7818608E-02  0.1110790E+00
          2   -1    0    0  502    0  0.00000000000E+00  0.00000000000E+00  0.21521367036E+04  0.21521367036E+04  0.00000000000E+00 0. -1.
         -2   -1    0    0    0  501 -0.00000000000E+00 -0.00000000000E+00 -0.55188772010E+02  0.55188772010E+02  0.00000000000E+00 0.  1.
          6    1    1    2  502    0 -0.14877712919E+03 -0.11317183180E+03  0.17943473119E+04  0.18122386083E+04  0.17200000000E+03 0. -1.
         -6    1    1    2    0  501  0.14877712919E+03  0.11317183180E+03  0.30260061967E+03  0.39508686729E+03  0.17200000000E+03 0.  1.
</event>
<event>
 4    1  0.3141404E-002  0.1785610E+03  0.7818608E-02  0.1169203E+00
         -2   -1    0    0    0  501 -0.00000000000E+00  0.00000000000E+00  0.42904162769E+03  0.42904162769E+03  0.00000000000E+00 0.  1.
          2   -1    0    0  502    0  0.00000000000E+00 -0.00000000000E+00 -0.74350413254E+02  0.74350413254E+02  0.00000000000E+00 0. -1.
          6    1    1    2  502    0 -0.22455439072E+02  0.42376656413E+02  0.17181632565E+03  0.24780007569E+03  0.17200000000E+03 0.  1.
         -6    1    1    2    0  501  0.22455439072E+02 -0.42376656413E+02  0.18287488878E+03  0.25559196525E+03  0.17200000000E+03 0.  1.
</event>
<event>
 4    1  0.3141404E-002  0.1851767E+03  0.7818608E-02  0.1162885E+00
          3   -1    0    0  502    0  0.00000000000E+00  0.00000000000E+00  0.27538928662E+03  0.27538928662E+03  0.00000000000E+00 0. -1.
         -3   -1    0    0    0  501 -0.00000000000E+00 -0.00000000000E+00 -0.16117767610E+03  0.16117767610E+03  0.00000000000E+00 0.  1.
          6    1    1    2  502    0  0.23452695112E+02 -0.64469898784E+02  0.16121139801E+03  0.24551886202E+03  0.17200000000E+03 0. -1.
         -6    1    1    2    0  501 -0.23452695112E+02  0.64469898784E+02 -0.46999787494E+02  0.19104810070E+03  0.17200000000E+03 0.  1.
</event>
<event>
 4    1  0.3141404E-002  0.5995542E+03  0.7818608E-02  0.9906331E-01
         -1   -1    0    0    0  501 -0.00000000000E+00  0.00000000000E+00  0.25356448542E+03  0.25356448542E+03  0.00000000000E+00 0.  1.
          1   -1    0    0  502    0  0.00000000000E+00 -0.00000000000E+00 -0.17199531605E+04  0.17199531605E+04  0.00000000000E+00 0. -1.
          6    1    1    2  502    0  0.14665390312E+03 -0.55531419914E+03 -0.11468846694E+04  0.12941443783E+04  0.17200000000E+03 0. -1.
         -6    1    1    2    0  501 -0.14665390312E+03  0.55531419914E+03 -0.31950400568E+03  0.67937326758E+03  0.17200000000E+03 0.  1.
</event>
<event>
 4    1  0.3141404E-002  0.2474716E+03  0.7818608E-02  0.1114913E+00
          2   -1    0    0  502    0  0.00000000000E+00  0.00000000000E+00  0.42930621963E+03  0.42930621963E+03  0.00000000000E+00 0. -1.
         -2   -1    0    0    0  501 -0.00000000000E+00 -0.00000000000E+00 -0.39903466326E+03  0.39903466326E+03  0.00000000000E+00 0.  1.
          6    1    1    2  502    0  0.13332072867E+03  0.11782935464E+03  0.34711933405E+03  0.42630271589E+03  0.17200000000E+03 0. -1.
         -6    1    1    2    0  501 -0.13332072867E+03 -0.11782935464E+03 -0.31684777768E+03  0.40203816700E+03  0.17200000000E+03 0.  1.
</event>
<event>
 4    1  0.3141404E-002  0.2239156E+03  0.7818608E-02  0.1130997E+00
         -2   -1    0    0    0  501 -0.00000000000E+00  0.00000000000E+00  0.74170650036E+02  0.74170650036E+02  0.00000000000E+00 0.  1.
          2   -1    0    0  502    0  0.00000000000E+00 -0.00000000000E+00 -0.90259745446E+03  0.90259745446E+03  0.00000000000E+00 0. -1.
          6    1    1    2  502    0  0.10913157709E+03  0.92975735011E+02 -0.65892641521E+03  0.69593261820E+03  0.17200000000E+03 0. -1.
         -6    1    1    2    0  501 -0.10913157709E+03 -0.92975735011E+02 -0.16950038922E+03  0.28083548630E+03  0.17200000000E+03 0.  1.
</event>
<event>
 4    1  0.3141404E-002  0.3240376E+03  0.7818608E-02  0.1073806E+00
         -1   -1    0    0    0  501 -0.00000000000E+00  0.00000000000E+00  0.35764057602E+03  0.35764057602E+03  0.00000000000E+00 0.  1.
          1   -1    0    0  502    0  0.00000000000E+00 -0.00000000000E+00 -0.31557006373E+03  0.31557006373E+03  0.00000000000E+00 0. -1.
          6    1    1    2  502    0 -0.56375362421E+02 -0.26877159943E+03 -0.67796733388E+02  0.33105400044E+03  0.17200000000E+03 0. -1.
         -6    1    1    2    0  501  0.56375362421E+02  0.26877159943E+03  0.10986724568E+03  0.34215663931E+03  0.17200000000E+03 0.  1.
</event>
<event>
 4    1  0.3141404E-002  0.2145199E+03  0.7818608E-02  0.1138036E+00
         -2   -1    0    0    0  501 -0.00000000000E+00  0.00000000000E+00  0.95544765994E+02  0.95544765994E+02  0.00000000000E+00 0.  1.
          2   -1    0    0  502    0  0.00000000000E+00 -0.00000000000E+00 -0.91718991968E+03  0.91718991968E+03  0.00000000000E+00 0. -1.
          6    1    1    2  502    0  0.43277796964E+02  0.12067230082E+03 -0.75976352642E+03  0.78946778780E+03  0.17200000000E+03 0. -1.
         -6    1    1    2    0  501 -0.43277796964E+02 -0.12067230082E+03 -0.61881627269E+02  0.22326689788E+03  0.17200000000E+03 0.  1.
</event>
<event>
 4    1  0.3141404E-002  0.4446570E+03  0.7818608E-02  0.1029327E+00
          2   -1    0    0  502    0  0.00000000000E+00  0.00000000000E+00  0.20870353249E+03  0.20870353249E+03  0.00000000000E+00 0. -1.
         -2   -1    0    0    0  501 -0.00000000000E+00 -0.00000000000E+00 -0.96204552131E+03  0.96204552131E+03  0.00000000000E+00 0.  1.
          6    1    1    2  502    0  0.34048299133E+03 -0.22848898739E+03 -0.44896512801E+03  0.63189363892E+03  0.17200000000E+03 0.  1.
         -6    1    1    2    0  501 -0.34048299133E+03  0.22848898739E+03 -0.30437686081E+03  0.53885541487E+03  0.17200000000E+03 0. -1.
</event>
<event>
 4    1  0.3141404E-002  0.1740643E+03  0.7818608E-02  0.1173675E+00
          2   -1    0    0  502    0  0.00000000000E+00  0.00000000000E+00  0.15009915559E+04  0.15009915559E+04  0.00000000000E+00 0. -1.
         -2   -1    0    0    0  501 -0.00000000000E+00 -0.00000000000E+00 -0.22689076874E+02  0.22689076874E+02  0.00000000000E+00 0.  1.
          6    1    1    2  502    0 -0.25026266772E+02  0.93841561024E+01  0.99221477371E+03  0.10073671295E+04  0.17200000000E+03 0. -1.
         -6    1    1    2    0  501  0.25026266772E+02 -0.93841561024E+01  0.48608770536E+03  0.51631350333E+03  0.17200000000E+03 0.  1.
</event>
<event>
 4    1  0.3141404E-002  0.1740814E+03  0.7818608E-02  0.1173657E+00
         -4   -1    0    0    0  501 -0.00000000000E+00  0.00000000000E+00  0.56360616014E+03  0.56360616014E+03  0.00000000000E+00 0.  1.
          4   -1    0    0  502    0  0.00000000000E+00 -0.00000000000E+00 -0.10474988719E+03  0.10474988719E+03  0.00000000000E+00 0. -1.
          6    1    1    2  502    0 -0.26770030244E+02 -0.19269857488E+01 -0.37062035300E+01  0.17412088829E+03  0.17200000000E+03 0. -1.
         -6    1    1    2    0  501  0.26770030244E+02  0.19269857488E+01  0.46256247648E+03  0.49423515905E+03  0.17200000000E+03 0.  1.
</event>
<event>
 4    1  0.3141404E-002  0.8609027E+03  0.7818608E-02  0.9475819E-01
         -2   -1    0    0    0  501 -0.00000000000E+00  0.00000000000E+00  0.10910244437E+04  0.10910244437E+04  0.00000000000E+00 0.  1.
          2   -1    0    0  502    0  0.00000000000E+00 -0.00000000000E+00 -0.67957541909E+03  0.67957541909E+03  0.00000000000E+00 0. -1.
          6    1    1    2  502    0 -0.51398252797E+03  0.66887324792E+03  0.18852242283E+03  0.88130253871E+03  0.17200000000E+03 0. -1.
         -6    1    1    2    0  501  0.51398252797E+03 -0.66887324792E+03  0.22292660179E+03  0.88929732408E+03  0.17200000000E+03 0.  1.
</event>
<event>
 4    1  0.3141404E-002  0.4334418E+03  0.7818608E-02  0.1032778E+00
          1   -1    0    0  502    0  0.00000000000E+00  0.00000000000E+00  0.90932170709E+03  0.90932170709E+03  0.00000000000E+00 0. -1.
         -1   -1    0    0    0  501 -0.00000000000E+00 -0.00000000000E+00 -0.47358430309E+03  0.47358430309E+03  0.00000000000E+00 0.  1.
          6    1    1    2  502    0 -0.38968396924E+03 -0.80213550263E+02  0.73702911070E+03  0.85503433823E+03  0.17200000000E+03 0. -1.
         -6    1    1    2    0  501  0.38968396924E+03  0.80213550263E+02 -0.30129170669E+03  0.52787167196E+03  0.17200000000E+03 0.  1.
</event>
<event>
 4    1  0.3141404E-002  0.4288796E+03  0.7818608E-02  0.1034214E+00
          2   -1    0    0  502    0  0.00000000000E+00  0.00000000000E+00  0.19241476041E+04  0.19241476041E+04  0.00000000000E+00 0. -1.
         -2   -1    0    0    0  501 -0.00000000000E+00 -0.00000000000E+00 -0.35075912148E+03  0.35075912148E+03  0.00000000000E+00 0.  1.
          6    1    1    2  502    0  0.30026537047E+03 -0.25336615003E+03  0.17568454818E+04  0.18084368238E+04  0.17200000000E+03 0. -1.
         -6    1    1    2    0  501 -0.30026537047E+03  0.25336615003E+03 -0.18345699921E+03  0.46646990176E+03  0.17200000000E+03 0.  1.
</event>
<event>
 4    1  0.3141404E-002  0.4046824E+03  0.7818608E-02  0.1042170E+00
         -2   -1    0    0    0  501 -0.00000000000E+00  0.00000000000E+00  0.77184327385E+03  0.77184327385E+03  0.00000000000E+00 0.  1.
          2   -1    0    0  502    0  0.00000000000E+00 -0.00000000000E+00 -0.29711274305E+03  0.29711274305E+03  0.00000000000E+00 0. -1.
          6    1    1    2  502    0 -0.15371733289E+03  0.33249786575E+03 -0.48402294459E+02  0.40756672002E+03  0.17200000000E+03 0. -1.
         -6    1    1    2    0  501  0.15371733289E+03 -0.33249786575E+03  0.52313282526E+03  0.66138929688E+03  0.17200000000E+03 0.  1.
</event>
<event>
 4    1  0.3141404E-002  0.2206364E+03  0.7818608E-02  0.1133409E+00
         -2   -1    0    0    0  501 -0.00000000000E+00  0.00000000000E+00  0.48839276175E+02  0.48839276175E+02  0.00000000000E+00 0.  1.
          2   -1    0    0  502    0  0.00000000000E+00 -0.00000000000E+00 -0.13528531218E+04  0.13528531218E+04  0.00000000000E+00 0. -1.
          6    1    1    2  502    0  0.12973101231E+03  0.47605688074E+02 -0.10115795971E+04  0.10353616365E+04  0.17200000000E+03 0. -1.
         -6    1    1    2    0  501 -0.12973101231E+03 -0.47605688074E+02 -0.29243424860E+03  0.36633076153E+03  0.17200000000E+03 0.  1.
</event>
<event>
 4    1  0.3141404E-002  0.2545686E+03  0.7818608E-02  0.1110451E+00
         -1   -1    0    0    0  501 -0.00000000000E+00  0.00000000000E+00  0.77511706279E+03  0.77511706279E+03  0.00000000000E+00 0.  1.
          1   -1    0    0  502    0  0.00000000000E+00 -0.00000000000E+00 -0.91484281000E+02  0.91484281000E+02  0.00000000000E+00 0. -1.
          6    1    1    2  502    0 -0.82892628145E+02 -0.16837453726E+03  0.21466951234E+03  0.33299875694E+03  0.17200000000E+03 0. -1.
         -6    1    1    2    0  501  0.82892628145E+02  0.16837453726E+03  0.46896326944E+03  0.53360258684E+03  0.17200000000E+03 0.  1.
</event>
<event>
 4    1  0.3141404E-002  0.2058189E+03  0.7818608E-02  0.1144920E+00
         -2   -1    0    0    0  501 -0.00000000000E+00  0.00000000000E+00  0.61840523598E+03  0.61840523598E+03  0.00000000000E+00 0.  1.
          2   -1    0    0  502    0  0.00000000000E+00 -0.00000000000E+00 -0.68509688268E+02  0.68509688268E+02  0.00000000000E+00 0. -1.
          6    1    1    2  502    0 -0.95771096332E+02 -0.60044156919E+02  0.27108956509E+03  0.34036885283E+03  0.17200000000E+03 0.  1.
         -6    1    1    2    0  501  0.95771096332E+02  0.60044156919E+02  0.27880598262E+03  0.34654607142E+03  0.17200000000E+03 0. -1.
</event>
<event>
 4    1  0.3141404E-002  0.4468719E+03  0.7818608E-02  0.1028659E+00
         -2   -1    0    0    0  501 -0.00000000000E+00  0.00000000000E+00  0.17331005110E+03  0.17331005110E+03  0.00000000000E+00 0.  1.
          2   -1    0    0  502    0  0.00000000000E+00 -0.00000000000E+00 -0.23671923290E+04  0.23671923290E+04  0.00000000000E+00 0. -1.
          6    1    1    2  502    0  0.31383692562E+03  0.26761333112E+03 -0.20069648906E+04  0.20561134655E+04  0.17200000000E+03 0. -1.
         -6    1    1    2    0  501 -0.31383692562E+03 -0.26761333112E+03 -0.18691738723E+03  0.48438891454E+03  0.17200000000E+03 0.  1.
</event>
<event>
 4    1  0.3141404E-002  0.3816547E+03  0.7818608E-02  0.1050324E+00
         -1   -1    0    0    0  501 -0.00000000000E+00  0.00000000000E+00  0.33856621568E+03  0.33856621568E+03  0.00000000000E+00 0.  1.
          1   -1    0    0  502    0  0.00000000000E+00 -0.00000000000E+00 -0.51276740337E+03  0.51276740337E+03  0.00000000000E+00 0. -1.
          6    1    1    2  502    0  0.30484923370E+03  0.15212901122E+03 -0.25788301112E+03  0.46061256905E+03  0.17200000000E+03 0. -1.
         -6    1    1    2    0  501 -0.30484923370E+03 -0.15212901122E+03  0.83681823425E+02  0.39072105000E+03  0.17200000000E+03 0.  1.
</event>
<event>
 4    1  0.3141404E-002  0.1905335E+03  0.7818608E-02  0.1157981E+00
         -2   -1    0    0    0  501 -0.00000000000E+00  0.00000000000E+00  0.31141460750E+02  0.31141460750E+02  0.00000000000E+00 0.  1.
          2   -1    0    0  502    0  0.00000000000E+00 -0.00000000000E+00 -0.19072891090E+04  0.19072891090E+04  0.00000000000E+00 0. -1.
          6    1    1    2  502    0 -0.65068972048E+02 -0.49850161011E+02 -0.15424125352E+04  0.15541362355E+04  0.17200000000E+03 0. -1.
         -6    1    1    2    0  501  0.65068972048E+02  0.49850161011E+02 -0.33373511308E+03  0.38429433431E+03  0.17200000000E+03 0.  1.
</event>
<event>
 4    1  0.3141404E-002  0.1879774E+03  0.7818608E-02  0.1160298E+00
         -3   -1    0    0    0  501 -0.00000000000E+00  0.00000000000E+00  0.63223865201E+02  0.63223865201E+02  0.00000000000E+00 0.  1.
          3   -1    0    0  502    0  0.00000000000E+00 -0.00000000000E+00 -0.13121627704E+04  0.13121627704E+04  0.00000000000E+00 0. -1.
          6    1    1    2  502    0  0.19082679143E+02  0.73398591090E+02 -0.11455149450E+04  0.11608359018E+04  0.17200000000E+03 0. -1.
         -6    1    1    2    0  501 -0.19082679143E+02 -0.73398591090E+02 -0.10342396024E+03  0.21455073379E+03  0.17200000000E+03 0.  1.
</event>
<event>
 4    1  0.3141404E-002  0.1759493E+03  0.7818608E-02  0.1171782E+00
         -1   -1    0    0    0  501 -0.00000000000E+00  0.00000000000E+00  0.47999102455E+02  0.47999102455E+02  0.00000000000E+00 0.  1.
          1   -1    0    0  502    0  0.00000000000E+00 -0.00000000000E+00 -0.10110334018E+04  0.10110334018E+04  0.00000000000E+00 0. -1.
          6    1    1    2  502    0 -0.34063840006E+02 -0.14621718376E+02 -0.80013693171E+03  0.81925408105E+03  0.17200000000E+03 0. -1.
         -6    1    1    2    0  501  0.34063840006E+02  0.14621718376E+02 -0.16289736761E+03  0.23977842317E+03  0.17200000000E+03 0.  1.
</event>
<event>
 4    1  0.3141404E-002  0.1836349E+03  0.7818608E-02  0.1164331E+00
          2   -1    0    0  502    0  0.00000000000E+00  0.00000000000E+00  0.27199619162E+03  0.27199619162E+03  0.00000000000E+00 0. -1.
         -2   -1    0    0    0  501 -0.00000000000E+00 -0.00000000000E+00 -0.16960286525E+03  0.16960286525E+03  0.00000000000E+00 0.  1.
          6    1    1    2  502    0 -0.33643177678E+02 -0.54826189277E+02  0.16571586479E+03  0.24735303167E+03  0.17200000000E+03 0. -1.
         -6    1    1    2    0  501  0.33643177678E+02  0.54826189277E+02 -0.63322538421E+02  0.19424602520E+03  0.17200000000E+03 0.  1.
</event>
<event>
 4    1  0.3141404E-002  0.3557956E+03  0.7818608E-02  0.1060261E+00
          2   -1    0    0  502    0  0.00000000000E+00  0.00000000000E+00  0.16545235655E+04  0.16545235655E+04  0.00000000000E+00 0. -1.
         -2   -1    0    0    0  501 -0.00000000000E+00 -0.00000000000E+00 -0.13444967339E+03  0.13444967339E+03  0.00000000000E+00 0.  1.
          6    1    1    2  502    0  0.17898578704E+03 -0.25489327953E+03  0.13472225907E+04  0.13934127905E+04  0.17200000000E+03 0. -1.
         -6    1    1    2    0  501 -0.17898578704E+03  0.25489327953E+03  0.17285130143E+03  0.39556044837E+03  0.17200000000E+03 0.  1.
</event>
<event>
 4    1  0.3141404E-002  0.3497730E+03  0.7818608E-02  0.1062708E+00
         -2   -1    0    0    0  501 -0.00000000000E+00  0.00000000000E+00  0.45294812016E+03  0.45294812016E+03  0.00000000000E+00 0.  1.
          2   -1    0    0  502    0  0.00000000000E+00 -0.00000000000E+00 -0.40220907222E+03  0.40220907222E+03  0.00000000000E+00 0. -1.
          6    1    1    2  502    0  0.19753687449E+03 -0.23181101233E+03 -0.21968165763E+03  0.41303897264E+03  0.17200000000E+03 0. -1.
         -6    1    1    2    0  501 -0.19753687449E+03  0.23181101233E+03  0.27042070557E+03  0.44211821974E+03  0.17200000000E+03 0.  1.
</event>
<event>
 4    1  0.3141404E-002  0.1921191E+03  0.7818608E-02  0.1156564E+00
          2   -1    0    0  502    0  0.00000000000E+00  0.00000000000E+00  0.34901650105E+04  0.34901650105E+04  0.00000000000E+00 0. -1.
         -2   -1    0    0    0  501 -0.00000000000E+00 -0.00000000000E+00 -0.14869720111E+02  0.14869720111E+02  0.00000000000E+00 0.  1.
          6    1    1    2  502    0  0.55146739690E+02 -0.65456727998E+02  0.26794510148E+04  0.26863297428E+04  0.17200000000E+03 0. -1.
         -6    1    1    2    0  501 -0.55146739690E+02  0.65456727998E+02  0.79584427554E+03  0.81870498780E+03  0.17200000000E+03 0.  1.
</event>
<event>
 4    1  0.3141404E-002  0.2552808E+03  0.7818608E-02  0.1110012E+00
          2   -1    0    0  502    0  0.00000000000E+00  0.00000000000E+00  0.82615458579E+03  0.82615458579E+03  0.00000000000E+00 0. -1.
         -2   -1    0    0    0  501 -0.00000000000E+00 -0.00000000000E+00 -0.10133834268E+03  0.10133834268E+03  0.00000000000E+00 0.  1.
          6    1    1    2  502    0 -0.10591289569E+03  0.15609854982E+03  0.14410083707E+03  0.29314390660E+03  0.17200000000E+03 0. -1.
         -6    1    1    2    0  501  0.10591289569E+03 -0.15609854982E+03  0.58071540604E+03  0.63434902186E+03  0.17200000000E+03 0.  1.
</event>
<event>
 4    1  0.3141404E-002  0.2270348E+03  0.7818608E-02  0.1128744E+00
         -1   -1    0    0    0  501 -0.00000000000E+00  0.00000000000E+00  0.12552424979E+04  0.12552424979E+04  0.00000000000E+00 0.  1.
          1   -1    0    0  502    0  0.00000000000E+00 -0.00000000000E+00 -0.16462992341E+03  0.16462992341E+03  0.00000000000E+00 0. -1.
          6    1    1    2  502    0  0.59588120471E+02 -0.13568369559E+03 -0.69750132116E+02  0.23750766362E+03  0.17200000000E+03 0. -1.
         -6    1    1    2    0  501 -0.59588120471E+02  0.13568369559E+03  0.11603627066E+04  0.11823647577E+04  0.17200000000E+03 0.  1.
</event>
<event>
 4    1  0.3141404E-002  0.2740961E+03  0.7818608E-02  0.1098958E+00
         -1   -1    0    0    0  501 -0.00000000000E+00  0.00000000000E+00  0.53913879045E+03  0.53913879045E+03  0.00000000000E+00 0.  1.
          1   -1    0    0  502    0  0.00000000000E+00 -0.00000000000E+00 -0.26080957284E+03  0.26080957284E+03  0.00000000000E+00 0. -1.
          6    1    1    2  502    0 -0.10516252877E+03  0.18570269707E+03 -0.13378796953E+03  0.30500470479E+03  0.17200000000E+03 0. -1.
         -6    1    1    2    0  501  0.10516252877E+03 -0.18570269707E+03  0.41211718714E+03  0.49494365850E+03  0.17200000000E+03 0.  1.
</event>
<event>
 4    1  0.3141404E-002  0.2651512E+03  0.7818608E-02  0.1104087E+00
          2   -1    0    0  502    0  0.00000000000E+00  0.00000000000E+00  0.22115223839E+04  0.22115223839E+04  0.00000000000E+00 0. -1.
         -2   -1    0    0    0  501 -0.00000000000E+00 -0.00000000000E+00 -0.48740992542E+02  0.48740992542E+02  0.00000000000E+00 0.  1.
          6    1    1    2  502    0 -0.18899013672E+03  0.70738150081E+02  0.17478512448E+04  0.17678487299E+04  0.17200000000E+03 0. -1.
         -6    1    1    2    0  501  0.18899013672E+03 -0.70738150081E+02  0.41493014649E+03  0.49241464653E+03  0.17200000000E+03 0.  1.
</event>
<event>
 4    1  0.3141404E-002  0.2204244E+03  0.7818608E-02  0.1133567E+00
         -2   -1    0    0    0  501 -0.00000000000E+00  0.00000000000E+00  0.19529597335E+02  0.19529597335E+02  0.00000000000E+00 0.  1.
          2   -1    0    0  502    0  0.00000000000E+00 -0.00000000000E+00 -0.27735355601E+04  0.27735355601E+04  0.00000000000E+00 0. -1.
          6    1    1    2  502    0  0.46914600983E+02 -0.12962233338E+03 -0.92880513002E+03  0.95460248201E+03  0.17200000000E+03 0. -1.
         -6    1    1    2    0  501 -0.46914600983E+02  0.12962233338E+03 -0.18252008328E+04  0.18384626754E+04  0.17200000000E+03 0. -1.
</event>
<event>
 4    1  0.3141404E-002  0.3161277E+03  0.7818608E-02  0.1077445E+00
          2   -1    0    0  502    0  0.00000000000E+00  0.00000000000E+00  0.12849074322E+04  0.12849074322E+04  0.00000000000E+00 0. -1.
         -2   -1    0    0    0  501 -0.00000000000E+00 -0.00000000000E+00 -0.10968218369E+03  0.10968218369E+03  0.00000000000E+00 0.  1.
          6    1    1    2  502    0  0.25690864947E+03  0.65959739876E+02  0.96368928683E+03  0.10142158464E+04  0.17200000000E+03 0. -1.
         -6    1    1    2    0  501 -0.25690864947E+03 -0.65959739876E+02  0.21153596167E+03  0.38037376952E+03  0.17200000000E+03 0.  1.
</event>
<event>
 4    1  0.3141404E-002  0.3941023E+03  0.7818608E-02  0.1045841E+00
          1   -1    0    0  502    0  0.00000000000E+00  0.00000000000E+00  0.14833138350E+04  0.14833138350E+04  0.00000000000E+00 0. -1.
         -1   -1    0    0    0  501 -0.00000000000E+00 -0.00000000000E+00 -0.19192634453E+03  0.19192634453E+03  0.00000000000E+00 0.  1.
          6    1    1    2  502    0 -0.30686025227E+03  0.17767783321E+03  0.12103455031E+04  0.12728915365E+04  0.17200000000E+03 0. -1.
         -6    1    1    2    0  501  0.30686025227E+03 -0.17767783321E+03  0.81041987401E+02  0.40234864305E+03  0.17200000000E+03 0.  1.
</event>
<event>
 4    1  0.3141404E-002  0.1805919E+03  0.7818608E-02  0.1167231E+00
         -2   -1    0    0    0  501 -0.00000000000E+00  0.00000000000E+00  0.29034384780E+02  0.29034384780E+02  0.00000000000E+00 0.  1.
          2   -1    0    0  502    0  0.00000000000E+00 -0.00000000000E+00 -0.21141919506E+04  0.21141919506E+04  0.00000000000E+00 0. -1.
          6    1    1    2  502    0  0.43259110893E+02 -0.34030878946E+02 -0.17762231265E+04  0.17853800846E+04  0.17200000000E+03 0. -1.
         -6    1    1    2    0  501 -0.43259110893E+02  0.34030878946E+02 -0.30893443935E+03  0.35784625080E+03  0.17200000000E+03 0.  1.
</event>
<event>
 4    1  0.3141404E-002  0.5970548E+03  0.7818608E-02  0.9911535E-01
          2   -1    0    0  502    0  0.00000000000E+00  0.00000000000E+00  0.11690070329E+04  0.11690070329E+04  0.00000000000E+00 0. -1.
         -2   -1    0    0    0  501 -0.00000000000E+00 -0.00000000000E+00 -0.39740044881E+03  0.39740044881E+03  0.00000000000E+00 0.  1.
          6    1    1    2  502    0 -0.21197730097E+03 -0.53099536892E+03  0.76358740575E+03  0.96929881056E+03  0.17200000000E+03 0. -1.
         -6    1    1    2    0  501  0.21197730097E+03  0.53099536892E+03  0.80191783359E+01  0.59710867115E+03  0.17200000000E+03 0.  1.
</event>
<event>
 4    1  0.3141404E-002  0.2537797E+03  0.7818608E-02  0.1110939E+00
         -2   -1    0    0    0  501 -0.00000000000E+00  0.00000000000E+00  0.58735789265E+02  0.58735789265E+02  0.00000000000E+00 0.  1.
          2   -1    0    0  502    0  0.00000000000E+00 -0.00000000000E+00 -0.17950692821E+04  0.17950692821E+04  0.00000000000E+00 0. -1.
          6    1    1    2  502    0 -0.81699063217E+02  0.16776597877E+03 -0.14463909403E+04  0.14684859253E+04  0.17200000000E+03 0. -1.
         -6    1    1    2    0  501  0.81699063217E+02 -0.16776597877E+03 -0.28994255250E+03  0.38531914605E+03  0.17200000000E+03 0.  1.
</event>
<event>
 4    1  0.3141404E-002  0.4571436E+03  0.7818608E-02  0.1025613E+00
         -4   -1    0    0    0  501 -0.00000000000E+00  0.00000000000E+00  0.72223660372E+03  0.72223660372E+03  0.00000000000E+00 0.  1.
          4   -1    0    0  502    0  0.00000000000E+00 -0.00000000000E+00 -0.34373906242E+03  0.34373906242E+03  0.00000000000E+00 0. -1.
          6    1    1    2  502    0 -0.27668097019E+03 -0.32069292770E+03  0.40125678078E+03  0.60826582779E+03  0.17200000000E+03 0.  1.
         -6    1    1    2    0  501  0.27668097019E+03  0.32069292770E+03 -0.22759239475E+02  0.45770983835E+03  0.17200000000E+03 0. -1.
</event>
<event>
 4    1  0.3141404E-002  0.3146803E+03  0.7818608E-02  0.1078124E+00
          2   -1    0    0  502    0  0.00000000000E+00  0.00000000000E+00  0.16881225392E+04  0.16881225392E+04  0.00000000000E+00 0. -1.
         -2   -1    0    0    0  501 -0.00000000000E+00 -0.00000000000E+00 -0.63622287922E+02  0.63622287922E+02  0.00000000000E+00 0.  1.
          6    1    1    2  502    0  0.88189696383E+02 -0.24831891186E+03  0.10568846315E+04  0.11027369718E+04  0.17200000000E+03 0. -1.
         -6    1    1    2    0  501 -0.88189696383E+02  0.24831891186E+03  0.56761561978E+03  0.64900785539E+03  0.17200000000E+03 0.  1.
</event>
<event>
 4    1  0.3141404E-002  0.1887047E+03  0.7818608E-02  0.1159635E+00
         -1   -1    0    0    0  501 -0.00000000000E+00  0.00000000000E+00  0.76193372085E+02  0.76193372085E+02  0.00000000000E+00 0.  1.
          1   -1    0    0  502    0  0.00000000000E+00 -0.00000000000E+00 -0.52569608425E+03  0.52569608425E+03  0.00000000000E+00 0. -1.
          6    1    1    2  502    0 -0.76274358354E+02  0.14411742442E+02 -0.32500510582E+03  0.37581617165E+03  0.17200000000E+03 0. -1.
         -6    1    1    2    0  501  0.76274358354E+02 -0.14411742442E+02 -0.12449760634E+03  0.22607328468E+03  0.17200000000E+03 0.  1.
</event>
<event>
 4    1  0.3141404E-002  0.2433825E+03  0.7818608E-02  0.1117560E+00
          4   -1    0    0  502    0  0.00000000000E+00  0.00000000000E+00  0.16112257792E+03  0.16112257792E+03  0.00000000000E+00 0. -1.
         -4   -1    0    0    0  501 -0.00000000000E+00 -0.00000000000E+00 -0.43946159013E+03  0.43946159013E+03  0.00000000000E+00 0.  1.
          6    1    1    2  502    0 -0.25849993067E+02  0.17024345575E+03 -0.17771421476E+02  0.24403048947E+03  0.17200000000E+03 0. -1.
         -6    1    1    2    0  501  0.25849993067E+02 -0.17024345575E+03 -0.26056759073E+03  0.35655367858E+03  0.17200000000E+03 0.  1.
</event>
<event>
 4    1  0.3141404E-002  0.6105384E+03  0.7818608E-02  0.9883780E-01
         -1   -1    0    0    0  501 -0.00000000000E+00  0.00000000000E+00  0.93175217568E+03  0.93175217568E+03  0.00000000000E+00 0.  1.
          1   -1    0    0  502    0  0.00000000000E+00 -0.00000000000E+00 -0.42840066875E+03  0.42840066875E+03  0.00000000000E+00 0. -1.
          6    1    1    2  502    0  0.48589062785E+03 -0.32723600913E+03  0.42659393798E+03  0.74480836181E+03  0.17200000000E+03 0. -1.
         -6    1    1    2    0  501 -0.48589062785E+03  0.32723600913E+03  0.76757568949E+02  0.61534448262E+03  0.17200000000E+03 0.  1.
</event>
<event>
 4    1  0.3141404E-002  0.2061239E+03  0.7818608E-02  0.1144673E+00
          1   -1    0    0  502    0  0.00000000000E+00  0.00000000000E+00  0.81908961356E+03  0.81908961356E+03  0.00000000000E+00 0. -1.
         -1   -1    0    0    0  501 -0.00000000000E+00 -0.00000000000E+00 -0.34875403590E+03  0.34875403590E+03  0.00000000000E+00 0.  1.
          6    1    1    2  502    0  0.10570278152E+03 -0.41593042802E+02  0.77391833406E+03  0.80089740106E+03  0.17200000000E+03 0. -1.
         -6    1    1    2    0  501 -0.10570278152E+03  0.41593042802E+02 -0.30358275640E+03  0.36694624840E+03  0.17200000000E+03 0.  1.
</event>
<event>
 4    1  0.3141404E-002  0.2686567E+03  0.7818608E-02  0.1102051E+00
         -1   -1    0    0    0  501 -0.00000000000E+00  0.00000000000E+00  0.75390432600E+03  0.75390432600E+03  0.00000000000E+00 0.  1.
          1   -1    0    0  502    0  0.00000000000E+00 -0.00000000000E+00 -0.23858430540E+03  0.23858430540E+03  0.00000000000E+00 0. -1.
          6    1    1    2  502    0 -0.14159467890E+03 -0.15014446557E+03 -0.12632200826E+03  0.29687314362E+03  0.17200000000E+03 0. -1.
         -6    1    1    2    0  501  0.14159467890E+03  0.15014446557E+03  0.64164202886E+03  0.69561548778E+03  0.17200000000E+03 0.  1.
</event>
<event>
 4    1  0.3141404E-002  0.2227120E+03  0.7818608E-02  0.1131877E+00
         -1   -1    0    0    0  501 -0.00000000000E+00  0.00000000000E+00  0.62963941194E+03  0.62963941194E+03  0.00000000000E+00 0.  1.
          1   -1    0    0  502    0  0.00000000000E+00 -0.00000000000E+00 -0.14619779013E+03  0.14619779013E+03  0.00000000000E+00 0. -1.
          6    1    1    2  502    0 -0.14679691199E+02  0.14071645829E+03 -0.21711851482E+02  0.22376778022E+03  0.17200000000E+03 0. -1.
         -6    1    1    2    0  501  0.14679691199E+02 -0.14071645829E+03  0.50515347329E+03  0.55206942185E+03  0.17200000000E+03 0.  1.
</event>
<event>
 4    1  0.3141404E-002  0.2638701E+03  0.7818608E-02  0.1104840E+00
          2   -1    0    0  502    0  0.00000000000E+00  0.00000000000E+00  0.11749817565E+04  0.11749817565E+04  0.00000000000E+00 0. -1.
         -2   -1    0    0    0  501 -0.00000000000E+00 -0.00000000000E+00 -0.61934080781E+02  0.61934080781E+02  0.00000000000E+00 0.  1.
          6    1    1    2  502    0  0.19859506187E+03  0.24565271512E+02  0.68507278292E+03  0.73413361799E+03  0.17200000000E+03 0.  1.
         -6    1    1    2    0  501 -0.19859506187E+03 -0.24565271512E+02  0.42797489276E+03  0.50278221925E+03  0.17200000000E+03 0. -1.
</event>
<event>
 4    1  0.3141404E-002  0.2263948E+03  0.7818608E-02  0.1129203E+00
         -1   -1    0    0    0  501 -0.00000000000E+00  0.00000000000E+00  0.71060724898E+02  0.71060724898E+02  0.00000000000E+00 0.  1.
          1   -1    0    0  502    0  0.00000000000E+00 -0.00000000000E+00 -0.92826056532E+03  0.92826056532E+03  0.00000000000E+00 0. -1.
          6    1    1    2  502    0  0.99411487070E+02  0.10857233650E+03 -0.66454243992E+03  0.70204789756E+03  0.17200000000E+03 0. -1.
         -6    1    1    2    0  501 -0.99411487070E+02 -0.10857233650E+03 -0.19265740051E+03  0.29727339266E+03  0.17200000000E+03 0.  1.
</event>
<event>
 4    1  0.3141404E-002  0.2096941E+03  0.7818608E-02  0.1141808E+00
          2   -1    0    0  502    0  0.00000000000E+00  0.00000000000E+00  0.28752069947E+03  0.28752069947E+03  0.00000000000E+00 0. -1.
         -2   -1    0    0    0  501 -0.00000000000E+00 -0.00000000000E+00 -0.55056141214E+03  0.55056141214E+03  0.00000000000E+00 0.  1.
          6    1    1    2  502    0  0.45245947438E+02 -0.11108746534E+03  0.22459604980E+03  0.30727024962E+03  0.17200000000E+03 0. -1.
         -6    1    1    2    0  501 -0.45245947438E+02  0.11108746534E+03 -0.48763676247E+03  0.53081186199E+03  0.17200000000E+03 0.  1.
</event>
<event>
 4    1  0.3141404E-002  0.6983973E+03  0.7818608E-02  0.9719977E-01
          1   -1    0    0  502    0  0.00000000000E+00  0.00000000000E+00  0.25048363004E+04  0.25048363004E+04  0.00000000000E+00 0. -1.
         -1   -1    0    0    0  501 -0.00000000000E+00 -0.00000000000E+00 -0.19500397876E+03  0.19500397876E+03  0.00000000000E+00 0.  1.
          6    1    1    2  502    0  0.66871284445E+03  0.10487105765E+03  0.11040240162E+04  0.13063796674E+04  0.17200000000E+03 0.  1.
         -6    1    1    2    0  501 -0.66871284445E+03 -0.10487105765E+03  0.12058083054E+04  0.13934606118E+04  0.17200000000E+03 0.  1.
</event>
<event>
 4    1  0.3141404E-002  0.5169646E+03  0.7818608E-02  0.1009443E+00
         -3   -1    0    0    0  501 -0.00000000000E+00  0.00000000000E+00  0.94517421143E+03  0.94517421143E+03  0.00000000000E+00 0.  1.
          3   -1    0    0  502    0  0.00000000000E+00 -0.00000000000E+00 -0.30521129820E+03  0.30521129820E+03  0.00000000000E+00 0. -1.
          6    1    1    2  502    0 -0.17712071371E+03 -0.45419889341E+03  0.15039689249E+03  0.53839725786E+03  0.17200000000E+03 0. -1.
         -6    1    1    2    0  501  0.17712071371E+03  0.45419889341E+03  0.48956602073E+03  0.71198825177E+03  0.17200000000E+03 0.  1.
</event>
<event>
 4    1  0.3141404E-002  0.2339121E+03  0.7818608E-02  0.1123916E+00
          2   -1    0    0  502    0  0.00000000000E+00  0.00000000000E+00  0.32211628686E+03  0.32211628686E+03  0.00000000000E+00 0. -1.
         -2   -1    0    0    0  501 -0.00000000000E+00 -0.00000000000E+00 -0.24322559894E+03  0.24322559894E+03  0.00000000000E+00 0.  1.
          6    1    1    2  502    0  0.11963892405E+03  0.10400682628E+03  0.19469145969E+03  0.30433477708E+03  0.17200000000E+03 0. -1.
         -6    1    1    2    0  501 -0.11963892405E+03 -0.10400682628E+03 -0.11580077178E+03  0.26100710873E+03  0.17200000000E+03 0.  1.
</event>
<event>
 4    1  0.3141404E-002  0.4066661E+03  0.7818608E-02  0.1041496E+00
         -2   -1    0    0    0  501 -0.00000000000E+00  0.00000000000E+00  0.44870963679E+03  0.44870963679E+03  0.00000000000E+00 0.  1.
          2   -1    0    0  502    0  0.00000000000E+00 -0.00000000000E+00 -0.10953274254E+04  0.10953274254E+04  0.00000000000E+00 0. -1.
          6    1    1    2  502    0  0.36604845413E+03 -0.42447983687E+02 -0.95216732257E+03  0.10353742861E+04  0.17200000000E+03 0. -1.
         -6    1    1    2    0  501 -0.36604845413E+03  0.42447983687E+02  0.30554953397E+03  0.50866277611E+03  0.17200000000E+03 0.  1.
</event>
<event>
 4    1  0.3141404E-002  0.3164621E+03  0.7818608E-02  0.1077289E+00
          2   -1    0    0  502    0  0.00000000000E+00  0.00000000000E+00  0.11548303020E+04  0.11548303020E+04  0.00000000000E+00 0. -1.
         -2   -1    0    0    0  501 -0.00000000000E+00 -0.00000000000E+00 -0.13138337393E+03  0.13138337393E+03  0.00000000000E+00 0.  1.
          6    1    1    2  502    0 -0.26395280769E+03 -0.29886493534E+02  0.88668159644E+03  0.94146297891E+03  0.17200000000E+03 0. -1.
         -6    1    1    2    0  501  0.26395280769E+03  0.29886493534E+02  0.13676533167E+03  0.34475069707E+03  0.17200000000E+03 0.  1.
</event>
<event>
 4    1  0.3141404E-002  0.1863722E+03  0.7818608E-02  0.1161775E+00
          2   -1    0    0  502    0  0.00000000000E+00  0.00000000000E+00  0.27621268306E+04  0.27621268306E+04  0.00000000000E+00 0. -1.
         -2   -1    0    0    0  501 -0.00000000000E+00 -0.00000000000E+00 -0.12591772285E+02  0.12591772285E+02  0.00000000000E+00 0.  1.
          6    1    1    2  502    0  0.45600024190E+02  0.55418590046E+02  0.13245933293E+04  0.13376404862E+04  0.17200000000E+03 0. -1.
         -6    1    1    2    0  501 -0.45600024190E+02 -0.55418590046E+02  0.14249417290E+04  0.14370781166E+04  0.17200000000E+03 0. -1.
</event>
<event>
 4    1  0.3141404E-002  0.3688532E+03  0.7818608E-02  0.1055132E+00
         -1   -1    0    0    0  501 -0.00000000000E+00  0.00000000000E+00  0.22160762804E+03  0.22160762804E+03  0.00000000000E+00 0.  1.
          1   -1    0    0  502    0  0.00000000000E+00 -0.00000000000E+00 -0.81615803627E+03  0.81615803627E+03  0.00000000000E+00 0. -1.
          6    1    1    2  502    0  0.31538994951E+03 -0.83653284855E+02 -0.55555915475E+03  0.66685730614E+03  0.17200000000E+03 0. -1.
         -6    1    1    2    0  501 -0.31538994951E+03  0.83653284855E+02 -0.38991253475E+02  0.37090835818E+03  0.17200000000E+03 0.  1.
</event>
<event>
 4    1  0.3141404E-002  0.1832305E+03  0.7818608E-02  0.1164713E+00
         -2   -1    0    0    0  501 -0.00000000000E+00  0.00000000000E+00  0.18701088639E+03  0.18701088639E+03  0.00000000000E+00 0.  1.
          2   -1    0    0  502    0  0.00000000000E+00 -0.00000000000E+00 -0.25280876413E+03  0.25280876413E+03  0.00000000000E+00 0. -1.
          6    1    1    2  502    0 -0.52668193354E+01  0.62941829156E+02  0.85500040057E+02  0.20219710703E+03  0.17200000000E+03 0.  1.
         -6    1    1    2    0  501  0.52668193354E+01 -0.62941829156E+02 -0.15129791779E+03  0.23762254348E+03  0.17200000000E+03 0. -1.
</event>
<event>
 4    1  0.3141404E-002  0.2914814E+03  0.7818608E-02  0.1089578E+00
          2   -1    0    0  502    0  0.00000000000E+00  0.00000000000E+00  0.32974146582E+03  0.32974146582E+03  0.00000000000E+00 0. -1.
         -2   -1    0    0    0  501 -0.00000000000E+00 -0.00000000000E+00 -0.57160395595E+03  0.57160395595E+03  0.00000000000E+00 0.  1.
          6    1    1    2  502    0 -0.17328410031E+03 -0.15921686410E+03  0.21306323223E+03  0.36105031528E+03  0.17200000000E+03 0. -1.
         -6    1    1    2    0  501  0.17328410031E+03  0.15921686410E+03 -0.45492572236E+03  0.54029510649E+03  0.17200000000E+03 0.  1.
</event>
<event>
 4    1  0.3141404E-002  0.2383993E+03  0.7818608E-02  0.1120864E+00
          1   -1    0    0  502    0  0.00000000000E+00  0.00000000000E+00  0.62125540066E+03  0.62125540066E+03  0.00000000000E+00 0. -1.
         -1   -1    0    0    0  501 -0.00000000000E+00 -0.00000000000E+00 -0.10656275579E+03  0.10656275579E+03  0.00000000000E+00 0.  1.
          6    1    1    2  502    0 -0.65871682983E+02 -0.15136432476E+03  0.12045089124E+03  0.26710045793E+03  0.17200000000E+03 0. -1.
         -6    1    1    2    0  501  0.65871682983E+02  0.15136432476E+03  0.39424175363E+03  0.46071769852E+03  0.17200000000E+03 0.  1.
</event>
<event>
 4    1  0.3141404E-002  0.1945133E+03  0.7818608E-02  0.1154452E+00
          1   -1    0    0  502    0  0.00000000000E+00  0.00000000000E+00  0.14409366749E+04  0.14409366749E+04  0.00000000000E+00 0. -1.
         -1   -1    0    0    0  501 -0.00000000000E+00 -0.00000000000E+00 -0.26262856091E+02  0.26262856091E+02  0.00000000000E+00 0.  1.
          6    1    1    2  502    0  0.89021882929E+02 -0.18070141037E+02  0.71779232157E+03  0.74368087413E+03  0.17200000000E+03 0. -1.
         -6    1    1    2    0  501 -0.89021882929E+02  0.18070141037E+02  0.69688149725E+03  0.72351865688E+03  0.17200000000E+03 0. -1.
</event>
<event>
 4    1  0.3141404E-002  0.1736491E+03  0.7818608E-02  0.1174095E+00
         -1   -1    0    0    0  501 -0.00000000000E+00  0.00000000000E+00  0.41523852871E+03  0.41523852871E+03  0.00000000000E+00 0.  1.
          1   -1    0    0  502    0  0.00000000000E+00 -0.00000000000E+00 -0.99135440496E+02  0.99135440496E+02  0.00000000000E+00 0. -1.
          6    1    1    2  502    0 -0.11291049471E+02 -0.21036202319E+02  0.25037953826E+02  0.17544488804E+03  0.17200000000E+03 0. -1.
         -6    1    1    2    0  501  0.11291049471E+02  0.21036202319E+02  0.29106513439E+03  0.33892908117E+03  0.17200000000E+03 0.  1.
</event>
<event>
 4    1  0.3141404E-002  0.2030929E+03  0.7818608E-02  0.1147155E+00
          1   -1    0    0  502    0  0.00000000000E+00  0.00000000000E+00  0.25195850046E+04  0.25195850046E+04  0.00000000000E+00 0. -1.
         -1   -1    0    0    0  501 -0.00000000000E+00 -0.00000000000E+00 -0.18059596043E+02  0.18059596043E+02  0.00000000000E+00 0.  1.
          6    1    1    2  502    0  0.99011247332E+02 -0.43121764144E+02  0.16388073982E+04  0.16513438170E+04  0.17200000000E+03 0. -1.
         -6    1    1    2    0  501 -0.99011247332E+02  0.43121764144E+02  0.86271801031E+03  0.88630078357E+03  0.17200000000E+03 0.  1.
</event>
<event>
 4    1  0.3141404E-002  0.2116784E+03  0.7818608E-02  0.1140244E+00
          4   -1    0    0  502    0  0.00000000000E+00  0.00000000000E+00  0.17160848761E+03  0.17160848761E+03  0.00000000000E+00 0. -1.
         -4   -1    0    0    0  501 -0.00000000000E+00 -0.00000000000E+00 -0.37413101223E+03  0.37413101223E+03  0.00000000000E+00 0.  1.
          6    1    1    2  502    0 -0.26072659607E+02  0.12059833014E+03 -0.25124141312E+03  0.32852699810E+03  0.17200000000E+03 0.  1.
         -6    1    1    2    0  501  0.26072659607E+02 -0.12059833014E+03  0.48718888505E+02  0.21721250173E+03  0.17200000000E+03 0. -1.
</event>
<event>
 4    1  0.3141404E-002  0.1922015E+03  0.7818608E-02  0.1156491E+00
         -2   -1    0    0    0  501 -0.00000000000E+00  0.00000000000E+00  0.28195288733E+03  0.28195288733E+03  0.00000000000E+00 0.  1.
          2   -1    0    0  502    0  0.00000000000E+00 -0.00000000000E+00 -0.19312515230E+03  0.19312515230E+03  0.00000000000E+00 0. -1.
          6    1    1    2  502    0  0.35472905091E+01 -0.85701915179E+02 -0.90290033017E+02  0.21235275274E+03  0.17200000000E+03 0. -1.
         -6    1    1    2    0  501 -0.35472905091E+01  0.85701915179E+02  0.17911776805E+03  0.26272528688E+03  0.17200000000E+03 0.  1.
</event>
<event>
 4    1  0.3141404E-002  0.2405681E+03  0.7818608E-02  0.1119415E+00
          1   -1    0    0  502    0  0.00000000000E+00  0.00000000000E+00  0.22786760368E+04  0.22786760368E+04  0.00000000000E+00 0. -1.
         -1   -1    0    0    0  501 -0.00000000000E+00 -0.00000000000E+00 -0.62208726126E+02  0.62208726126E+02  0.00000000000E+00 0.  1.
          6    1    1    2  502    0 -0.83417833692E+02  0.14604961325E+03  0.20085883242E+04  0.20229434200E+04  0.17200000000E+03 0. -1.
         -6    1    1    2    0  501  0.83417833692E+02 -0.14604961325E+03  0.20787898647E+03  0.31794134290E+03  0.17200000000E+03 0.  1.
</event>
<event>
 4    1  0.3141404E-002  0.2048116E+03  0.7818608E-02  0.1145742E+00
         -2   -1    0    0    0  501 -0.00000000000E+00  0.00000000000E+00  0.43624281276E+03  0.43624281276E+03  0.00000000000E+00 0.  1.
          2   -1    0    0  502    0  0.00000000000E+00 -0.00000000000E+00 -0.44985889627E+03  0.44985889627E+03  0.00000000000E+00 0. -1.
          6    1    1    2  502    0  0.11058725703E+03  0.11586742136E+02 -0.39966470585E+03  0.44908759848E+03  0.17200000000E+03 0. -1.
         -6    1    1    2    0  501 -0.11058725703E+03 -0.11586742136E+02  0.38604862233E+03  0.43701411055E+03  0.17200000000E+03 0.  1.
</event>
<event>
 4    1  0.3141404E-002  0.2130522E+03  0.7818608E-02  0.1139172E+00
         -2   -1    0    0    0  501 -0.00000000000E+00  0.00000000000E+00  0.28246606620E+02  0.28246606620E+02  0.00000000000E+00 0.  1.
          2   -1    0    0  502    0  0.00000000000E+00 -0.00000000000E+00 -0.21873160870E+04  0.21873160870E+04  0.00000000000E+00 0. -1.
          6    1    1    2  502    0 -0.48292147514E+02 -0.11608227187E+03 -0.16501518282E+04  0.16638486354E+04  0.17200000000E+03 0. -1.
         -6    1    1    2    0  501  0.48292147514E+02  0.11608227187E+03 -0.50891765216E+03  0.55171405822E+03  0.17200000000E+03 0.  1.
</event>
<event>
 4    1  0.3141404E-002  0.1727304E+03  0.7818608E-02  0.1175030E+00
          1   -1    0    0  502    0  0.00000000000E+00  0.00000000000E+00  0.35807719146E+04  0.35807719146E+04  0.00000000000E+00 0. -1.
         -1   -1    0    0    0  501 -0.00000000000E+00 -0.00000000000E+00 -0.12231123548E+02  0.12231123548E+02  0.00000000000E+00 0.  1.
          6    1    1    2  502    0  0.97918142971E+01  0.12487045059E+02  0.27985676384E+04  0.28038931208E+04  0.17200000000E+03 0. -1.
         -6    1    1    2    0  501 -0.97918142971E+01 -0.12487045059E+02  0.76997315264E+03  0.78910991738E+03  0.17200000000E+03 0.  1.
</event>
<event>
 4    1  0.3141404E-002  0.2020383E+03  0.7818608E-02  0.1148031E+00
         -2   -1    0    0    0  501 -0.00000000000E+00  0.00000000000E+00  0.11608877561E+03  0.11608877561E+03  0.00000000000E+00 0.  1.
          2   -1    0    0  502    0  0.00000000000E+00 -0.00000000000E+00 -0.50421580175E+03  0.50421580175E+03  0.00000000000E+00 0. -1.
          6    1    1    2  502    0  0.65197339250E+02 -0.83575051693E+02 -0.36468503166E+03  0.41691084733E+03  0.17200000000E+03 0. -1.
         -6    1    1    2    0  501 -0.65197339250E+02  0.83575051693E+02 -0.23441994487E+02  0.20339373003E+03  0.17200000000E+03 0.  1.
</event>
<event>
 4    1  0.3141404E-002  0.4200531E+03  0.7818608E-02  0.1037049E+00
         -2   -1    0    0    0  501 -0.00000000000E+00  0.00000000000E+00  0.12213594252E+03  0.12213594252E+03  0.00000000000E+00 0.  1.
          2   -1    0    0  502    0  0.00000000000E+00 -0.00000000000E+00 -0.17416204083E+04  0.17416204083E+04  0.00000000000E+00 0. -1.
          6    1    1    2  502    0 -0.28789963425E+03 -0.25293168678E+03 -0.11945406699E+04  0.12662432821E+04  0.17200000000E+03 0. -1.
         -6    1    1    2    0  501  0.28789963425E+03  0.25293168678E+03 -0.42494379595E+03  0.59751306872E+03  0.17200000000E+03 0.  1.
</event>
<event>
 4    1  0.3141404E-002  0.4604160E+03  0.7818608E-02  0.1024661E+00
         -2   -1    0    0    0  501 -0.00000000000E+00  0.00000000000E+00  0.22869205703E+03  0.22869205703E+03  0.00000000000E+00 0.  1.
          2   -1    0    0  502    0  0.00000000000E+00 -0.00000000000E+00 -0.13105428857E+04  0.13105428857E+04  0.00000000000E+00 0. -1.
          6    1    1    2  502    0 -0.30828620502E+03 -0.29556470460E+03 -0.95730799306E+03  0.10622718449E+04  0.17200000000E+03 0. -1.
         -6    1    1    2    0  501  0.30828620502E+03  0.29556470460E+03 -0.12454283560E+03  0.47696309785E+03  0.17200000000E+03 0.  1.
</event>
<event>
 4    1  0.3141404E-002  0.1809335E+03  0.7818608E-02  0.1166903E+00
          1   -1    0    0  502    0  0.00000000000E+00  0.00000000000E+00  0.24114297258E+04  0.24114297258E+04  0.00000000000E+00 0. -1.
         -1   -1    0    0    0  501 -0.00000000000E+00 -0.00000000000E+00 -0.40975698714E+02  0.40975698714E+02  0.00000000000E+00 0.  1.
          6    1    1    2  502    0 -0.39156702650E+02 -0.40245222981E+02  0.21879341379E+04  0.21954026322E+04  0.17200000000E+03 0. -1.
         -6    1    1    2    0  501  0.39156702650E+02  0.40245222981E+02  0.18251988909E+03  0.25700279230E+03  0.17200000000E+03 0.  1.
</event>
<event>
 4    1  0.3141404E-002  0.3146588E+03  0.7818608E-02  0.1078134E+00
         -1   -1    0    0    0  501 -0.00000000000E+00  0.00000000000E+00  0.28640182067E+03  0.28640182067E+03  0.00000000000E+00 0.  1.
          1   -1    0    0  502    0  0.00000000000E+00 -0.00000000000E+00 -0.96993283324E+03  0.96993283324E+03  0.00000000000E+00 0. -1.
          6    1    1    2  502    0  0.18192503652E+03  0.19060284260E+03 -0.84570284474E+03  0.90234331832E+03  0.17200000000E+03 0. -1.
         -6    1    1    2    0  501 -0.18192503652E+03 -0.19060284260E+03  0.16217183217E+03  0.35399133559E+03  0.17200000000E+03 0.  1.
</event>
<event>
 4    1  0.3141404E-002  0.5909537E+03  0.7818608E-02  0.9924354E-01
          2   -1    0    0  502    0  0.00000000000E+00  0.00000000000E+00  0.17675812170E+04  0.17675812170E+04  0.00000000000E+00 0. -1.
         -2   -1    0    0    0  501 -0.00000000000E+00 -0.00000000000E+00 -0.19812608100E+03  0.19812608100E+03  0.00000000000E+00 0.  1.
          6    1    1    2  502    0  0.35547297265E+03 -0.43963764234E+03  0.83665773500E+03  0.10243156039E+04  0.17200000000E+03 0. -1.
         -6    1    1    2    0  501 -0.35547297265E+03  0.43963764234E+03  0.73279740105E+03  0.94139169415E+03  0.17200000000E+03 0.  1.
</event>
<event>
 4    1  0.3141404E-002  0.4171074E+03  0.7818608E-02  0.1038012E+00
         -2   -1    0    0    0  501 -0.00000000000E+00  0.00000000000E+00  0.32691123819E+03  0.32691123819E+03  0.00000000000E+00 0.  1.
          2   -1    0    0  502    0  0.00000000000E+00 -0.00000000000E+00 -0.15183323786E+04  0.15183323786E+04  0.00000000000E+00 0. -1.
          6    1    1    2  502    0  0.35593049320E+03  0.13307150639E+03 -0.13392608413E+04  0.14027109977E+04  0.17200000000E+03 0. -1.
         -6    1    1    2    0  501 -0.35593049320E+03 -0.13307150639E+03  0.14783970095E+03  0.44253261911E+03  0.17200000000E+03 0.  1.
</event>
<event>
 4    1  0.3141404E-002  0.1917855E+03  0.7818608E-02  0.1156861E+00
          1   -1    0    0  502    0  0.00000000000E+00  0.00000000000E+00  0.29955048553E+02  0.29955048553E+02  0.00000000000E+00 0. -1.
         -1   -1    0    0    0  501 -0.00000000000E+00 -0.00000000000E+00 -0.20638800635E+04  0.20638800635E+04  0.00000000000E+00 0.  1.
          6    1    1    2  502    0  0.37954754329E+02 -0.75875717254E+02 -0.35066341277E+03  0.39968302053E+03  0.17200000000E+03 0. -1.
         -6    1    1    2    0  501 -0.37954754329E+02  0.75875717254E+02 -0.16832616021E+04  0.16941520915E+04  0.17200000000E+03 0.  1.
</event>
<event>
 4    1  0.3141404E-002  0.3635195E+03  0.7818608E-02  0.1057199E+00
          2   -1    0    0  502    0  0.00000000000E+00  0.00000000000E+00  0.29915017644E+03  0.29915017644E+03  0.00000000000E+00 0. -1.
         -2   -1    0    0    0  501 -0.00000000000E+00 -0.00000000000E+00 -0.74013297876E+03  0.74013297876E+03  0.00000000000E+00 0.  1.
          6    1    1    2  502    0 -0.12225949248E+03 -0.29599840452E+03  0.10945523400E+03  0.37964047101E+03  0.17200000000E+03 0. -1.
         -6    1    1    2    0  501  0.12225949248E+03  0.29599840452E+03 -0.55043803632E+03  0.65964268419E+03  0.17200000000E+03 0.  1.
</event>
<event>
 4    1  0.3141404E-002  0.2165152E+03  0.7818608E-02  0.1136508E+00
         -1   -1    0    0    0  501 -0.00000000000E+00  0.00000000000E+00  0.13261014758E+03  0.13261014758E+03  0.00000000000E+00 0.  1.
          1   -1    0    0  502    0  0.00000000000E+00 -0.00000000000E+00 -0.36263979342E+03  0.36263979342E+03  0.00000000000E+00 0. -1.
          6    1    1    2  502    0 -0.71324612037E+02  0.11048807037E+03 -0.15430852286E+03  0.26587578717E+03  0.17200000000E+03 0.  1.
         -6    1    1    2    0  501  0.71324612037E+02 -0.11048807037E+03 -0.75721122979E+02  0.22937415382E+03  0.17200000000E+03 0.  1.
</event>
<event>
 4    1  0.3141404E-002  0.2551257E+03  0.7818608E-02  0.1110108E+00
         -1   -1    0    0    0  501 -0.00000000000E+00  0.00000000000E+00  0.52400028843E+03  0.52400028843E+03  0.00000000000E+00 0.  1.
          1   -1    0    0  502    0  0.00000000000E+00 -0.00000000000E+00 -0.12809156576E+03  0.12809156576E+03  0.00000000000E+00 0. -1.
          6    1    1    2  502    0  0.36965236622E+02  0.18476659293E+03  0.14123955344E+03  0.29161230090E+03  0.17200000000E+03 0. -1.
         -6    1    1    2    0  501 -0.36965236622E+02 -0.18476659293E+03  0.25466916924E+03  0.36047955329E+03  0.17200000000E+03 0.  1.
</event>
<event>
 4    1  0.3141404E-002  0.2382449E+03  0.7818608E-02  0.1120968E+00
          2   -1    0    0  502    0  0.00000000000E+00  0.00000000000E+00  0.76864454059E+03  0.76864454059E+03  0.00000000000E+00 0. -1.
         -2   -1    0    0    0  501 -0.00000000000E+00 -0.00000000000E+00 -0.82135166779E+02  0.82135166779E+02  0.00000000000E+00 0.  1.
          6    1    1    2  502    0 -0.15552924272E+03  0.54655971037E+02  0.20810906094E+03  0.31633842915E+03  0.17200000000E+03 0. -1.
         -6    1    1    2    0  501  0.15552924272E+03 -0.54655971037E+02  0.47840031286E+03  0.53444127821E+03  0.17200000000E+03 0. -1.
</event>
<event>
 4    1  0.3141404E-002  0.2939402E+03  0.7818608E-02  0.1088310E+00
         -4   -1    0    0    0  501 -0.00000000000E+00  0.00000000000E+00  0.12189986622E+03  0.12189986622E+03  0.00000000000E+00 0.  1.
          4   -1    0    0  502    0  0.00000000000E+00 -0.00000000000E+00 -0.71201992716E+03  0.71201992716E+03  0.00000000000E+00 0. -1.
          6    1    1    2  502    0 -0.11096825976E+02 -0.23810435568E+03 -0.32316386389E+03  0.43684746384E+03  0.17200000000E+03 0.  1.
         -6    1    1    2    0  501  0.11096825976E+02  0.23810435568E+03 -0.26695619705E+03  0.39707232954E+03  0.17200000000E+03 0.  1.
</event>
<event>
 4    1  0.3141404E-002  0.2265062E+03  0.7818608E-02  0.1129123E+00
          2   -1    0    0  502    0  0.00000000000E+00  0.00000000000E+00  0.81383291922E+03  0.81383291922E+03  0.00000000000E+00 0. -1.
         -2   -1    0    0    0  501 -0.00000000000E+00 -0.00000000000E+00 -0.19317512307E+03  0.19317512307E+03  0.00000000000E+00 0.  1.
          6    1    1    2  502    0  0.95221295645E+02  0.11248987372E+03  0.72358804659E+03  0.75821153249E+03  0.17200000000E+03 0. -1.
         -6    1    1    2    0  501 -0.95221295645E+02 -0.11248987372E+03 -0.10293025044E+03  0.24879650980E+03  0.17200000000E+03 0.  1.
</event>
<event>
 4    1  0.3141404E-002  0.1737974E+03  0.7818608E-02  0.1173945E+00
         -2   -1    0    0    0  501 -0.00000000000E+00  0.00000000000E+00  0.31881231769E+03  0.31881231769E+03  0.00000000000E+00 0.  1.
          2   -1    0    0  502    0  0.00000000000E+00 -0.00000000000E+00 -0.95435458084E+02  0.95435458084E+02  0.00000000000E+00 0. -1.
          6    1    1    2  502    0 -0.21204627896E+02  0.13111150467E+02  0.94057560802E+02  0.19761670793E+03  0.17200000000E+03 0. -1.
         -6    1    1    2    0  501  0.21204627896E+02 -0.13111150467E+02  0.12931929881E+03  0.21663106784E+03  0.17200000000E+03 0.  1.
</event>
<event>
 4    1  0.3141404E-002  0.1995650E+03  0.7818608E-02  0.1150107E+00
         -1   -1    0    0    0  501 -0.00000000000E+00  0.00000000000E+00  0.18550198435E+03  0.18550198435E+03  0.00000000000E+00 0.  1.
          1   -1    0    0  502    0  0.00000000000E+00 -0.00000000000E+00 -0.26880999426E+03  0.26880999426E+03  0.00000000000E+00 0. -1.
          6    1    1    2  502    0 -0.10115490107E+03 -0.31432319359E+01 -0.14357499629E+03  0.24584542598E+03  0.17200000000E+03 0. -1.
         -6    1    1    2    0  501  0.10115490107E+03  0.31432319359E+01  0.60266986379E+02  0.20846655263E+03  0.17200000000E+03 0.  1.
</event>
<event>
 4    1  0.3141404E-002  0.6814791E+03  0.7818608E-02  0.9749440E-01
         -2   -1    0    0    0  501 -0.00000000000E+00  0.00000000000E+00  0.38895531559E+03  0.38895531559E+03  0.00000000000E+00 0.  1.
          2   -1    0    0  502    0  0.00000000000E+00 -0.00000000000E+00 -0.14609240221E+04  0.14609240221E+04  0.00000000000E+00 0. -1.
          6    1    1    2  502    0  0.10204104378E+02 -0.65933726916E+03 -0.93134286776E+03  0.11540421550E+04  0.17200000000E+03 0. -1.
         -6    1    1    2    0  501 -0.10204104378E+02  0.65933726916E+03 -0.14062583873E+03  0.69583718265E+03  0.17200000000E+03 0.  1.
</event>
<event>
 4    1  0.3141404E-002  0.5215568E+03  0.7818608E-02  0.1008301E+00
         -2   -1    0    0    0  501 -0.00000000000E+00  0.00000000000E+00  0.38417221404E+03  0.38417221404E+03  0.00000000000E+00 0.  1.
          2   -1    0    0  502    0  0.00000000000E+00 -0.00000000000E+00 -0.10369766545E+04  0.10369766545E+04  0.00000000000E+00 0. -1.
          6    1    1    2  502    0 -0.40128725828E+03 -0.28531740992E+03 -0.72658672601E+03  0.89439910470E+03  0.17200000000E+03 0. -1.
         -6    1    1    2    0  501  0.40128725828E+03  0.28531740992E+03  0.73782285546E+02  0.52674976385E+03  0.17200000000E+03 0.  1.
</event>
<event>
 4    1  0.3141404E-002  0.2931287E+03  0.7818608E-02  0.1088727E+00
          2   -1    0    0  502    0  0.00000000000E+00  0.00000000000E+00  0.16738898809E+04  0.16738898809E+04  0.00000000000E+00 0. -1.
         -2   -1    0    0    0  501 -0.00000000000E+00 -0.00000000000E+00 -0.52712919548E+02  0.52712919548E+02  0.00000000000E+00 0.  1.
          6    1    1    2  502    0 -0.36593569816E+02  0.23452363329E+03  0.95030865230E+03  0.99449030089E+03  0.17200000000E+03 0. -1.
         -6    1    1    2    0  501  0.36593569816E+02 -0.23452363329E+03  0.67086830908E+03  0.73211249959E+03  0.17200000000E+03 0.  1.
</event>
<event>
 4    1  0.3141404E-002  0.5241858E+03  0.7818608E-02  0.1007652E+00
          3   -1    0    0  502    0  0.00000000000E+00  0.00000000000E+00  0.15106778306E+04  0.15106778306E+04  0.00000000000E+00 0. -1.
         -3   -1    0    0    0  501 -0.00000000000E+00 -0.00000000000E+00 -0.46444491840E+03  0.46444491840E+03  0.00000000000E+00 0.  1.
          6    1    1    2  502    0 -0.33119989350E+03  0.36809421385E+03  0.12934019429E+04  0.13955856497E+04  0.17200000000E+03 0. -1.
         -6    1    1    2    0  501  0.33119989350E+03 -0.36809421385E+03 -0.24716903070E+03  0.57953709930E+03  0.17200000000E+03 0.  1.
</event>
<event>
 4    1  0.3141404E-002  0.1724719E+03  0.7818608E-02  0.1175294E+00
          2   -1    0    0  502    0  0.00000000000E+00  0.00000000000E+00  0.48184127814E+03  0.48184127814E+03  0.00000000000E+00 0. -1.
         -2   -1    0    0    0  501 -0.00000000000E+00 -0.00000000000E+00 -0.29785220345E+03  0.29785220345E+03  0.00000000000E+00 0.  1.
          6    1    1    2  502    0 -0.75219209796E+01 -0.10295312937E+02  0.43909654121E+03  0.47175453921E+03  0.17200000000E+03 0. -1.
         -6    1    1    2    0  501  0.75219209796E+01  0.10295312937E+02 -0.25510746652E+03  0.30793894238E+03  0.17200000000E+03 0.  1.
</event>
<event>
 4    1  0.3141404E-002  0.1742981E+03  0.7818608E-02  0.1173438E+00
          2   -1    0    0  502    0  0.00000000000E+00  0.00000000000E+00  0.11871099306E+04  0.11871099306E+04  0.00000000000E+00 0. -1.
         -2   -1    0    0    0  501 -0.00000000000E+00 -0.00000000000E+00 -0.48043133989E+02  0.48043133989E+02  0.00000000000E+00 0.  1.
          6    1    1    2  502    0  0.26493810071E+02 -0.96896895550E+01  0.99171568392E+03  0.10069159894E+04  0.17200000000E+03 0. -1.
         -6    1    1    2    0  501 -0.26493810071E+02  0.96896895550E+01  0.14735111266E+03  0.22823707511E+03  0.17200000000E+03 0.  1.
</event>
<event>
 4    1  0.3141404E-002  0.1846652E+03  0.7818608E-02  0.1163363E+00
          2   -1    0    0  502    0  0.00000000000E+00  0.00000000000E+00  0.13530698630E+04  0.13530698630E+04  0.00000000000E+00 0. -1.
         -2   -1    0    0    0  501 -0.00000000000E+00 -0.00000000000E+00 -0.26973196534E+02  0.26973196534E+02  0.00000000000E+00 0.  1.
          6    1    1    2  502    0 -0.23740986048E+02 -0.62877562549E+02  0.48627161074E+03  0.52015507467E+03  0.17200000000E+03 0.  1.
         -6    1    1    2    0  501  0.23740986048E+02  0.62877562549E+02  0.83982505571E+03  0.85988798485E+03  0.17200000000E+03 0.  1.
</event>
<event>
 4    1  0.3141404E-002  0.2010722E+03  0.7818608E-02  0.1148838E+00
         -1   -1    0    0    0  501 -0.00000000000E+00  0.00000000000E+00  0.48487793033E+03  0.48487793033E+03  0.00000000000E+00 0.  1.
          1   -1    0    0  502    0  0.00000000000E+00 -0.00000000000E+00 -0.92960078881E+02  0.92960078881E+02  0.00000000000E+00 0. -1.
          6    1    1    2  502    0  0.71178601145E+02 -0.76023797851E+02  0.28869972535E+03  0.35182032704E+03  0.17200000000E+03 0.  1.
         -6    1    1    2    0  501 -0.71178601145E+02  0.76023797851E+02  0.10321812611E+03  0.22601768218E+03  0.17200000000E+03 0.  1.
</event>
<event>
 4    1  0.3141404E-002  0.2048670E+03  0.7818608E-02  0.1145697E+00
         -1   -1    0    0    0  501 -0.00000000000E+00  0.00000000000E+00  0.66908899223E+02  0.66908899223E+02  0.00000000000E+00 0.  1.
          1   -1    0    0  502    0  0.00000000000E+00 -0.00000000000E+00 -0.14380649493E+04  0.14380649493E+04  0.00000000000E+00 0. -1.
          6    1    1    2  502    0  0.17315246562E+02 -0.10993930280E+03 -0.12505971284E+04  0.12672662095E+04  0.17200000000E+03 0. -1.
         -6    1    1    2    0  501 -0.17315246562E+02  0.10993930280E+03 -0.12055892162E+03  0.23770763901E+03  0.17200000000E+03 0.  1.
</event>
<event>
 4    1  0.3141404E-002  0.1835335E+03  0.7818608E-02  0.1164426E+00
          2   -1    0    0  502    0  0.00000000000E+00  0.00000000000E+00  0.77958150740E+03  0.77958150740E+03  0.00000000000E+00 0. -1.
         -2   -1    0    0    0  501 -0.00000000000E+00 -0.00000000000E+00 -0.65454164761E+02  0.65454164761E+02  0.00000000000E+00 0.  1.
          6    1    1    2  502    0  0.60520138754E+02  0.20925094708E+02  0.60338334926E+03  0.63067900944E+03  0.17200000000E+03 0. -1.
         -6    1    1    2    0  501 -0.60520138754E+02 -0.20925094708E+02  0.11074399338E+03  0.21435666272E+03  0.17200000000E+03 0.  1.
</event>
<event>
 4    1  0.3141404E-002  0.5651226E+03  0.7818608E-02  0.9980530E-01
         -2   -1    0    0    0  501 -0.00000000000E+00  0.00000000000E+00  0.82950185440E+03  0.82950185440E+03  0.00000000000E+00 0.  1.
          2   -1    0    0  502    0  0.00000000000E+00 -0.00000000000E+00 -0.47140702415E+03  0.47140702415E+03  0.00000000000E+00 0. -1.
          6    1    1    2  502    0  0.53121155049E+03 -0.87142328389E+02 -0.99421918780E+02  0.57380154644E+03  0.17200000000E+03 0. -1.
         -6    1    1    2    0  501 -0.53121155049E+03  0.87142328389E+02  0.45751674902E+03  0.72710733211E+03  0.17200000000E+03 0.  1.
</event>
<event>
 4    1  0.3141404E-002  0.2808147E+03  0.7818608E-02  0.1095245E+00
         -1   -1    0    0    0  501 -0.00000000000E+00  0.00000000000E+00  0.17131389556E+03  0.17131389556E+03  0.00000000000E+00 0.  1.
          1   -1    0    0  502    0  0.00000000000E+00 -0.00000000000E+00 -0.59471213913E+03  0.59471213913E+03  0.00000000000E+00 0. -1.
          6    1    1    2  502    0  0.63213627153E+02 -0.21278371857E+03 -0.39378200611E+03  0.48365394848E+03  0.17200000000E+03 0. -1.
         -6    1    1    2    0  501 -0.63213627153E+02  0.21278371857E+03 -0.29616237452E+02  0.28237208620E+03  0.17200000000E+03 0.  1.
</event>
<event>
 4    1  0.3141404E-002  0.3572383E+03  0.7818608E-02  0.1059683E+00
         -2   -1    0    0    0  501 -0.00000000000E+00  0.00000000000E+00  0.18970395372E+03  0.18970395372E+03  0.00000000000E+00 0.  1.
          2   -1    0    0  502    0  0.00000000000E+00 -0.00000000000E+00 -0.67968028726E+03  0.67968028726E+03  0.00000000000E+00 0. -1.
          6    1    1    2  502    0  0.19898940527E+03  0.24174032421E+03 -0.28895166415E+03  0.45946951148E+03  0.17200000000E+03 0. -1.
         -6    1    1    2    0  501 -0.19898940527E+03 -0.24174032421E+03 -0.20102466939E+03  0.40991472950E+03  0.17200000000E+03 0. -1.
</event>
<event>
 4    1  0.3141404E-002  0.1788559E+03  0.7818608E-02  0.1168915E+00
          2   -1    0    0  502    0  0.00000000000E+00  0.00000000000E+00  0.32024901167E+03  0.32024901167E+03  0.00000000000E+00 0. -1.
         -2   -1    0    0    0  501 -0.00000000000E+00 -0.00000000000E+00 -0.22452459564E+03  0.22452459564E+03  0.00000000000E+00 0.  1.
          6    1    1    2  502    0 -0.45332790127E+02  0.18718407277E+02  0.25080548785E+03  0.30804680386E+03  0.17200000000E+03 0. -1.
         -6    1    1    2    0  501  0.45332790127E+02 -0.18718407277E+02 -0.15508107183E+03  0.23672680345E+03  0.17200000000E+03 0.  1.
</event>
<event>
 4    1  0.3141404E-002  0.2309884E+03  0.7818608E-02  0.1125946E+00
          2   -1    0    0  502    0  0.00000000000E+00  0.00000000000E+00  0.17997757036E+03  0.17997757036E+03  0.00000000000E+00 0. -1.
         -2   -1    0    0    0  501 -0.00000000000E+00 -0.00000000000E+00 -0.43567710485E+03  0.43567710485E+03  0.00000000000E+00 0.  1.
          6    1    1    2  502    0 -0.15415441597E+03  0.28383133263E+01  0.46160767037E+02  0.23555563334E+03  0.17200000000E+03 0. -1.
         -6    1    1    2    0  501  0.15415441597E+03 -0.28383133263E+01 -0.30186030153E+03  0.38009904186E+03  0.17200000000E+03 0.  1.
</event>
<event>
 4    1  0.3141404E-002  0.3450008E+03  0.7818608E-02  0.1064686E+00
         -2   -1    0    0    0  501 -0.00000000000E+00  0.00000000000E+00  0.11779011933E+03  0.11779011933E+03  0.00000000000E+00 0.  1.
          2   -1    0    0  502    0  0.00000000000E+00 -0.00000000000E+00 -0.11570930820E+04  0.11570930820E+04  0.00000000000E+00 0. -1.
          6    1    1    2  502    0  0.55601470170E+02  0.29385373428E+03 -0.74654928008E+03  0.82241192126E+03  0.17200000000E+03 0. -1.
         -6    1    1    2    0  501 -0.55601470170E+02 -0.29385373428E+03 -0.29275368262E+03  0.45247128011E+03  0.17200000000E+03 0.  1.
</event>
<event>
 4    1  0.3141404E-002  0.1940385E+03  0.7818608E-02  0.1154868E+00
         -3   -1    0    0    0  501 -0.00000000000E+00  0.00000000000E+00  0.30399479115E+03  0.30399479115E+03  0.00000000000E+00 0.  1.
          3   -1    0    0  502    0  0.00000000000E+00 -0.00000000000E+00 -0.31663691711E+03  0.31663691711E+03  0.00000000000E+00 0. -1.
          6    1    1    2  502    0  0.44483797955E+02 -0.78026561946E+02  0.23581391543E+03  0.30538362000E+03  0.17200000000E+03 0.  1.
         -6    1    1    2    0  501 -0.44483797955E+02  0.78026561946E+02 -0.24845604139E+03  0.31524808826E+03  0.17200000000E+03 0. -1.
</event>
<event>
 4    1  0.3141404E-002  0.2563663E+03  0.7818608E-02  0.1109346E+00
         -1   -1    0    0    0  501 -0.00000000000E+00  0.00000000000E+00  0.72373958816E+02  0.72373958816E+02  0.00000000000E+00 0.  1.
          1   -1    0    0  502    0  0.00000000000E+00 -0.00000000000E+00 -0.12915697678E+04  0.12915697678E+04  0.00000000000E+00 0. -1.
          6    1    1    2  502    0  0.83557732750E+02 -0.17075654952E+03 -0.23800618299E+03  0.34981514697E+03  0.17200000000E+03 0.  1.
         -6    1    1    2    0  501 -0.83557732750E+02  0.17075654952E+03 -0.98118962599E+03  0.10141285796E+04  0.17200000000E+03 0.  1.
</event>
<event>
 4    1  0.3141404E-002  0.3252653E+03  0.7818608E-02  0.1073251E+00
          1   -1    0    0  502    0  0.00000000000E+00  0.00000000000E+00  0.14539545139E+04  0.14539545139E+04  0.00000000000E+00 0. -1.
         -1   -1    0    0    0  501 -0.00000000000E+00 -0.00000000000E+00 -0.17235398070E+03  0.17235398070E+03  0.00000000000E+00 0.  1.
          6    1    1    2  502    0  0.27373532737E+03 -0.35812014261E+02  0.12589121954E+04  0.13002528391E+04  0.17200000000E+03 0. -1.
         -6    1    1    2    0  501 -0.27373532737E+03  0.35812014261E+02  0.22688337802E+02  0.32605565551E+03  0.17200000000E+03 0.  1.
</event>
<event>
 4    1  0.3141404E-002  0.2121768E+03  0.7818608E-02  0.1139854E+00
         -1   -1    0    0    0  501 -0.00000000000E+00  0.00000000000E+00  0.64679233812E+03  0.64679233812E+03  0.00000000000E+00 0.  1.
          1   -1    0    0  502    0  0.00000000000E+00 -0.00000000000E+00 -0.15544803096E+03  0.15544803096E+03  0.00000000000E+00 0. -1.
          6    1    1    2  502    0 -0.11803558211E+03 -0.38763462673E+02 -0.52411556218E+02  0.21855428595E+03  0.17200000000E+03 0. -1.
         -6    1    1    2    0  501  0.11803558211E+03  0.38763462673E+02  0.54375586338E+03  0.58368608313E+03  0.17200000000E+03 0.  1.
</event>
<event>
 4    1  0.3141404E-002  0.2039687E+03  0.7818608E-02  0.1146433E+00
          2   -1    0    0  502    0  0.00000000000E+00  0.00000000000E+00  0.16407012550E+04  0.16407012550E+04  0.00000000000E+00 0. -1.
         -2   -1    0    0    0  501 -0.00000000000E+00 -0.00000000000E+00 -0.31896447528E+02  0.31896447528E+02  0.00000000000E+00 0.  1.
          6    1    1    2  502    0 -0.28028175472E+02 -0.10598898967E+03  0.11830726826E+04  0.12005266414E+04  0.17200000000E+03 0. -1.
         -6    1    1    2    0  501  0.28028175472E+02  0.10598898967E+03  0.42573212495E+03  0.47207106114E+03  0.17200000000E+03 0.  1.
</event>
<event>
 4    1  0.3141404E-002  0.2107890E+03  0.7818608E-02  0.1140943E+00
         -1   -1    0    0    0  501 -0.00000000000E+00  0.00000000000E+00  0.19769788586E+03  0.19769788586E+03  0.00000000000E+00 0.  1.
          1   -1    0    0  502    0  0.00000000000E+00 -0.00000000000E+00 -0.24841262050E+03  0.24841262050E+03  0.00000000000E+00 0. -1.
          6    1    1    2  502    0  0.12125220635E+03  0.12079536956E+02  0.43489517953E+02  0.21522860156E+03  0.17200000000E+03 0. -1.
         -6    1    1    2    0  501 -0.12125220635E+03 -0.12079536956E+02 -0.94204252594E+02  0.23088190480E+03  0.17200000000E+03 0.  1.
</event>
<event>
 4    1  0.3141404E-002  0.1750401E+03  0.7818608E-02  0.1172691E+00
         -2   -1    0    0    0  501 -0.00000000000E+00  0.00000000000E+00  0.43104920654E+03  0.43104920654E+03  0.00000000000E+00 0.  1.
          2   -1    0    0  502    0  0.00000000000E+00 -0.00000000000E+00 -0.73520269221E+02  0.73520269221E+02  0.00000000000E+00 0. -1.
          6    1    1    2  502    0 -0.19090363446E+02  0.26279047473E+02  0.13280283857E+03  0.21971714599E+03  0.17200000000E+03 0. -1.
         -6    1    1    2    0  501  0.19090363446E+02 -0.26279047473E+02  0.22472609876E+03  0.28485232977E+03  0.17200000000E+03 0.  1.
</event>
<event>
 4    1  0.3141404E-002  0.2114342E+03  0.7818608E-02  0.1140435E+00
          1   -1    0    0  502    0  0.00000000000E+00  0.00000000000E+00  0.21970415610E+03  0.21970415610E+03  0.00000000000E+00 0. -1.
         -1   -1    0    0    0  501 -0.00000000000E+00 -0.00000000000E+00 -0.30418818586E+03  0.30418818586E+03  0.00000000000E+00 0.  1.
          6    1    1    2  502    0 -0.21395224794E+02 -0.12108945342E+03  0.10848218540E+03  0.23764005538E+03  0.17200000000E+03 0. -1.
         -6    1    1    2    0  501  0.21395224794E+02  0.12108945342E+03 -0.19296621516E+03  0.28625228657E+03  0.17200000000E+03 0.  1.
</event>
<event>
 4    1  0.3141404E-002  0.2597234E+03  0.7818608E-02  0.1107310E+00
          3   -1    0    0  502    0  0.00000000000E+00  0.00000000000E+00  0.14664966403E+04  0.14664966403E+04  0.00000000000E+00 0. -1.
         -3   -1    0    0    0  501 -0.00000000000E+00 -0.00000000000E+00 -0.70852855255E+02  0.70852855255E+02  0.00000000000E+00 0.  1.
          6    1    1    2  502    0 -0.85720979959E+02  0.17471169602E+03  0.11530902493E+04  0.11819785896E+04  0.17200000000E+03 0. -1.
         -6    1    1    2    0  501  0.85720979959E+02 -0.17471169602E+03  0.24255353575E+03  0.35537090600E+03  0.17200000000E+03 0.  1.
</event>
<event>
 4    1  0.3141404E-002  0.1978000E+03  0.7818608E-02  0.1151609E+00
          1   -1    0    0  502    0  0.00000000000E+00  0.00000000000E+00  0.24136780086E+03  0.24136780086E+03  0.00000000000E+00 0. -1.
         -1   -1    0    0    0  501 -0.00000000000E+00 -0.00000000000E+00 -0.24422126320E+03  0.24422126320E+03  0.00000000000E+00 0.  1.
          6    1    1    2  502    0 -0.23645639199E+02  0.94771902915E+02  0.13936745866E+03  0.24196718449E+03  0.17200000000E+03 0. -1.
         -6    1    1    2    0  501  0.23645639199E+02 -0.94771902915E+02 -0.14222092100E+03  0.24362187957E+03  0.17200000000E+03 0.  1.
</event>
<event>
 4    1  0.3141404E-002  0.2221788E+03  0.7818608E-02  0.1132269E+00
         -1   -1    0    0    0  501 -0.00000000000E+00  0.00000000000E+00  0.14465946071E+03  0.14465946071E+03  0.00000000000E+00 0.  1.
          1   -1    0    0  502    0  0.00000000000E+00 -0.00000000000E+00 -0.40676289630E+03  0.40676289630E+03  0.00000000000E+00 0. -1.
          6    1    1    2  502    0 -0.45794556621E+02  0.13297468468E+03 -0.24171015123E+03  0.32830961817E+03  0.17200000000E+03 0.  1.
         -6    1    1    2    0  501  0.45794556621E+02 -0.13297468468E+03 -0.20393284364E+02  0.22311273883E+03  0.17200000000E+03 0.  1.
</event>
<event>
 4    1  0.3141404E-002  0.5562593E+03  0.7818608E-02  0.1000055E+00
          1   -1    0    0  502    0  0.00000000000E+00  0.00000000000E+00  0.85561252445E+03  0.85561252445E+03  0.00000000000E+00 0. -1.
         -1   -1    0    0    0  501 -0.00000000000E+00 -0.00000000000E+00 -0.55504529045E+03  0.55504529045E+03  0.00000000000E+00 0.  1.
          6    1    1    2  502    0 -0.46046584390E+03  0.26040661043E+03  0.56663570916E+03  0.79404056763E+03  0.17200000000E+03 0. -1.
         -6    1    1    2    0  501  0.46046584390E+03 -0.26040661043E+03 -0.26606847516E+03  0.61661724727E+03  0.17200000000E+03 0.  1.
</event>
<event>
 4    1  0.3141404E-002  0.2544525E+03  0.7818608E-02  0.1110523E+00
          2   -1    0    0  502    0  0.00000000000E+00  0.00000000000E+00  0.56013827891E+03  0.56013827891E+03  0.00000000000E+00 0. -1.
         -2   -1    0    0    0  501 -0.00000000000E+00 -0.00000000000E+00 -0.11564883509E+03  0.11564883509E+03  0.00000000000E+00 0.  1.
          6    1    1    2  502    0 -0.88076615264E+02  0.16554335054E+03  0.21458969141E+03  0.33285856865E+03  0.17200000000E+03 0. -1.
         -6    1    1    2    0  501  0.88076615264E+02 -0.16554335054E+03  0.22989975240E+03  0.34292854535E+03  0.17200000000E+03 0.  1.
</event>
<event>
 4    1  0.3141404E-002  0.1996644E+03  0.7818608E-02  0.1150022E+00
          2   -1    0    0  502    0  0.00000000000E+00  0.00000000000E+00  0.96920062924E+02  0.96920062924E+02  0.00000000000E+00 0. -1.
         -2   -1    0    0    0  501 -0.00000000000E+00 -0.00000000000E+00 -0.89624526911E+03  0.89624526911E+03  0.00000000000E+00 0.  1.
          6    1    1    2  502    0  0.78545731242E+01 -0.10109491344E+03 -0.34394104668E+02  0.20260510921E+03  0.17200000000E+03 0. -1.
         -6    1    1    2    0  501 -0.78545731242E+01  0.10109491344E+03 -0.76493110152E+03  0.79056022283E+03  0.17200000000E+03 0.  1.
</event>
<event>
 4    1  0.3141404E-002  0.1768834E+03  0.7818608E-02  0.1170854E+00
         -2   -1    0    0    0  501 -0.00000000000E+00  0.00000000000E+00  0.33573873144E+03  0.33573873144E+03  0.00000000000E+00 0.  1.
          2   -1    0    0  502    0  0.00000000000E+00 -0.00000000000E+00 -0.10752678053E+03  0.10752678053E+03  0.00000000000E+00 0. -1.
          6    1    1    2  502    0 -0.33150651409E+02  0.24592327694E+02  0.33179635349E+02  0.17996843188E+03  0.17200000000E+03 0. -1.
         -6    1    1    2    0  501  0.33150651409E+02 -0.24592327694E+02  0.19503231556E+03  0.26329708009E+03  0.17200000000E+03 0.  1.
</event>
<event>
 4    1  0.3141404E-002  0.1944219E+03  0.7818608E-02  0.1154532E+00
         -2   -1    0    0    0  501 -0.00000000000E+00  0.00000000000E+00  0.41814570340E+02  0.41814570340E+02  0.00000000000E+00 0.  1.
          2   -1    0    0  502    0  0.00000000000E+00 -0.00000000000E+00 -0.13007598585E+04  0.13007598585E+04  0.00000000000E+00 0. -1.
          6    1    1    2  502    0  0.42323659243E+02 -0.80153385824E+02 -0.10002220006E+04  0.10189425439E+04  0.17200000000E+03 0. -1.
         -6    1    1    2    0  501 -0.42323659243E+02  0.80153385824E+02 -0.25872328757E+03  0.32363188490E+03  0.17200000000E+03 0.  1.
</event>
<event>
 4    1  0.3141404E-002  0.2157918E+03  0.7818608E-02  0.1137060E+00
          4   -1    0    0  502    0  0.00000000000E+00  0.00000000000E+00  0.18631018036E+03  0.18631018036E+03  0.00000000000E+00 0. -1.
         -4   -1    0    0    0  501 -0.00000000000E+00 -0.00000000000E+00 -0.33469496586E+03  0.33469496586E+03  0.00000000000E+00 0.  1.
          6    1    1    2  502    0 -0.12808064421E+03  0.24029937045E+02  0.56898890757E+02  0.22316714154E+03  0.17200000000E+03 0. -1.
         -6    1    1    2    0  501  0.12808064421E+03 -0.24029937045E+02 -0.20528367626E+03  0.29783800468E+03  0.17200000000E+03 0.  1.
</event>
<event>
 4    1  0.3141404E-002  0.2843914E+03  0.7818608E-02  0.1093314E+00
         -3   -1    0    0    0  501 -0.00000000000E+00  0.00000000000E+00  0.13564508992E+03  0.13564508992E+03  0.00000000000E+00 0.  1.
          3   -1    0    0  502    0  0.00000000000E+00 -0.00000000000E+00 -0.61696642447E+03  0.61696642447E+03  0.00000000000E+00 0. -1.
          6    1    1    2  502    0  0.22367476449E+03 -0.35554091745E+02 -0.30961460736E+03  0.42040420883E+03  0.17200000000E+03 0. -1.
         -6    1    1    2    0  501 -0.22367476449E+03  0.35554091745E+02 -0.17170672719E+03  0.33220730556E+03  0.17200000000E+03 0.  1.
</event>
<event>
 4    1  0.3141404E-002  0.3486720E+03  0.7818608E-02  0.1063161E+00
          1   -1    0    0  502    0  0.00000000000E+00  0.00000000000E+00  0.57831141742E+03  0.57831141742E+03  0.00000000000E+00 0. -1.
         -1   -1    0    0    0  501 -0.00000000000E+00 -0.00000000000E+00 -0.22476471145E+03  0.22476471145E+03  0.00000000000E+00 0.  1.
          6    1    1    2  502    0  0.11750689594E+03 -0.27960743234E+03  0.74626132249E+02  0.35656871207E+03  0.17200000000E+03 0. -1.
         -6    1    1    2    0  501 -0.11750689594E+03  0.27960743234E+03  0.27892057373E+03  0.44650741680E+03  0.17200000000E+03 0.  1.
</event>
<event>
 4    1  0.3141404E-002  0.1786739E+03  0.7818608E-02  0.1169093E+00
         -2   -1    0    0    0  501 -0.00000000000E+00  0.00000000000E+00  0.28610839056E+02  0.28610839056E+02  0.00000000000E+00 0.  1.
          2   -1    0    0  502    0  0.00000000000E+00 -0.00000000000E+00 -0.14290053953E+04  0.14290053953E+04  0.00000000000E+00 0. -1.
          6    1    1    2  502    0 -0.40355649115E+02 -0.26679374787E+02 -0.35900330209E+03  0.40100840186E+03  0.17200000000E+03 0.  1.
         -6    1    1    2    0  501  0.40355649115E+02  0.26679374787E+02 -0.10413912542E+04  0.10566078325E+04  0.17200000000E+03 0. -1.
</event>
<event>
 4    1  0.3141404E-002  0.3914984E+03  0.7818608E-02  0.1046764E+00
         -1   -1    0    0    0  501 -0.00000000000E+00  0.00000000000E+00  0.42316237412E+03  0.42316237412E+03  0.00000000000E+00 0.  1.
          1   -1    0    0  502    0  0.00000000000E+00 -0.00000000000E+00 -0.44824907863E+03  0.44824907863E+03  0.00000000000E+00 0. -1.
          6    1    1    2  502    0  0.64463751280E+02 -0.34573315967E+03 -0.20343953702E+03  0.44120135782E+03  0.17200000000E+03 0. -1.
         -6    1    1    2    0  501 -0.64463751280E+02  0.34573315967E+03  0.17835283250E+03  0.43021009494E+03  0.17200000000E+03 0.  1.
</event>
<event>
 4    1  0.3141404E-002  0.1932708E+03  0.7818608E-02  0.1155544E+00
          2   -1    0    0  502    0  0.00000000000E+00  0.00000000000E+00  0.50878170432E+03  0.50878170432E+03  0.00000000000E+00 0. -1.
         -2   -1    0    0    0  501 -0.00000000000E+00 -0.00000000000E+00 -0.33433874454E+03  0.33433874454E+03  0.00000000000E+00 0.  1.
          6    1    1    2  502    0  0.72220092468E+02 -0.50535623417E+02  0.45963103363E+03  0.49861235250E+03  0.17200000000E+03 0. -1.
         -6    1    1    2    0  501 -0.72220092468E+02  0.50535623417E+02 -0.28518807385E+03  0.34450809636E+03  0.17200000000E+03 0.  1.
</event>
<event>
 4    1  0.3141404E-002  0.2978669E+03  0.7818608E-02  0.1086312E+00
         -3   -1    0    0    0  501 -0.00000000000E+00  0.00000000000E+00  0.71315042749E+03  0.71315042749E+03  0.00000000000E+00 0.  1.
          3   -1    0    0  502    0  0.00000000000E+00 -0.00000000000E+00 -0.14291173619E+03  0.14291173619E+03  0.00000000000E+00 0. -1.
          6    1    1    2  502    0 -0.22112860421E+03  0.10120696522E+03  0.43911916184E+03  0.53061318086E+03  0.17200000000E+03 0.  1.
         -6    1    1    2    0  501  0.22112860421E+03 -0.10120696522E+03  0.13111952946E+03  0.32544898281E+03  0.17200000000E+03 0. -1.
</event>
<event>
 4    1  0.3141404E-002  0.3474588E+03  0.7818608E-02  0.1063663E+00
         -1   -1    0    0    0  501 -0.00000000000E+00  0.00000000000E+00  0.96670550702E+02  0.96670550702E+02  0.00000000000E+00 0.  1.
          1   -1    0    0  502    0  0.00000000000E+00 -0.00000000000E+00 -0.12494134107E+04  0.12494134107E+04  0.00000000000E+00 0. -1.
          6    1    1    2  502    0  0.93864037841E+02 -0.28693750598E+03 -0.56215448620E+03  0.66086704888E+03  0.17200000000E+03 0. -1.
         -6    1    1    2    0  501 -0.93864037841E+02  0.28693750598E+03 -0.59058837379E+03  0.68521691252E+03  0.17200000000E+03 0.  1.
</event>
<event>
 4    1  0.3141404E-002  0.1952606E+03  0.7818608E-02  0.1153800E+00
         -1   -1    0    0    0  501 -0.00000000000E+00  0.00000000000E+00  0.39049678326E+02  0.39049678326E+02  0.00000000000E+00 0.  1.
          1   -1    0    0  502    0  0.00000000000E+00 -0.00000000000E+00 -0.10417897386E+04  0.10417897386E+04  0.00000000000E+00 0. -1.
          6    1    1    2  502    0  0.58868065099E+02  0.71254902445E+02 -0.63679994373E+03  0.66606371958E+03  0.17200000000E+03 0. -1.
         -6    1    1    2    0  501 -0.58868065099E+02 -0.71254902445E+02 -0.36594011656E+03  0.41477569736E+03  0.17200000000E+03 0.  1.
</event>
<event>
 4    1  0.3141404E-002  0.3924350E+03  0.7818608E-02  0.1046431E+00
         -3   -1    0    0    0  501 -0.00000000000E+00  0.00000000000E+00  0.70316161299E+03  0.70316161299E+03  0.00000000000E+00 0.  1.
          3   -1    0    0  502    0  0.00000000000E+00 -0.00000000000E+00 -0.23320247168E+03  0.23320247168E+03  0.00000000000E+00 0. -1.
          6    1    1    2  502    0 -0.11848903416E+03  0.33223727326E+03  0.35044454332E+03  0.52613366638E+03  0.17200000000E+03 0. -1.
         -6    1    1    2    0  501  0.11848903416E+03 -0.33223727326E+03  0.11951459799E+03  0.41023041829E+03  0.17200000000E+03 0.  1.
</event>
<event>
 4    1  0.3141404E-002  0.1978422E+03  0.7818608E-02  0.1151572E+00
         -1   -1    0    0    0  501 -0.00000000000E+00  0.00000000000E+00  0.11589672767E+03  0.11589672767E+03  0.00000000000E+00 0.  1.
          1   -1    0    0  502    0  0.00000000000E+00 -0.00000000000E+00 -0.37922506534E+03  0.37922506534E+03  0.00000000000E+00 0. -1.
          6    1    1    2  502    0 -0.88359367467E+02 -0.41834797713E+02 -0.21355666603E+03  0.29111505925E+03  0.17200000000E+03 0. -1.
         -6    1    1    2    0  501  0.88359367467E+02  0.41834797713E+02 -0.49771671643E+02  0.20400673375E+03  0.17200000000E+03 0.  1.
</event>
<event>
 4    1  0.3141404E-002  0.2496469E+03  0.7818608E-02  0.1113528E+00
          1   -1    0    0  502    0  0.00000000000E+00  0.00000000000E+00  0.50884592281E+03  0.50884592281E+03  0.00000000000E+00 0. -1.
         -1   -1    0    0    0  501 -0.00000000000E+00 -0.00000000000E+00 -0.26391811432E+03  0.26391811432E+03  0.00000000000E+00 0.  1.
          6    1    1    2  502    0 -0.84378261161E+02 -0.16006205832E+03 -0.16039198126E+03  0.29673075527E+03  0.17200000000E+03 0.  1.
         -6    1    1    2    0  501  0.84378261161E+02  0.16006205832E+03  0.40531978975E+03  0.47603328185E+03  0.17200000000E+03 0. -1.
</event>
<event>
 4    1  0.3141404E-002  0.1792657E+03  0.7818608E-02  0.1168516E+00
          1   -1    0    0  502    0  0.00000000000E+00  0.00000000000E+00  0.20566753229E+03  0.20566753229E+03  0.00000000000E+00 0. -1.
         -1   -1    0    0    0  501 -0.00000000000E+00 -0.00000000000E+00 -0.15795268411E+03  0.15795268411E+03  0.00000000000E+00 0.  1.
          6    1    1    2  502    0 -0.26113709361E+02 -0.43246689886E+02  0.49984493723E+01  0.17933540225E+03  0.17200000000E+03 0.  1.
         -6    1    1    2    0  501  0.26113709361E+02  0.43246689886E+02  0.42716398802E+02  0.18428481416E+03  0.17200000000E+03 0.  1.
</event>
<event>
 4    1  0.3141404E-002  0.1836399E+03  0.7818608E-02  0.1164326E+00
          1   -1    0    0  502    0  0.00000000000E+00  0.00000000000E+00  0.76183140259E+03  0.76183140259E+03  0.00000000000E+00 0. -1.
         -1   -1    0    0    0  501 -0.00000000000E+00 -0.00000000000E+00 -0.46026789880E+02  0.46026789880E+02  0.00000000000E+00 0.  1.
          6    1    1    2  502    0  0.79797945688E+01  0.63843026474E+02  0.27890869060E+03  0.33393662100E+03  0.17200000000E+03 0.  1.
         -6    1    1    2    0  501 -0.79797945688E+01 -0.63843026474E+02  0.43689592211E+03  0.47392157147E+03  0.17200000000E+03 0. -1.
</event>
<event>
 4    1  0.3141404E-002  0.2096989E+03  0.7818608E-02  0.1141805E+00
          2   -1    0    0  502    0  0.00000000000E+00  0.00000000000E+00  0.17425841792E+03  0.17425841792E+03  0.00000000000E+00 0. -1.
         -2   -1    0    0    0  501 -0.00000000000E+00 -0.00000000000E+00 -0.34909684919E+03  0.34909684919E+03  0.00000000000E+00 0.  1.
          6    1    1    2  502    0  0.16792485609E+02 -0.11877557123E+03  0.50339262998E+02  0.21565635927E+03  0.17200000000E+03 0. -1.
         -6    1    1    2    0  501 -0.16792485609E+02  0.11877557123E+03 -0.22517769427E+03  0.30769890785E+03  0.17200000000E+03 0.  1.
</event>
<event>
 4    1  0.3141404E-002  0.1727107E+03  0.7818608E-02  0.1175050E+00
          4   -1    0    0  502    0  0.00000000000E+00  0.00000000000E+00  0.37182695435E+03  0.37182695435E+03  0.00000000000E+00 0. -1.
         -4   -1    0    0    0  501 -0.00000000000E+00 -0.00000000000E+00 -0.80624879024E+02  0.80624879024E+02  0.00000000000E+00 0.  1.
          6    1    1    2  502    0  0.12775420929E+02  0.90422238040E+01  0.16157827112E+03  0.23650900805E+03  0.17200000000E+03 0. -1.
         -6    1    1    2    0  501 -0.12775420929E+02 -0.90422238040E+01  0.12962380421E+03  0.21594282532E+03  0.17200000000E+03 0.  1.
</event>
<event>
 4    1  0.3141404E-002  0.1828242E+03  0.7818608E-02  0.1165097E+00
         -3   -1    0    0    0  501 -0.00000000000E+00  0.00000000000E+00  0.23536280177E+03  0.23536280177E+03  0.00000000000E+00 0.  1.
          3   -1    0    0  502    0  0.00000000000E+00 -0.00000000000E+00 -0.14335341716E+03  0.14335341716E+03  0.00000000000E+00 0. -1.
          6    1    1    2  502    0  0.19810651914E+02 -0.58721513031E+02  0.27697121617E+02  0.18491027167E+03  0.17200000000E+03 0.  1.
         -6    1    1    2    0  501 -0.19810651914E+02  0.58721513031E+02  0.64312262990E+02  0.19380594726E+03  0.17200000000E+03 0.  1.
</event>
<event>
 4    1  0.3141404E-002  0.2252493E+03  0.7818608E-02  0.1130029E+00
         -2   -1    0    0    0  501 -0.00000000000E+00  0.00000000000E+00  0.71132712452E+02  0.71132712452E+02  0.00000000000E+00 0.  1.
          2   -1    0    0  502    0  0.00000000000E+00 -0.00000000000E+00 -0.86867275250E+03  0.86867275250E+03  0.00000000000E+00 0. -1.
          6    1    1    2  502    0 -0.13716499301E+03 -0.48363311102E+02 -0.59751724102E+03  0.63856409113E+03  0.17200000000E+03 0. -1.
         -6    1    1    2    0  501  0.13716499301E+03  0.48363311102E+02 -0.20002279903E+03  0.30124137382E+03  0.17200000000E+03 0.  1.
</event>
<event>
 4    1  0.3141404E-002  0.1874877E+03  0.7818608E-02  0.1160747E+00
         -1   -1    0    0    0  501 -0.00000000000E+00  0.00000000000E+00  0.79303418319E+03  0.79303418319E+03  0.00000000000E+00 0.  1.
          1   -1    0    0  502    0  0.00000000000E+00 -0.00000000000E+00 -0.88610788150E+02  0.88610788150E+02  0.00000000000E+00 0. -1.
          6    1    1    2  502    0  0.68329893701E+02  0.29977449138E+02  0.40573797868E+02  0.19182766981E+03  0.17200000000E+03 0. -1.
         -6    1    1    2    0  501 -0.68329893701E+02 -0.29977449138E+02  0.66384959717E+03  0.68981730153E+03  0.17200000000E+03 0.  1.
</event>
<event>
 4    1  0.3141404E-002  0.1904656E+03  0.7818608E-02  0.1158042E+00
         -1   -1    0    0    0  501 -0.00000000000E+00  0.00000000000E+00  0.49881025350E+02  0.49881025350E+02  0.00000000000E+00 0.  1.
          1   -1    0    0  502    0  0.00000000000E+00 -0.00000000000E+00 -0.78326942791E+03  0.78326942791E+03  0.00000000000E+00 0. -1.
          6    1    1    2  502    0  0.77702076188E+02  0.25603056182E+02 -0.47807684779E+03  0.51462083278E+03  0.17200000000E+03 0. -1.
         -6    1    1    2    0  501 -0.77702076188E+02 -0.25603056182E+02 -0.25531155477E+03  0.31852962049E+03  0.17200000000E+03 0.  1.
</event>
<event>
 4    1  0.3141404E-002  0.2661820E+03  0.7818608E-02  0.1103485E+00
          2   -1    0    0  502    0  0.00000000000E+00  0.00000000000E+00  0.33270857949E+04  0.33270857949E+04  0.00000000000E+00 0. -1.
         -2   -1    0    0    0  501 -0.00000000000E+00 -0.00000000000E+00 -0.12695554130E+03  0.12695554130E+03  0.00000000000E+00 0.  1.
          6    1    1    2  502    0  0.14020196144E+03  0.14701114360E+03  0.31755945922E+04  0.31867309080E+04  0.17200000000E+03 0. -1.
         -6    1    1    2    0  501 -0.14020196144E+03 -0.14701114360E+03  0.24535661439E+02  0.26731042819E+03  0.17200000000E+03 0.  1.
</event>
<event>
 4    1  0.3141404E-002  0.1766877E+03  0.7818608E-02  0.1171048E+00
         -2   -1    0    0    0  501 -0.00000000000E+00  0.00000000000E+00  0.16470166199E+02  0.16470166199E+02  0.00000000000E+00 0.  1.
          2   -1    0    0  502    0  0.00000000000E+00 -0.00000000000E+00 -0.30821760386E+04  0.30821760386E+04  0.00000000000E+00 0. -1.
          6    1    1    2  502    0  0.40373438897E+02  0.21240076717E+01 -0.24942147162E+04  0.25004650720E+04  0.17200000000E+03 0. -1.
         -6    1    1    2    0  501 -0.40373438897E+02 -0.21240076717E+01 -0.57149115625E+03  0.59818113280E+03  0.17200000000E+03 0.  1.
</event>
<event>
 4    1  0.3141404E-002  0.3041869E+03  0.7818608E-02  0.1083166E+00
         -2   -1    0    0    0  501 -0.00000000000E+00  0.00000000000E+00  0.22920735201E+02  0.22920735201E+02  0.00000000000E+00 0.  1.
          2   -1    0    0  502    0  0.00000000000E+00 -0.00000000000E+00 -0.40440317464E+04  0.40440317464E+04  0.00000000000E+00 0. -1.
          6    1    1    2  502    0  0.14473524016E+03 -0.20493259562E+03 -0.20957034273E+04  0.21176644006E+04  0.17200000000E+03 0. -1.
         -6    1    1    2    0  501 -0.14473524016E+03  0.20493259562E+03 -0.19254075839E+04  0.19492880810E+04  0.17200000000E+03 0. -1.
</event>
<event>
 4    1  0.3141404E-002  0.2781507E+03  0.7818608E-02  0.1096703E+00
          3   -1    0    0  502    0  0.00000000000E+00  0.00000000000E+00  0.21259569823E+04  0.21259569823E+04  0.00000000000E+00 0. -1.
         -3   -1    0    0    0  501 -0.00000000000E+00 -0.00000000000E+00 -0.37565759109E+02  0.37565759109E+02  0.00000000000E+00 0.  1.
          6    1    1    2  502    0  0.48996657887E+02 -0.21303324015E+03  0.85297961175E+03  0.89718562848E+03  0.17200000000E+03 0. -1.
         -6    1    1    2    0  501 -0.48996657887E+02  0.21303324015E+03  0.12354116114E+04  0.12663371129E+04  0.17200000000E+03 0. -1.
</event>
<event>
 4    1  0.3141404E-002  0.2495096E+03  0.7818608E-02  0.1113615E+00
          1   -1    0    0  502    0  0.00000000000E+00  0.00000000000E+00  0.10052912867E+04  0.10052912867E+04  0.00000000000E+00 0. -1.
         -1   -1    0    0    0  501 -0.00000000000E+00 -0.00000000000E+00 -0.64859021173E+02  0.64859021173E+02  0.00000000000E+00 0.  1.
          6    1    1    2  502    0 -0.61395009782E+02 -0.17000496885E+03  0.35645697033E+03  0.43510528422E+03  0.17200000000E+03 0.  1.
         -6    1    1    2    0  501  0.61395009782E+02  0.17000496885E+03  0.58397529519E+03  0.63504502365E+03  0.17200000000E+03 0. -1.
</event>
<event>
 4    1  0.3141404E-002  0.3419803E+03  0.7818608E-02  0.1065956E+00
          1   -1    0    0  502    0  0.00000000000E+00  0.00000000000E+00  0.28557566540E+04  0.28557566540E+04  0.00000000000E+00 0. -1.
         -1   -1    0    0    0  501 -0.00000000000E+00 -0.00000000000E+00 -0.43487044828E+02  0.43487044828E+02  0.00000000000E+00 0.  1.
          6    1    1    2  502    0  0.10438805785E+03  0.27653147012E+03  0.17560963939E+04  0.17890849799E+04  0.17200000000E+03 0. -1.
         -6    1    1    2    0  501 -0.10438805785E+03 -0.27653147012E+03  0.10561732153E+04  0.11101587190E+04  0.17200000000E+03 0.  1.
</event>
<event>
 4    1  0.3141404E-002  0.1745172E+03  0.7818608E-02  0.1173217E+00
          2   -1    0    0  502    0  0.00000000000E+00  0.00000000000E+00  0.38139857679E+02  0.38139857679E+02  0.00000000000E+00 0. -1.
         -2   -1    0    0    0  501 -0.00000000000E+00 -0.00000000000E+00 -0.18091787193E+04  0.18091787193E+04  0.00000000000E+00 0.  1.
          6    1    1    2  502    0  0.23569606889E+02  0.17796988635E+02 -0.15758684475E+04  0.15855023252E+04  0.17200000000E+03 0.  1.
         -6    1    1    2    0  501 -0.23569606889E+02 -0.17796988635E+02 -0.19517041404E+03  0.26181625177E+03  0.17200000000E+03 0. -1.
</event>
<event>
 4    1  0.3141404E-002  0.2891789E+03  0.7818608E-02  0.1090779E+00
          2   -1    0    0  502    0  0.00000000000E+00  0.00000000000E+00  0.25818930132E+03  0.25818930132E+03  0.00000000000E+00 0. -1.
         -2   -1    0    0    0  501 -0.00000000000E+00 -0.00000000000E+00 -0.35675935125E+03  0.35675935125E+03  0.00000000000E+00 0.  1.
          6    1    1    2  502    0 -0.14427578711E+03 -0.18227712519E+03  0.44046640482E+02  0.29251420419E+03  0.17200000000E+03 0. -1.
         -6    1    1    2    0  501  0.14427578711E+03  0.18227712519E+03 -0.14261669042E+03  0.32243444838E+03  0.17200000000E+03 0.  1.
</event>
<event>
 4    1  0.3141404E-002  0.3704226E+03  0.7818608E-02  0.1054532E+00
          1   -1    0    0  502    0  0.00000000000E+00  0.00000000000E+00  0.21424655636E+03  0.21424655636E+03  0.00000000000E+00 0. -1.
         -1   -1    0    0    0  501 -0.00000000000E+00 -0.00000000000E+00 -0.69069288592E+03  0.69069288592E+03  0.00000000000E+00 0.  1.
          6    1    1    2  502    0  0.23071616574E+02  0.32725613522E+03 -0.36026567645E+03  0.51672452541E+03  0.17200000000E+03 0.  1.
         -6    1    1    2    0  501 -0.23071616574E+02 -0.32725613522E+03 -0.11618065311E+03  0.38821491688E+03  0.17200000000E+03 0.  1.
</event>
<event>
 4    1  0.3141404E-002  0.1802251E+03  0.7818608E-02  0.1167585E+00
          2   -1    0    0  502    0  0.00000000000E+00  0.00000000000E+00  0.28513925297E+03  0.28513925297E+03  0.00000000000E+00 0. -1.
         -2   -1    0    0    0  501 -0.00000000000E+00 -0.00000000000E+00 -0.12350345226E+03  0.12350345226E+03  0.00000000000E+00 0.  1.
          6    1    1    2  502    0 -0.53223601062E+01 -0.53560685477E+02  0.13775472047E+03  0.22684231871E+03  0.17200000000E+03 0. -1.
         -6    1    1    2    0  501  0.53223601062E+01  0.53560685477E+02  0.23881080232E+02  0.18180038652E+03  0.17200000000E+03 0.  1.
</event>
<event>
 4    1  0.3141404E-002  0.1872984E+03  0.7818608E-02  0.1160921E+00
         -2   -1    0    0    0  501 -0.00000000000E+00  0.00000000000E+00  0.51935258915E+03  0.51935258915E+03  0.00000000000E+00 0.  1.
          2   -1    0    0  502    0  0.00000000000E+00 -0.00000000000E+00 -0.33175908087E+03  0.33175908087E+03  0.00000000000E+00 0. -1.
          6    1    1    2  502    0 -0.47365871880E+02  0.57036640516E+02 -0.28597397118E+03  0.34185057609E+03  0.17200000000E+03 0. -1.
         -6    1    1    2    0  501  0.47365871880E+02 -0.57036640516E+02  0.47356747946E+03  0.50926109393E+03  0.17200000000E+03 0.  1.
</event>
<event>
 4    1  0.3141404E-002  0.9092675E+03  0.7818608E-02  0.9414070E-01
          1   -1    0    0  502    0  0.00000000000E+00  0.00000000000E+00  0.75817379922E+03  0.75817379922E+03  0.00000000000E+00 0. -1.
         -1   -1    0    0    0  501 -0.00000000000E+00 -0.00000000000E+00 -0.11652530193E+04  0.11652530193E+04  0.00000000000E+00 0.  1.
          6    1    1    2  502    0 -0.84337213807E+03  0.29309868470E+03  0.40090436734E+02  0.91015089154E+03  0.17200000000E+03 0. -1.
         -6    1    1    2    0  501  0.84337213807E+03 -0.29309868470E+03 -0.44716965682E+03  0.10132759270E+04  0.17200000000E+03 0.  1.
</event>
<event>
 4    1  0.3141404E-002  0.2438346E+03  0.7818608E-02  0.1117264E+00
         -1   -1    0    0    0  501 -0.00000000000E+00  0.00000000000E+00  0.19628719207E+03  0.19628719207E+03  0.00000000000E+00 0.  1.
          1   -1    0    0  502    0  0.00000000000E+00 -0.00000000000E+00 -0.47515960862E+03  0.47515960862E+03  0.00000000000E+00 0. -1.
          6    1    1    2  502    0 -0.83756950282E+02  0.15118230208E+03 -0.34157704862E+03  0.41967868105E+03  0.17200000000E+03 0. -1.
         -6    1    1    2    0  501  0.83756950282E+02 -0.15118230208E+03  0.62704632068E+02  0.25176811964E+03  0.17200000000E+03 0.  1.
</event>
<event>
 4    1  0.3141404E-002  0.2394402E+03  0.7818608E-02  0.1120166E+00
          2   -1    0    0  502    0  0.00000000000E+00  0.00000000000E+00  0.20951576896E+03  0.20951576896E+03  0.00000000000E+00 0. -1.
         -2   -1    0    0    0  501 -0.00000000000E+00 -0.00000000000E+00 -0.27533206431E+03  0.27533206431E+03  0.00000000000E+00 0.  1.
          6    1    1    2  502    0 -0.15663432700E+03  0.56686137933E+02 -0.51919691432E+02  0.24500466319E+03  0.17200000000E+03 0. -1.
         -6    1    1    2    0  501  0.15663432700E+03 -0.56686137933E+02 -0.13896603918E+02  0.23984317007E+03  0.17200000000E+03 0.  1.
</event>
<event>
 4    1  0.3141404E-002  0.5214953E+03  0.7818608E-02  0.1008316E+00
          1   -1    0    0  502    0  0.00000000000E+00  0.00000000000E+00  0.86081281926E+03  0.86081281926E+03  0.00000000000E+00 0. -1.
         -1   -1    0    0    0  501 -0.00000000000E+00 -0.00000000000E+00 -0.43489567840E+03  0.43489567840E+03  0.00000000000E+00 0.  1.
          6    1    1    2  502    0 -0.19778927690E+03 -0.45083565012E+03  0.55179799711E+03  0.75923541217E+03  0.17200000000E+03 0. -1.
         -6    1    1    2    0  501  0.19778927690E+03  0.45083565012E+03 -0.12588085625E+03  0.53647308549E+03  0.17200000000E+03 0.  1.
</event>
<event>
 4    1  0.3141404E-002  0.3132748E+03  0.7818608E-02  0.1078787E+00
          1   -1    0    0  502    0  0.00000000000E+00  0.00000000000E+00  0.95706306913E+03  0.95706306913E+03  0.00000000000E+00 0. -1.
         -1   -1    0    0    0  501 -0.00000000000E+00 -0.00000000000E+00 -0.13683542704E+03  0.13683542704E+03  0.00000000000E+00 0.  1.
          6    1    1    2  502    0  0.18151652484E+03  0.18870304873E+03  0.13630941015E+03  0.34164505658E+03  0.17200000000E+03 0.  1.
         -6    1    1    2    0  501 -0.18151652484E+03 -0.18870304873E+03  0.68391823194E+03  0.75225343958E+03  0.17200000000E+03 0. -1.
</event>
<event>
 4    1  0.3141404E-002  0.2145780E+03  0.7818608E-02  0.1137991E+00
         -2   -1    0    0    0  501 -0.00000000000E+00  0.00000000000E+00  0.15069676784E+03  0.15069676784E+03  0.00000000000E+00 0.  1.
          2   -1    0    0  502    0  0.00000000000E+00 -0.00000000000E+00 -0.32664787779E+03  0.32664787779E+03  0.00000000000E+00 0. -1.
          6    1    1    2  502    0  0.32014991964E+02 -0.12423664560E+03 -0.14864879180E+03  0.26103671605E+03  0.17200000000E+03 0. -1.
         -6    1    1    2    0  501 -0.32014991964E+02  0.12423664560E+03 -0.27302318152E+02  0.21630792958E+03  0.17200000000E+03 0.  1.
</event>
<event>
 4    1  0.3141404E-002  0.2711846E+03  0.7818608E-02  0.1100604E+00
         -1   -1    0    0    0  501 -0.00000000000E+00  0.00000000000E+00  0.97244777415E+02  0.97244777415E+02  0.00000000000E+00 0.  1.
          1   -1    0    0  502    0  0.00000000000E+00 -0.00000000000E+00 -0.87564746026E+03  0.87564746026E+03  0.00000000000E+00 0. -1.
          6    1    1    2  502    0 -0.18469596976E+02  0.20884440317E+03 -0.56882864765E+03  0.63016437628E+03  0.17200000000E+03 0. -1.
         -6    1    1    2    0  501  0.18469596976E+02 -0.20884440317E+03 -0.20957403519E+03  0.34272786139E+03  0.17200000000E+03 0.  1.
</event>
<event>
 4    1  0.3141404E-002  0.1938142E+03  0.7818608E-02  0.1155065E+00
         -4   -1    0    0    0  501 -0.00000000000E+00  0.00000000000E+00  0.12199889146E+04  0.12199889146E+04  0.00000000000E+00 0.  1.
          4   -1    0    0  502    0  0.00000000000E+00 -0.00000000000E+00 -0.63070803654E+02  0.63070803654E+02  0.00000000000E+00 0. -1.
          6    1    1    2  502    0 -0.32938929416E+02 -0.83035946128E+02  0.11950184235E+03  0.22769416274E+03  0.17200000000E+03 0. -1.
         -6    1    1    2    0  501  0.32938929416E+02  0.83035946128E+02  0.10374162686E+04  0.10553655555E+04  0.17200000000E+03 0.  1.
</event>
<event>
 4    1  0.3141404E-002  0.2162459E+03  0.7818608E-02  0.1136713E+00
          2   -1    0    0  502    0  0.00000000000E+00  0.00000000000E+00  0.33464966269E+04  0.33464966269E+04  0.00000000000E+00 0. -1.
         -2   -1    0    0    0  501 -0.00000000000E+00 -0.00000000000E+00 -0.14205445949E+02  0.14205445949E+02  0.00000000000E+00 0.  1.
          6    1    1    2  502    0  0.10493536184E+03  0.78529214756E+02  0.18808627651E+04  0.18932530229E+04  0.17200000000E+03 0.  1.
         -6    1    1    2    0  501 -0.10493536184E+03 -0.78529214756E+02  0.14514284158E+04  0.14674490499E+04  0.17200000000E+03 0.  1.
</event>
<event>
 4    1  0.3141404E-002  0.1766157E+03  0.7818608E-02  0.1171119E+00
         -1   -1    0    0    0  501 -0.00000000000E+00  0.00000000000E+00  0.50417814941E+03  0.50417814941E+03  0.00000000000E+00 0.  1.
          1   -1    0    0  502    0  0.00000000000E+00 -0.00000000000E+00 -0.92215469686E+02  0.92215469686E+02  0.00000000000E+00 0. -1.
          6    1    1    2  502    0  0.47357729996E+00  0.40110804287E+02  0.34919268120E+02  0.18003459718E+03  0.17200000000E+03 0. -1.
         -6    1    1    2    0  501 -0.47357729996E+00 -0.40110804287E+02  0.37704341160E+03  0.41635902191E+03  0.17200000000E+03 0.  1.
</event>
<event>
 4    1  0.3141404E-002  0.1851376E+03  0.7818608E-02  0.1162921E+00
          1   -1    0    0  502    0  0.00000000000E+00  0.00000000000E+00  0.30708819815E+03  0.30708819815E+03  0.00000000000E+00 0. -1.
         -1   -1    0    0    0  501 -0.00000000000E+00 -0.00000000000E+00 -0.18183711220E+03  0.18183711220E+03  0.00000000000E+00 0.  1.
          6    1    1    2  502    0  0.19074551719E+02 -0.65788336631E+02  0.21454214578E+03  0.28338009117E+03  0.17200000000E+03 0. -1.
         -6    1    1    2    0  501 -0.19074551719E+02  0.65788336631E+02 -0.89291059833E+02  0.20554521918E+03  0.17200000000E+03 0.  1.
</event>
<event>
 4    1  0.3141404E-002  0.2208883E+03  0.7818608E-02  0.1133223E+00
          2   -1    0    0  502    0  0.00000000000E+00  0.00000000000E+00  0.98204305185E+03  0.98204305185E+03  0.00000000000E+00 0. -1.
         -2   -1    0    0    0  501 -0.00000000000E+00 -0.00000000000E+00 -0.50537477397E+02  0.50537477397E+02  0.00000000000E+00 0.  1.
          6    1    1    2  502    0 -0.83001242530E+02  0.11098849291E+03  0.53285371819E+03  0.57682296834E+03  0.17200000000E+03 0. -1.
         -6    1    1    2    0  501  0.83001242530E+02 -0.11098849291E+03  0.39865185626E+03  0.45575756090E+03  0.17200000000E+03 0.  1.
</event>
<event>
 4    1  0.3141404E-002  0.2430684E+03  0.7818608E-02  0.1117765E+00
          2   -1    0    0  502    0  0.00000000000E+00  0.00000000000E+00  0.84711940646E+03  0.84711940646E+03  0.00000000000E+00 0. -1.
         -2   -1    0    0    0  501 -0.00000000000E+00 -0.00000000000E+00 -0.19038672309E+03  0.19038672309E+03  0.00000000000E+00 0.  1.
          6    1    1    2  502    0 -0.11809348472E+03  0.12470843967E+03 -0.84577767675E+02  0.25736290495E+03  0.17200000000E+03 0.  1.
         -6    1    1    2    0  501  0.11809348472E+03 -0.12470843967E+03  0.74131045104E+03  0.78014322460E+03  0.17200000000E+03 0.  1.
</event>
<event>
 4    1  0.3141404E-002  0.2912469E+03  0.7818608E-02  0.1089700E+00
         -1   -1    0    0    0  501 -0.00000000000E+00  0.00000000000E+00  0.10693236490E+03  0.10693236490E+03  0.00000000000E+00 0.  1.
          1   -1    0    0  502    0  0.00000000000E+00 -0.00000000000E+00 -0.10600346471E+04  0.10600346471E+04  0.00000000000E+00 0. -1.
          6    1    1    2  502    0  0.11187668523E+03  0.20669869019E+03 -0.76926553421E+03  0.82255346535E+03  0.17200000000E+03 0. -1.
         -6    1    1    2    0  501 -0.11187668523E+03 -0.20669869019E+03 -0.18383674802E+03  0.34441354670E+03  0.17200000000E+03 0.  1.
</event>
<event>
 4    1  0.3141404E-002  0.3014858E+03  0.7818608E-02  0.1084500E+00
         -2   -1    0    0    0  501 -0.00000000000E+00  0.00000000000E+00  0.37262102492E+03  0.37262102492E+03  0.00000000000E+00 0.  1.
          2   -1    0    0  502    0  0.00000000000E+00 -0.00000000000E+00 -0.63398506757E+03  0.63398506757E+03  0.00000000000E+00 0. -1.
          6    1    1    2  502    0 -0.23729503925E+03  0.70715811392E+02 -0.52545978774E+03  0.60580661119E+03  0.17200000000E+03 0. -1.
         -6    1    1    2    0  501  0.23729503925E+03 -0.70715811392E+02  0.26409574509E+03  0.40079948130E+03  0.17200000000E+03 0.  1.
</event>
<event>
 4    1  0.3141404E-002  0.1898819E+03  0.7818608E-02  0.1158568E+00
          2   -1    0    0  502    0  0.00000000000E+00  0.00000000000E+00  0.18787423031E+04  0.18787423031E+04  0.00000000000E+00 0. -1.
         -2   -1    0    0    0  501 -0.00000000000E+00 -0.00000000000E+00 -0.19282006075E+02  0.19282006075E+02  0.00000000000E+00 0.  1.
          6    1    1    2  502    0 -0.79033348885E+02  0.14994911218E+02  0.99489444094E+03  0.10128524405E+04  0.17200000000E+03 0. -1.
         -6    1    1    2    0  501  0.79033348885E+02 -0.14994911218E+02  0.86456585611E+03  0.88517186871E+03  0.17200000000E+03 0.  1.
</event>
<event>
 4    1  0.3141404E-002  0.3605298E+03  0.7818608E-02  0.1058374E+00
          2   -1    0    0  502    0  0.00000000000E+00  0.00000000000E+00  0.25912135671E+04  0.25912135671E+04  0.00000000000E+00 0. -1.
         -2   -1    0    0    0  501 -0.00000000000E+00 -0.00000000000E+00 -0.53760915941E+02  0.53760915941E+02  0.00000000000E+00 0.  1.
          6    1    1    2  502    0  0.27777639528E+03 -0.15244007224E+03  0.16108750988E+04  0.16507271989E+04  0.17200000000E+03 0. -1.
         -6    1    1    2    0  501 -0.27777639528E+03  0.15244007224E+03  0.92657755235E+03  0.99424728409E+03  0.17200000000E+03 0.  1.
</event>
<event>
 4    1  0.3141404E-002  0.1833658E+03  0.7818608E-02  0.1164585E+00
          1   -1    0    0  502    0  0.00000000000E+00  0.00000000000E+00  0.10038481702E+04  0.10038481702E+04  0.00000000000E+00 0. -1.
         -1   -1    0    0    0  501 -0.00000000000E+00 -0.00000000000E+00 -0.76807251513E+02  0.76807251513E+02  0.00000000000E+00 0.  1.
          6    1    1    2  502    0 -0.53837510363E+02  0.33771682477E+02  0.86927739857E+03  0.88840655092E+03  0.17200000000E+03 0.  1.
         -6    1    1    2    0  501  0.53837510363E+02 -0.33771682477E+02  0.57763520102E+02  0.19224887077E+03  0.17200000000E+03 0.  1.
</event>
<event>
 4    1  0.3141404E-002  0.1950632E+03  0.7818608E-02  0.1153972E+00
          2   -1    0    0  502    0  0.00000000000E+00  0.00000000000E+00  0.38673731554E+03  0.38673731554E+03  0.00000000000E+00 0. -1.
         -2   -1    0    0    0  501 -0.00000000000E+00 -0.00000000000E+00 -0.10863185264E+03  0.10863185264E+03  0.00000000000E+00 0.  1.
          6    1    1    2  502    0  0.77375635716E+02  0.49786001816E+02  0.21511847168E+03  0.29038869096E+03  0.17200000000E+03 0. -1.
         -6    1    1    2    0  501 -0.77375635716E+02 -0.49786001816E+02  0.62986991220E+02  0.20498047722E+03  0.17200000000E+03 0.  1.
</event>
<event>
 4    1  0.3141404E-002  0.2774262E+03  0.7818608E-02  0.1097103E+00
          2   -1    0    0  502    0  0.00000000000E+00  0.00000000000E+00  0.17014533226E+04  0.17014533226E+04  0.00000000000E+00 0. -1.
         -2   -1    0    0    0  501 -0.00000000000E+00 -0.00000000000E+00 -0.51450149588E+02  0.51450149588E+02  0.00000000000E+00 0.  1.
          6    1    1    2  502    0 -0.12929946084E+03 -0.17510832958E+03  0.11296225067E+04  0.11631905628E+04  0.17200000000E+03 0. -1.
         -6    1    1    2    0  501  0.12929946084E+03  0.17510832958E+03  0.52038066623E+03  0.58971290935E+03  0.17200000000E+03 0.  1.
</event>
<event>
 4    1  0.3141404E-002  0.3116151E+03  0.7818608E-02  0.1079574E+00
         -1   -1    0    0    0  501 -0.00000000000E+00  0.00000000000E+00  0.16615698664E+03  0.16615698664E+03  0.00000000000E+00 0.  1.
          1   -1    0    0  502    0  0.00000000000E+00 -0.00000000000E+00 -0.91834129932E+03  0.91834129932E+03  0.00000000000E+00 0. -1.
          6    1    1    2  502    0 -0.18156262821E+03 -0.18588962800E+03 -0.70307490718E+03  0.76903723373E+03  0.17200000000E+03 0. -1.
         -6    1    1    2    0  501  0.18156262821E+03  0.18588962800E+03 -0.49109405509E+02  0.31546105223E+03  0.17200000000E+03 0.  1.
</event>
<event>
 4    1  0.3141404E-002  0.2428084E+03  0.7818608E-02  0.1117936E+00
          2   -1    0    0  502    0  0.00000000000E+00  0.00000000000E+00  0.85444552327E+02  0.85444552327E+02  0.00000000000E+00 0. -1.
         -2   -1    0    0    0  501 -0.00000000000E+00 -0.00000000000E+00 -0.96296017129E+03  0.96296017129E+03  0.00000000000E+00 0.  1.
          6    1    1    2  502    0  0.12845332108E+03  0.11345333796E+03 -0.15966275705E+03  0.29059957258E+03  0.17200000000E+03 0. -1.
         -6    1    1    2    0  501 -0.12845332108E+03 -0.11345333796E+03 -0.71785286190E+03  0.75780515104E+03  0.17200000000E+03 0.  1.
</event>
<event>
 4    1  0.3141404E-002  0.1853913E+03  0.7818608E-02  0.1162685E+00
         -1   -1    0    0    0  501 -0.00000000000E+00  0.00000000000E+00  0.34575546409E+03  0.34575546409E+03  0.00000000000E+00 0.  1.
          1   -1    0    0  502    0  0.00000000000E+00 -0.00000000000E+00 -0.99680072875E+02  0.99680072875E+02  0.00000000000E+00 0. -1.
          6    1    1    2  502    0  0.68904850536E+02  0.61699470652E+01  0.11134567620E+03  0.21625865597E+03  0.17200000000E+03 0.  1.
         -6    1    1    2    0  501 -0.68904850536E+02 -0.61699470652E+01  0.13472971501E+03  0.22917688099E+03  0.17200000000E+03 0.  1.
</event>
<event>
 4    1  0.3141404E-002  0.2087544E+03  0.7818608E-02  0.1142556E+00
         -2   -1    0    0    0  501 -0.00000000000E+00  0.00000000000E+00  0.28646388395E+02  0.28646388395E+02  0.00000000000E+00 0.  1.
          2   -1    0    0  502    0  0.00000000000E+00 -0.00000000000E+00 -0.15509850423E+04  0.15509850423E+04  0.00000000000E+00 0. -1.
          6    1    1    2  502    0 -0.22223967378E+02 -0.11619167816E+03 -0.65181582987E+03  0.68442843809E+03  0.17200000000E+03 0.  1.
         -6    1    1    2    0  501  0.22223967378E+02  0.11619167816E+03 -0.87052282406E+03  0.89520299262E+03  0.17200000000E+03 0. -1.
</event>
<event>
 4    1  0.3141404E-002  0.3080939E+03  0.7818608E-02  0.1081263E+00
         -2   -1    0    0    0  501 -0.00000000000E+00  0.00000000000E+00  0.35488907774E+02  0.35488907774E+02  0.00000000000E+00 0.  1.
          2   -1    0    0  502    0  0.00000000000E+00 -0.00000000000E+00 -0.34292803188E+04  0.34292803188E+04  0.00000000000E+00 0. -1.
          6    1    1    2  502    0 -0.34215969433E+02 -0.25331233813E+03 -0.25095354555E+04  0.25283769647E+04  0.17200000000E+03 0.  1.
         -6    1    1    2    0  501  0.34215969433E+02  0.25331233813E+03 -0.88425595552E+03  0.93639226187E+03  0.17200000000E+03 0.  1.
</event>
<event>
 4    1  0.3141404E-002  0.2097764E+03  0.7818608E-02  0.1141743E+00
         -2   -1    0    0    0  501 -0.00000000000E+00  0.00000000000E+00  0.65836473948E+02  0.65836473948E+02  0.00000000000E+00 0.  1.
          2   -1    0    0  502    0  0.00000000000E+00 -0.00000000000E+00 -0.12265631846E+04  0.12265631846E+04  0.00000000000E+00 0. -1.
          6    1    1    2  502    0  0.77471264033E+02  0.91762425730E+02 -0.10162728441E+04  0.10376977561E+04  0.17200000000E+03 0. -1.
         -6    1    1    2    0  501 -0.77471264033E+02 -0.91762425730E+02 -0.14445386664E+03  0.25470190245E+03  0.17200000000E+03 0.  1.
</event>
<event>
 4    1  0.3141404E-002  0.2115600E+03  0.7818608E-02  0.1140337E+00
         -2   -1    0    0    0  501 -0.00000000000E+00  0.00000000000E+00  0.20561183525E+02  0.20561183525E+02  0.00000000000E+00 0.  1.
          2   -1    0    0  502    0  0.00000000000E+00 -0.00000000000E+00 -0.23975561637E+04  0.23975561637E+04  0.00000000000E+00 0. -1.
          6    1    1    2  502    0 -0.34120456761E+02 -0.11836140156E+03 -0.15553718500E+04  0.15696939889E+04  0.17200000000E+03 0. -1.
         -6    1    1    2    0  501  0.34120456761E+02  0.11836140156E+03 -0.82162313015E+03  0.84842335832E+03  0.17200000000E+03 0. -1.
</event>
<event>
 4    1  0.3141404E-002  0.1936316E+03  0.7818608E-02  0.1155226E+00
          2   -1    0    0  502    0  0.00000000000E+00  0.00000000000E+00  0.14620115951E+04  0.14620115951E+04  0.00000000000E+00 0. -1.
         -2   -1    0    0    0  501 -0.00000000000E+00 -0.00000000000E+00 -0.28250554319E+02  0.28250554319E+02  0.00000000000E+00 0.  1.
          6    1    1    2  502    0 -0.51873091558E+02  0.72238371903E+02  0.94317514286E+03  0.96284606772E+03  0.17200000000E+03 0. -1.
         -6    1    1    2    0  501  0.51873091558E+02 -0.72238371903E+02  0.49058589792E+03  0.52741608171E+03  0.17200000000E+03 0. -1.
</event>
<event>
 4    1  0.3141404E-002  0.5616385E+03  0.7818608E-02  0.9988354E-01
         -1   -1    0    0    0  501 -0.00000000000E+00  0.00000000000E+00  0.13808143267E+03  0.13808143267E+03  0.00000000000E+00 0.  1.
          1   -1    0    0  502    0  0.00000000000E+00 -0.00000000000E+00 -0.25427676158E+04  0.25427676158E+04  0.00000000000E+00 0. -1.
          6    1    1    2  502    0 -0.49547229907E+03 -0.20090049207E+03 -0.16295912275E+04  0.17236604583E+04  0.17200000000E+03 0. -1.
         -6    1    1    2    0  501  0.49547229907E+03  0.20090049207E+03 -0.77509495566E+03  0.95718859017E+03  0.17200000000E+03 0.  1.
</event>
<event>
 4    1  0.3141404E-002  0.4277641E+03  0.7818608E-02  0.1034569E+00
          2   -1    0    0  502    0  0.00000000000E+00  0.00000000000E+00  0.73186058128E+03  0.73186058128E+03  0.00000000000E+00 0. -1.
         -2   -1    0    0    0  501 -0.00000000000E+00 -0.00000000000E+00 -0.17888587913E+04  0.17888587913E+04  0.00000000000E+00 0.  1.
          6    1    1    2  502    0 -0.10491025498E+03 -0.37734865003E+03  0.64046877189E+03  0.77018336326E+03  0.17200000000E+03 0. -1.
         -6    1    1    2    0  501  0.10491025498E+03  0.37734865003E+03 -0.16974669819E+04  0.17505360093E+04  0.17200000000E+03 0.  1.
</event>
<event>
 4    1  0.3141404E-002  0.1799743E+03  0.7818608E-02  0.1167828E+00
          1   -1    0    0  502    0  0.00000000000E+00  0.00000000000E+00  0.14979619241E+03  0.14979619241E+03  0.00000000000E+00 0. -1.
         -1   -1    0    0    0  501 -0.00000000000E+00 -0.00000000000E+00 -0.24695013284E+03  0.24695013284E+03  0.00000000000E+00 0.  1.
          6    1    1    2  502    0 -0.34206187428E+01  0.52868343763E+02  0.21386956489E+02  0.18124062545E+03  0.17200000000E+03 0.  1.
         -6    1    1    2    0  501  0.34206187428E+01 -0.52868343763E+02 -0.11854089692E+03  0.21550569980E+03  0.17200000000E+03 0.  1.
</event>
<event>
 4    1  0.3141404E-002  0.1813016E+03  0.7818608E-02  0.1166549E+00
          1   -1    0    0  502    0  0.00000000000E+00  0.00000000000E+00  0.74881826562E+03  0.74881826562E+03  0.00000000000E+00 0. -1.
         -1   -1    0    0    0  501 -0.00000000000E+00 -0.00000000000E+00 -0.44398241508E+02  0.44398241508E+02  0.00000000000E+00 0.  1.
          6    1    1    2  502    0  0.56144727589E+02  0.11576772335E+02  0.39438574970E+03  0.43406263564E+03  0.17200000000E+03 0.  1.
         -6    1    1    2    0  501 -0.56144727589E+02 -0.11576772335E+02  0.31003427441E+03  0.35915387149E+03  0.17200000000E+03 0.  1.
</event>
<event>
 4    1  0.3141404E-002  0.2794759E+03  0.7818608E-02  0.1095976E+00
          1   -1    0    0  502    0  0.00000000000E+00  0.00000000000E+00  0.13605311511E+04  0.13605311511E+04  0.00000000000E+00 0. -1.
         -1   -1    0    0    0  501 -0.00000000000E+00 -0.00000000000E+00 -0.62632302824E+02  0.62632302824E+02  0.00000000000E+00 0.  1.
          6    1    1    2  502    0 -0.10918297229E+03  0.19131614577E+03  0.44345668465E+03  0.52417613474E+03  0.17200000000E+03 0. -1.
         -6    1    1    2    0  501  0.10918297229E+03 -0.19131614577E+03  0.85444216361E+03  0.89898731917E+03  0.17200000000E+03 0.  1.
</event>
<event>
 4    1  0.3141404E-002  0.2153115E+03  0.7818608E-02  0.1137428E+00
          3   -1    0    0  502    0  0.00000000000E+00  0.00000000000E+00  0.28640477607E+03  0.28640477607E+03  0.00000000000E+00 0. -1.
         -3   -1    0    0    0  501 -0.00000000000E+00 -0.00000000000E+00 -0.28298182582E+03  0.28298182582E+03  0.00000000000E+00 0.  1.
          6    1    1    2  502    0  0.62734280218E+02 -0.11331132785E+03  0.18796279243E+03  0.28581297779E+03  0.17200000000E+03 0. -1.
         -6    1    1    2    0  501 -0.62734280218E+02  0.11331132785E+03 -0.18453984218E+03  0.28357362410E+03  0.17200000000E+03 0. -1.
</event>
<event>
 4    1  0.3141404E-002  0.1767262E+03  0.7818608E-02  0.1171010E+00
          1   -1    0    0  502    0  0.00000000000E+00  0.00000000000E+00  0.87692973354E+02  0.87692973354E+02  0.00000000000E+00 0. -1.
         -1   -1    0    0    0  501 -0.00000000000E+00 -0.00000000000E+00 -0.44556758355E+03  0.44556758355E+03  0.00000000000E+00 0.  1.
          6    1    1    2  502    0 -0.18728402364E+02 -0.36019473777E+02 -0.29837894124E+03  0.34678833331E+03  0.17200000000E+03 0.  1.
         -6    1    1    2    0  501  0.18728402364E+02  0.36019473777E+02 -0.59495668955E+02  0.18647222359E+03  0.17200000000E+03 0.  1.
</event>
<event>
 4    1  0.3141404E-002  0.2213246E+03  0.7818608E-02  0.1132899E+00
          2   -1    0    0  502    0  0.00000000000E+00  0.00000000000E+00  0.55699047882E+03  0.55699047882E+03  0.00000000000E+00 0. -1.
         -2   -1    0    0    0  501 -0.00000000000E+00 -0.00000000000E+00 -0.11294797538E+03  0.11294797538E+03  0.00000000000E+00 0.  1.
          6    1    1    2  502    0  0.81236715934E+02  0.11314236799E+03  0.64419727589E+02  0.23050922054E+03  0.17200000000E+03 0. -1.
         -6    1    1    2    0  501 -0.81236715934E+02 -0.11314236799E+03  0.37962277585E+03  0.43942923366E+03  0.17200000000E+03 0. -1.
</event>
<event>
 4    1  0.3141404E-002  0.2447810E+03  0.7818608E-02  0.1116648E+00
         -1   -1    0    0    0  501 -0.00000000000E+00  0.00000000000E+00  0.13754596329E+03  0.13754596329E+03  0.00000000000E+00 0.  1.
          1   -1    0    0  502    0  0.00000000000E+00 -0.00000000000E+00 -0.43849873993E+03  0.43849873993E+03  0.00000000000E+00 0. -1.
          6    1    1    2  502    0  0.10659709274E+03  0.13773457624E+03 -0.17381384758E+03  0.30021493514E+03  0.17200000000E+03 0. -1.
         -6    1    1    2    0  501 -0.10659709274E+03 -0.13773457624E+03 -0.12713892906E+03  0.27582976807E+03  0.17200000000E+03 0.  1.
</event>
<event>
 4    1  0.3141404E-002  0.2549281E+03  0.7818608E-02  0.1110229E+00
          2   -1    0    0  502    0  0.00000000000E+00  0.00000000000E+00  0.13255067804E+04  0.13255067804E+04  0.00000000000E+00 0. -1.
         -2   -1    0    0    0  501 -0.00000000000E+00 -0.00000000000E+00 -0.18782819354E+03  0.18782819354E+03  0.00000000000E+00 0.  1.
          6    1    1    2  502    0 -0.16606877274E+03 -0.88461954694E+02 -0.81616904344E+02  0.26767456693E+03  0.17200000000E+03 0.  1.
         -6    1    1    2    0  501  0.16606877274E+03  0.88461954694E+02  0.12192954912E+04  0.12456604070E+04  0.17200000000E+03 0. -1.
</event>
<event>
 4    1  0.3141404E-002  0.1743824E+03  0.7818608E-02  0.1173353E+00
         -2   -1    0    0    0  501 -0.00000000000E+00  0.00000000000E+00  0.59886484043E+02  0.59886484043E+02  0.00000000000E+00 0.  1.
          2   -1    0    0  502    0  0.00000000000E+00 -0.00000000000E+00 -0.54618133006E+03  0.54618133006E+03  0.00000000000E+00 0. -1.
          6    1    1    2  502    0  0.19793248258E+02 -0.20819285409E+02 -0.16279654946E+03  0.23856221796E+03  0.17200000000E+03 0.  1.
         -6    1    1    2    0  501 -0.19793248258E+02  0.20819285409E+02 -0.32349829655E+03  0.36750559614E+03  0.17200000000E+03 0. -1.
</event>
<event>
 4    1  0.3141404E-002  0.2733684E+03  0.7818608E-02  0.1099367E+00
         -2   -1    0    0    0  501 -0.00000000000E+00  0.00000000000E+00  0.19147799427E+03  0.19147799427E+03  0.00000000000E+00 0.  1.
          2   -1    0    0  502    0  0.00000000000E+00 -0.00000000000E+00 -0.57961038658E+03  0.57961038658E+03  0.00000000000E+00 0. -1.
          6    1    1    2  502    0  0.12992776544E+03 -0.16812217002E+03 -0.41441703440E+03  0.49645922963E+03  0.17200000000E+03 0. -1.
         -6    1    1    2    0  501 -0.12992776544E+03  0.16812217002E+03  0.26284642091E+02  0.27462915121E+03  0.17200000000E+03 0. -1.
</event>
<event>
 4    1  0.3141404E-002  0.3157023E+03  0.7818608E-02  0.1077644E+00
         -2   -1    0    0    0  501 -0.00000000000E+00  0.00000000000E+00  0.31918397844E+03  0.31918397844E+03  0.00000000000E+00 0.  1.
          2   -1    0    0  502    0  0.00000000000E+00 -0.00000000000E+00 -0.41555355592E+03  0.41555355592E+03  0.00000000000E+00 0. -1.
          6    1    1    2  502    0  0.24922936409E+03 -0.89267313644E+02 -0.23134383465E+03  0.39139225726E+03  0.17200000000E+03 0. -1.
         -6    1    1    2    0  501 -0.24922936409E+03  0.89267313644E+02  0.13497425717E+03  0.34334527710E+03  0.17200000000E+03 0.  1.
</event>
<event>
 4    1  0.3141404E-002  0.2052020E+03  0.7818608E-02  0.1145423E+00
         -2   -1    0    0    0  501 -0.00000000000E+00  0.00000000000E+00  0.13539967443E+02  0.13539967443E+02  0.00000000000E+00 0.  1.
          2   -1    0    0  502    0  0.00000000000E+00 -0.00000000000E+00 -0.37091213111E+04  0.37091213111E+04  0.00000000000E+00 0. -1.
          6    1    1    2  502    0 -0.95169214941E+02 -0.58878692884E+02 -0.25959315190E+04  0.26040292494E+04  0.17200000000E+03 0. -1.
         -6    1    1    2    0  501  0.95169214941E+02  0.58878692884E+02 -0.10996498247E+04  0.11186320292E+04  0.17200000000E+03 0.  1.
</event>
<event>
 4    1  0.3141404E-002  0.3049880E+03  0.7818608E-02  0.1082773E+00
          2   -1    0    0  502    0  0.00000000000E+00  0.00000000000E+00  0.11270795693E+04  0.11270795693E+04  0.00000000000E+00 0. -1.
         -2   -1    0    0    0  501 -0.00000000000E+00 -0.00000000000E+00 -0.12922496488E+03  0.12922496488E+03  0.00000000000E+00 0.  1.
          6    1    1    2  502    0 -0.23208932578E+03 -0.97817401632E+02  0.87652338455E+03  0.92806839343E+03  0.17200000000E+03 0. -1.
         -6    1    1    2    0  501  0.23208932578E+03  0.97817401632E+02  0.12133121991E+03  0.32823614081E+03  0.17200000000E+03 0.  1.
</event>
<event>
 4    1  0.3141404E-002  0.2371846E+03  0.7818608E-02  0.1121683E+00
         -1   -1    0    0    0  501 -0.00000000000E+00  0.00000000000E+00  0.14773548452E+04  0.14773548452E+04  0.00000000000E+00 0.  1.
          1   -1    0    0  502    0  0.00000000000E+00 -0.00000000000E+00 -0.43150980264E+02  0.43150980264E+02  0.00000000000E+00 0. -1.
          6    1    1    2  502    0 -0.54681973230E+02  0.15389088319E+03  0.45646133567E+03  0.51440594193E+03  0.17200000000E+03 0. -1.
         -6    1    1    2    0  501  0.54681973230E+02 -0.15389088319E+03  0.97774252927E+03  0.10060998835E+04  0.17200000000E+03 0. -1.
</event>
<event>
 4    1  0.3141404E-002  0.1764813E+03  0.7818608E-02  0.1171253E+00
          1   -1    0    0  502    0  0.00000000000E+00  0.00000000000E+00  0.54668237608E+02  0.54668237608E+02  0.00000000000E+00 0. -1.
         -1   -1    0    0    0  501 -0.00000000000E+00 -0.00000000000E+00 -0.57359526230E+03  0.57359526230E+03  0.00000000000E+00 0.  1.
          6    1    1    2  502    0 -0.39513232808E+02 -0.59803039968E+00 -0.23364726585E+03  0.29280829572E+03  0.17200000000E+03 0. -1.
         -6    1    1    2    0  501  0.39513232808E+02  0.59803039968E+00 -0.28527975884E+03  0.33545520418E+03  0.17200000000E+03 0.  1.
</event>
<event>
 4    1  0.3141404E-002  0.5258687E+03  0.7818608E-02  0.1007239E+00
         -2   -1    0    0    0  501 -0.00000000000E+00  0.00000000000E+00  0.18128056767E+03  0.18128056767E+03  0.00000000000E+00 0.  1.
          2   -1    0    0  502    0  0.00000000000E+00 -0.00000000000E+00 -0.17030303977E+04  0.17030303977E+04  0.00000000000E+00 0. -1.
          6    1    1    2  502    0  0.21332968469E+02  0.49648647573E+03 -0.45665653035E+03  0.69647189666E+03  0.17200000000E+03 0. -1.
         -6    1    1    2    0  501 -0.21332968469E+02 -0.49648647573E+03 -0.10650932997E+04  0.11878390687E+04  0.17200000000E+03 0.  1.
</event>
<event>
 4    1  0.3141404E-002  0.1017876E+04  0.7818608E-02  0.9289154E-01
         -1   -1    0    0    0  501 -0.00000000000E+00  0.00000000000E+00  0.89826446055E+03  0.89826446055E+03  0.00000000000E+00 0.  1.
          1   -1    0    0  502    0  0.00000000000E+00 -0.00000000000E+00 -0.11910887875E+04  0.11910887875E+04  0.00000000000E+00 0. -1.
          6    1    1    2  502    0  0.94249195164E+03 -0.34379612663E+03  0.39383206227E+02  0.10186372723E+04  0.17200000000E+03 0. -1.
         -6    1    1    2    0  501 -0.94249195164E+03  0.34379612663E+03 -0.33220753315E+03  0.10707159757E+04  0.17200000000E+03 0.  1.
</event>
<event>
 4    1  0.3141404E-002  0.2253031E+03  0.7818608E-02  0.1129990E+00
          1   -1    0    0  502    0  0.00000000000E+00  0.00000000000E+00  0.47492825248E+04  0.47492825248E+04  0.00000000000E+00 0. -1.
         -1   -1    0    0    0  501 -0.00000000000E+00 -0.00000000000E+00 -0.17930295650E+02  0.17930295650E+02  0.00000000000E+00 0.  1.
          6    1    1    2  502    0 -0.14478725481E+03 -0.14633151698E+02  0.38805333483E+04  0.38870683742E+04  0.17200000000E+03 0. -1.
         -6    1    1    2    0  501  0.14478725481E+03  0.14633151698E+02  0.85081888079E+03  0.88014444621E+03  0.17200000000E+03 0.  1.
</event>
<event>
 4    1  0.3141404E-002  0.2089747E+03  0.7818608E-02  0.1142380E+00
         -1   -1    0    0    0  501 -0.00000000000E+00  0.00000000000E+00  0.57946472879E+03  0.57946472879E+03  0.00000000000E+00 0.  1.
          1   -1    0    0  502    0  0.00000000000E+00 -0.00000000000E+00 -0.15018598575E+03  0.15018598575E+03  0.00000000000E+00 0. -1.
          6    1    1    2  502    0  0.31928073608E+01  0.11864329223E+03 -0.42866244286E+02  0.21332590023E+03  0.17200000000E+03 0. -1.
         -6    1    1    2    0  501 -0.31928073608E+01 -0.11864329223E+03  0.47214498733E+03  0.51632481431E+03  0.17200000000E+03 0.  1.
</event>
<event>
 4    1  0.3141404E-002  0.2163218E+03  0.7818608E-02  0.1136655E+00
          1   -1    0    0  502    0  0.00000000000E+00  0.00000000000E+00  0.38586566263E+03  0.38586566263E+03  0.00000000000E+00 0. -1.
         -1   -1    0    0    0  501 -0.00000000000E+00 -0.00000000000E+00 -0.15719021070E+03  0.15719021070E+03  0.00000000000E+00 0.  1.
          6    1    1    2  502    0  0.12057014530E+03  0.51710542430E+02  0.24413101334E+03  0.32618260501E+03  0.17200000000E+03 0. -1.
         -6    1    1    2    0  501 -0.12057014530E+03 -0.51710542430E+02 -0.15455561412E+02  0.21687326833E+03  0.17200000000E+03 0. -1.
</event>
<event>
 4    1  0.3141404E-002  0.1839142E+03  0.7818608E-02  0.1164068E+00
         -1   -1    0    0    0  501 -0.00000000000E+00  0.00000000000E+00  0.62720841733E+03  0.62720841733E+03  0.00000000000E+00 0.  1.
          1   -1    0    0  502    0  0.00000000000E+00 -0.00000000000E+00 -0.57121435114E+02  0.57121435114E+02  0.00000000000E+00 0. -1.
          6    1    1    2  502    0  0.38429316937E+02 -0.52570118426E+02  0.20414717485E+03  0.27477354085E+03  0.17200000000E+03 0.  1.
         -6    1    1    2    0  501 -0.38429316937E+02  0.52570118426E+02  0.36593980737E+03  0.40955631160E+03  0.17200000000E+03 0.  1.
</event>
<event>
 4    1  0.3141404E-002  0.3013842E+03  0.7818608E-02  0.1084551E+00
         -2   -1    0    0    0  501 -0.00000000000E+00  0.00000000000E+00  0.88319897453E+02  0.88319897453E+02  0.00000000000E+00 0.  1.
          2   -1    0    0  502    0  0.00000000000E+00 -0.00000000000E+00 -0.12811770303E+04  0.12811770303E+04  0.00000000000E+00 0. -1.
          6    1    1    2  502    0 -0.15074011483E+02  0.24702475526E+03 -0.29230243823E+03  0.41984898587E+03  0.17200000000E+03 0.  1.
         -6    1    1    2    0  501  0.15074011483E+02 -0.24702475526E+03 -0.90055469458E+03  0.94964794185E+03  0.17200000000E+03 0. -1.
</event>
<event>
 4    1  0.3141404E-002  0.2523551E+03  0.7818608E-02  0.1111825E+00
          1   -1    0    0  502    0  0.00000000000E+00  0.00000000000E+00  0.11679073455E+04  0.11679073455E+04  0.00000000000E+00 0. -1.
         -1   -1    0    0    0  501 -0.00000000000E+00 -0.00000000000E+00 -0.57190558463E+02  0.57190558463E+02  0.00000000000E+00 0.  1.
          6    1    1    2  502    0 -0.17600535437E+03  0.55867668223E+02  0.42317769228E+03  0.49270928585E+03  0.17200000000E+03 0. -1.
         -6    1    1    2    0  501  0.17600535437E+03 -0.55867668223E+02  0.68753909476E+03  0.73238861812E+03  0.17200000000E+03 0.  1.
</event>
<event>
 4    1  0.3141404E-002  0.2212193E+03  0.7818608E-02  0.1132977E+00
          2   -1    0    0  502    0  0.00000000000E+00  0.00000000000E+00  0.39404342618E+03  0.39404342618E+03  0.00000000000E+00 0. -1.
         -2   -1    0    0    0  501 -0.00000000000E+00 -0.00000000000E+00 -0.12680817309E+03  0.12680817309E+03  0.00000000000E+00 0.  1.
          6    1    1    2  502    0 -0.63385976443E+02 -0.12383936245E+03  0.17100697939E+03  0.27960929295E+03  0.17200000000E+03 0. -1.
         -6    1    1    2    0  501  0.63385976443E+02  0.12383936245E+03  0.96228273693E+02  0.24124230632E+03  0.17200000000E+03 0.  1.
</event>
<event>
 4    1  0.3141404E-002  0.6051242E+03  0.7818608E-02  0.9894832E-01
          2   -1    0    0  502    0  0.00000000000E+00  0.00000000000E+00  0.19660373071E+04  0.19660373071E+04  0.00000000000E+00 0. -1.
         -2   -1    0    0    0  501 -0.00000000000E+00 -0.00000000000E+00 -0.32101420850E+03  0.32101420850E+03  0.00000000000E+00 0.  1.
          6    1    1    2  502    0 -0.15764827116E+02 -0.57995061188E+03  0.15634300785E+04  0.16764512675E+04  0.17200000000E+03 0. -1.
         -6    1    1    2    0  501  0.15764827116E+02  0.57995061188E+03  0.81593020060E+02  0.61060024804E+03  0.17200000000E+03 0.  1.
</event>
<event>
 4    1  0.3141404E-002  0.2284711E+03  0.7818608E-02  0.1127721E+00
         -1   -1    0    0    0  501 -0.00000000000E+00  0.00000000000E+00  0.17525596352E+03  0.17525596352E+03  0.00000000000E+00 0.  1.
          1   -1    0    0  502    0  0.00000000000E+00 -0.00000000000E+00 -0.56849650256E+03  0.56849650256E+03  0.00000000000E+00 0. -1.
          6    1    1    2  502    0  0.14762090747E+03  0.28689651509E+02 -0.45321050800E+03  0.50754191254E+03  0.17200000000E+03 0. -1.
         -6    1    1    2    0  501 -0.14762090747E+03 -0.28689651509E+02  0.59969968955E+02  0.23621055354E+03  0.17200000000E+03 0.  1.
</event>
<event>
 4    1  0.3141404E-002  0.2041990E+03  0.7818608E-02  0.1146244E+00
         -2   -1    0    0    0  501 -0.00000000000E+00  0.00000000000E+00  0.93866305718E+02  0.93866305718E+02  0.00000000000E+00 0.  1.
          2   -1    0    0  502    0  0.00000000000E+00 -0.00000000000E+00 -0.17340044072E+04  0.17340044072E+04  0.00000000000E+00 0. -1.
          6    1    1    2  502    0  0.87624940926E+02  0.66596409475E+02 -0.16082920119E+04  0.16212033825E+04  0.17200000000E+03 0. -1.
         -6    1    1    2    0  501 -0.87624940926E+02 -0.66596409475E+02 -0.31846089594E+02  0.20666733039E+03  0.17200000000E+03 0.  1.
</event>
<event>
 4    1  0.3141404E-002  0.2115383E+03  0.7818608E-02  0.1140354E+00
         -1   -1    0    0    0  501 -0.00000000000E+00  0.00000000000E+00  0.33300338591E+03  0.33300338591E+03  0.00000000000E+00 0.  1.
          1   -1    0    0  502    0  0.00000000000E+00 -0.00000000000E+00 -0.69931004121E+03  0.69931004121E+03  0.00000000000E+00 0. -1.
          6    1    1    2  502    0  0.62295319376E+02 -0.10622493712E+03 -0.64707500844E+03  0.68077493390E+03  0.17200000000E+03 0. -1.
         -6    1    1    2    0  501 -0.62295319376E+02  0.10622493712E+03  0.28076835315E+03  0.35153849322E+03  0.17200000000E+03 0.  1.
</event>
<event>
 4    1  0.3141404E-002  0.1770861E+03  0.7818608E-02  0.1170653E+00
         -1   -1    0    0    0  501 -0.00000000000E+00  0.00000000000E+00  0.43108246839E+03  0.43108246839E+03  0.00000000000E+00 0.  1.
          1   -1    0    0  502    0  0.00000000000E+00 -0.00000000000E+00 -0.13987053316E+03  0.13987053316E+03  0.00000000000E+00 0. -1.
          6    1    1    2  502    0  0.41402737137E+02  0.78292441538E+01 -0.52158470833E+02  0.18460766448E+03  0.17200000000E+03 0. -1.
         -6    1    1    2    0  501 -0.41402737137E+02 -0.78292441538E+01  0.34337040607E+03  0.38634533706E+03  0.17200000000E+03 0.  1.
</event>
<event>
 4    1  0.3141404E-002  0.1797611E+03  0.7818608E-02  0.1168034E+00
          2   -1    0    0  502    0  0.00000000000E+00  0.00000000000E+00  0.68367483227E+03  0.68367483227E+03  0.00000000000E+00 0. -1.
         -2   -1    0    0    0  501 -0.00000000000E+00 -0.00000000000E+00 -0.49443780085E+02  0.49443780085E+02  0.00000000000E+00 0.  1.
          6    1    1    2  502    0 -0.44766838599E+02  0.26944366701E+02  0.24017251177E+03  0.29999484020E+03  0.17200000000E+03 0.  1.
         -6    1    1    2    0  501  0.44766838599E+02 -0.26944366701E+02  0.39405854042E+03  0.43312377216E+03  0.17200000000E+03 0. -1.
</event>
<event>
 4    1  0.3141404E-002  0.1751930E+03  0.7818608E-02  0.1172538E+00
          2   -1    0    0  502    0  0.00000000000E+00  0.00000000000E+00  0.62742140441E+03  0.62742140441E+03  0.00000000000E+00 0. -1.
         -2   -1    0    0    0  501 -0.00000000000E+00 -0.00000000000E+00 -0.48989726995E+02  0.48989726995E+02  0.00000000000E+00 0.  1.
          6    1    1    2  502    0  0.32241365985E+02  0.83114049224E+01  0.30210143456E+03  0.34922465820E+03  0.17200000000E+03 0.  1.
         -6    1    1    2    0  501 -0.32241365985E+02 -0.83114049224E+01  0.27633024286E+03  0.32718647321E+03  0.17200000000E+03 0. -1.
</event>
<event>
 4    1  0.3141404E-002  0.1835114E+03  0.7818608E-02  0.1164447E+00
          2   -1    0    0  502    0  0.00000000000E+00  0.00000000000E+00  0.10152873402E+03  0.10152873402E+03  0.00000000000E+00 0. -1.
         -2   -1    0    0    0  501 -0.00000000000E+00 -0.00000000000E+00 -0.33916388970E+03  0.33916388970E+03  0.00000000000E+00 0.  1.
          6    1    1    2  502    0 -0.19519383316E+01  0.63942354680E+02 -0.86116000305E+02  0.20271260517E+03  0.17200000000E+03 0.  1.
         -6    1    1    2    0  501  0.19519383316E+01 -0.63942354680E+02 -0.15151915537E+03  0.23798001855E+03  0.17200000000E+03 0.  1.
</event>
<event>
 4    1  0.3141404E-002  0.2389881E+03  0.7818608E-02  0.1120469E+00
         -2   -1    0    0    0  501 -0.00000000000E+00  0.00000000000E+00  0.11411264057E+04  0.11411264057E+04  0.00000000000E+00 0.  1.
          2   -1    0    0  502    0  0.00000000000E+00 -0.00000000000E+00 -0.67122515473E+02  0.67122515473E+02  0.00000000000E+00 0. -1.
          6    1    1    2  502    0 -0.13214555944E+03 -0.10034378938E+03  0.84166468862E+03  0.87493701089E+03  0.17200000000E+03 0.  1.
         -6    1    1    2    0  501  0.13214555944E+03  0.10034378938E+03  0.23233920165E+03  0.33331191033E+03  0.17200000000E+03 0. -1.
</event>
<event>
 4    1  0.3141404E-002  0.2981045E+03  0.7818608E-02  0.1086192E+00
         -2   -1    0    0    0  501 -0.00000000000E+00  0.00000000000E+00  0.71517323380E+03  0.71517323380E+03  0.00000000000E+00 0.  1.
          2   -1    0    0  502    0  0.00000000000E+00 -0.00000000000E+00 -0.19941303369E+03  0.19941303369E+03  0.00000000000E+00 0. -1.
          6    1    1    2  502    0 -0.18387498736E+03  0.15960047150E+03 -0.22854298936E+02  0.29897933116E+03  0.17200000000E+03 0. -1.
         -6    1    1    2    0  501  0.18387498736E+03 -0.15960047150E+03  0.53861449904E+03  0.61560693633E+03  0.17200000000E+03 0.  1.
</event>
<event>
 4    1  0.3141404E-002  0.4204768E+03  0.7818608E-02  0.1036911E+00
         -2   -1    0    0    0  501 -0.00000000000E+00  0.00000000000E+00  0.35302286010E+03  0.35302286010E+03  0.00000000000E+00 0.  1.
          2   -1    0    0  502    0  0.00000000000E+00 -0.00000000000E+00 -0.50372309743E+03  0.50372309743E+03  0.00000000000E+00 0. -1.
          6    1    1    2  502    0  0.37930249868E+03  0.57847944877E+02 -0.10787279661E+03  0.43409366556E+03  0.17200000000E+03 0.  1.
         -6    1    1    2    0  501 -0.37930249868E+03 -0.57847944877E+02 -0.42827440723E+02  0.42265229197E+03  0.17200000000E+03 0.  1.
</event>
<event>
 4    1  0.3141404E-002  0.1920618E+03  0.7818608E-02  0.1156615E+00
          2   -1    0    0  502    0  0.00000000000E+00  0.00000000000E+00  0.31959639952E+03  0.31959639952E+03  0.00000000000E+00 0. -1.
         -2   -1    0    0    0  501 -0.00000000000E+00 -0.00000000000E+00 -0.13670332376E+03  0.13670332376E+03  0.00000000000E+00 0.  1.
          6    1    1    2  502    0  0.73900176771E+02 -0.42924286250E+02  0.14236081727E+01  0.19206706417E+03  0.17200000000E+03 0. -1.
         -6    1    1    2    0  501 -0.73900176771E+02  0.42924286250E+02  0.18146946759E+03  0.26423265911E+03  0.17200000000E+03 0. -1.
</event>
<event>
 4    1  0.3141404E-002  0.2389278E+03  0.7818608E-02  0.1120509E+00
         -1   -1    0    0    0  501 -0.00000000000E+00  0.00000000000E+00  0.91879677798E+02  0.91879677798E+02  0.00000000000E+00 0.  1.
          1   -1    0    0  502    0  0.00000000000E+00 -0.00000000000E+00 -0.67839354285E+03  0.67839354285E+03  0.00000000000E+00 0. -1.
          6    1    1    2  502    0  0.71117894792E+02  0.14981568630E+03 -0.40496874382E+03  0.47019802030E+03  0.17200000000E+03 0. -1.
         -6    1    1    2    0  501 -0.71117894792E+02 -0.14981568630E+03 -0.18154512124E+03  0.30007520036E+03  0.17200000000E+03 0.  1.
</event>
<event>
 4    1  0.3141404E-002  0.5026519E+03  0.7818608E-02  0.1013089E+00
          1   -1    0    0  502    0  0.00000000000E+00  0.00000000000E+00  0.27811546485E+03  0.27811546485E+03  0.00000000000E+00 0. -1.
         -1   -1    0    0    0  501 -0.00000000000E+00 -0.00000000000E+00 -0.94768391928E+03  0.94768391928E+03  0.00000000000E+00 0.  1.
          6    1    1    2  502    0 -0.33714594788E+03 -0.33076814165E+03 -0.45946221129E+03  0.68100255309E+03  0.17200000000E+03 0. -1.
         -6    1    1    2    0  501  0.33714594788E+03  0.33076814165E+03 -0.21010624315E+03  0.54479683104E+03  0.17200000000E+03 0.  1.
</event>
<event>
 4    1  0.3141404E-002  0.5793527E+03  0.7818608E-02  0.9949193E-01
          1   -1    0    0  502    0  0.00000000000E+00  0.00000000000E+00  0.43065628509E+03  0.43065628509E+03  0.00000000000E+00 0. -1.
         -1   -1    0    0    0  501 -0.00000000000E+00 -0.00000000000E+00 -0.78129744613E+03  0.78129744613E+03  0.00000000000E+00 0.  1.
          6    1    1    2  502    0 -0.46644832073E+03  0.29747532515E+03 -0.14538639544E+03  0.59731633911E+03  0.17200000000E+03 0.  1.
         -6    1    1    2    0  501  0.46644832073E+03 -0.29747532515E+03 -0.20525476561E+03  0.61463739212E+03  0.17200000000E+03 0.  1.
</event>
<event>
 4    1  0.3141404E-002  0.1803662E+03  0.7818608E-02  0.1167449E+00
         -2   -1    0    0    0  501 -0.00000000000E+00  0.00000000000E+00  0.43613672321E+02  0.43613672321E+02  0.00000000000E+00 0.  1.
          2   -1    0    0  502    0  0.00000000000E+00 -0.00000000000E+00 -0.87590798642E+03  0.87590798642E+03  0.00000000000E+00 0. -1.
          6    1    1    2  502    0  0.15719872428E+02 -0.51969817476E+02 -0.59326696421E+03  0.62007875882E+03  0.17200000000E+03 0. -1.
         -6    1    1    2    0  501 -0.15719872428E+02  0.51969817476E+02 -0.23902734989E+03  0.29944289992E+03  0.17200000000E+03 0.  1.
</event>
<event>
 4    1  0.3141404E-002  0.1838759E+03  0.7818608E-02  0.1164104E+00
         -2   -1    0    0    0  501 -0.00000000000E+00  0.00000000000E+00  0.96394665894E+02  0.96394665894E+02  0.00000000000E+00 0.  1.
          2   -1    0    0  502    0  0.00000000000E+00 -0.00000000000E+00 -0.37343396075E+03  0.37343396075E+03  0.00000000000E+00 0. -1.
          6    1    1    2  502    0 -0.23693398808E+02 -0.60539005342E+02 -0.80620784333E+02  0.20077365161E+03  0.17200000000E+03 0. -1.
         -6    1    1    2    0  501  0.23693398808E+02  0.60539005342E+02 -0.19641851053E+03  0.26905497504E+03  0.17200000000E+03 0. -1.
</event>
<event>
 4    1  0.3141404E-002  0.3718039E+03  0.7818608E-02  0.1054005E+00
          2   -1    0    0  502    0  0.00000000000E+00  0.00000000000E+00  0.78369905284E+03  0.78369905284E+03  0.00000000000E+00 0. -1.
         -2   -1    0    0    0  501 -0.00000000000E+00 -0.00000000000E+00 -0.20075119487E+03  0.20075119487E+03  0.00000000000E+00 0.  1.
          6    1    1    2  502    0  0.13223460176E+03  0.30194069893E+03  0.46293555701E+03  0.59375710987E+03  0.17200000000E+03 0. -1.
         -6    1    1    2    0  501 -0.13223460176E+03 -0.30194069893E+03  0.12001230095E+03  0.39069313784E+03  0.17200000000E+03 0.  1.
</event>
<event>
 4    1  0.3141404E-002  0.3057945E+03  0.7818608E-02  0.1082379E+00
         -2   -1    0    0    0  501 -0.00000000000E+00  0.00000000000E+00  0.66821221007E+03  0.66821221007E+03  0.00000000000E+00 0.  1.
          2   -1    0    0  502    0  0.00000000000E+00 -0.00000000000E+00 -0.16044273544E+03  0.16044273544E+03  0.00000000000E+00 0. -1.
          6    1    1    2  502    0 -0.19653965495E+03 -0.15905489864E+03  0.10577663189E+03  0.32357223707E+03  0.17200000000E+03 0. -1.
         -6    1    1    2    0  501  0.19653965495E+03  0.15905489864E+03  0.40199284274E+03  0.50508270844E+03  0.17200000000E+03 0.  1.
</event>
<event>
 4    1  0.3141404E-002  0.2482507E+03  0.7818608E-02  0.1114415E+00
          2   -1    0    0  502    0  0.00000000000E+00  0.00000000000E+00  0.14114452672E+03  0.14114452672E+03  0.00000000000E+00 0. -1.
         -2   -1    0    0    0  501 -0.00000000000E+00 -0.00000000000E+00 -0.45664488914E+03  0.45664488914E+03  0.00000000000E+00 0.  1.
          6    1    1    2  502    0  0.12130767431E+03  0.13163911939E+03 -0.22032059292E+03  0.33191802190E+03  0.17200000000E+03 0. -1.
         -6    1    1    2    0  501 -0.12130767431E+03 -0.13163911939E+03 -0.95179769507E+02  0.26587139396E+03  0.17200000000E+03 0.  1.
</event>
<event>
 4    1  0.3141404E-002  0.1734346E+03  0.7818608E-02  0.1174313E+00
          2   -1    0    0  502    0  0.00000000000E+00  0.00000000000E+00  0.16403949265E+04  0.16403949265E+04  0.00000000000E+00 0. -1.
         -2   -1    0    0    0  501 -0.00000000000E+00 -0.00000000000E+00 -0.20076677996E+02  0.20076677996E+02  0.00000000000E+00 0.  1.
          6    1    1    2  502    0  0.79970325406E+01  0.20774924949E+02  0.10545687183E+04  0.10687351083E+04  0.17200000000E+03 0. -1.
         -6    1    1    2    0  501 -0.79970325406E+01 -0.20774924949E+02  0.56574953018E+03  0.59173649620E+03  0.17200000000E+03 0.  1.
</event>
<event>
 4    1  0.3141404E-002  0.2006573E+03  0.7818608E-02  0.1149186E+00
         -3   -1    0    0    0  501 -0.00000000000E+00  0.00000000000E+00  0.56110152036E+03  0.56110152036E+03  0.00000000000E+00 0.  1.
          3   -1    0    0  502    0  0.00000000000E+00 -0.00000000000E+00 -0.79573912732E+02  0.79573912732E+02  0.00000000000E+00 0. -1.
          6    1    1    2  502    0 -0.62025195516E+02  0.82657214815E+02  0.14036659855E+03  0.24487981139E+03  0.17200000000E+03 0. -1.
         -6    1    1    2    0  501  0.62025195516E+02 -0.82657214815E+02  0.34116100908E+03  0.39579562170E+03  0.17200000000E+03 0.  1.
</event>
<event>
 4    1  0.3141404E-002  0.2870165E+03  0.7818608E-02  0.1091917E+00
          2   -1    0    0  502    0  0.00000000000E+00  0.00000000000E+00  0.45594002399E+03  0.45594002399E+03  0.00000000000E+00 0. -1.
         -2   -1    0    0    0  501 -0.00000000000E+00 -0.00000000000E+00 -0.24428812306E+03  0.24428812306E+03  0.00000000000E+00 0.  1.
          6    1    1    2  502    0 -0.15092717152E+03  0.17324974805E+03  0.28448308006E+03  0.40411521765E+03  0.17200000000E+03 0. -1.
         -6    1    1    2    0  501  0.15092717152E+03 -0.17324974805E+03 -0.72831179131E+02  0.29611292939E+03  0.17200000000E+03 0. -1.
</event>
<event>
 4    1  0.3141404E-002  0.2101839E+03  0.7818608E-02  0.1141420E+00
          4   -1    0    0  502    0  0.00000000000E+00  0.00000000000E+00  0.19725812251E+03  0.19725812251E+03  0.00000000000E+00 0. -1.
         -4   -1    0    0    0  501 -0.00000000000E+00 -0.00000000000E+00 -0.36900281550E+03  0.36900281550E+03  0.00000000000E+00 0.  1.
          6    1    1    2  502    0  0.40967307342E+02  0.11364388022E+03 -0.26338324401E+03  0.33696881905E+03  0.17200000000E+03 0.  1.
         -6    1    1    2    0  501 -0.40967307342E+02 -0.11364388022E+03  0.91638551026E+02  0.22929211896E+03  0.17200000000E+03 0. -1.
</event>
<event>
 4    1  0.3141404E-002  0.2544971E+03  0.7818608E-02  0.1110495E+00
          2   -1    0    0  502    0  0.00000000000E+00  0.00000000000E+00  0.66578463002E+03  0.66578463002E+03  0.00000000000E+00 0. -1.
         -2   -1    0    0    0  501 -0.00000000000E+00 -0.00000000000E+00 -0.12955507608E+03  0.12955507608E+03  0.00000000000E+00 0.  1.
          6    1    1    2  502    0 -0.18757497135E+03  0.62259242658E+00  0.46659474100E+03  0.53148792068E+03  0.17200000000E+03 0. -1.
         -6    1    1    2    0  501  0.18757497135E+03 -0.62259242658E+00  0.69634812938E+02  0.26385178543E+03  0.17200000000E+03 0.  1.
</event>
<event>
 4    1  0.3141404E-002  0.4178205E+03  0.7818608E-02  0.1037778E+00
          2   -1    0    0  502    0  0.00000000000E+00  0.00000000000E+00  0.19819884985E+04  0.19819884985E+04  0.00000000000E+00 0. -1.
         -2   -1    0    0    0  501 -0.00000000000E+00 -0.00000000000E+00 -0.40331782615E+03  0.40331782615E+03  0.00000000000E+00 0.  1.
          6    1    1    2  502    0 -0.19307733986E+03  0.32819366952E+03  0.18437452466E+04  0.18904947708E+04  0.17200000000E+03 0. -1.
         -6    1    1    2    0  501  0.19307733986E+03 -0.32819366952E+03 -0.26507457431E+03  0.49481155385E+03  0.17200000000E+03 0.  1.
</event>
<event>
 4    1  0.3141404E-002  0.3456800E+03  0.7818608E-02  0.1064402E+00
         -1   -1    0    0    0  501 -0.00000000000E+00  0.00000000000E+00  0.25800130201E+03  0.25800130201E+03  0.00000000000E+00 0.  1.
          1   -1    0    0  502    0  0.00000000000E+00 -0.00000000000E+00 -0.81086162775E+03  0.81086162775E+03  0.00000000000E+00 0. -1.
          6    1    1    2  502    0 -0.29882291206E+03  0.24809180600E+02 -0.62639551071E+03  0.71544808621E+03  0.17200000000E+03 0. -1.
         -6    1    1    2    0  501  0.29882291206E+03 -0.24809180600E+02  0.73535184976E+02  0.35341484356E+03  0.17200000000E+03 0.  1.
</event>
<event>
 4    1  0.3141404E-002  0.2387365E+03  0.7818608E-02  0.1120637E+00
         -1   -1    0    0    0  501 -0.00000000000E+00  0.00000000000E+00  0.57643187266E+03  0.57643187266E+03  0.00000000000E+00 0.  1.
          1   -1    0    0  502    0  0.00000000000E+00 -0.00000000000E+00 -0.79260671785E+03  0.79260671785E+03  0.00000000000E+00 0. -1.
          6    1    1    2  502    0  0.33561808384E+02 -0.16212560855E+03 -0.74848897336E+03  0.78564040831E+03  0.17200000000E+03 0. -1.
         -6    1    1    2    0  501 -0.33561808384E+02  0.16212560855E+03  0.53231412817E+03  0.58339818219E+03  0.17200000000E+03 0.  1.
</event>
<event>
 4    1  0.3141404E-002  0.1924461E+03  0.7818608E-02  0.1156273E+00
          2   -1    0    0  502    0  0.00000000000E+00  0.00000000000E+00  0.76990237392E+02  0.76990237392E+02  0.00000000000E+00 0. -1.
         -2   -1    0    0    0  501 -0.00000000000E+00 -0.00000000000E+00 -0.49416430914E+03  0.49416430914E+03  0.00000000000E+00 0.  1.
          6    1    1    2  502    0 -0.24236909412E+02 -0.82849794864E+02 -0.25512396332E+03  0.31956807248E+03  0.17200000000E+03 0. -1.
         -6    1    1    2    0  501  0.24236909412E+02  0.82849794864E+02 -0.16205010843E+03  0.25158647406E+03  0.17200000000E+03 0. -1.
</event>
<event>
 4    1  0.3141404E-002  0.1778391E+03  0.7818608E-02  0.1169911E+00
          2   -1    0    0  502    0  0.00000000000E+00  0.00000000000E+00  0.24343909858E+04  0.24343909858E+04  0.00000000000E+00 0. -1.
         -2   -1    0    0    0  501 -0.00000000000E+00 -0.00000000000E+00 -0.17111483202E+02  0.17111483202E+02  0.00000000000E+00 0.  1.
          6    1    1    2  502    0 -0.16949235818E+02 -0.41898324301E+02  0.18100883723E+04  0.18188036347E+04  0.17200000000E+03 0. -1.
         -6    1    1    2    0  501  0.16949235818E+02  0.41898324301E+02  0.60719113029E+03  0.63269883426E+03  0.17200000000E+03 0.  1.
</event>
<event>
 4    1  0.3141404E-002  0.1821242E+03  0.7818608E-02  0.1165763E+00
         -1   -1    0    0    0  501 -0.00000000000E+00  0.00000000000E+00  0.71886817100E+02  0.71886817100E+02  0.00000000000E+00 0.  1.
          1   -1    0    0  502    0  0.00000000000E+00 -0.00000000000E+00 -0.47544960657E+03  0.47544960657E+03  0.00000000000E+00 0. -1.
          6    1    1    2  502    0 -0.56995473749E+02  0.18350760422E+02 -0.24881008484E+03  0.30834346556E+03  0.17200000000E+03 0. -1.
         -6    1    1    2    0  501  0.56995473749E+02 -0.18350760422E+02 -0.15475270464E+03  0.23899295811E+03  0.17200000000E+03 0.  1.
</event>
<event>
 4    1  0.3141404E-002  0.2176114E+03  0.7818608E-02  0.1135676E+00
         -1   -1    0    0    0  501 -0.00000000000E+00  0.00000000000E+00  0.13322375386E+03  0.13322375386E+03  0.00000000000E+00 0.  1.
          1   -1    0    0  502    0  0.00000000000E+00 -0.00000000000E+00 -0.35582098891E+03  0.35582098891E+03  0.00000000000E+00 0. -1.
          6    1    1    2  502    0 -0.13326218135E+03  0.34511413484E+01 -0.10342993878E+03  0.24094080516E+03  0.17200000000E+03 0. -1.
         -6    1    1    2    0  501  0.13326218135E+03 -0.34511413484E+01 -0.11916729628E+03  0.24810393761E+03  0.17200000000E+03 0. -1.
</event>
<event>
 4    1  0.3141404E-002  0.2629954E+03  0.7818608E-02  0.1105357E+00
          1   -1    0    0  502    0  0.00000000000E+00  0.00000000000E+00  0.67640347471E+03  0.67640347471E+03  0.00000000000E+00 0. -1.
         -1   -1    0    0    0  501 -0.00000000000E+00 -0.00000000000E+00 -0.22789290929E+03  0.22789290929E+03  0.00000000000E+00 0.  1.
          6    1    1    2  502    0  0.66337912603E+02 -0.18756827780E+03  0.55997228789E+03  0.61865623790E+03  0.17200000000E+03 0. -1.
         -6    1    1    2    0  501 -0.66337912603E+02  0.18756827780E+03 -0.11146172247E+03  0.28564014610E+03  0.17200000000E+03 0.  1.
</event>
<event>
 4    1  0.3141404E-002  0.2072211E+03  0.7818608E-02  0.1143786E+00
          2   -1    0    0  502    0  0.00000000000E+00  0.00000000000E+00  0.25463916736E+04  0.25463916736E+04  0.00000000000E+00 0. -1.
         -2   -1    0    0    0  501 -0.00000000000E+00 -0.00000000000E+00 -0.18247580562E+02  0.18247580562E+02  0.00000000000E+00 0.  1.
          6    1    1    2  502    0 -0.83459144428E+02 -0.79944800226E+02  0.16172581944E+04  0.16304798887E+04  0.17200000000E+03 0. -1.
         -6    1    1    2    0  501  0.83459144428E+02  0.79944800226E+02  0.91088589860E+03  0.93415936550E+03  0.17200000000E+03 0.  1.
</event>
<event>
 4    1  0.3141404E-002  0.1745005E+03  0.7818608E-02  0.1173234E+00
         -1   -1    0    0    0  501 -0.00000000000E+00  0.00000000000E+00  0.47271354408E+02  0.47271354408E+02  0.00000000000E+00 0.  1.
          1   -1    0    0  502    0  0.00000000000E+00 -0.00000000000E+00 -0.10610824123E+04  0.10610824123E+04  0.00000000000E+00 0. -1.
          6    1    1    2  502    0 -0.89732718958E+00  0.29421135830E+02 -0.85428203816E+03  0.87192213480E+03  0.17200000000E+03 0. -1.
         -6    1    1    2    0  501  0.89732718958E+00 -0.29421135830E+02 -0.15952901973E+03  0.23643163190E+03  0.17200000000E+03 0.  1.
</event>
<event>
 4    1  0.3141404E-002  0.8402815E+03  0.7818608E-02  0.9503474E-01
          2   -1    0    0  502    0  0.00000000000E+00  0.00000000000E+00  0.12801343479E+04  0.12801343479E+04  0.00000000000E+00 0. -1.
         -2   -1    0    0    0  501 -0.00000000000E+00 -0.00000000000E+00 -0.56818964227E+03  0.56818964227E+03  0.00000000000E+00 0.  1.
          6    1    1    2  502    0  0.70619109087E+03 -0.42164340249E+03  0.51406851575E+03  0.98505809706E+03  0.17200000000E+03 0. -1.
         -6    1    1    2    0  501 -0.70619109087E+03  0.42164340249E+03  0.19787618987E+03  0.86326589311E+03  0.17200000000E+03 0.  1.
</event>
<event>
 4    1  0.3141404E-002  0.2333883E+03  0.7818608E-02  0.1124277E+00
         -1   -1    0    0    0  501 -0.00000000000E+00  0.00000000000E+00  0.92031264638E+02  0.92031264638E+02  0.00000000000E+00 0.  1.
          1   -1    0    0  502    0  0.00000000000E+00 -0.00000000000E+00 -0.70881815522E+03  0.70881815522E+03  0.00000000000E+00 0. -1.
          6    1    1    2  502    0 -0.53860438127E+02 -0.14827398644E+03 -0.47104516899E+03  0.52569351630E+03  0.17200000000E+03 0.  1.
         -6    1    1    2    0  501  0.53860438127E+02  0.14827398644E+03 -0.14574172159E+03  0.27515590356E+03  0.17200000000E+03 0.  1.
</event>
<event>
 4    1  0.3141404E-002  0.2201023E+03  0.7818608E-02  0.1133807E+00
         -1   -1    0    0    0  501 -0.00000000000E+00  0.00000000000E+00  0.30723452791E+02  0.30723452791E+02  0.00000000000E+00 0.  1.
          1   -1    0    0  502    0  0.00000000000E+00 -0.00000000000E+00 -0.15787337249E+04  0.15787337249E+04  0.00000000000E+00 0. -1.
          6    1    1    2  502    0 -0.10919688376E+03 -0.83289065134E+02 -0.74590947816E+03  0.77770558530E+03  0.17200000000E+03 0.  1.
         -6    1    1    2    0  501  0.10919688376E+03  0.83289065134E+02 -0.80210079392E+03  0.83175159237E+03  0.17200000000E+03 0. -1.
</event>
<event>
 4    1  0.3141404E-002  0.3059921E+03  0.7818608E-02  0.1082283E+00
         -1   -1    0    0    0  501 -0.00000000000E+00  0.00000000000E+00  0.19108159433E+03  0.19108159433E+03  0.00000000000E+00 0.  1.
          1   -1    0    0  502    0  0.00000000000E+00 -0.00000000000E+00 -0.58090664966E+03  0.58090664966E+03  0.00000000000E+00 0. -1.
          6    1    1    2  502    0  0.25305248773E+03  0.34031119791E+01 -0.34760260787E+03  0.46309687508E+03  0.17200000000E+03 0. -1.
         -6    1    1    2    0  501 -0.25305248773E+03 -0.34031119791E+01 -0.42222447456E+02  0.30889136891E+03  0.17200000000E+03 0.  1.
</event>
<event>
 4    1  0.3141404E-002  0.7150279E+03  0.7818608E-02  0.9691872E-01
          1   -1    0    0  502    0  0.00000000000E+00  0.00000000000E+00  0.17102810024E+04  0.17102810024E+04  0.00000000000E+00 0. -1.
         -1   -1    0    0    0  501 -0.00000000000E+00 -0.00000000000E+00 -0.10587680354E+04  0.10587680354E+04  0.00000000000E+00 0.  1.
          6    1    1    2  502    0 -0.26142526053E+03  0.64291343563E+03  0.14986510973E+04  0.16604878692E+04  0.17200000000E+03 0. -1.
         -6    1    1    2    0  501  0.26142526053E+03 -0.64291343563E+03 -0.84713813025E+03  0.11085611685E+04  0.17200000000E+03 0.  1.
</event>
<event>
 4    1  0.3141404E-002  0.1840222E+03  0.7818608E-02  0.1163966E+00
          2   -1    0    0  502    0  0.00000000000E+00  0.00000000000E+00  0.16000417243E+04  0.16000417243E+04  0.00000000000E+00 0. -1.
         -2   -1    0    0    0  501 -0.00000000000E+00 -0.00000000000E+00 -0.23794496789E+02  0.23794496789E+02  0.00000000000E+00 0.  1.
          6    1    1    2  502    0 -0.63777082121E+02  0.14582731718E+02  0.51819621284E+03  0.54990134322E+03  0.17200000000E+03 0.  1.
         -6    1    1    2    0  501  0.63777082121E+02 -0.14582731718E+02  0.10580510147E+04  0.10739348779E+04  0.17200000000E+03 0. -1.
</event>
<event>
 4    1  0.3141404E-002  0.1768341E+03  0.7818608E-02  0.1170903E+00
         -2   -1    0    0    0  501 -0.00000000000E+00  0.00000000000E+00  0.13572979420E+04  0.13572979420E+04  0.00000000000E+00 0.  1.
          2   -1    0    0  502    0  0.00000000000E+00 -0.00000000000E+00 -0.10503700029E+03  0.10503700029E+03  0.00000000000E+00 0. -1.
          6    1    1    2  502    0 -0.18421243692E+02 -0.36700680637E+02 -0.19893038718E+02  0.17794947364E+03  0.17200000000E+03 0. -1.
         -6    1    1    2    0  501  0.18421243692E+02  0.36700680637E+02  0.12721539804E+04  0.12843854687E+04  0.17200000000E+03 0.  1.
</event>
<event>
 4    1  0.3141404E-002  0.2972703E+03  0.7818608E-02  0.1086613E+00
          2   -1    0    0  502    0  0.00000000000E+00  0.00000000000E+00  0.35999695620E+03  0.35999695620E+03  0.00000000000E+00 0. -1.
         -2   -1    0    0    0  501 -0.00000000000E+00 -0.00000000000E+00 -0.37235218189E+03  0.37235218189E+03  0.00000000000E+00 0.  1.
          6    1    1    2  502    0  0.35507997755E+02 -0.23984335999E+03  0.20757224298E+03  0.36256846429E+03  0.17200000000E+03 0. -1.
         -6    1    1    2    0  501 -0.35507997755E+02  0.23984335999E+03 -0.21992746867E+03  0.36978067380E+03  0.17200000000E+03 0.  1.
</event>
<event>
 4    1  0.3141404E-002  0.2448566E+03  0.7818608E-02  0.1116599E+00
         -2   -1    0    0    0  501 -0.00000000000E+00  0.00000000000E+00  0.32921680994E+02  0.32921680994E+02  0.00000000000E+00 0.  1.
          2   -1    0    0  502    0  0.00000000000E+00 -0.00000000000E+00 -0.18280340578E+04  0.18280340578E+04  0.00000000000E+00 0. -1.
          6    1    1    2  502    0 -0.12011584978E+03  0.12626541137E+03 -0.84038720651E+03  0.87533161050E+03  0.17200000000E+03 0. -1.
         -6    1    1    2    0  501  0.12011584978E+03 -0.12626541137E+03 -0.95472517031E+03  0.98562412830E+03  0.17200000000E+03 0.  1.
</event>
<event>
 4    1  0.3141404E-002  0.4695859E+03  0.7818608E-02  0.1022037E+00
          2   -1    0    0  502    0  0.00000000000E+00  0.00000000000E+00  0.12469871269E+04  0.12469871269E+04  0.00000000000E+00 0. -1.
         -2   -1    0    0    0  501 -0.00000000000E+00 -0.00000000000E+00 -0.28255733446E+03  0.28255733446E+03  0.00000000000E+00 0.  1.
          6    1    1    2  502    0  0.30006462013E+02 -0.43592030191E+03  0.95001714699E+03  0.10597374566E+04  0.17200000000E+03 0. -1.
         -6    1    1    2    0  501 -0.30006462013E+02  0.43592030191E+03  0.14412645468E+02  0.46980700476E+03  0.17200000000E+03 0. -1.
</event>
<event>
 4    1  0.3141404E-002  0.1772072E+03  0.7818608E-02  0.1170534E+00
          2   -1    0    0  502    0  0.00000000000E+00  0.00000000000E+00  0.72217313013E+02  0.72217313013E+02  0.00000000000E+00 0. -1.
         -2   -1    0    0    0  501 -0.00000000000E+00 -0.00000000000E+00 -0.65768764342E+03  0.65768764342E+03  0.00000000000E+00 0.  1.
          6    1    1    2  502    0  0.22170145727E+02  0.36426475244E+02 -0.80294217999E+02  0.19454964637E+03  0.17200000000E+03 0. -1.
         -6    1    1    2    0  501 -0.22170145727E+02 -0.36426475244E+02 -0.50517611241E+03  0.53535531006E+03  0.17200000000E+03 0.  1.
</event>
<event>
 4    1  0.3141404E-002  0.1796576E+03  0.7818608E-02  0.1168135E+00
          2   -1    0    0  502    0  0.00000000000E+00  0.00000000000E+00  0.11017222908E+04  0.11017222908E+04  0.00000000000E+00 0. -1.
         -2   -1    0    0    0  501 -0.00000000000E+00 -0.00000000000E+00 -0.11361350206E+03  0.11361350206E+03  0.00000000000E+00 0.  1.
          6    1    1    2  502    0  0.49274233291E+02  0.16275829498E+02  0.10175443144E+04  0.10332827708E+04  0.17200000000E+03 0. -1.
         -6    1    1    2    0  501 -0.49274233291E+02 -0.16275829498E+02 -0.29435525590E+02  0.18205302211E+03  0.17200000000E+03 0.  1.
</event>
<event>
 4    1  0.3141404E-002  0.1777801E+03  0.7818608E-02  0.1169969E+00
          1   -1    0    0  502    0  0.00000000000E+00  0.00000000000E+00  0.22579611007E+03  0.22579611007E+03  0.00000000000E+00 0. -1.
         -1   -1    0    0    0  501 -0.00000000000E+00 -0.00000000000E+00 -0.27540118100E+03  0.27540118100E+03  0.00000000000E+00 0.  1.
          6    1    1    2  502    0  0.14810462418E+02  0.42455011248E+02  0.15092805505E+03  0.23320603675E+03  0.17200000000E+03 0. -1.
         -6    1    1    2    0  501 -0.14810462418E+02 -0.42455011248E+02 -0.20053312598E+03  0.26799125432E+03  0.17200000000E+03 0.  1.
</event>
<event>
 4    1  0.3141404E-002  0.2907765E+03  0.7818608E-02  0.1089944E+00
          2   -1    0    0  502    0  0.00000000000E+00  0.00000000000E+00  0.82817997542E+03  0.82817997542E+03  0.00000000000E+00 0. -1.
         -2   -1    0    0    0  501 -0.00000000000E+00 -0.00000000000E+00 -0.11905314687E+03  0.11905314687E+03  0.00000000000E+00 0.  1.
          6    1    1    2  502    0  0.13422005676E+03  0.19222886605E+03  0.53332644189E+03  0.60744386918E+03  0.17200000000E+03 0. -1.
         -6    1    1    2    0  501 -0.13422005676E+03 -0.19222886605E+03  0.17580038666E+03  0.33978925311E+03  0.17200000000E+03 0.  1.
</event>
<event>
 4    1  0.3141404E-002  0.2191531E+03  0.7818608E-02  0.1134516E+00
          3   -1    0    0  502    0  0.00000000000E+00  0.00000000000E+00  0.10878172518E+04  0.10878172518E+04  0.00000000000E+00 0. -1.
         -3   -1    0    0    0  501 -0.00000000000E+00 -0.00000000000E+00 -0.17469397824E+03  0.17469397824E+03  0.00000000000E+00 0.  1.
          6    1    1    2  502    0  0.42102131529E+02 -0.12911808000E+03  0.10022482207E+04  0.10259286350E+04  0.17200000000E+03 0. -1.
         -6    1    1    2    0  501 -0.42102131529E+02  0.12911808000E+03 -0.89124947216E+02  0.23658259504E+03  0.17200000000E+03 0.  1.
</event>
<event>
 4    1  0.3141404E-002  0.2918706E+03  0.7818608E-02  0.1089377E+00
         -2   -1    0    0    0  501 -0.00000000000E+00  0.00000000000E+00  0.10918798393E+03  0.10918798393E+03  0.00000000000E+00 0.  1.
          2   -1    0    0  502    0  0.00000000000E+00 -0.00000000000E+00 -0.14019775782E+04  0.14019775782E+04  0.00000000000E+00 0. -1.
          6    1    1    2  502    0  0.23555371592E+03  0.10903215985E+02 -0.11495814915E+04  0.11860548211E+04  0.17200000000E+03 0. -1.
         -6    1    1    2    0  501 -0.23555371592E+03 -0.10903215985E+02 -0.14320810278E+03  0.32511074098E+03  0.17200000000E+03 0.  1.
</event>
<event>
 4    1  0.3141404E-002  0.1768041E+03  0.7818608E-02  0.1170932E+00
          2   -1    0    0  502    0  0.00000000000E+00  0.00000000000E+00  0.10587517605E+04  0.10587517605E+04  0.00000000000E+00 0. -1.
         -2   -1    0    0    0  501 -0.00000000000E+00 -0.00000000000E+00 -0.42435741653E+02  0.42435741653E+02  0.00000000000E+00 0.  1.
          6    1    1    2  502    0  0.64835884825E+01 -0.40418314553E+02  0.81185499218E+03  0.83088399033E+03  0.17200000000E+03 0. -1.
         -6    1    1    2    0  501 -0.64835884825E+01  0.40418314553E+02  0.20446102664E+03  0.27030351179E+03  0.17200000000E+03 0.  1.
</event>
<event>
 4    1  0.3141404E-002  0.2052066E+03  0.7818608E-02  0.1145419E+00
          2   -1    0    0  502    0  0.00000000000E+00  0.00000000000E+00  0.32631315187E+03  0.32631315187E+03  0.00000000000E+00 0. -1.
         -2   -1    0    0    0  501 -0.00000000000E+00 -0.00000000000E+00 -0.17827628436E+03  0.17827628436E+03  0.00000000000E+00 0.  1.
          6    1    1    2  502    0  0.10998840825E+03  0.20695714245E+02 -0.58559955314E+02  0.21339876031E+03  0.17200000000E+03 0.  1.
         -6    1    1    2    0  501 -0.10998840825E+03 -0.20695714245E+02  0.20659682283E+03  0.29119067591E+03  0.17200000000E+03 0. -1.
</event>
<event>
 4    1  0.3141404E-002  0.2111292E+03  0.7818608E-02  0.1140675E+00
         -2   -1    0    0    0  501 -0.00000000000E+00  0.00000000000E+00  0.99088658762E+02  0.99088658762E+02  0.00000000000E+00 0.  1.
          2   -1    0    0  502    0  0.00000000000E+00 -0.00000000000E+00 -0.91606710900E+03  0.91606710900E+03  0.00000000000E+00 0. -1.
          6    1    1    2  502    0 -0.57323295168E+02 -0.10819227766E+03 -0.77059113699E+03  0.79899075684E+03  0.17200000000E+03 0. -1.
         -6    1    1    2    0  501  0.57323295168E+02  0.10819227766E+03 -0.46387313245E+02  0.21616501092E+03  0.17200000000E+03 0.  1.
</event>
<event>
 4    1  0.3141404E-002  0.2107546E+03  0.7818608E-02  0.1140970E+00
         -1   -1    0    0    0  501 -0.00000000000E+00  0.00000000000E+00  0.77247363381E+02  0.77247363381E+02  0.00000000000E+00 0.  1.
          1   -1    0    0  502    0  0.00000000000E+00 -0.00000000000E+00 -0.59855531317E+03  0.59855531317E+03  0.00000000000E+00 0. -1.
          6    1    1    2  502    0  0.18556790652E+02  0.12037095279E+03 -0.32768069647E+03  0.38960513291E+03  0.17200000000E+03 0. -1.
         -6    1    1    2    0  501 -0.18556790652E+02 -0.12037095279E+03 -0.19362725332E+03  0.28619754364E+03  0.17200000000E+03 0.  1.
</event>
<event>
 4    1  0.3141404E-002  0.2795169E+03  0.7818608E-02  0.1095953E+00
          1   -1    0    0  502    0  0.00000000000E+00  0.00000000000E+00  0.23625564848E+03  0.23625564848E+03  0.00000000000E+00 0. -1.
         -1   -1    0    0    0  501 -0.00000000000E+00 -0.00000000000E+00 -0.33194090656E+03  0.33194090656E+03  0.00000000000E+00 0.  1.
          6    1    1    2  502    0 -0.27763256057E+01 -0.22031344595E+03 -0.65213553761E+02  0.28702357054E+03  0.17200000000E+03 0.  1.
         -6    1    1    2    0  501  0.27763256057E+01  0.22031344595E+03 -0.30471704317E+02  0.28117298450E+03  0.17200000000E+03 0.  1.
</event>
<event>
 4    1  0.3141404E-002  0.2403159E+03  0.7818608E-02  0.1119583E+00
          2   -1    0    0  502    0  0.00000000000E+00  0.00000000000E+00  0.14202744155E+04  0.14202744155E+04  0.00000000000E+00 0. -1.
         -2   -1    0    0    0  501 -0.00000000000E+00 -0.00000000000E+00 -0.42756392231E+02  0.42756392231E+02  0.00000000000E+00 0.  1.
          6    1    1    2  502    0  0.13782400661E+03  0.95772072349E+02  0.85064599280E+03  0.88394024216E+03  0.17200000000E+03 0. -1.
         -6    1    1    2    0  501 -0.13782400661E+03 -0.95772072349E+02  0.52687203044E+03  0.57909056554E+03  0.17200000000E+03 0.  1.
</event>
<event>
 4    1  0.3141404E-002  0.1909147E+03  0.7818608E-02  0.1157639E+00
          4   -1    0    0  502    0  0.00000000000E+00  0.00000000000E+00  0.90650602072E+03  0.90650602072E+03  0.00000000000E+00 0. -1.
         -4   -1    0    0    0  501 -0.00000000000E+00 -0.00000000000E+00 -0.52032998161E+02  0.52032998161E+02  0.00000000000E+00 0.  1.
          6    1    1    2  502    0 -0.29255042547E+02 -0.77514944117E+02  0.65571662764E+03  0.68294415573E+03  0.17200000000E+03 0. -1.
         -6    1    1    2    0  501  0.29255042547E+02  0.77514944117E+02  0.19875639492E+03  0.27559486315E+03  0.17200000000E+03 0. -1.
</event>
<event>
 4    1  0.3141404E-002  0.1844237E+03  0.7818608E-02  0.1163589E+00
         -1   -1    0    0    0  501 -0.00000000000E+00  0.00000000000E+00  0.31716978407E+02  0.31716978407E+02  0.00000000000E+00 0.  1.
          1   -1    0    0  502    0  0.00000000000E+00 -0.00000000000E+00 -0.21597189503E+04  0.21597189503E+04  0.00000000000E+00 0. -1.
          6    1    1    2  502    0 -0.45968623804E+02 -0.48114284344E+02 -0.18414754382E+04  0.18506874097E+04  0.17200000000E+03 0. -1.
         -6    1    1    2    0  501  0.45968623804E+02  0.48114284344E+02 -0.28652653370E+03  0.34074851907E+03  0.17200000000E+03 0.  1.
</event>
<event>
 4    1  0.3141404E-002  0.3660147E+03  0.7818608E-02  0.1056227E+00
         -1   -1    0    0    0  501 -0.00000000000E+00  0.00000000000E+00  0.27368834979E+03  0.27368834979E+03  0.00000000000E+00 0.  1.
          1   -1    0    0  502    0  0.00000000000E+00 -0.00000000000E+00 -0.54808470859E+03  0.54808470859E+03  0.00000000000E+00 0. -1.
          6    1    1    2  502    0 -0.30439785467E+03  0.10828068012E+03 -0.27154894107E+03  0.45574728415E+03  0.17200000000E+03 0. -1.
         -6    1    1    2    0  501  0.30439785467E+03 -0.10828068012E+03 -0.28474177369E+01  0.36602577423E+03  0.17200000000E+03 0.  1.
</event>
<event>
 4    1  0.3141404E-002  0.2707230E+03  0.7818608E-02  0.1100867E+00
          2   -1    0    0  502    0  0.00000000000E+00  0.00000000000E+00  0.14744581960E+04  0.14744581960E+04  0.00000000000E+00 0. -1.
         -2   -1    0    0    0  501 -0.00000000000E+00 -0.00000000000E+00 -0.49854667662E+02  0.49854667662E+02  0.00000000000E+00 0.  1.
          6    1    1    2  502    0  0.10893631491E+03 -0.17843723169E+03  0.75377436543E+03  0.80091620057E+03  0.17200000000E+03 0. -1.
         -6    1    1    2    0  501 -0.10893631491E+03  0.17843723169E+03  0.67082916291E+03  0.72339666309E+03  0.17200000000E+03 0.  1.
</event>
<event>
 4    1  0.3141404E-002  0.1864698E+03  0.7818608E-02  0.1161684E+00
         -2   -1    0    0    0  501 -0.00000000000E+00  0.00000000000E+00  0.44800159337E+02  0.44800159337E+02  0.00000000000E+00 0.  1.
          2   -1    0    0  502    0  0.00000000000E+00 -0.00000000000E+00 -0.98889614032E+03  0.98889614032E+03  0.00000000000E+00 0. -1.
          6    1    1    2  502    0 -0.20274140742E+02 -0.69108143330E+02 -0.71178422249E+03  0.73580415577E+03  0.17200000000E+03 0. -1.
         -6    1    1    2    0  501  0.20274140742E+02  0.69108143330E+02 -0.23231175849E+03  0.29789214388E+03  0.17200000000E+03 0.  1.
</event>
<event>
 4    1  0.3141404E-002  0.2698341E+03  0.7818608E-02  0.1101375E+00
         -2   -1    0    0    0  501 -0.00000000000E+00  0.00000000000E+00  0.11312770204E+04  0.11312770204E+04  0.00000000000E+00 0.  1.
          2   -1    0    0  502    0  0.00000000000E+00 -0.00000000000E+00 -0.11903741268E+03  0.11903741268E+03  0.00000000000E+00 0. -1.
          6    1    1    2  502    0 -0.16095574463E+03  0.13160426293E+03  0.82431558301E+02  0.28214428145E+03  0.17200000000E+03 0. -1.
         -6    1    1    2    0  501  0.16095574463E+03 -0.13160426293E+03  0.92980804938E+03  0.96817015160E+03  0.17200000000E+03 0.  1.
</event>
<event>
 4    1  0.3141404E-002  0.4310921E+03  0.7818608E-02  0.1033516E+00
         -3   -1    0    0    0  501 -0.00000000000E+00  0.00000000000E+00  0.15901165855E+03  0.15901165855E+03  0.00000000000E+00 0.  1.
          3   -1    0    0  502    0  0.00000000000E+00 -0.00000000000E+00 -0.15102268604E+04  0.15102268604E+04  0.00000000000E+00 0. -1.
          6    1    1    2  502    0  0.38283981052E+03  0.98438060671E+02 -0.10724937627E+04  0.11558906710E+04  0.17200000000E+03 0. -1.
         -6    1    1    2    0  501 -0.38283981052E+03 -0.98438060671E+02 -0.27872143911E+03  0.51334784788E+03  0.17200000000E+03 0.  1.
</event>
<event>
 4    1  0.3141404E-002  0.2299211E+03  0.7818608E-02  0.1126695E+00
          1   -1    0    0  502    0  0.00000000000E+00  0.00000000000E+00  0.25769865507E+03  0.25769865507E+03  0.00000000000E+00 0. -1.
         -1   -1    0    0    0  501 -0.00000000000E+00 -0.00000000000E+00 -0.24016303687E+03  0.24016303687E+03  0.00000000000E+00 0.  1.
          6    1    1    2  502    0 -0.54422197596E+02 -0.14254097333E+03  0.10383198898E+03  0.25227918385E+03  0.17200000000E+03 0. -1.
         -6    1    1    2    0  501  0.54422197596E+02  0.14254097333E+03 -0.86296370779E+02  0.24558250809E+03  0.17200000000E+03 0.  1.
</event>
<event>
 4    1  0.3141404E-002  0.2547994E+03  0.7818608E-02  0.1110309E+00
          2   -1    0    0  502    0  0.00000000000E+00  0.00000000000E+00  0.22546041031E+04  0.22546041031E+04  0.00000000000E+00 0. -1.
         -2   -1    0    0    0  501 -0.00000000000E+00 -0.00000000000E+00 -0.31014207547E+02  0.31014207547E+02  0.00000000000E+00 0.  1.
          6    1    1    2  502    0 -0.18513800761E+03 -0.32598520363E+02  0.80614052800E+03  0.84544975976E+03  0.17200000000E+03 0. -1.
         -6    1    1    2    0  501  0.18513800761E+03  0.32598520363E+02  0.14174493676E+04  0.14401685509E+04  0.17200000000E+03 0.  1.
</event>
<event>
 4    1  0.3141404E-002  0.1991492E+03  0.7818608E-02  0.1150459E+00
          1   -1    0    0  502    0  0.00000000000E+00  0.00000000000E+00  0.89577488647E+03  0.89577488647E+03  0.00000000000E+00 0. -1.
         -1   -1    0    0    0  501 -0.00000000000E+00 -0.00000000000E+00 -0.63495755577E+02  0.63495755577E+02  0.00000000000E+00 0.  1.
          6    1    1    2  502    0 -0.95021344197E+02 -0.32362873349E+02  0.15224872806E+03  0.25067925048E+03  0.17200000000E+03 0.  1.
         -6    1    1    2    0  501  0.95021344197E+02  0.32362873349E+02  0.68003040283E+03  0.70859139157E+03  0.17200000000E+03 0. -1.
</event>
<event>
 4    1  0.3141404E-002  0.1740976E+03  0.7818608E-02  0.1173641E+00
         -2   -1    0    0    0  501 -0.00000000000E+00  0.00000000000E+00  0.20092259700E+02  0.20092259700E+02  0.00000000000E+00 0.  1.
          2   -1    0    0  502    0  0.00000000000E+00 -0.00000000000E+00 -0.16259394128E+04  0.16259394128E+04  0.00000000000E+00 0. -1.
          6    1    1    2  502    0 -0.26624884889E+02  0.41323076623E+01 -0.10240754072E+04  0.10387686942E+04  0.17200000000E+03 0. -1.
         -6    1    1    2    0  501  0.26624884889E+02 -0.41323076623E+01 -0.58177174592E+03  0.60726297830E+03  0.17200000000E+03 0.  1.
</event>
<event>
 4    1  0.3141404E-002  0.1943877E+03  0.7818608E-02  0.1154562E+00
         -1   -1    0    0    0  501 -0.00000000000E+00  0.00000000000E+00  0.61057787367E+02  0.61057787367E+02  0.00000000000E+00 0.  1.
          1   -1    0    0  502    0  0.00000000000E+00 -0.00000000000E+00 -0.18299704464E+04  0.18299704464E+04  0.00000000000E+00 0. -1.
          6    1    1    2  502    0 -0.75742048951E+02 -0.49655889363E+02 -0.16536520284E+04  0.16650380165E+04  0.17200000000E+03 0. -1.
         -6    1    1    2    0  501  0.75742048951E+02  0.49655889363E+02 -0.11526063062E+03  0.22599021726E+03  0.17200000000E+03 0.  1.
</event>
<event>
 4    1  0.3141404E-002  0.4304709E+03  0.7818608E-02  0.1033711E+00
         -1   -1    0    0    0  501 -0.00000000000E+00  0.00000000000E+00  0.24207224280E+03  0.24207224280E+03  0.00000000000E+00 0.  1.
          1   -1    0    0  502    0  0.00000000000E+00 -0.00000000000E+00 -0.19061138762E+04  0.19061138762E+04  0.00000000000E+00 0. -1.
          6    1    1    2  502    0  0.37943119032E+03 -0.10841185286E+03 -0.16628996850E+04  0.17177137481E+04  0.17200000000E+03 0. -1.
         -6    1    1    2    0  501 -0.37943119032E+03  0.10841185286E+03 -0.11419483449E+01  0.43047237086E+03  0.17200000000E+03 0.  1.
</event>
<event>
 4    1  0.3141404E-002  0.2400274E+03  0.7818608E-02  0.1119775E+00
          1   -1    0    0  502    0  0.00000000000E+00  0.00000000000E+00  0.19045766576E+04  0.19045766576E+04  0.00000000000E+00 0. -1.
         -1   -1    0    0    0  501 -0.00000000000E+00 -0.00000000000E+00 -0.31936739893E+02  0.31936739893E+02  0.00000000000E+00 0.  1.
          6    1    1    2  502    0 -0.16734122725E+03  0.51039398169E+01  0.11588507195E+04  0.11834475597E+04  0.17200000000E+03 0. -1.
         -6    1    1    2    0  501  0.16734122725E+03 -0.51039398169E+01  0.71378919828E+03  0.75306583784E+03  0.17200000000E+03 0. -1.
</event>
<event>
 4    1  0.3141404E-002  0.2775688E+03  0.7818608E-02  0.1097024E+00
         -2   -1    0    0    0  501 -0.00000000000E+00  0.00000000000E+00  0.74016489785E+02  0.74016489785E+02  0.00000000000E+00 0.  1.
          2   -1    0    0  502    0  0.00000000000E+00 -0.00000000000E+00 -0.14213848095E+04  0.14213848095E+04  0.00000000000E+00 0. -1.
          6    1    1    2  502    0  0.17576202559E+03  0.12871727039E+03 -0.28684049707E+03  0.39915147012E+03  0.17200000000E+03 0.  1.
         -6    1    1    2    0  501 -0.17576202559E+03 -0.12871727039E+03 -0.10605278226E+04  0.10962498292E+04  0.17200000000E+03 0. -1.
</event>
<event>
 4    1  0.3141404E-002  0.7925616E+03  0.7818608E-02  0.9570847E-01
          1   -1    0    0  502    0  0.00000000000E+00  0.00000000000E+00  0.15299630650E+04  0.15299630650E+04  0.00000000000E+00 0. -1.
         -1   -1    0    0    0  501 -0.00000000000E+00 -0.00000000000E+00 -0.52171129216E+03  0.52171129216E+03  0.00000000000E+00 0.  1.
          6    1    1    2  502    0 -0.23110149277E+03 -0.73835085801E+03  0.97760947134E+03  0.12585206267E+04  0.17200000000E+03 0. -1.
         -6    1    1    2    0  501  0.23110149277E+03  0.73835085801E+03  0.30642301527E+02  0.79315373045E+03  0.17200000000E+03 0.  1.
</event>
<event>
 4    1  0.3141404E-002  0.1910918E+03  0.7818608E-02  0.1157480E+00
          2   -1    0    0  502    0  0.00000000000E+00  0.00000000000E+00  0.22896915417E+04  0.22896915417E+04  0.00000000000E+00 0. -1.
         -2   -1    0    0    0  501 -0.00000000000E+00 -0.00000000000E+00 -0.78732377013E+02  0.78732377013E+02  0.00000000000E+00 0.  1.
          6    1    1    2  502    0 -0.64525528626E+02  0.52616786314E+02  0.21629748946E+04  0.21713996557E+04  0.17200000000E+03 0. -1.
         -6    1    1    2    0  501  0.64525528626E+02 -0.52616786314E+02  0.47984270091E+02  0.19702426303E+03  0.17200000000E+03 0.  1.
</event>
<event>
 4    1  0.3141404E-002  0.1935953E+03  0.7818608E-02  0.1155258E+00
         -2   -1    0    0    0  501 -0.00000000000E+00  0.00000000000E+00  0.22829384166E+03  0.22829384166E+03  0.00000000000E+00 0.  1.
          2   -1    0    0  502    0  0.00000000000E+00 -0.00000000000E+00 -0.29364262338E+03  0.29364262338E+03  0.00000000000E+00 0. -1.
          6    1    1    2  502    0  0.88319336852E+02 -0.97374812965E+01 -0.20596146173E+03  0.28266454946E+03  0.17200000000E+03 0. -1.
         -6    1    1    2    0  501 -0.88319336852E+02  0.97374812965E+01  0.14061268001E+03  0.23927191558E+03  0.17200000000E+03 0.  1.
</event>
<event>
 4    1  0.3141404E-002  0.3974687E+03  0.7818608E-02  0.1044660E+00
          1   -1    0    0  502    0  0.00000000000E+00  0.00000000000E+00  0.27820015888E+03  0.27820015888E+03  0.00000000000E+00 0. -1.
         -1   -1    0    0    0  501 -0.00000000000E+00 -0.00000000000E+00 -0.91293927031E+03  0.91293927031E+03  0.00000000000E+00 0.  1.
          6    1    1    2  502    0  0.12109629287E+03  0.33724336070E+03 -0.68352465992E+03  0.79068790126E+03  0.17200000000E+03 0.  1.
         -6    1    1    2    0  501 -0.12109629287E+03 -0.33724336070E+03  0.48785548488E+02  0.40045152793E+03  0.17200000000E+03 0. -1.
</event>
<event>
 4    1  0.3141404E-002  0.3570024E+03  0.7818608E-02  0.1059777E+00
         -2   -1    0    0    0  501 -0.00000000000E+00  0.00000000000E+00  0.20671147390E+03  0.20671147390E+03  0.00000000000E+00 0.  1.
          2   -1    0    0  502    0  0.00000000000E+00 -0.00000000000E+00 -0.10440775790E+04  0.10440775790E+04  0.00000000000E+00 0. -1.
          6    1    1    2  502    0  0.99503474441E+02  0.29659021282E+03 -0.81887010621E+03  0.89330786777E+03  0.17200000000E+03 0. -1.
         -6    1    1    2    0  501 -0.99503474441E+02 -0.29659021282E+03 -0.18495998921E+02  0.35748118516E+03  0.17200000000E+03 0.  1.
</event>
<event>
 4    1  0.3141404E-002  0.2934961E+03  0.7818608E-02  0.1088538E+00
          3   -1    0    0  502    0  0.00000000000E+00  0.00000000000E+00  0.27592154114E+03  0.27592154114E+03  0.00000000000E+00 0. -1.
         -3   -1    0    0    0  501 -0.00000000000E+00 -0.00000000000E+00 -0.60928590331E+03  0.60928590331E+03  0.00000000000E+00 0.  1.
          6    1    1    2  502    0 -0.22972034091E+03  0.61518401024E+02  0.14238495024E+03  0.32621070299E+03  0.17200000000E+03 0. -1.
         -6    1    1    2    0  501  0.22972034091E+03 -0.61518401024E+02 -0.47574931242E+03  0.55899674146E+03  0.17200000000E+03 0.  1.
</event>
<event>
 4    1  0.3141404E-002  0.2518576E+03  0.7818608E-02  0.1112136E+00
         -2   -1    0    0    0  501 -0.00000000000E+00  0.00000000000E+00  0.15135322196E+03  0.15135322196E+03  0.00000000000E+00 0.  1.
          2   -1    0    0  502    0  0.00000000000E+00 -0.00000000000E+00 -0.46098629185E+03  0.46098629185E+03  0.00000000000E+00 0. -1.
          6    1    1    2  502    0 -0.23034723200E+02  0.18253127756E+03 -0.62527570431E+02  0.25950330022E+03  0.17200000000E+03 0.  1.
         -6    1    1    2    0  501  0.23034723200E+02 -0.18253127756E+03 -0.24710549945E+03  0.35283621359E+03  0.17200000000E+03 0.  1.
</event>
<event>
 4    1  0.3141404E-002  0.1923370E+03  0.7818608E-02  0.1156370E+00
         -3   -1    0    0    0  501 -0.00000000000E+00  0.00000000000E+00  0.72856675434E+02  0.72856675434E+02  0.00000000000E+00 0.  1.
          3   -1    0    0  502    0  0.00000000000E+00 -0.00000000000E+00 -0.52047583497E+03  0.52047583497E+03  0.00000000000E+00 0. -1.
          6    1    1    2  502    0  0.80177420512E+02  0.31322427917E+02 -0.17743442554E+03  0.26168012653E+03  0.17200000000E+03 0.  1.
         -6    1    1    2    0  501 -0.80177420512E+02 -0.31322427917E+02 -0.27018473399E+03  0.33165238388E+03  0.17200000000E+03 0. -1.
</event>
<event>
 4    1  0.3141404E-002  0.2608919E+03  0.7818608E-02  0.1106609E+00
         -2   -1    0    0    0  501 -0.00000000000E+00  0.00000000000E+00  0.35818276500E+02  0.35818276500E+02  0.00000000000E+00 0.  1.
          2   -1    0    0  502    0  0.00000000000E+00 -0.00000000000E+00 -0.19365908312E+04  0.19365908312E+04  0.00000000000E+00 0. -1.
          6    1    1    2  502    0 -0.17314922092E+03  0.92195168291E+02 -0.10854353659E+04  0.11163487517E+04  0.17200000000E+03 0. -1.
         -6    1    1    2    0  501  0.17314922092E+03 -0.92195168291E+02 -0.81533718874E+03  0.85606035599E+03  0.17200000000E+03 0.  1.
</event>
<event>
 4    1  0.3141404E-002  0.5461233E+03  0.7818608E-02  0.1002395E+00
          1   -1    0    0  502    0  0.00000000000E+00  0.00000000000E+00  0.13887389084E+03  0.13887389084E+03  0.00000000000E+00 0. -1.
         -1   -1    0    0    0  501 -0.00000000000E+00 -0.00000000000E+00 -0.22891253865E+04  0.22891253865E+04  0.00000000000E+00 0.  1.
          6    1    1    2  502    0 -0.51832807544E+03 -0.16340450036E+01 -0.77330809858E+03  0.94670802216E+03  0.17200000000E+03 0. -1.
         -6    1    1    2    0  501  0.51832807544E+03  0.16340450036E+01 -0.13769433971E+04  0.14812912552E+04  0.17200000000E+03 0.  1.
</event>
<event>
 4    1  0.3141404E-002  0.2093554E+03  0.7818608E-02  0.1142077E+00
          1   -1    0    0  502    0  0.00000000000E+00  0.00000000000E+00  0.89668258202E+03  0.89668258202E+03  0.00000000000E+00 0. -1.
         -1   -1    0    0    0  501 -0.00000000000E+00 -0.00000000000E+00 -0.91770777635E+02  0.91770777635E+02  0.00000000000E+00 0.  1.
          6    1    1    2  502    0 -0.51133089319E+02  0.10784747909E+03  0.74033157030E+03  0.76936370174E+03  0.17200000000E+03 0. -1.
         -6    1    1    2    0  501  0.51133089319E+02 -0.10784747909E+03  0.64580234079E+02  0.21908965791E+03  0.17200000000E+03 0.  1.
</event>
<event>
 4    1  0.3141404E-002  0.2226310E+03  0.7818608E-02  0.1131937E+00
         -2   -1    0    0    0  501 -0.00000000000E+00  0.00000000000E+00  0.24078413918E+02  0.24078413918E+02  0.00000000000E+00 0.  1.
          2   -1    0    0  502    0  0.00000000000E+00 -0.00000000000E+00 -0.20703267099E+04  0.20703267099E+04  0.00000000000E+00 0. -1.
          6    1    1    2  502    0 -0.79312148051E+02  0.11700491828E+03 -0.94385788553E+03  0.96975887509E+03  0.17200000000E+03 0.  1.
         -6    1    1    2    0  501  0.79312148051E+02 -0.11700491828E+03 -0.11023904104E+04  0.11246462487E+04  0.17200000000E+03 0.  1.
</event>
<event>
 4    1  0.3141404E-002  0.2277421E+03  0.7818608E-02  0.1128239E+00
          2   -1    0    0  502    0  0.00000000000E+00  0.00000000000E+00  0.92722223893E+03  0.92722223893E+03  0.00000000000E+00 0. -1.
         -2   -1    0    0    0  501 -0.00000000000E+00 -0.00000000000E+00 -0.25815329603E+03  0.25815329603E+03  0.00000000000E+00 0.  1.
          6    1    1    2  502    0  0.12003596974E+03 -0.88734617634E+02  0.85909389978E+03  0.88876813345E+03  0.17200000000E+03 0. -1.
         -6    1    1    2    0  501 -0.12003596974E+03  0.88734617634E+02 -0.19002495687E+03  0.29660740151E+03  0.17200000000E+03 0.  1.
</event>
<event>
 4    1  0.3141404E-002  0.1799779E+03  0.7818608E-02  0.1167824E+00
         -1   -1    0    0    0  501 -0.00000000000E+00  0.00000000000E+00  0.38356549507E+03  0.38356549507E+03  0.00000000000E+00 0.  1.
          1   -1    0    0  502    0  0.00000000000E+00 -0.00000000000E+00 -0.10601447927E+03  0.10601447927E+03  0.00000000000E+00 0. -1.
          6    1    1    2  502    0 -0.31319241434E+02  0.42745148623E+02  0.24917884752E+03  0.30737947339E+03  0.17200000000E+03 0. -1.
         -6    1    1    2    0  501  0.31319241434E+02 -0.42745148623E+02  0.28372168284E+02  0.18220050095E+03  0.17200000000E+03 0. -1.
</event>
<event>
 4    1  0.3141404E-002  0.2513467E+03  0.7818608E-02  0.1112457E+00
          2   -1    0    0  502    0  0.00000000000E+00  0.00000000000E+00  0.11993725691E+04  0.11993725691E+04  0.00000000000E+00 0. -1.
         -2   -1    0    0    0  501 -0.00000000000E+00 -0.00000000000E+00 -0.54150460284E+02  0.54150460284E+02  0.00000000000E+00 0.  1.
          6    1    1    2  502    0  0.18182245307E+03  0.23059627525E+02  0.67612185629E+03  0.72132926976E+03  0.17200000000E+03 0. -1.
         -6    1    1    2    0  501 -0.18182245307E+03 -0.23059627525E+02  0.46910025254E+03  0.53219375963E+03  0.17200000000E+03 0.  1.
</event>
<event>
 4    1  0.3141404E-002  0.1936162E+03  0.7818608E-02  0.1155240E+00
         -1   -1    0    0    0  501 -0.00000000000E+00  0.00000000000E+00  0.17474582806E+03  0.17474582806E+03  0.00000000000E+00 0.  1.
          1   -1    0    0  502    0  0.00000000000E+00 -0.00000000000E+00 -0.21561769206E+03  0.21561769206E+03  0.00000000000E+00 0. -1.
          6    1    1    2  502    0  0.33538547506E+02 -0.82331010357E+02 -0.65369948516E+01  0.19372651274E+03  0.17200000000E+03 0. -1.
         -6    1    1    2    0  501 -0.33538547506E+02  0.82331010357E+02 -0.34334869147E+02  0.19663700739E+03  0.17200000000E+03 0. -1.
</event>
<event>
 4    1  0.3141404E-002  0.1723973E+03  0.7818608E-02  0.1175371E+00
          2   -1    0    0  502    0  0.00000000000E+00  0.00000000000E+00  0.11597515490E+03  0.11597515490E+03  0.00000000000E+00 0. -1.
         -2   -1    0    0    0  501 -0.00000000000E+00 -0.00000000000E+00 -0.44997415619E+03  0.44997415619E+03  0.00000000000E+00 0.  1.
          6    1    1    2  502    0 -0.10057604530E+02 -0.59732651449E+01  0.18663070749E+02  0.17340457178E+03  0.17200000000E+03 0. -1.
         -6    1    1    2    0  501  0.10057604530E+02  0.59732651449E+01 -0.35266207204E+03  0.39254473931E+03  0.17200000000E+03 0.  1.
</event>
<event>
 4    1  0.3141404E-002  0.2476875E+03  0.7818608E-02  0.1114775E+00
          2   -1    0    0  502    0  0.00000000000E+00  0.00000000000E+00  0.29212313779E+04  0.29212313779E+04  0.00000000000E+00 0. -1.
         -2   -1    0    0    0  501 -0.00000000000E+00 -0.00000000000E+00 -0.91607325125E+02  0.91607325125E+02  0.00000000000E+00 0.  1.
          6    1    1    2  502    0 -0.58929801810E+02  0.16820342605E+03  0.27373319929E+04  0.27485151543E+04  0.17200000000E+03 0. -1.
         -6    1    1    2    0  501  0.58929801810E+02 -0.16820342605E+03  0.92292059828E+02  0.26432354868E+03  0.17200000000E+03 0.  1.
</event>
<event>
 4    1  0.3141404E-002  0.2805239E+03  0.7818608E-02  0.1095403E+00
          1   -1    0    0  502    0  0.00000000000E+00  0.00000000000E+00  0.12093518786E+04  0.12093518786E+04  0.00000000000E+00 0. -1.
         -1   -1    0    0    0  501 -0.00000000000E+00 -0.00000000000E+00 -0.82801632454E+02  0.82801632454E+02  0.00000000000E+00 0.  1.
          6    1    1    2  502    0 -0.19653425969E+03  0.10239116465E+03  0.86224504083E+03  0.90673048712E+03  0.17200000000E+03 0. -1.
         -6    1    1    2    0  501  0.19653425969E+03 -0.10239116465E+03  0.26430520533E+03  0.38542302396E+03  0.17200000000E+03 0.  1.
</event>
<event>
 4    1  0.3141404E-002  0.1736357E+03  0.7818608E-02  0.1174109E+00
         -2   -1    0    0    0  501 -0.00000000000E+00  0.00000000000E+00  0.32512366861E+02  0.32512366861E+02  0.00000000000E+00 0.  1.
          2   -1    0    0  502    0  0.00000000000E+00 -0.00000000000E+00 -0.10749359552E+04  0.10749359552E+04  0.00000000000E+00 0. -1.
          6    1    1    2  502    0 -0.75404396962E+01  0.22549561348E+02 -0.72640834442E+03  0.74687242806E+03  0.17200000000E+03 0. -1.
         -6    1    1    2    0  501  0.75404396962E+01 -0.22549561348E+02 -0.31601524391E+03  0.36057589400E+03  0.17200000000E+03 0.  1.
</event>
<event>
 4    1  0.3141404E-002  0.7924041E+03  0.7818608E-02  0.9571077E-01
          2   -1    0    0  502    0  0.00000000000E+00  0.00000000000E+00  0.35577190026E+04  0.35577190026E+04  0.00000000000E+00 0. -1.
         -2   -1    0    0    0  501 -0.00000000000E+00 -0.00000000000E+00 -0.17665342268E+03  0.17665342268E+03  0.00000000000E+00 0.  1.
          6    1    1    2  502    0 -0.70628452190E+03  0.31540831157E+03  0.17472067755E+04  0.19184983047E+04  0.17200000000E+03 0. -1.
         -6    1    1    2    0  501  0.70628452190E+03 -0.31540831157E+03  0.16338588044E+04  0.18158741206E+04  0.17200000000E+03 0.  1.
</event>
<event>
 4    1  0.3141404E-002  0.3708393E+03  0.7818608E-02  0.1054373E+00
         -2   -1    0    0    0  501 -0.00000000000E+00  0.00000000000E+00  0.47842933147E+02  0.47842933147E+02  0.00000000000E+00 0.  1.
          2   -1    0    0  502    0  0.00000000000E+00 -0.00000000000E+00 -0.29688699127E+04  0.29688699127E+04  0.00000000000E+00 0. -1.
          6    1    1    2  502    0 -0.30641905631E+03  0.11851212253E+03 -0.17295166579E+04  0.17688271909E+04  0.17200000000E+03 0.  1.
         -6    1    1    2    0  501  0.30641905631E+03 -0.11851212253E+03 -0.11915103217E+04  0.12478856550E+04  0.17200000000E+03 0.  1.
</event>
<event>
 4    1  0.3141404E-002  0.1855501E+03  0.7818608E-02  0.1162537E+00
         -2   -1    0    0    0  501 -0.00000000000E+00  0.00000000000E+00  0.39158998228E+02  0.39158998228E+02  0.00000000000E+00 0.  1.
          2   -1    0    0  502    0  0.00000000000E+00 -0.00000000000E+00 -0.88757172472E+03  0.88757172472E+03  0.00000000000E+00 0. -1.
          6    1    1    2  502    0  0.45141547241E+02  0.52981750131E+02 -0.46919204689E+03  0.50454930581E+03  0.17200000000E+03 0. -1.
         -6    1    1    2    0  501 -0.45141547241E+02 -0.52981750131E+02 -0.37922067960E+03  0.42218141713E+03  0.17200000000E+03 0. -1.
</event>
<event>
 4    1  0.3141404E-002  0.2748131E+03  0.7818608E-02  0.1098556E+00
          1   -1    0    0  502    0  0.00000000000E+00  0.00000000000E+00  0.37941876843E+03  0.37941876843E+03  0.00000000000E+00 0. -1.
         -1   -1    0    0    0  501 -0.00000000000E+00 -0.00000000000E+00 -0.20759830802E+03  0.20759830802E+03  0.00000000000E+00 0.  1.
          6    1    1    2  502    0 -0.17771110167E+03  0.11982060489E+03  0.14547947173E+03  0.31094451226E+03  0.17200000000E+03 0. -1.
         -6    1    1    2    0  501  0.17771110167E+03 -0.11982060489E+03  0.26340988691E+02  0.27607256419E+03  0.17200000000E+03 0.  1.
</event>
<event>
 4    1  0.3141404E-002  0.1932332E+03  0.7818608E-02  0.1155577E+00
          2   -1    0    0  502    0  0.00000000000E+00  0.00000000000E+00  0.12570186067E+03  0.12570186067E+03  0.00000000000E+00 0. -1.
         -2   -1    0    0    0  501 -0.00000000000E+00 -0.00000000000E+00 -0.29986156842E+03  0.29986156842E+03  0.00000000000E+00 0.  1.
          6    1    1    2  502    0  0.75209108202E+02 -0.45811176829E+02 -0.10770303785E+03  0.22122164958E+03  0.17200000000E+03 0.  1.
         -6    1    1    2    0  501 -0.75209108202E+02  0.45811176829E+02 -0.66456669901E+02  0.20434177951E+03  0.17200000000E+03 0. -1.
</event>
<event>
 4    1  0.3141404E-002  0.4476038E+03  0.7818608E-02  0.1028439E+00
          2   -1    0    0  502    0  0.00000000000E+00  0.00000000000E+00  0.12188191511E+04  0.12188191511E+04  0.00000000000E+00 0. -1.
         -2   -1    0    0    0  501 -0.00000000000E+00 -0.00000000000E+00 -0.19330517716E+03  0.19330517716E+03  0.00000000000E+00 0.  1.
          6    1    1    2  502    0 -0.58654278351E+02  0.40905361824E+03  0.78588175764E+03  0.90441103706E+03  0.17200000000E+03 0. -1.
         -6    1    1    2    0  501  0.58654278351E+02 -0.40905361824E+03  0.23963221628E+03  0.50771329118E+03  0.17200000000E+03 0.  1.
</event>
<event>
 4    1  0.3141404E-002  0.1831348E+03  0.7818608E-02  0.1164803E+00
         -1   -1    0    0    0  501 -0.00000000000E+00  0.00000000000E+00  0.37723902367E+02  0.37723902367E+02  0.00000000000E+00 0.  1.
          1   -1    0    0  502    0  0.00000000000E+00 -0.00000000000E+00 -0.11438201790E+04  0.11438201790E+04  0.00000000000E+00 0. -1.
          6    1    1    2  502    0  0.30356079433E+01 -0.62810433457E+02 -0.83186365050E+03  0.85178371579E+03  0.17200000000E+03 0. -1.
         -6    1    1    2    0  501 -0.30356079433E+01  0.62810433457E+02 -0.27423262612E+03  0.32976036556E+03  0.17200000000E+03 0.  1.
</event>
<event>
 4    1  0.3141404E-002  0.1811648E+03  0.7818608E-02  0.1166680E+00
          2   -1    0    0  502    0  0.00000000000E+00  0.00000000000E+00  0.24478508978E+03  0.24478508978E+03  0.00000000000E+00 0. -1.
         -2   -1    0    0    0  501 -0.00000000000E+00 -0.00000000000E+00 -0.15888760646E+03  0.15888760646E+03  0.00000000000E+00 0.  1.
          6    1    1    2  502    0  0.36788989554E+02  0.43396543324E+02 -0.36804841010E+02  0.18486558914E+03  0.17200000000E+03 0.  1.
         -6    1    1    2    0  501 -0.36788989554E+02 -0.43396543324E+02  0.12270232432E+03  0.21880710710E+03  0.17200000000E+03 0. -1.
</event>
<event>
 4    1  0.3141404E-002  0.2392968E+03  0.7818608E-02  0.1120262E+00
          2   -1    0    0  502    0  0.00000000000E+00  0.00000000000E+00  0.13594541462E+04  0.13594541462E+04  0.00000000000E+00 0. -1.
         -2   -1    0    0    0  501 -0.00000000000E+00 -0.00000000000E+00 -0.53594272649E+02  0.53594272649E+02  0.00000000000E+00 0.  1.
          6    1    1    2  502    0 -0.14965486739E+03 -0.72679853271E+02  0.97981299162E+03  0.10086111436E+04  0.17200000000E+03 0. -1.
         -6    1    1    2    0  501  0.14965486739E+03  0.72679853271E+02  0.32604688190E+03  0.40443727524E+03  0.17200000000E+03 0.  1.
</event>
<event>
 4    1  0.3141404E-002  0.3398040E+03  0.7818608E-02  0.1066879E+00
          2   -1    0    0  502    0  0.00000000000E+00  0.00000000000E+00  0.15941027773E+04  0.15941027773E+04  0.00000000000E+00 0. -1.
         -2   -1    0    0    0  501 -0.00000000000E+00 -0.00000000000E+00 -0.83611099913E+02  0.83611099913E+02  0.00000000000E+00 0.  1.
          6    1    1    2  502    0 -0.28165617195E+03  0.80948047294E+02  0.44853717439E+03  0.56271874180E+03  0.17200000000E+03 0. -1.
         -6    1    1    2    0  501  0.28165617195E+03 -0.80948047294E+02  0.10619545030E+04  0.11149951354E+04  0.17200000000E+03 0.  1.
</event>
<event>
 4    1  0.3141404E-002  0.4262320E+03  0.7818608E-02  0.1035057E+00
          1   -1    0    0  502    0  0.00000000000E+00  0.00000000000E+00  0.89871114069E+03  0.89871114069E+03  0.00000000000E+00 0. -1.
         -1   -1    0    0    0  501 -0.00000000000E+00 -0.00000000000E+00 -0.20394402602E+03  0.20394402602E+03  0.00000000000E+00 0.  1.
          6    1    1    2  502    0  0.14698480560E+03 -0.36122727246E+03  0.29566173204E+03  0.51873840733E+03  0.17200000000E+03 0. -1.
         -6    1    1    2    0  501 -0.14698480560E+03  0.36122727246E+03  0.39910538263E+03  0.58391675938E+03  0.17200000000E+03 0.  1.
</event>
<event>
 4    1  0.3141404E-002  0.2788471E+03  0.7818608E-02  0.1096320E+00
          2   -1    0    0  502    0  0.00000000000E+00  0.00000000000E+00  0.19491423482E+04  0.19491423482E+04  0.00000000000E+00 0. -1.
         -2   -1    0    0    0  501 -0.00000000000E+00 -0.00000000000E+00 -0.40142932824E+02  0.40142932824E+02  0.00000000000E+00 0.  1.
          6    1    1    2  502    0  0.17852260836E+03  0.12767682127E+03  0.10330986266E+04  0.10700693738E+04  0.17200000000E+03 0. -1.
         -6    1    1    2    0  501 -0.17852260836E+03 -0.12767682127E+03  0.87590078883E+03  0.91921590731E+03  0.17200000000E+03 0.  1.
</event>
<event>
 4    1  0.3141404E-002  0.2423940E+03  0.7818608E-02  0.1118208E+00
          2   -1    0    0  502    0  0.00000000000E+00  0.00000000000E+00  0.11028454628E+04  0.11028454628E+04  0.00000000000E+00 0. -1.
         -2   -1    0    0    0  501 -0.00000000000E+00 -0.00000000000E+00 -0.61342933119E+02  0.61342933119E+02  0.00000000000E+00 0.  1.
          6    1    1    2  502    0  0.23346865779E+02 -0.16919149163E+03  0.73184432944E+03  0.77094160578E+03  0.17200000000E+03 0.  1.
         -6    1    1    2    0  501 -0.23346865779E+02  0.16919149163E+03  0.30965820022E+03  0.39324679013E+03  0.17200000000E+03 0.  1.
</event>
<event>
 4    1  0.3141404E-002  0.4427599E+03  0.7818608E-02  0.1029903E+00
         -2   -1    0    0    0  501 -0.00000000000E+00  0.00000000000E+00  0.51101735020E+03  0.51101735020E+03  0.00000000000E+00 0.  1.
          2   -1    0    0  502    0  0.00000000000E+00 -0.00000000000E+00 -0.42958843172E+03  0.42958843172E+03  0.00000000000E+00 0. -1.
          6    1    1    2  502    0  0.33336562487E+03 -0.23520142919E+03 -0.11313017268E+03  0.45698445062E+03  0.17200000000E+03 0. -1.
         -6    1    1    2    0  501 -0.33336562487E+03  0.23520142919E+03  0.19455909116E+03  0.48362133130E+03  0.17200000000E+03 0.  1.
</event>
<event>
 4    1  0.3141404E-002  0.1914487E+03  0.7818608E-02  0.1157161E+00
          2   -1    0    0  502    0  0.00000000000E+00  0.00000000000E+00  0.92148762337E+03  0.92148762337E+03  0.00000000000E+00 0. -1.
         -2   -1    0    0    0  501 -0.00000000000E+00 -0.00000000000E+00 -0.51011774368E+02  0.51011774368E+02  0.00000000000E+00 0.  1.
          6    1    1    2  502    0 -0.84073475610E+02  0.49344532208E+00  0.20702717434E+03  0.28198021864E+03  0.17200000000E+03 0.  1.
         -6    1    1    2    0  501  0.84073475610E+02 -0.49344532208E+00  0.66344867466E+03  0.69051917910E+03  0.17200000000E+03 0.  1.
</event>
<event>
 4    1  0.3141404E-002  0.1957654E+03  0.7818608E-02  0.1153362E+00
          2   -1    0    0  502    0  0.00000000000E+00  0.00000000000E+00  0.18989255665E+03  0.18989255665E+03  0.00000000000E+00 0. -1.
         -2   -1    0    0    0  501 -0.00000000000E+00 -0.00000000000E+00 -0.28336157068E+03  0.28336157068E+03  0.00000000000E+00 0.  1.
          6    1    1    2  502    0  0.86983255551E+02  0.34263630609E+02  0.80201237101E+02  0.21155689911E+03  0.17200000000E+03 0. -1.
         -6    1    1    2    0  501 -0.86983255551E+02 -0.34263630609E+02 -0.17367025113E+03  0.26169722822E+03  0.17200000000E+03 0.  1.
</event>
<event>
 4    1  0.3141404E-002  0.2648304E+03  0.7818608E-02  0.1104275E+00
          2   -1    0    0  502    0  0.00000000000E+00  0.00000000000E+00  0.43017398458E+03  0.43017398458E+03  0.00000000000E+00 0. -1.
         -2   -1    0    0    0  501 -0.00000000000E+00 -0.00000000000E+00 -0.18412451188E+03  0.18412451188E+03  0.00000000000E+00 0.  1.
          6    1    1    2  502    0  0.14245653715E+03 -0.14232814694E+03  0.22696528521E+03  0.34878131698E+03  0.17200000000E+03 0. -1.
         -6    1    1    2    0  501 -0.14245653715E+03  0.14232814694E+03  0.19084187490E+02  0.26551717948E+03  0.17200000000E+03 0.  1.
</event>
<event>
 4    1  0.3141404E-002  0.2060545E+03  0.7818608E-02  0.1144729E+00
          3   -1    0    0  502    0  0.00000000000E+00  0.00000000000E+00  0.68195523244E+03  0.68195523244E+03  0.00000000000E+00 0. -1.
         -3   -1    0    0    0  501 -0.00000000000E+00 -0.00000000000E+00 -0.78984056877E+02  0.78984056877E+02  0.00000000000E+00 0.  1.
          6    1    1    2  502    0  0.10248664588E+03  0.48692276532E+02  0.47656000168E+03  0.51919927347E+03  0.17200000000E+03 0. -1.
         -6    1    1    2    0  501 -0.10248664588E+03 -0.48692276532E+02  0.12641117389E+03  0.24174001585E+03  0.17200000000E+03 0.  1.
</event>
<event>
 4    1  0.3141404E-002  0.2123401E+03  0.7818608E-02  0.1139726E+00
         -1   -1    0    0    0  501 -0.00000000000E+00  0.00000000000E+00  0.32536159447E+03  0.32536159447E+03  0.00000000000E+00 0.  1.
          1   -1    0    0  502    0  0.00000000000E+00 -0.00000000000E+00 -0.11899742467E+04  0.11899742467E+04  0.00000000000E+00 0. -1.
          6    1    1    2  502    0 -0.11711376814E+03 -0.42292591221E+02 -0.11444918052E+04  0.11640231055E+04  0.17200000000E+03 0. -1.
         -6    1    1    2    0  501  0.11711376814E+03  0.42292591221E+02  0.27987915298E+03  0.35131273566E+03  0.17200000000E+03 0.  1.
</event>
<event>
 4    1  0.3141404E-002  0.3129122E+03  0.7818608E-02  0.1078958E+00
         -3   -1    0    0    0  501 -0.00000000000E+00  0.00000000000E+00  0.39321827701E+03  0.39321827701E+03  0.00000000000E+00 0.  1.
          3   -1    0    0  502    0  0.00000000000E+00 -0.00000000000E+00 -0.26604595247E+03  0.26604595247E+03  0.00000000000E+00 0. -1.
          6    1    1    2  502    0  0.11970443222E+03  0.23238092336E+03 -0.19834674587E+02  0.31354020309E+03  0.17200000000E+03 0. -1.
         -6    1    1    2    0  501 -0.11970443222E+03 -0.23238092336E+03  0.14700699912E+03  0.34572402639E+03  0.17200000000E+03 0.  1.
</event>
<event>
 4    1  0.3141404E-002  0.2421229E+03  0.7818608E-02  0.1118387E+00
         -2   -1    0    0    0  501 -0.00000000000E+00  0.00000000000E+00  0.12372730637E+03  0.12372730637E+03  0.00000000000E+00 0.  1.
          2   -1    0    0  502    0  0.00000000000E+00 -0.00000000000E+00 -0.55317298361E+03  0.55317298361E+03  0.00000000000E+00 0. -1.
          6    1    1    2  502    0  0.11987568195E+03  0.12111699933E+03 -0.34291669438E+03  0.41978014000E+03  0.17200000000E+03 0. -1.
         -6    1    1    2    0  501 -0.11987568195E+03 -0.12111699933E+03 -0.86528982856E+02  0.25712014998E+03  0.17200000000E+03 0.  1.
</event>
<event>
 4    1  0.3141404E-002  0.2665963E+03  0.7818608E-02  0.1103244E+00
          2   -1    0    0  502    0  0.00000000000E+00  0.00000000000E+00  0.18446086582E+04  0.18446086582E+04  0.00000000000E+00 0. -1.
         -2   -1    0    0    0  501 -0.00000000000E+00 -0.00000000000E+00 -0.39368549699E+02  0.39368549699E+02  0.00000000000E+00 0.  1.
          6    1    1    2  502    0  0.16766075386E+03  0.11566957061E+03  0.76517721586E+03  0.81028991701E+03  0.17200000000E+03 0. -1.
         -6    1    1    2    0  501 -0.16766075386E+03 -0.11566957061E+03  0.10400628926E+04  0.10736872909E+04  0.17200000000E+03 0.  1.
</event>
<event>
 4    1  0.3141404E-002  0.3468746E+03  0.7818608E-02  0.1063905E+00
         -2   -1    0    0    0  501 -0.00000000000E+00  0.00000000000E+00  0.25398833192E+04  0.25398833192E+04  0.00000000000E+00 0.  1.
          2   -1    0    0  502    0  0.00000000000E+00 -0.00000000000E+00 -0.49605758557E+02  0.49605758557E+02  0.00000000000E+00 0. -1.
          6    1    1    2  502    0 -0.22490813862E+03 -0.20038536479E+03  0.97045302679E+03  0.10305828654E+04  0.17200000000E+03 0.  1.
         -6    1    1    2    0  501  0.22490813862E+03  0.20038536479E+03  0.15198245339E+04  0.15589062124E+04  0.17200000000E+03 0.  1.
</event>
<event>
 4    1  0.3141404E-002  0.3059784E+03  0.7818608E-02  0.1082290E+00
         -2   -1    0    0    0  501 -0.00000000000E+00  0.00000000000E+00  0.96941552712E+02  0.96941552712E+02  0.00000000000E+00 0.  1.
          2   -1    0    0  502    0  0.00000000000E+00 -0.00000000000E+00 -0.12015263143E+04  0.12015263143E+04  0.00000000000E+00 0. -1.
          6    1    1    2  502    0  0.25091929885E+03 -0.32837278885E+02 -0.83988028992E+03  0.89388012776E+03  0.17200000000E+03 0. -1.
         -6    1    1    2    0  501 -0.25091929885E+03  0.32837278885E+02 -0.26470447164E+03  0.40458773922E+03  0.17200000000E+03 0. -1.
</event>
<event>
 4    1  0.3141404E-002  0.2614058E+03  0.7818608E-02  0.1106302E+00
          2   -1    0    0  502    0  0.00000000000E+00  0.00000000000E+00  0.11214395276E+04  0.11214395276E+04  0.00000000000E+00 0. -1.
         -2   -1    0    0    0  501 -0.00000000000E+00 -0.00000000000E+00 -0.75421057670E+02  0.75421057670E+02  0.00000000000E+00 0.  1.
          6    1    1    2  502    0  0.45160851337E+02  0.19159720115E+03  0.78529101948E+03  0.82765631469E+03  0.17200000000E+03 0. -1.
         -6    1    1    2    0  501 -0.45160851337E+02 -0.19159720115E+03  0.26072745042E+03  0.36920427054E+03  0.17200000000E+03 0.  1.
</event>
<event>
 4    1  0.3141404E-002  0.1928567E+03  0.7818608E-02  0.1155910E+00
         -2   -1    0    0    0  501 -0.00000000000E+00  0.00000000000E+00  0.43422311221E+02  0.43422311221E+02  0.00000000000E+00 0.  1.
          2   -1    0    0  502    0  0.00000000000E+00 -0.00000000000E+00 -0.99346274338E+03  0.99346274338E+03  0.00000000000E+00 0. -1.
          6    1    1    2  502    0  0.86670690825E+02 -0.98948129339E+01 -0.66747757235E+03  0.69478055929E+03  0.17200000000E+03 0.  1.
         -6    1    1    2    0  501 -0.86670690825E+02  0.98948129339E+01 -0.28256285980E+03  0.34210449531E+03  0.17200000000E+03 0.  1.
</event>
<event>
 4    1  0.3141404E-002  0.3589587E+03  0.7818608E-02  0.1058997E+00
          1   -1    0    0  502    0  0.00000000000E+00  0.00000000000E+00  0.70527752923E+03  0.70527752923E+03  0.00000000000E+00 0. -1.
         -1   -1    0    0    0  501 -0.00000000000E+00 -0.00000000000E+00 -0.18481063898E+03  0.18481063898E+03  0.00000000000E+00 0.  1.
          6    1    1    2  502    0  0.27656250959E+03 -0.15093222291E+03  0.21262747392E+03  0.41720714315E+03  0.17200000000E+03 0. -1.
         -6    1    1    2    0  501 -0.27656250959E+03  0.15093222291E+03  0.30783941632E+03  0.47288102506E+03  0.17200000000E+03 0. -1.
</event>
<event>
 4    1  0.3141404E-002  0.2336008E+03  0.7818608E-02  0.1124131E+00
         -2   -1    0    0    0  501 -0.00000000000E+00  0.00000000000E+00  0.27383426404E+03  0.27383426404E+03  0.00000000000E+00 0.  1.
          2   -1    0    0  502    0  0.00000000000E+00 -0.00000000000E+00 -0.23170878352E+03  0.23170878352E+03  0.00000000000E+00 0. -1.
          6    1    1    2  502    0 -0.20555718737E+02 -0.15672528285E+03 -0.73502285998E+02  0.24489168606E+03  0.17200000000E+03 0.  1.
         -6    1    1    2    0  501  0.20555718737E+02  0.15672528285E+03  0.11562776652E+03  0.26065136149E+03  0.17200000000E+03 0. -1.
</event>
<event>
 4    1  0.3141404E-002  0.4470964E+03  0.7818608E-02  0.1028591E+00
         -2   -1    0    0    0  501 -0.00000000000E+00  0.00000000000E+00  0.19299915961E+03  0.19299915961E+03  0.00000000000E+00 0.  1.
          2   -1    0    0  502    0  0.00000000000E+00 -0.00000000000E+00 -0.10357747927E+04  0.10357747927E+04  0.00000000000E+00 0. -1.
          6    1    1    2  502    0  0.28300575332E+03 -0.30036465137E+03 -0.42539039939E+03  0.61713221606E+03  0.17200000000E+03 0. -1.
         -6    1    1    2    0  501 -0.28300575332E+03  0.30036465137E+03 -0.41738523365E+03  0.61164173621E+03  0.17200000000E+03 0.  1.
</event>
<event>
 4    1  0.3141404E-002  0.2563718E+03  0.7818608E-02  0.1109343E+00
         -1   -1    0    0    0  501 -0.00000000000E+00  0.00000000000E+00  0.29650542550E+03  0.29650542550E+03  0.00000000000E+00 0.  1.
          1   -1    0    0  502    0  0.00000000000E+00 -0.00000000000E+00 -0.23861663007E+03  0.23861663007E+03  0.00000000000E+00 0. -1.
          6    1    1    2  502    0 -0.11408742416E+03 -0.15207417886E+03 -0.42358665581E+02  0.25984755681E+03  0.17200000000E+03 0. -1.
         -6    1    1    2    0  501  0.11408742416E+03  0.15207417886E+03  0.10024746101E+03  0.27527449876E+03  0.17200000000E+03 0.  1.
</event>
<event>
 4    1  0.3141404E-002  0.1989243E+03  0.7818608E-02  0.1150650E+00
          2   -1    0    0  502    0  0.00000000000E+00  0.00000000000E+00  0.34404464721E+03  0.34404464721E+03  0.00000000000E+00 0. -1.
         -2   -1    0    0    0  501 -0.00000000000E+00 -0.00000000000E+00 -0.14329684288E+03  0.14329684288E+03  0.00000000000E+00 0.  1.
          6    1    1    2  502    0  0.48130203024E+02  0.87580608977E+02  0.20862339994E+03  0.28826134412E+03  0.17200000000E+03 0. -1.
         -6    1    1    2    0  501 -0.48130203024E+02 -0.87580608977E+02 -0.78755956145E+01  0.19908014597E+03  0.17200000000E+03 0.  1.
</event>
<event>
 4    1  0.3141404E-002  0.3975790E+03  0.7818608E-02  0.1044621E+00
         -1   -1    0    0    0  501 -0.00000000000E+00  0.00000000000E+00  0.15903217159E+03  0.15903217159E+03  0.00000000000E+00 0.  1.
          1   -1    0    0  502    0  0.00000000000E+00 -0.00000000000E+00 -0.11831039982E+04  0.11831039982E+04  0.00000000000E+00 0. -1.
          6    1    1    2  502    0  0.10607826226E+02  0.35829117874E+03 -0.78036615126E+03  0.87580844068E+03  0.17200000000E+03 0. -1.
         -6    1    1    2    0  501 -0.10607826226E+02 -0.35829117874E+03 -0.24370567535E+03  0.46632772911E+03  0.17200000000E+03 0.  1.
</event>
<event>
 4    1  0.3141404E-002  0.4245118E+03  0.7818608E-02  0.1035608E+00
         -2   -1    0    0    0  501 -0.00000000000E+00  0.00000000000E+00  0.95358953423E+02  0.95358953423E+02  0.00000000000E+00 0.  1.
          2   -1    0    0  502    0  0.00000000000E+00 -0.00000000000E+00 -0.19501615976E+04  0.19501615976E+04  0.00000000000E+00 0. -1.
          6    1    1    2  502    0  0.29857611543E+03 -0.24794873470E+03 -0.11073232705E+04  0.11859068669E+04  0.17200000000E+03 0. -1.
         -6    1    1    2    0  501 -0.29857611543E+03  0.24794873470E+03 -0.74747937375E+03  0.85961368412E+03  0.17200000000E+03 0.  1.
</event>
<event>
 4    1  0.3141404E-002  0.2013037E+03  0.7818608E-02  0.1148644E+00
          2   -1    0    0  502    0  0.00000000000E+00  0.00000000000E+00  0.49693010270E+03  0.49693010270E+03  0.00000000000E+00 0. -1.
         -2   -1    0    0    0  501 -0.00000000000E+00 -0.00000000000E+00 -0.81705145842E+02  0.81705145842E+02  0.00000000000E+00 0.  1.
          6    1    1    2  502    0  0.96347429425E+02  0.40698109592E+02  0.22034069271E+03  0.29845130950E+03  0.17200000000E+03 0. -1.
         -6    1    1    2    0  501 -0.96347429425E+02 -0.40698109592E+02  0.19488426415E+03  0.28018393904E+03  0.17200000000E+03 0.  1.
</event>
<event>
 4    1  0.3141404E-002  0.6823434E+03  0.7818608E-02  0.9747913E-01
          2   -1    0    0  502    0  0.00000000000E+00  0.00000000000E+00  0.10775834266E+04  0.10775834266E+04  0.00000000000E+00 0. -1.
         -2   -1    0    0    0  501 -0.00000000000E+00 -0.00000000000E+00 -0.45970110995E+03  0.45970110995E+03  0.00000000000E+00 0.  1.
          6    1    1    2  502    0 -0.65005062649E+03  0.11594283347E+03  0.49738316855E+03  0.84438295458E+03  0.17200000000E+03 0. -1.
         -6    1    1    2    0  501  0.65005062649E+03 -0.11594283347E+03  0.12049914812E+03  0.69290158200E+03  0.17200000000E+03 0.  1.
</event>
<event>
 4    1  0.3141404E-002  0.1852922E+03  0.7818608E-02  0.1162777E+00
         -2   -1    0    0    0  501 -0.00000000000E+00  0.00000000000E+00  0.59216614977E+02  0.59216614977E+02  0.00000000000E+00 0.  1.
          2   -1    0    0  502    0  0.00000000000E+00 -0.00000000000E+00 -0.58016252709E+03  0.58016252709E+03  0.00000000000E+00 0. -1.
          6    1    1    2  502    0  0.62931026974E+02  0.28087010953E+02 -0.25237081023E+03  0.31308819875E+03  0.17200000000E+03 0. -1.
         -6    1    1    2    0  501 -0.62931026974E+02 -0.28087010953E+02 -0.26857510188E+03  0.32629094332E+03  0.17200000000E+03 0.  1.
</event>
<event>
 4    1  0.3141404E-002  0.2041720E+03  0.7818608E-02  0.1146266E+00
          2   -1    0    0  502    0  0.00000000000E+00  0.00000000000E+00  0.99674607868E+02  0.99674607868E+02  0.00000000000E+00 0. -1.
         -2   -1    0    0    0  501 -0.00000000000E+00 -0.00000000000E+00 -0.41843069276E+03  0.41843069276E+03  0.00000000000E+00 0.  1.
          6    1    1    2  502    0 -0.45943348625E+02  0.99957108700E+02 -0.16514933300E+03  0.26260334547E+03  0.17200000000E+03 0. -1.
         -6    1    1    2    0  501  0.45943348625E+02 -0.99957108700E+02 -0.15360675190E+03  0.25550195516E+03  0.17200000000E+03 0.  1.
</event>
<event>
 4    1  0.3141404E-002  0.2388005E+03  0.7818608E-02  0.1120594E+00
         -2   -1    0    0    0  501 -0.00000000000E+00  0.00000000000E+00  0.58403566288E+02  0.58403566288E+02  0.00000000000E+00 0.  1.
          2   -1    0    0  502    0  0.00000000000E+00 -0.00000000000E+00 -0.12829500689E+04  0.12829500689E+04  0.00000000000E+00 0. -1.
          6    1    1    2  502    0 -0.77762774045E+02  0.14626901572E+03 -0.94010717281E+03  0.96996245822E+03  0.17200000000E+03 0. -1.
         -6    1    1    2    0  501  0.77762774045E+02 -0.14626901572E+03 -0.28443932977E+03  0.37139117694E+03  0.17200000000E+03 0.  1.
</event>
<event>
 4    1  0.3141404E-002  0.5931200E+03  0.7818608E-02  0.9919784E-01
          1   -1    0    0  502    0  0.00000000000E+00  0.00000000000E+00  0.53249457433E+03  0.53249457433E+03  0.00000000000E+00 0. -1.
         -1   -1    0    0    0  501 -0.00000000000E+00 -0.00000000000E+00 -0.68818005281E+03  0.68818005281E+03  0.00000000000E+00 0.  1.
          6    1    1    2  502    0 -0.42932328939E+03 -0.37133386345E+03  0.44236104974E+02  0.59476731412E+03  0.17200000000E+03 0. -1.
         -6    1    1    2    0  501  0.42932328939E+03  0.37133386345E+03 -0.19992158346E+03  0.62590731302E+03  0.17200000000E+03 0.  1.
</event>
<event>
 4    1  0.3141404E-002  0.2378071E+03  0.7818608E-02  0.1121262E+00
         -1   -1    0    0    0  501 -0.00000000000E+00  0.00000000000E+00  0.25937817219E+03  0.25937817219E+03  0.00000000000E+00 0.  1.
          1   -1    0    0  502    0  0.00000000000E+00 -0.00000000000E+00 -0.26365933403E+03  0.26365933403E+03  0.00000000000E+00 0. -1.
          6    1    1    2  502    0 -0.66986112092E+02 -0.14993693455E+03 -0.11093417250E+03  0.26240924942E+03  0.17200000000E+03 0. -1.
         -6    1    1    2    0  501  0.66986112092E+02  0.14993693455E+03  0.10665301067E+03  0.26062825679E+03  0.17200000000E+03 0.  1.
</event>
<event>
 4    1  0.3141404E-002  0.1883002E+03  0.7818608E-02  0.1160003E+00
          2   -1    0    0  502    0  0.00000000000E+00  0.00000000000E+00  0.62466297359E+02  0.62466297359E+02  0.00000000000E+00 0. -1.
         -2   -1    0    0    0  501 -0.00000000000E+00 -0.00000000000E+00 -0.58643310212E+03  0.58643310212E+03  0.00000000000E+00 0.  1.
          6    1    1    2  502    0  0.76076293041E+02  0.92390508021E+01 -0.20386717621E+03  0.27752259000E+03  0.17200000000E+03 0. -1.
         -6    1    1    2    0  501 -0.76076293041E+02 -0.92390508021E+01 -0.32009962855E+03  0.37137680948E+03  0.17200000000E+03 0.  1.
</event>
<event>
 4    1  0.3141404E-002  0.3449079E+03  0.7818608E-02  0.1064725E+00
          1   -1    0    0  502    0  0.00000000000E+00  0.00000000000E+00  0.33659652887E+03  0.33659652887E+03  0.00000000000E+00 0. -1.
         -1   -1    0    0    0  501 -0.00000000000E+00 -0.00000000000E+00 -0.36943564083E+03  0.36943564083E+03  0.00000000000E+00 0.  1.
          6    1    1    2  502    0  0.24862844432E+03  0.16601620530E+03 -0.89910745545E+02  0.35643432202E+03  0.17200000000E+03 0.  1.
         -6    1    1    2    0  501 -0.24862844432E+03 -0.16601620530E+03  0.57071633586E+02  0.34959784769E+03  0.17200000000E+03 0. -1.
</event>
<event>
 4    1  0.3141404E-002  0.3549926E+03  0.7818608E-02  0.1060584E+00
          2   -1    0    0  502    0  0.00000000000E+00  0.00000000000E+00  0.48698881333E+03  0.48698881333E+03  0.00000000000E+00 0. -1.
         -2   -1    0    0    0  501 -0.00000000000E+00 -0.00000000000E+00 -0.28722091338E+03  0.28722091338E+03  0.00000000000E+00 0.  1.
          6    1    1    2  502    0  0.30884319960E+03 -0.32428353551E+02  0.22171086256E+03  0.41853963567E+03  0.17200000000E+03 0. -1.
         -6    1    1    2    0  501 -0.30884319960E+03  0.32428353551E+02 -0.21942962616E+02  0.35567009104E+03  0.17200000000E+03 0.  1.
</event>
<event>
 4    1  0.3141404E-002  0.2829474E+03  0.7818608E-02  0.1094090E+00
          3   -1    0    0  502    0  0.00000000000E+00  0.00000000000E+00  0.13551101382E+03  0.13551101382E+03  0.00000000000E+00 0. -1.
         -3   -1    0    0    0  501 -0.00000000000E+00 -0.00000000000E+00 -0.65812245588E+03  0.65812245588E+03  0.00000000000E+00 0.  1.
          6    1    1    2  502    0 -0.17077856755E+03 -0.14597909934E+03 -0.13438485355E+03  0.31323873554E+03  0.17200000000E+03 0. -1.
         -6    1    1    2    0  501  0.17077856755E+03  0.14597909934E+03 -0.38822658851E+03  0.48039473416E+03  0.17200000000E+03 0.  1.
</event>
<event>
 4    1  0.3141404E-002  0.2568739E+03  0.7818608E-02  0.1109036E+00
          2   -1    0    0  502    0  0.00000000000E+00  0.00000000000E+00  0.12383737321E+04  0.12383737321E+04  0.00000000000E+00 0. -1.
         -2   -1    0    0    0  501 -0.00000000000E+00 -0.00000000000E+00 -0.70082212201E+02  0.70082212201E+02  0.00000000000E+00 0.  1.
          6    1    1    2  502    0  0.48931298020E+02 -0.18440701663E+03  0.90445551499E+03  0.94022550397E+03  0.17200000000E+03 0. -1.
         -6    1    1    2    0  501 -0.48931298020E+02  0.18440701663E+03  0.26383600492E+03  0.36823044035E+03  0.17200000000E+03 0.  1.
</event>
<event>
 4    1  0.3141404E-002  0.1749647E+03  0.7818608E-02  0.1172767E+00
          1   -1    0    0  502    0  0.00000000000E+00  0.00000000000E+00  0.16541321600E+03  0.16541321600E+03  0.00000000000E+00 0. -1.
         -1   -1    0    0    0  501 -0.00000000000E+00 -0.00000000000E+00 -0.26852937990E+03  0.26852937990E+03  0.00000000000E+00 0.  1.
          6    1    1    2  502    0 -0.23400044934E+02 -0.21933370680E+02  0.69404229879E+02  0.18822747402E+03  0.17200000000E+03 0. -1.
         -6    1    1    2    0  501  0.23400044934E+02  0.21933370680E+02 -0.17252039377E+03  0.24571512188E+03  0.17200000000E+03 0.  1.
</event>
<event>
 4    1  0.3141404E-002  0.1935014E+03  0.7818608E-02  0.1155341E+00
         -2   -1    0    0    0  501 -0.00000000000E+00  0.00000000000E+00  0.16591947427E+03  0.16591947427E+03  0.00000000000E+00 0.  1.
          2   -1    0    0  502    0  0.00000000000E+00 -0.00000000000E+00 -0.71234055901E+03  0.71234055901E+03  0.00000000000E+00 0. -1.
          6    1    1    2  502    0 -0.68775195185E+02  0.55935337024E+02 -0.63617785825E+03  0.66495492834E+03  0.17200000000E+03 0. -1.
         -6    1    1    2    0  501  0.68775195185E+02 -0.55935337024E+02  0.89756773515E+02  0.21330510494E+03  0.17200000000E+03 0.  1.
</event>
<event>
 4    1  0.3141404E-002  0.3613249E+03  0.7818608E-02  0.1058060E+00
          2   -1    0    0  502    0  0.00000000000E+00  0.00000000000E+00  0.14910616542E+04  0.14910616542E+04  0.00000000000E+00 0. -1.
         -2   -1    0    0    0  501 -0.00000000000E+00 -0.00000000000E+00 -0.43045620186E+03  0.43045620186E+03  0.00000000000E+00 0.  1.
          6    1    1    2  502    0 -0.31711728895E+03 -0.20207271188E+02  0.13877984880E+04  0.14340642775E+04  0.17200000000E+03 0. -1.
         -6    1    1    2    0  501  0.31711728895E+03  0.20207271188E+02 -0.32719303559E+03  0.48745357861E+03  0.17200000000E+03 0.  1.
</event>
<event>
 4    1  0.3141404E-002  0.1783118E+03  0.7818608E-02  0.1169447E+00
         -2   -1    0    0    0  501 -0.00000000000E+00  0.00000000000E+00  0.25416353280E+03  0.25416353280E+03  0.00000000000E+00 0.  1.
          2   -1    0    0  502    0  0.00000000000E+00 -0.00000000000E+00 -0.13358111863E+03  0.13358111863E+03  0.00000000000E+00 0. -1.
          6    1    1    2  502    0  0.46133490575E+02  0.90986408903E+01  0.11431846306E+02  0.17867784230E+03  0.17200000000E+03 0. -1.
         -6    1    1    2    0  501 -0.46133490575E+02 -0.90986408903E+01  0.10915056786E+03  0.20906680914E+03  0.17200000000E+03 0.  1.
</event>
<event>
 4    1  0.3141404E-002  0.3643239E+03  0.7818608E-02  0.1056885E+00
          2   -1    0    0  502    0  0.00000000000E+00  0.00000000000E+00  0.25683674811E+03  0.25683674811E+03  0.00000000000E+00 0. -1.
         -2   -1    0    0    0  501 -0.00000000000E+00 -0.00000000000E+00 -0.53390850148E+03  0.53390850148E+03  0.00000000000E+00 0.  1.
          6    1    1    2  502    0  0.26607811249E+03 -0.17986202138E+03 -0.67750341343E+02  0.37056985500E+03  0.17200000000E+03 0. -1.
         -6    1    1    2    0  501 -0.26607811249E+03  0.17986202138E+03 -0.20932141203E+03  0.42017539459E+03  0.17200000000E+03 0.  1.
</event>
<event>
 4    1  0.3141404E-002  0.2507185E+03  0.7818608E-02  0.1112852E+00
          1   -1    0    0  502    0  0.00000000000E+00  0.00000000000E+00  0.73573807859E+03  0.73573807859E+03  0.00000000000E+00 0. -1.
         -1   -1    0    0    0  501 -0.00000000000E+00 -0.00000000000E+00 -0.93950178020E+02  0.93950178020E+02  0.00000000000E+00 0.  1.
          6    1    1    2  502    0 -0.13581096118E+03 -0.12178311915E+03  0.44576592393E+03  0.51143621716E+03  0.17200000000E+03 0. -1.
         -6    1    1    2    0  501  0.13581096118E+03  0.12178311915E+03  0.19602197664E+03  0.31825203945E+03  0.17200000000E+03 0. -1.
</event>
<event>
 4    1  0.3141404E-002  0.2293961E+03  0.7818608E-02  0.1127066E+00
         -2   -1    0    0    0  501 -0.00000000000E+00  0.00000000000E+00  0.10040518958E+03  0.10040518958E+03  0.00000000000E+00 0.  1.
          2   -1    0    0  502    0  0.00000000000E+00 -0.00000000000E+00 -0.78995015934E+03  0.78995015934E+03  0.00000000000E+00 0. -1.
          6    1    1    2  502    0  0.15173935576E+03 -0.37088340305E+01 -0.86516650749E+02  0.24516875493E+03  0.17200000000E+03 0.  1.
         -6    1    1    2    0  501 -0.15173935576E+03  0.37088340305E+01 -0.60302831901E+03  0.64518659399E+03  0.17200000000E+03 0. -1.
</event>
<event>
 4    1  0.3141404E-002  0.5049094E+03  0.7818608E-02  0.1012505E+00
          2   -1    0    0  502    0  0.00000000000E+00  0.00000000000E+00  0.15299511320E+04  0.15299511320E+04  0.00000000000E+00 0. -1.
         -2   -1    0    0    0  501 -0.00000000000E+00 -0.00000000000E+00 -0.22287164559E+03  0.22287164559E+03  0.00000000000E+00 0.  1.
          6    1    1    2  502    0  0.45775175089E+03  0.12574912047E+03  0.10938058885E+04  0.12047177381E+04  0.17200000000E+03 0. -1.
         -6    1    1    2    0  501 -0.45775175089E+03 -0.12574912047E+03  0.21327359788E+03  0.54810503947E+03  0.17200000000E+03 0.  1.
</event>
<event>
 4    1  0.3141404E-002  0.3053742E+03  0.7818608E-02  0.1082585E+00
          1   -1    0    0  502    0  0.00000000000E+00  0.00000000000E+00  0.11828245848E+03  0.11828245848E+03  0.00000000000E+00 0. -1.
         -1   -1    0    0    0  501 -0.00000000000E+00 -0.00000000000E+00 -0.10396230649E+04  0.10396230649E+04  0.00000000000E+00 0.  1.
          6    1    1    2  502    0  0.78307988237E+02  0.23986924471E+03 -0.17606791070E+03  0.35249582233E+03  0.17200000000E+03 0. -1.
         -6    1    1    2    0  501 -0.78307988237E+02 -0.23986924471E+03 -0.74527269571E+03  0.80540970105E+03  0.17200000000E+03 0.  1.
</event>
<event>
 4    1  0.3141404E-002  0.3499411E+03  0.7818608E-02  0.1062639E+00
         -1   -1    0    0    0  501 -0.00000000000E+00  0.00000000000E+00  0.15806202866E+03  0.15806202866E+03  0.00000000000E+00 0.  1.
          1   -1    0    0  502    0  0.00000000000E+00 -0.00000000000E+00 -0.12149717062E+04  0.12149717062E+04  0.00000000000E+00 0. -1.
          6    1    1    2  502    0 -0.20179301232E+03 -0.22837323391E+03 -0.94169568412E+03  0.10046141126E+04  0.17200000000E+03 0. -1.
         -6    1    1    2    0  501  0.20179301232E+03  0.22837323391E+03 -0.11521399345E+03  0.36841962227E+03  0.17200000000E+03 0.  1.
</event>
<event>
 4    1  0.3141404E-002  0.2699580E+03  0.7818608E-02  0.1101304E+00
         -1   -1    0    0    0  501 -0.00000000000E+00  0.00000000000E+00  0.86503255874E+02  0.86503255874E+02  0.00000000000E+00 0.  1.
          1   -1    0    0  502    0  0.00000000000E+00 -0.00000000000E+00 -0.90937601059E+03  0.90937601059E+03  0.00000000000E+00 0. -1.
          6    1    1    2  502    0 -0.20376078041E+03 -0.42129245049E+02 -0.27638389090E+03  0.38634878552E+03  0.17200000000E+03 0. -1.
         -6    1    1    2    0  501  0.20376078041E+03  0.42129245049E+02 -0.54648886382E+03  0.60953048095E+03  0.17200000000E+03 0.  1.
</event>
<event>
 4    1  0.3141404E-002  0.5235713E+03  0.7818608E-02  0.1007803E+00
         -1   -1    0    0    0  501 -0.00000000000E+00  0.00000000000E+00  0.51962157598E+03  0.51962157598E+03  0.00000000000E+00 0.  1.
          1   -1    0    0  502    0  0.00000000000E+00 -0.00000000000E+00 -0.92083549041E+03  0.92083549041E+03  0.00000000000E+00 0. -1.
          6    1    1    2  502    0 -0.21994325142E+03  0.44290843918E+03 -0.67129446096E+03  0.85133023713E+03  0.17200000000E+03 0. -1.
         -6    1    1    2    0  501  0.21994325142E+03 -0.44290843918E+03  0.27008054653E+03  0.58912682926E+03  0.17200000000E+03 0.  1.
</event>
<event>
 4    1  0.3141404E-002  0.1893108E+03  0.7818608E-02  0.1159084E+00
         -1   -1    0    0    0  501 -0.00000000000E+00  0.00000000000E+00  0.48171275287E+03  0.48171275287E+03  0.00000000000E+00 0.  1.
          1   -1    0    0  502    0  0.00000000000E+00 -0.00000000000E+00 -0.76751967699E+02  0.76751967699E+02  0.00000000000E+00 0. -1.
          6    1    1    2  502    0  0.68589582068E+02 -0.39370789040E+02  0.15358168146E+03  0.24377432735E+03  0.17200000000E+03 0. -1.
         -6    1    1    2    0  501 -0.68589582068E+02  0.39370789040E+02  0.25137910372E+03  0.31469039322E+03  0.17200000000E+03 0.  1.
</event>
<event>
 4    1  0.3141404E-002  0.9963794E+03  0.7818608E-02  0.9312525E-01
          1   -1    0    0  502    0  0.00000000000E+00  0.00000000000E+00  0.20652350627E+04  0.20652350627E+04  0.00000000000E+00 0. -1.
         -1   -1    0    0    0  501 -0.00000000000E+00 -0.00000000000E+00 -0.48085558464E+03  0.48085558464E+03  0.00000000000E+00 0.  1.
          6    1    1    2  502    0  0.98121524222E+03  0.20113800219E+02  0.81460555150E+03  0.12869942195E+04  0.17200000000E+03 0. -1.
         -6    1    1    2    0  501 -0.98121524222E+03 -0.20113800219E+02  0.76977392654E+03  0.12590964278E+04  0.17200000000E+03 0.  1.
</event>
<event>
 4    1  0.3141404E-002  0.1729511E+03  0.7818608E-02  0.1174805E+00
         -1   -1    0    0    0  501 -0.00000000000E+00  0.00000000000E+00  0.33019257392E+02  0.33019257392E+02  0.00000000000E+00 0.  1.
          1   -1    0    0  502    0  0.00000000000E+00 -0.00000000000E+00 -0.21687761110E+04  0.21687761110E+04  0.00000000000E+00 0. -1.
          6    1    1    2  502    0  0.18014676452E+02  0.18836270698E+01 -0.19079578152E+04  0.19157805462E+04  0.17200000000E+03 0. -1.
         -6    1    1    2    0  501 -0.18014676452E+02 -0.18836270698E+01 -0.22779903845E+03  0.28601482223E+03  0.17200000000E+03 0.  1.
</event>
<event>
 4    1  0.3141404E-002  0.1963075E+03  0.7818608E-02  0.1152892E+00
          2   -1    0    0  502    0  0.00000000000E+00  0.00000000000E+00  0.29022699917E+03  0.29022699917E+03  0.00000000000E+00 0. -1.
         -2   -1    0    0    0  501 -0.00000000000E+00 -0.00000000000E+00 -0.20253210093E+03  0.20253210093E+03  0.00000000000E+00 0.  1.
          6    1    1    2  502    0  0.25668901391E+02 -0.91070028933E+02  0.18843574327E+03  0.27211150658E+03  0.17200000000E+03 0. -1.
         -6    1    1    2    0  501 -0.25668901391E+02  0.91070028933E+02 -0.10074084503E+03  0.22064759352E+03  0.17200000000E+03 0.  1.
</event>
<event>
 4    1  0.3141404E-002  0.3027621E+03  0.7818608E-02  0.1083868E+00
          1   -1    0    0  502    0  0.00000000000E+00  0.00000000000E+00  0.96396964085E+03  0.96396964085E+03  0.00000000000E+00 0. -1.
         -1   -1    0    0    0  501 -0.00000000000E+00 -0.00000000000E+00 -0.98499221771E+02  0.98499221771E+02  0.00000000000E+00 0.  1.
          6    1    1    2  502    0  0.24621081879E+03 -0.38224822984E+02  0.53155166990E+03  0.61172876518E+03  0.17200000000E+03 0. -1.
         -6    1    1    2    0  501 -0.24621081879E+03  0.38224822984E+02  0.33391874918E+03  0.45074009743E+03  0.17200000000E+03 0. -1.
</event>
<event>
 4    1  0.3141404E-002  0.1798976E+03  0.7818608E-02  0.1167902E+00
          2   -1    0    0  502    0  0.00000000000E+00  0.00000000000E+00  0.20569703960E+04  0.20569703960E+04  0.00000000000E+00 0. -1.
         -2   -1    0    0    0  501 -0.00000000000E+00 -0.00000000000E+00 -0.23772912559E+02  0.23772912559E+02  0.00000000000E+00 0.  1.
          6    1    1    2  502    0  0.50303919913E+02  0.15769560773E+02  0.41158973462E+03  0.44918734738E+03  0.17200000000E+03 0.  1.
         -6    1    1    2    0  501 -0.50303919913E+02 -0.15769560773E+02  0.16216077488E+04  0.16315559612E+04  0.17200000000E+03 0. -1.
</event>
<event>
 4    1  0.3141404E-002  0.3001877E+03  0.7818608E-02  0.1085147E+00
          1   -1    0    0  502    0  0.00000000000E+00  0.00000000000E+00  0.16058695387E+03  0.16058695387E+03  0.00000000000E+00 0. -1.
         -1   -1    0    0    0  501 -0.00000000000E+00 -0.00000000000E+00 -0.79798193151E+03  0.79798193151E+03  0.00000000000E+00 0.  1.
          6    1    1    2  502    0 -0.33117314072E+02 -0.24378653707E+03 -0.57980606694E+03  0.65290712005E+03  0.17200000000E+03 0. -1.
         -6    1    1    2    0  501  0.33117314072E+02  0.24378653707E+03 -0.57588910687E+02  0.30566176533E+03  0.17200000000E+03 0.  1.
</event>
<event>
 4    1  0.3141404E-002  0.2213434E+03  0.7818608E-02  0.1132885E+00
          1   -1    0    0  502    0  0.00000000000E+00  0.00000000000E+00  0.17077216691E+03  0.17077216691E+03  0.00000000000E+00 0. -1.
         -1   -1    0    0    0  501 -0.00000000000E+00 -0.00000000000E+00 -0.80749949426E+03  0.80749949426E+03  0.00000000000E+00 0.  1.
          6    1    1    2  502    0 -0.13898534943E+03 -0.95891629360E+01  0.74384589131E+02  0.23350791529E+03  0.17200000000E+03 0. -1.
         -6    1    1    2    0  501  0.13898534943E+03  0.95891629360E+01 -0.71111191648E+03  0.74476374587E+03  0.17200000000E+03 0.  1.
</event>
<event>
 4    1  0.3141404E-002  0.6115269E+03  0.7818608E-02  0.9881776E-01
          3   -1    0    0  502    0  0.00000000000E+00  0.00000000000E+00  0.39612769778E+03  0.39612769778E+03  0.00000000000E+00 0. -1.
         -3   -1    0    0    0  501 -0.00000000000E+00 -0.00000000000E+00 -0.97128935583E+03  0.97128935583E+03  0.00000000000E+00 0.  1.
          6    1    1    2  502    0 -0.38931128658E+03 -0.43911030188E+03 -0.17308771692E+03  0.63555054309E+03  0.17200000000E+03 0.  1.
         -6    1    1    2    0  501  0.38931128658E+03  0.43911030188E+03 -0.40207394113E+03  0.73186651052E+03  0.17200000000E+03 0.  1.
</event>
<event>
 4    1  0.3141404E-002  0.1779051E+03  0.7818608E-02  0.1169846E+00
          2   -1    0    0  502    0  0.00000000000E+00  0.00000000000E+00  0.93572303324E+03  0.93572303324E+03  0.00000000000E+00 0. -1.
         -2   -1    0    0    0  501 -0.00000000000E+00 -0.00000000000E+00 -0.38576449745E+03  0.38576449745E+03  0.00000000000E+00 0.  1.
          6    1    1    2  502    0  0.22372004088E+01  0.45400743557E+02  0.90609113356E+03  0.92339123609E+03  0.17200000000E+03 0. -1.
         -6    1    1    2    0  501 -0.22372004088E+01 -0.45400743557E+02 -0.35613259777E+03  0.39809629460E+03  0.17200000000E+03 0.  1.
</event>
<event>
 4    1  0.3141404E-002  0.1887238E+03  0.7818608E-02  0.1159617E+00
          2   -1    0    0  502    0  0.00000000000E+00  0.00000000000E+00  0.10037891462E+03  0.10037891462E+03  0.00000000000E+00 0. -1.
         -2   -1    0    0    0  501 -0.00000000000E+00 -0.00000000000E+00 -0.35637284683E+03  0.35637284683E+03  0.00000000000E+00 0.  1.
          6    1    1    2  502    0  0.71742025206E+01 -0.77338247568E+02 -0.11293278762E+03  0.21993291759E+03  0.17200000000E+03 0. -1.
         -6    1    1    2    0  501 -0.71742025206E+01  0.77338247568E+02 -0.14306114459E+03  0.23681884387E+03  0.17200000000E+03 0. -1.
</event>
<event>
 4    1  0.3141404E-002  0.2082034E+03  0.7818608E-02  0.1142997E+00
         -1   -1    0    0    0  501 -0.00000000000E+00  0.00000000000E+00  0.26061701022E+02  0.26061701022E+02  0.00000000000E+00 0.  1.
          1   -1    0    0  502    0  0.00000000000E+00 -0.00000000000E+00 -0.23016434810E+04  0.23016434810E+04  0.00000000000E+00 0. -1.
          6    1    1    2  502    0  0.90226281275E+02  0.74992523854E+02 -0.52487183748E+03  0.56465839783E+03  0.17200000000E+03 0.  1.
         -6    1    1    2    0  501 -0.90226281275E+02 -0.74992523854E+02 -0.17507099425E+04  0.17630467841E+04  0.17200000000E+03 0. -1.
</event>
<event>
 4    1  0.3141404E-002  0.4702934E+03  0.7818608E-02  0.1021837E+00
          1   -1    0    0  502    0  0.00000000000E+00  0.00000000000E+00  0.88831352044E+03  0.88831352044E+03  0.00000000000E+00 0. -1.
         -1   -1    0    0    0  501 -0.00000000000E+00 -0.00000000000E+00 -0.68759316809E+03  0.68759316809E+03  0.00000000000E+00 0.  1.
          6    1    1    2  502    0 -0.42674825814E+03  0.97353821874E+02  0.72968314899E+03  0.86810906019E+03  0.17200000000E+03 0. -1.
         -6    1    1    2    0  501  0.42674825814E+03 -0.97353821874E+02 -0.52896279664E+03  0.70779762835E+03  0.17200000000E+03 0.  1.
</event>
<event>
 4    1  0.3141404E-002  0.3873319E+03  0.7818608E-02  0.1048257E+00
         -2   -1    0    0    0  501 -0.00000000000E+00  0.00000000000E+00  0.37611898506E+03  0.37611898506E+03  0.00000000000E+00 0.  1.
          2   -1    0    0  502    0  0.00000000000E+00 -0.00000000000E+00 -0.51949106617E+03  0.51949106617E+03  0.00000000000E+00 0. -1.
          6    1    1    2  502    0 -0.20657111238E+03  0.27887335378E+03  0.14408604805E+03  0.41326354928E+03  0.17200000000E+03 0.  1.
         -6    1    1    2    0  501  0.20657111238E+03 -0.27887335378E+03 -0.28745812917E+03  0.48234650195E+03  0.17200000000E+03 0. -1.
</event>
<event>
 4    1  0.3141404E-002  0.2256895E+03  0.7818608E-02  0.1129711E+00
         -1   -1    0    0    0  501 -0.00000000000E+00  0.00000000000E+00  0.55092846530E+02  0.55092846530E+02  0.00000000000E+00 0.  1.
          1   -1    0    0  502    0  0.00000000000E+00 -0.00000000000E+00 -0.38068269964E+04  0.38068269964E+04  0.00000000000E+00 0. -1.
          6    1    1    2  502    0 -0.14596659253E+03 -0.67446322267E+01 -0.35560634093E+04  0.35632180268E+04  0.17200000000E+03 0. -1.
         -6    1    1    2    0  501  0.14596659253E+03  0.67446322267E+01 -0.19567074062E+03  0.29870181609E+03  0.17200000000E+03 0.  1.
</event>
<event>
 4    1  0.3141404E-002  0.2027481E+03  0.7818608E-02  0.1147441E+00
          2   -1    0    0  502    0  0.00000000000E+00  0.00000000000E+00  0.10458801022E+04  0.10458801022E+04  0.00000000000E+00 0. -1.
         -2   -1    0    0    0  501 -0.00000000000E+00 -0.00000000000E+00 -0.47500345398E+02  0.47500345398E+02  0.00000000000E+00 0.  1.
          6    1    1    2  502    0 -0.10466296485E+03  0.23842294145E+02  0.72628887563E+03  0.75405724058E+03  0.17200000000E+03 0. -1.
         -6    1    1    2    0  501  0.10466296485E+03 -0.23842294145E+02  0.27209088114E+03  0.33932320699E+03  0.17200000000E+03 0.  1.
</event>
<event>
 4    1  0.3141404E-002  0.1828627E+03  0.7818608E-02  0.1165061E+00
          2   -1    0    0  502    0  0.00000000000E+00  0.00000000000E+00  0.93171017674E+03  0.93171017674E+03  0.00000000000E+00 0. -1.
         -2   -1    0    0    0  501 -0.00000000000E+00 -0.00000000000E+00 -0.10044588924E+03  0.10044588924E+03  0.00000000000E+00 0.  1.
          6    1    1    2  502    0  0.49072140257E+02 -0.38035202446E+02  0.82936346766E+03  0.84928352925E+03  0.17200000000E+03 0. -1.
         -6    1    1    2    0  501 -0.49072140257E+02  0.38035202446E+02  0.19008198489E+01  0.18287253673E+03  0.17200000000E+03 0.  1.
</event>
<event>
 4    1  0.3141404E-002  0.1778307E+03  0.7818608E-02  0.1169919E+00
          1   -1    0    0  502    0  0.00000000000E+00  0.00000000000E+00  0.79348195866E+03  0.79348195866E+03  0.00000000000E+00 0. -1.
         -1   -1    0    0    0  501 -0.00000000000E+00 -0.00000000000E+00 -0.57307307342E+02  0.57307307342E+02  0.00000000000E+00 0.  1.
          6    1    1    2  502    0 -0.32048905839E+02 -0.31821560546E+02  0.60284562134E+03  0.62852731623E+03  0.17200000000E+03 0. -1.
         -6    1    1    2    0  501  0.32048905839E+02  0.31821560546E+02  0.13332902998E+03  0.22226194977E+03  0.17200000000E+03 0.  1.
</event>
<event>
 4    1  0.3141404E-002  0.1901900E+03  0.7818608E-02  0.1158290E+00
         -2   -1    0    0    0  501 -0.00000000000E+00  0.00000000000E+00  0.24649677841E+02  0.24649677841E+02  0.00000000000E+00 0.  1.
          2   -1    0    0  502    0  0.00000000000E+00 -0.00000000000E+00 -0.16069489947E+04  0.16069489947E+04  0.00000000000E+00 0. -1.
          6    1    1    2  502    0 -0.80516651116E+02  0.10261422085E+02 -0.55078856624E+03  0.58270084314E+03  0.17200000000E+03 0.  1.
         -6    1    1    2    0  501  0.80516651116E+02 -0.10261422085E+02 -0.10315107506E+04  0.10488978294E+04  0.17200000000E+03 0. -1.
</event>
<event>
 4    1  0.3141404E-002  0.1934671E+03  0.7818608E-02  0.1155371E+00
         -2   -1    0    0    0  501 -0.00000000000E+00  0.00000000000E+00  0.18293688512E+03  0.18293688512E+03  0.00000000000E+00 0.  1.
          2   -1    0    0  502    0  0.00000000000E+00 -0.00000000000E+00 -0.42818840415E+03  0.42818840415E+03  0.00000000000E+00 0. -1.
          6    1    1    2  502    0  0.80493073067E+02 -0.36964485033E+02 -0.34342834225E+03  0.39417322870E+03  0.17200000000E+03 0. -1.
         -6    1    1    2    0  501 -0.80493073067E+02  0.36964485033E+02  0.98176823225E+02  0.21695206057E+03  0.17200000000E+03 0.  1.
</event>
<event>
 4    1  0.3141404E-002  0.2296476E+03  0.7818608E-02  0.1126888E+00
         -1   -1    0    0    0  501 -0.00000000000E+00  0.00000000000E+00  0.43970178850E+03  0.43970178850E+03  0.00000000000E+00 0.  1.
          1   -1    0    0  502    0  0.00000000000E+00 -0.00000000000E+00 -0.17136990866E+03  0.17136990866E+03  0.00000000000E+00 0. -1.
          6    1    1    2  502    0  0.13235297951E+03 -0.75078072995E+02 -0.33213028894E+02  0.23203692275E+03  0.17200000000E+03 0. -1.
         -6    1    1    2    0  501 -0.13235297951E+03  0.75078072995E+02  0.30154490873E+03  0.37903477441E+03  0.17200000000E+03 0.  1.
</event>
<event>
 4    1  0.3141404E-002  0.1936349E+03  0.7818608E-02  0.1155223E+00
          2   -1    0    0  502    0  0.00000000000E+00  0.00000000000E+00  0.81932250799E+02  0.81932250799E+02  0.00000000000E+00 0. -1.
         -2   -1    0    0    0  501 -0.00000000000E+00 -0.00000000000E+00 -0.47412771769E+03  0.47412771769E+03  0.00000000000E+00 0.  1.
          6    1    1    2  502    0  0.52154281494E+02 -0.72044540985E+02 -0.14423166121E+03  0.24144824924E+03  0.17200000000E+03 0. -1.
         -6    1    1    2    0  501 -0.52154281494E+02  0.72044540985E+02 -0.24796380568E+03  0.31461171926E+03  0.17200000000E+03 0. -1.
</event>
<event>
 4    1  0.3141404E-002  0.2674450E+03  0.7818608E-02  0.1102751E+00
          1   -1    0    0  502    0  0.00000000000E+00  0.00000000000E+00  0.26431473649E+03  0.26431473649E+03  0.00000000000E+00 0. -1.
         -1   -1    0    0    0  501 -0.00000000000E+00 -0.00000000000E+00 -0.29193642405E+03  0.29193642405E+03  0.00000000000E+00 0.  1.
          6    1    1    2  502    0  0.20230624639E+03 -0.31859125741E+02  0.61357035545E+02  0.27439297920E+03  0.17200000000E+03 0. -1.
         -6    1    1    2    0  501 -0.20230624639E+03  0.31859125741E+02 -0.88978723110E+02  0.28185818134E+03  0.17200000000E+03 0.  1.
</event>
<event>
 4    1  0.3141404E-002  0.2314629E+03  0.7818608E-02  0.1125614E+00
          2   -1    0    0  502    0  0.00000000000E+00  0.00000000000E+00  0.31535031064E+04  0.31535031064E+04  0.00000000000E+00 0. -1.
         -2   -1    0    0    0  501 -0.00000000000E+00 -0.00000000000E+00 -0.22986511829E+02  0.22986511829E+02  0.00000000000E+00 0.  1.
          6    1    1    2  502    0 -0.12600957244E+03  0.90070275483E+02  0.23765259105E+04  0.23877710254E+04  0.17200000000E+03 0. -1.
         -6    1    1    2    0  501  0.12600957244E+03 -0.90070275483E+02  0.75399068407E+03  0.78871859274E+03  0.17200000000E+03 0.  1.
</event>
<event>
 4    1  0.3141404E-002  0.1852095E+03  0.7818608E-02  0.1162854E+00
          1   -1    0    0  502    0  0.00000000000E+00  0.00000000000E+00  0.78818146546E+02  0.78818146546E+02  0.00000000000E+00 0. -1.
         -1   -1    0    0    0  501 -0.00000000000E+00 -0.00000000000E+00 -0.45348152685E+03  0.45348152685E+03  0.00000000000E+00 0.  1.
          6    1    1    2  502    0 -0.57886712882E+02  0.36982319485E+02 -0.24075318574E+03  0.30375098342E+03  0.17200000000E+03 0.  1.
         -6    1    1    2    0  501  0.57886712882E+02 -0.36982319485E+02 -0.13391019456E+03  0.22854868998E+03  0.17200000000E+03 0.  1.
</event>
<event>
 4    1  0.3141404E-002  0.1739910E+03  0.7818608E-02  0.1173749E+00
         -1   -1    0    0    0  501 -0.00000000000E+00  0.00000000000E+00  0.90262947345E+02  0.90262947345E+02  0.00000000000E+00 0.  1.
          1   -1    0    0  502    0  0.00000000000E+00 -0.00000000000E+00 -0.52298904389E+03  0.52298904389E+03  0.00000000000E+00 0. -1.
          6    1    1    2  502    0 -0.24383530044E+02 -0.97109952483E+01 -0.40000990509E+03  0.43621185694E+03  0.17200000000E+03 0. -1.
         -6    1    1    2    0  501  0.24383530044E+02  0.97109952483E+01 -0.32716191451E+02  0.17704013429E+03  0.17200000000E+03 0.  1.
</event>
<event>
 4    1  0.3141404E-002  0.2538653E+03  0.7818608E-02  0.1110886E+00
         -2   -1    0    0    0  501 -0.00000000000E+00  0.00000000000E+00  0.56905340304E+02  0.56905340304E+02  0.00000000000E+00 0.  1.
          2   -1    0    0  502    0  0.00000000000E+00 -0.00000000000E+00 -0.13482530171E+04  0.13482530171E+04  0.00000000000E+00 0. -1.
          6    1    1    2  502    0  0.54633370048E+02 -0.17854635344E+03 -0.36464738868E+03  0.44431444217E+03  0.17200000000E+03 0.  1.
         -6    1    1    2    0  501 -0.54633370048E+02  0.17854635344E+03 -0.92670028812E+03  0.96084391524E+03  0.17200000000E+03 0.  1.
</event>
<event>
 4    1  0.3141404E-002  0.3324683E+03  0.7818608E-02  0.1070050E+00
          1   -1    0    0  502    0  0.00000000000E+00  0.00000000000E+00  0.22809921510E+04  0.22809921510E+04  0.00000000000E+00 0. -1.
         -1   -1    0    0    0  501 -0.00000000000E+00 -0.00000000000E+00 -0.67393558682E+02  0.67393558682E+02  0.00000000000E+00 0.  1.
          6    1    1    2  502    0 -0.23884200783E+03  0.15461467200E+03  0.17291781106E+04  0.17608498345E+04  0.17200000000E+03 0. -1.
         -6    1    1    2    0  501  0.23884200783E+03 -0.15461467200E+03  0.48442048166E+03  0.58753587512E+03  0.17200000000E+03 0.  1.
</event>
<event>
 4    1  0.3141404E-002  0.4985366E+03  0.7818608E-02  0.1014162E+00
         -2   -1    0    0    0  501 -0.00000000000E+00  0.00000000000E+00  0.33301581915E+03  0.33301581915E+03  0.00000000000E+00 0.  1.
          2   -1    0    0  502    0  0.00000000000E+00 -0.00000000000E+00 -0.77662493327E+03  0.77662493327E+03  0.00000000000E+00 0. -1.
          6    1    1    2  502    0 -0.39572263318E+03 -0.24971643837E+03 -0.33139006831E+03  0.59863016912E+03  0.17200000000E+03 0. -1.
         -6    1    1    2    0  501  0.39572263318E+03  0.24971643837E+03 -0.11221904582E+03  0.51101058330E+03  0.17200000000E+03 0.  1.
</event>
<event>
 4    1  0.3141404E-002  0.1757916E+03  0.7818608E-02  0.1171939E+00
          2   -1    0    0  502    0  0.00000000000E+00  0.00000000000E+00  0.15326946886E+03  0.15326946886E+03  0.00000000000E+00 0. -1.
         -2   -1    0    0    0  501 -0.00000000000E+00 -0.00000000000E+00 -0.21584211691E+03  0.21584211691E+03  0.00000000000E+00 0.  1.
          6    1    1    2  502    0  0.20560544962E+02 -0.29932512764E+02 -0.78655059588E+02  0.19258585028E+03  0.17200000000E+03 0.  1.
         -6    1    1    2    0  501 -0.20560544962E+02  0.29932512764E+02  0.16082411541E+02  0.17652573549E+03  0.17200000000E+03 0. -1.
</event>
<event>
 4    1  0.3141404E-002  0.3662141E+03  0.7818608E-02  0.1056150E+00
          2   -1    0    0  502    0  0.00000000000E+00  0.00000000000E+00  0.45863680180E+03  0.45863680180E+03  0.00000000000E+00 0. -1.
         -2   -1    0    0    0  501 -0.00000000000E+00 -0.00000000000E+00 -0.46067580030E+03  0.46067580030E+03  0.00000000000E+00 0.  1.
          6    1    1    2  502    0  0.13157391637E+03  0.29532534472E+03 -0.27881528871E+03  0.46027244097E+03  0.17200000000E+03 0. -1.
         -6    1    1    2    0  501 -0.13157391637E+03 -0.29532534472E+03  0.27677629021E+03  0.45904016112E+03  0.17200000000E+03 0. -1.
</event>
<event>
 4    1  0.3141404E-002  0.2008599E+03  0.7818608E-02  0.1149016E+00
         -1   -1    0    0    0  501 -0.00000000000E+00  0.00000000000E+00  0.36104210190E+03  0.36104210190E+03  0.00000000000E+00 0.  1.
          1   -1    0    0  502    0  0.00000000000E+00 -0.00000000000E+00 -0.13286603800E+03  0.13286603800E+03  0.00000000000E+00 0. -1.
          6    1    1    2  502    0  0.10107193551E+03 -0.23348844592E+02  0.15626801693E+02  0.20146687475E+03  0.17200000000E+03 0. -1.
         -6    1    1    2    0  501 -0.10107193551E+03  0.23348844592E+02  0.21254926221E+03  0.29244126514E+03  0.17200000000E+03 0.  1.
</event>
<event>
 4    1  0.3141404E-002  0.2781346E+03  0.7818608E-02  0.1096712E+00
         -2   -1    0    0    0  501 -0.00000000000E+00  0.00000000000E+00  0.81555230857E+02  0.81555230857E+02  0.00000000000E+00 0.  1.
          2   -1    0    0  502    0  0.00000000000E+00 -0.00000000000E+00 -0.11954189008E+04  0.11954189008E+04  0.00000000000E+00 0. -1.
          6    1    1    2  502    0 -0.15672196543E+03 -0.15235841226E+03 -0.84708616402E+03  0.89157940168E+03  0.17200000000E+03 0. -1.
         -6    1    1    2    0  501  0.15672196543E+03  0.15235841226E+03 -0.26677750596E+03  0.38539473001E+03  0.17200000000E+03 0. -1.
</event>
<event>
 4    1  0.3141404E-002  0.1967605E+03  0.7818608E-02  0.1152501E+00
         -1   -1    0    0    0  501 -0.00000000000E+00  0.00000000000E+00  0.37277075697E+02  0.37277075697E+02  0.00000000000E+00 0.  1.
          1   -1    0    0  502    0  0.00000000000E+00 -0.00000000000E+00 -0.17470805646E+04  0.17470805646E+04  0.00000000000E+00 0. -1.
          6    1    1    2  502    0 -0.95497099695E+02  0.33164094392E+01 -0.14230607649E+04  0.14365989821E+04  0.17200000000E+03 0. -1.
         -6    1    1    2    0  501  0.95497099695E+02 -0.33164094392E+01 -0.28674272402E+03  0.34775865827E+03  0.17200000000E+03 0.  1.
</event>
<event>
 4    1  0.3141404E-002  0.3319795E+03  0.7818608E-02  0.1070264E+00
         -2   -1    0    0    0  501 -0.00000000000E+00  0.00000000000E+00  0.37541641868E+03  0.37541641868E+03  0.00000000000E+00 0.  1.
          2   -1    0    0  502    0  0.00000000000E+00 -0.00000000000E+00 -0.31104828652E+03  0.31104828652E+03  0.00000000000E+00 0. -1.
          6    1    1    2  502    0  0.27630453860E+03  0.65438210220E+02 -0.49182303123E+02  0.33560282530E+03  0.17200000000E+03 0. -1.
         -6    1    1    2    0  501 -0.27630453860E+03 -0.65438210220E+02  0.11355043528E+03  0.35086187989E+03  0.17200000000E+03 0.  1.
</event>
<event>
 4    1  0.3141404E-002  0.2711425E+03  0.7818608E-02  0.1100628E+00
          2   -1    0    0  502    0  0.00000000000E+00  0.00000000000E+00  0.27919900459E+03  0.27919900459E+03  0.00000000000E+00 0. -1.
         -2   -1    0    0    0  501 -0.00000000000E+00 -0.00000000000E+00 -0.27764157748E+03  0.27764157748E+03  0.00000000000E+00 0.  1.
          6    1    1    2  502    0 -0.19599631295E+03 -0.74294682577E+02  0.64016588272E+02  0.27859716101E+03  0.17200000000E+03 0. -1.
         -6    1    1    2    0  501  0.19599631295E+03  0.74294682577E+02 -0.62459161166E+02  0.27824342106E+03  0.17200000000E+03 0.  1.
</event>
<event>
 4    1  0.3141404E-002  0.4516089E+03  0.7818608E-02  0.1027243E+00
         -1   -1    0    0    0  501 -0.00000000000E+00  0.00000000000E+00  0.10610340207E+03  0.10610340207E+03  0.00000000000E+00 0.  1.
          1   -1    0    0  502    0  0.00000000000E+00 -0.00000000000E+00 -0.27005872132E+04  0.27005872132E+04  0.00000000000E+00 0. -1.
          6    1    1    2  502    0 -0.17238710678E+02 -0.41721628344E+03 -0.54382239361E+03  0.70688994624E+03  0.17200000000E+03 0. -1.
         -6    1    1    2    0  501  0.17238710678E+02  0.41721628344E+03 -0.20506614175E+04  0.20998006690E+04  0.17200000000E+03 0.  1.
</event>
<event>
 4    1  0.3141404E-002  0.4245618E+03  0.7818608E-02  0.1035592E+00
          1   -1    0    0  502    0  0.00000000000E+00  0.00000000000E+00  0.10306054480E+04  0.10306054480E+04  0.00000000000E+00 0. -1.
         -1   -1    0    0    0  501 -0.00000000000E+00 -0.00000000000E+00 -0.21291018998E+03  0.21291018998E+03  0.00000000000E+00 0.  1.
          6    1    1    2  502    0  0.14474778400E+02 -0.38789073011E+03  0.67155600031E+03  0.79450626132E+03  0.17200000000E+03 0. -1.
         -6    1    1    2    0  501 -0.14474778400E+02  0.38789073011E+03  0.14613925774E+03  0.44900937670E+03  0.17200000000E+03 0.  1.
</event>
<event>
 4    1  0.3141404E-002  0.2337981E+03  0.7818608E-02  0.1123995E+00
          1   -1    0    0  502    0  0.00000000000E+00  0.00000000000E+00  0.55244263594E+03  0.55244263594E+03  0.00000000000E+00 0. -1.
         -1   -1    0    0    0  501 -0.00000000000E+00 -0.00000000000E+00 -0.10925971012E+03  0.10925971012E+03  0.00000000000E+00 0.  1.
          6    1    1    2  502    0  0.68006637836E+02 -0.14301271519E+03  0.11993681279E+03  0.26276677598E+03  0.17200000000E+03 0. -1.
         -6    1    1    2    0  501 -0.68006637836E+02  0.14301271519E+03  0.32324611303E+03  0.39893557009E+03  0.17200000000E+03 0. -1.
</event>
<event>
 4    1  0.3141404E-002  0.1838338E+03  0.7818608E-02  0.1164143E+00
          1   -1    0    0  502    0  0.00000000000E+00  0.00000000000E+00  0.61630713513E+03  0.61630713513E+03  0.00000000000E+00 0. -1.
         -1   -1    0    0    0  501 -0.00000000000E+00 -0.00000000000E+00 -0.28595378873E+03  0.28595378873E+03  0.00000000000E+00 0.  1.
          6    1    1    2  502    0  0.54504630831E+01 -0.64661801815E+02  0.57075279573E+03  0.59962789294E+03  0.17200000000E+03 0. -1.
         -6    1    1    2    0  501 -0.54504630831E+01  0.64661801815E+02 -0.24039944933E+03  0.30263303092E+03  0.17200000000E+03 0.  1.
</event>
<event>
 4    1  0.3141404E-002  0.3318735E+03  0.7818608E-02  0.1070311E+00
         -2   -1    0    0    0  501 -0.00000000000E+00  0.00000000000E+00  0.12248405756E+03  0.12248405756E+03  0.00000000000E+00 0.  1.
          2   -1    0    0  502    0  0.00000000000E+00 -0.00000000000E+00 -0.10857388809E+04  0.10857388809E+04  0.00000000000E+00 0. -1.
          6    1    1    2  502    0 -0.24569013198E+03 -0.14209983120E+03 -0.73201733309E+03  0.80373464459E+03  0.17200000000E+03 0. -1.
         -6    1    1    2    0  501  0.24569013198E+03  0.14209983120E+03 -0.23123749026E+03  0.40448829387E+03  0.17200000000E+03 0.  1.
</event>
<event>
 4    1  0.3141404E-002  0.1721952E+03  0.7818608E-02  0.1175578E+00
          2   -1    0    0  502    0  0.00000000000E+00  0.00000000000E+00  0.13712101858E+04  0.13712101858E+04  0.00000000000E+00 0. -1.
         -2   -1    0    0    0  501 -0.00000000000E+00 -0.00000000000E+00 -0.41719347011E+02  0.41719347011E+02  0.00000000000E+00 0.  1.
          6    1    1    2  502    0  0.32152357093E+01  0.75392237204E+01  0.11550528756E+04  0.11678177611E+04  0.17200000000E+03 0. -1.
         -6    1    1    2    0  501 -0.32152357093E+01 -0.75392237204E+01  0.17443796311E+03  0.24511177167E+03  0.17200000000E+03 0.  1.
</event>
<event>
 4    1  0.3141404E-002  0.1910926E+03  0.7818608E-02  0.1157480E+00
          2   -1    0    0  502    0  0.00000000000E+00  0.00000000000E+00  0.81041862994E+03  0.81041862994E+03  0.00000000000E+00 0. -1.
         -2   -1    0    0    0  501 -0.00000000000E+00 -0.00000000000E+00 -0.10780583995E+03  0.10780583995E+03  0.00000000000E+00 0.  1.
          6    1    1    2  502    0  0.68275248657E+02 -0.47653725189E+02  0.70156981812E+03  0.72712900973E+03  0.17200000000E+03 0. -1.
         -6    1    1    2    0  501 -0.68275248657E+02  0.47653725189E+02  0.10429718780E+01  0.19109546016E+03  0.17200000000E+03 0.  1.
</event>
<event>
 4    1  0.3141404E-002  0.3662294E+03  0.7818608E-02  0.1056144E+00
         -2   -1    0    0    0  501 -0.00000000000E+00  0.00000000000E+00  0.11314625135E+03  0.11314625135E+03  0.00000000000E+00 0.  1.
          2   -1    0    0  502    0  0.00000000000E+00 -0.00000000000E+00 -0.11897756418E+04  0.11897756418E+04  0.00000000000E+00 0. -1.
          6    1    1    2  502    0  0.29031141696E+03  0.14233509137E+03 -0.57780475011E+03  0.68409233756E+03  0.17200000000E+03 0. -1.
         -6    1    1    2    0  501 -0.29031141696E+03 -0.14233509137E+03 -0.49882464030E+03  0.61882955556E+03  0.17200000000E+03 0.  1.
</event>
<event>
 4    1  0.3141404E-002  0.2357620E+03  0.7818608E-02  0.1122649E+00
         -2   -1    0    0    0  501 -0.00000000000E+00  0.00000000000E+00  0.29276475376E+03  0.29276475376E+03  0.00000000000E+00 0.  1.
          2   -1    0    0  502    0  0.00000000000E+00 -0.00000000000E+00 -0.21143599590E+03  0.21143599590E+03  0.00000000000E+00 0. -1.
          6    1    1    2  502    0 -0.16123894535E+03  0.13193249717E+01  0.12120024326E+03  0.26509099774E+03  0.17200000000E+03 0. -1.
         -6    1    1    2    0  501  0.16123894535E+03 -0.13193249717E+01 -0.39871485399E+02  0.23910975192E+03  0.17200000000E+03 0.  1.
</event>
<event>
 4    1  0.3141404E-002  0.1905161E+03  0.7818608E-02  0.1157997E+00
         -1   -1    0    0    0  501 -0.00000000000E+00  0.00000000000E+00  0.52190490028E+02  0.52190490028E+02  0.00000000000E+00 0.  1.
          1   -1    0    0  502    0  0.00000000000E+00 -0.00000000000E+00 -0.75730228873E+03  0.75730228873E+03  0.00000000000E+00 0. -1.
          6    1    1    2  502    0  0.54557452470E+02  0.61121737438E+02 -0.46821829617E+03  0.50549456503E+03  0.17200000000E+03 0. -1.
         -6    1    1    2    0  501 -0.54557452470E+02 -0.61121737438E+02 -0.23689350254E+03  0.30399821373E+03  0.17200000000E+03 0. -1.
</event>
<event>
 4    1  0.3141404E-002  0.2562966E+03  0.7818608E-02  0.1109389E+00
         -2   -1    0    0    0  501 -0.00000000000E+00  0.00000000000E+00  0.70633112940E+02  0.70633112940E+02  0.00000000000E+00 0.  1.
          2   -1    0    0  502    0  0.00000000000E+00 -0.00000000000E+00 -0.10887259401E+04  0.10887259401E+04  0.00000000000E+00 0. -1.
          6    1    1    2  502    0  0.18898191226E+03 -0.19743166942E+02 -0.28770183725E+03  0.38530546708E+03  0.17200000000E+03 0.  1.
         -6    1    1    2    0  501 -0.18898191226E+03  0.19743166942E+02 -0.73039098991E+03  0.77405358597E+03  0.17200000000E+03 0.  1.
</event>
<event>
 4    1  0.3141404E-002  0.1081012E+04  0.7818608E-02  0.9223899E-01
          2   -1    0    0  502    0  0.00000000000E+00  0.00000000000E+00  0.11820595824E+04  0.11820595824E+04  0.00000000000E+00 0. -1.
         -2   -1    0    0    0  501 -0.00000000000E+00 -0.00000000000E+00 -0.20998423540E+04  0.20998423540E+04  0.00000000000E+00 0.  1.
          6    1    1    2  502    0  0.83086558084E+03 -0.66982480626E+03  0.73483884397E+03  0.13071247114E+04  0.17200000000E+03 0. -1.
         -6    1    1    2    0  501 -0.83086558084E+03  0.66982480626E+03 -0.16526216155E+04  0.19747772251E+04  0.17200000000E+03 0.  1.
</event>
<event>
 4    1  0.3141404E-002  0.3014341E+03  0.7818608E-02  0.1084526E+00
         -1   -1    0    0    0  501 -0.00000000000E+00  0.00000000000E+00  0.71024711043E+03  0.71024711043E+03  0.00000000000E+00 0.  1.
          1   -1    0    0  502    0  0.00000000000E+00 -0.00000000000E+00 -0.14846942186E+03  0.14846942186E+03  0.00000000000E+00 0. -1.
          6    1    1    2  502    0  0.48487415954E+02  0.24274985013E+03  0.12119565275E+03  0.32488598845E+03  0.17200000000E+03 0. -1.
         -6    1    1    2    0  501 -0.48487415954E+02 -0.24274985013E+03  0.44058203582E+03  0.53383054384E+03  0.17200000000E+03 0.  1.
</event>
<event>
 4    1  0.3141404E-002  0.1744055E+03  0.7818608E-02  0.1173330E+00
          2   -1    0    0  502    0  0.00000000000E+00  0.00000000000E+00  0.21079946875E+03  0.21079946875E+03  0.00000000000E+00 0. -1.
         -2   -1    0    0    0  501 -0.00000000000E+00 -0.00000000000E+00 -0.14510847668E+03  0.14510847668E+03  0.00000000000E+00 0.  1.
          6    1    1    2  502    0  0.28699235953E+02 -0.31051296876E+01  0.19520689694E+02  0.17549457342E+03  0.17200000000E+03 0.  1.
         -6    1    1    2    0  501 -0.28699235953E+02  0.31051296876E+01  0.46170302377E+02  0.18041337200E+03  0.17200000000E+03 0. -1.
</event>
<event>
 4    1  0.3141404E-002  0.2814919E+03  0.7818608E-02  0.1094877E+00
         -2   -1    0    0    0  501 -0.00000000000E+00  0.00000000000E+00  0.24185818318E+03  0.24185818318E+03  0.00000000000E+00 0.  1.
          2   -1    0    0  502    0  0.00000000000E+00 -0.00000000000E+00 -0.10702014649E+04  0.10702014649E+04  0.00000000000E+00 0. -1.
          6    1    1    2  502    0  0.17713205992E+03  0.13519587883E+03 -0.96063711353E+03  0.10010301475E+04  0.17200000000E+03 0. -1.
         -6    1    1    2    0  501 -0.17713205992E+03 -0.13519587883E+03  0.13229383181E+03  0.31102950059E+03  0.17200000000E+03 0.  1.
</event>
<event>
 4    1  0.3141404E-002  0.4014085E+03  0.7818608E-02  0.1043293E+00
         -2   -1    0    0    0  501 -0.00000000000E+00  0.00000000000E+00  0.12688762694E+03  0.12688762694E+03  0.00000000000E+00 0.  1.
          2   -1    0    0  502    0  0.00000000000E+00 -0.00000000000E+00 -0.17082529579E+04  0.17082529579E+04  0.00000000000E+00 0. -1.
          6    1    1    2  502    0  0.56851318930E+02  0.35820763862E+03 -0.12555166964E+04  0.13181240305E+04  0.17200000000E+03 0. -1.
         -6    1    1    2    0  501 -0.56851318930E+02 -0.35820763862E+03 -0.32584863457E+03  0.51701655436E+03  0.17200000000E+03 0.  1.
</event>
<event>
 4    1  0.3141404E-002  0.2126057E+03  0.7818608E-02  0.1139519E+00
          1   -1    0    0  502    0  0.00000000000E+00  0.00000000000E+00  0.92289602848E+02  0.92289602848E+02  0.00000000000E+00 0. -1.
         -1   -1    0    0    0  501 -0.00000000000E+00 -0.00000000000E+00 -0.50889369945E+03  0.50889369945E+03  0.00000000000E+00 0.  1.
          6    1    1    2  502    0  0.10102255642E+03 -0.73563702175E+02 -0.15003966460E+03  0.26021736325E+03  0.17200000000E+03 0. -1.
         -6    1    1    2    0  501 -0.10102255642E+03  0.73563702175E+02 -0.26656443200E+03  0.34096593904E+03  0.17200000000E+03 0.  1.
</event>
<event>
 4    1  0.3141404E-002  0.2626344E+03  0.7818608E-02  0.1105571E+00
          2   -1    0    0  502    0  0.00000000000E+00  0.00000000000E+00  0.14793608380E+04  0.14793608380E+04  0.00000000000E+00 0. -1.
         -2   -1    0    0    0  501 -0.00000000000E+00 -0.00000000000E+00 -0.54165729233E+02  0.54165729233E+02  0.00000000000E+00 0.  1.
          6    1    1    2  502    0  0.69638450956E+02  0.18585833112E+03  0.99866858139E+03  0.10326256672E+04  0.17200000000E+03 0. -1.
         -6    1    1    2    0  501 -0.69638450956E+02 -0.18585833112E+03  0.42652652736E+03  0.50090090002E+03  0.17200000000E+03 0.  1.
</event>
<event>
 4    1  0.3141404E-002  0.2445357E+03  0.7818608E-02  0.1116808E+00
         -1   -1    0    0    0  501 -0.00000000000E+00  0.00000000000E+00  0.51140045644E+02  0.51140045644E+02  0.00000000000E+00 0.  1.
          1   -1    0    0  502    0  0.00000000000E+00 -0.00000000000E+00 -0.11693156280E+04  0.11693156280E+04  0.00000000000E+00 0. -1.
          6    1    1    2  502    0  0.16606498508E+03  0.51343175539E+02 -0.55640750223E+03  0.60777216906E+03  0.17200000000E+03 0.  1.
         -6    1    1    2    0  501 -0.16606498508E+03 -0.51343175539E+02 -0.56176808014E+03  0.61268350460E+03  0.17200000000E+03 0.  1.
</event>
<event>
 4    1  0.3141404E-002  0.1969511E+03  0.7818608E-02  0.1152337E+00
          2   -1    0    0  502    0  0.00000000000E+00  0.00000000000E+00  0.50246005644E+03  0.50246005644E+03  0.00000000000E+00 0. -1.
         -2   -1    0    0    0  501 -0.00000000000E+00 -0.00000000000E+00 -0.11098422683E+03  0.11098422683E+03  0.00000000000E+00 0.  1.
          6    1    1    2  502    0  0.55375391347E+02 -0.78353574008E+02  0.36496662556E+03  0.41471719798E+03  0.17200000000E+03 0. -1.
         -6    1    1    2    0  501 -0.55375391347E+02  0.78353574008E+02  0.26509204049E+02  0.19872708529E+03  0.17200000000E+03 0. -1.
</event>
<event>
 4    1  0.3141404E-002  0.3843079E+03  0.7818608E-02  0.1049353E+00
         -2   -1    0    0    0  501 -0.00000000000E+00  0.00000000000E+00  0.10178554630E+03  0.10178554630E+03  0.00000000000E+00 0.  1.
          2   -1    0    0  502    0  0.00000000000E+00 -0.00000000000E+00 -0.14796330469E+04  0.14796330469E+04  0.00000000000E+00 0. -1.
          6    1    1    2  502    0  0.34353093034E+03  0.97492110688E+01 -0.57896103389E+03  0.69490173836E+03  0.17200000000E+03 0.  1.
         -6    1    1    2    0  501 -0.34353093034E+03 -0.97492110688E+01 -0.79888646676E+03  0.88651685488E+03  0.17200000000E+03 0.  1.
</event>
<event>
 4    1  0.3141404E-002  0.3321953E+03  0.7818608E-02  0.1070170E+00
          2   -1    0    0  502    0  0.00000000000E+00  0.00000000000E+00  0.50367632273E+03  0.50367632273E+03  0.00000000000E+00 0. -1.
         -2   -1    0    0    0  501 -0.00000000000E+00 -0.00000000000E+00 -0.21909646517E+03  0.21909646517E+03  0.00000000000E+00 0.  1.
          6    1    1    2  502    0 -0.18298064539E+02  0.28361041752E+03  0.14241776743E+03  0.36143672831E+03  0.17200000000E+03 0. -1.
         -6    1    1    2    0  501  0.18298064539E+02 -0.28361041752E+03  0.14216209013E+03  0.36133605959E+03  0.17200000000E+03 0.  1.
</event>
<event>
 4    1  0.3141404E-002  0.1732148E+03  0.7818608E-02  0.1174536E+00
         -2   -1    0    0    0  501 -0.00000000000E+00  0.00000000000E+00  0.12448178652E+03  0.12448178652E+03  0.00000000000E+00 0.  1.
          2   -1    0    0  502    0  0.00000000000E+00 -0.00000000000E+00 -0.81404760635E+03  0.81404760635E+03  0.00000000000E+00 0. -1.
          6    1    1    2  502    0  0.11110210289E+02 -0.17202495705E+02 -0.73849471098E+03  0.75853661796E+03  0.17200000000E+03 0. -1.
         -6    1    1    2    0  501 -0.11110210289E+02  0.17202495705E+02  0.48928891156E+02  0.17999277491E+03  0.17200000000E+03 0.  1.
</event>
<event>
 4    1  0.3141404E-002  0.1836577E+03  0.7818608E-02  0.1164309E+00
          2   -1    0    0  502    0  0.00000000000E+00  0.00000000000E+00  0.24341715496E+04  0.24341715496E+04  0.00000000000E+00 0. -1.
         -2   -1    0    0    0  501 -0.00000000000E+00 -0.00000000000E+00 -0.44069428699E+02  0.44069428699E+02  0.00000000000E+00 0.  1.
          6    1    1    2  502    0 -0.38230935053E+02 -0.51812611994E+02  0.22210292568E+04  0.22286096811E+04  0.17200000000E+03 0. -1.
         -6    1    1    2    0  501  0.38230935053E+02  0.51812611994E+02  0.16907286406E+03  0.24963129715E+03  0.17200000000E+03 0.  1.
</event>
<event>
 4    1  0.3141404E-002  0.3549326E+03  0.7818608E-02  0.1060609E+00
          2   -1    0    0  502    0  0.00000000000E+00  0.00000000000E+00  0.27927283828E+04  0.27927283828E+04  0.00000000000E+00 0. -1.
         -2   -1    0    0    0  501 -0.00000000000E+00 -0.00000000000E+00 -0.10222553549E+03  0.10222553549E+03  0.00000000000E+00 0.  1.
          6    1    1    2  502    0  0.16584229421E+03  0.26246811388E+03  0.24272156470E+04  0.24530293464E+04  0.17200000000E+03 0. -1.
         -6    1    1    2    0  501 -0.16584229421E+03 -0.26246811388E+03  0.26328720024E+03  0.44192457180E+03  0.17200000000E+03 0.  1.
</event>
<event>
 4    1  0.3141404E-002  0.1904975E+03  0.7818608E-02  0.1158013E+00
         -1   -1    0    0    0  501 -0.00000000000E+00  0.00000000000E+00  0.96132171206E+02  0.96132171206E+02  0.00000000000E+00 0.  1.
          1   -1    0    0  502    0  0.00000000000E+00 -0.00000000000E+00 -0.40536340037E+03  0.40536340037E+03  0.00000000000E+00 0. -1.
          6    1    1    2  502    0 -0.75552645739E+02  0.31576962286E+02 -0.22036316009E+03  0.29128891010E+03  0.17200000000E+03 0. -1.
         -6    1    1    2    0  501  0.75552645739E+02 -0.31576962286E+02 -0.88868069073E+02  0.21020666147E+03  0.17200000000E+03 0.  1.
</event>
<event>
 4    1  0.3141404E-002  0.2868952E+03  0.7818608E-02  0.1091981E+00
          2   -1    0    0  502    0  0.00000000000E+00  0.00000000000E+00  0.89940846178E+03  0.89940846178E+03  0.00000000000E+00 0. -1.
         -2   -1    0    0    0  501 -0.00000000000E+00 -0.00000000000E+00 -0.12103600660E+03  0.12103600660E+03  0.00000000000E+00 0.  1.
          6    1    1    2  502    0 -0.18616826643E+03  0.13441079081E+03  0.64116943746E+03  0.70242944958E+03  0.17200000000E+03 0. -1.
         -6    1    1    2    0  501  0.18616826643E+03 -0.13441079081E+03  0.13720301772E+03  0.31801501880E+03  0.17200000000E+03 0.  1.
</event>
<event>
 4    1  0.3141404E-002  0.5817039E+03  0.7818608E-02  0.9944109E-01
          1   -1    0    0  502    0  0.00000000000E+00  0.00000000000E+00  0.16400963628E+04  0.16400963628E+04  0.00000000000E+00 0. -1.
         -1   -1    0    0    0  501 -0.00000000000E+00 -0.00000000000E+00 -0.21315942013E+03  0.21315942013E+03  0.00000000000E+00 0.  1.
          6    1    1    2  502    0  0.41264111639E+03  0.37218647289E+03  0.54744718613E+03  0.79879777362E+03  0.17200000000E+03 0. -1.
         -6    1    1    2    0  501 -0.41264111639E+03 -0.37218647289E+03  0.87948975657E+03  0.10544580093E+04  0.17200000000E+03 0.  1.
</event>
<event>
 4    1  0.3141404E-002  0.2284256E+03  0.7818608E-02  0.1127753E+00
         -2   -1    0    0    0  501 -0.00000000000E+00  0.00000000000E+00  0.34734972840E+03  0.34734972840E+03  0.00000000000E+00 0.  1.
          2   -1    0    0  502    0  0.00000000000E+00 -0.00000000000E+00 -0.19617109027E+03  0.19617109027E+03  0.00000000000E+00 0. -1.
          6    1    1    2  502    0 -0.13774601136E+03  0.60168984776E+02 -0.55940686116E+02  0.23517574437E+03  0.17200000000E+03 0. -1.
         -6    1    1    2    0  501  0.13774601136E+03 -0.60168984776E+02  0.20711932425E+03  0.30834507431E+03  0.17200000000E+03 0.  1.
</event>
<event>
 4    1  0.3141404E-002  0.2647641E+03  0.7818608E-02  0.1104314E+00
          1   -1    0    0  502    0  0.00000000000E+00  0.00000000000E+00  0.97950987616E+03  0.97950987616E+03  0.00000000000E+00 0. -1.
         -1   -1    0    0    0  501 -0.00000000000E+00 -0.00000000000E+00 -0.76480172242E+02  0.76480172242E+02  0.00000000000E+00 0.  1.
          6    1    1    2  502    0  0.10484442469E+03  0.17182460526E+03  0.58534702574E+03  0.64244158404E+03  0.17200000000E+03 0. -1.
         -6    1    1    2    0  501 -0.10484442469E+03 -0.17182460526E+03  0.31768267818E+03  0.41354846436E+03  0.17200000000E+03 0.  1.
</event>
<event>
 4    1  0.3141404E-002  0.4081510E+03  0.7818608E-02  0.1040993E+00
          2   -1    0    0  502    0  0.00000000000E+00  0.00000000000E+00  0.15476420443E+04  0.15476420443E+04  0.00000000000E+00 0. -1.
         -2   -1    0    0    0  501 -0.00000000000E+00 -0.00000000000E+00 -0.86349826021E+03  0.86349826021E+03  0.00000000000E+00 0.  1.
          6    1    1    2  502    0  0.26441083831E+03 -0.25901763706E+03  0.14700018039E+04  0.15256121825E+04  0.17200000000E+03 0. -1.
         -6    1    1    2    0  501 -0.26441083831E+03  0.25901763706E+03 -0.78585801980E+03  0.88552812209E+03  0.17200000000E+03 0.  1.
</event>
<event>
 4    1  0.3141404E-002  0.1861648E+03  0.7818608E-02  0.1161967E+00
         -2   -1    0    0    0  501 -0.00000000000E+00  0.00000000000E+00  0.29716742443E+02  0.29716742443E+02  0.00000000000E+00 0.  1.
          2   -1    0    0  502    0  0.00000000000E+00 -0.00000000000E+00 -0.12639071459E+04  0.12639071459E+04  0.00000000000E+00 0. -1.
          6    1    1    2  502    0  0.59732485277E+02 -0.38799079712E+02 -0.79688226111E+03  0.81833897406E+03  0.17200000000E+03 0. -1.
         -6    1    1    2    0  501 -0.59732485277E+02  0.38799079712E+02 -0.43730814230E+03  0.47528491424E+03  0.17200000000E+03 0. -1.
</event>
<event>
 4    1  0.3141404E-002  0.3066636E+03  0.7818608E-02  0.1081956E+00
          1   -1    0    0  502    0  0.00000000000E+00  0.00000000000E+00  0.57214023604E+03  0.57214023604E+03  0.00000000000E+00 0. -1.
         -1   -1    0    0    0  501 -0.00000000000E+00 -0.00000000000E+00 -0.21732244156E+03  0.21732244156E+03  0.00000000000E+00 0.  1.
          6    1    1    2  502    0  0.21915867241E+03 -0.12817188785E+03  0.37225569626E+03  0.48230370093E+03  0.17200000000E+03 0. -1.
         -6    1    1    2    0  501 -0.21915867241E+03  0.12817188785E+03 -0.17437901793E+02  0.30715897667E+03  0.17200000000E+03 0.  1.
</event>
<event>
 4    1  0.3141404E-002  0.2148930E+03  0.7818608E-02  0.1137749E+00
         -2   -1    0    0    0  501 -0.00000000000E+00  0.00000000000E+00  0.55665418367E+02  0.55665418367E+02  0.00000000000E+00 0.  1.
          2   -1    0    0  502    0  0.00000000000E+00 -0.00000000000E+00 -0.10830272387E+04  0.10830272387E+04  0.00000000000E+00 0. -1.
          6    1    1    2  502    0  0.10597169589E+03  0.73246242617E+02 -0.78910324798E+03  0.81784041742E+03  0.17200000000E+03 0. -1.
         -6    1    1    2    0  501 -0.10597169589E+03 -0.73246242617E+02 -0.23825857235E+03  0.32085223965E+03  0.17200000000E+03 0.  1.
</event>
<event>
 4    1  0.3141404E-002  0.5340398E+03  0.7818608E-02  0.1005257E+00
         -2   -1    0    0    0  501 -0.00000000000E+00  0.00000000000E+00  0.10974042922E+03  0.10974042922E+03  0.00000000000E+00 0.  1.
          2   -1    0    0  502    0  0.00000000000E+00 -0.00000000000E+00 -0.29433192979E+04  0.29433192979E+04  0.00000000000E+00 0. -1.
          6    1    1    2  502    0  0.39516496476E+03  0.31537152265E+03 -0.19390220460E+04  0.20112197894E+04  0.17200000000E+03 0. -1.
         -6    1    1    2    0  501 -0.39516496476E+03 -0.31537152265E+03 -0.89455682266E+03  0.10418399376E+04  0.17200000000E+03 0.  1.
</event>
<event>
 4    1  0.3141404E-002  0.4121029E+03  0.7818608E-02  0.1039668E+00
         -4   -1    0    0    0  501 -0.00000000000E+00  0.00000000000E+00  0.59668503674E+03  0.59668503674E+03  0.00000000000E+00 0.  1.
          4   -1    0    0  502    0  0.00000000000E+00 -0.00000000000E+00 -0.28849194135E+03  0.28849194135E+03  0.00000000000E+00 0. -1.
          6    1    1    2  502    0 -0.24489460704E+03  0.28332212109E+03  0.10282579722E+03  0.42473749237E+03  0.17200000000E+03 0. -1.
         -6    1    1    2    0  501  0.24489460704E+03 -0.28332212109E+03  0.20536729817E+03  0.46043948572E+03  0.17200000000E+03 0.  1.
</event>
<event>
 4    1  0.3141404E-002  0.2825842E+03  0.7818608E-02  0.1094286E+00
         -1   -1    0    0    0  501 -0.00000000000E+00  0.00000000000E+00  0.21203988688E+03  0.21203988688E+03  0.00000000000E+00 0.  1.
          1   -1    0    0  502    0  0.00000000000E+00 -0.00000000000E+00 -0.43266375260E+03  0.43266375260E+03  0.00000000000E+00 0. -1.
          6    1    1    2  502    0  0.66324986441E+02  0.21417474209E+03  0.57268623637E+01  0.28264221363E+03  0.17200000000E+03 0. -1.
         -6    1    1    2    0  501 -0.66324986441E+02 -0.21417474209E+03 -0.22635072808E+03  0.36206142584E+03  0.17200000000E+03 0.  1.
</event>
<event>
 4    1  0.3141404E-002  0.2489117E+03  0.7818608E-02  0.1113995E+00
         -1   -1    0    0    0  501 -0.00000000000E+00  0.00000000000E+00  0.36582193181E+02  0.36582193181E+02  0.00000000000E+00 0.  1.
          1   -1    0    0  502    0  0.00000000000E+00 -0.00000000000E+00 -0.17392208048E+04  0.17392208048E+04  0.00000000000E+00 0. -1.
          6    1    1    2  502    0  0.13439807961E+02  0.17942242464E+03 -0.70757772117E+03  0.75008217310E+03  0.17200000000E+03 0.  1.
         -6    1    1    2    0  501 -0.13439807961E+02 -0.17942242464E+03 -0.99506089050E+03  0.10257208249E+04  0.17200000000E+03 0.  1.
</event>
<event>
 4    1  0.3141404E-002  0.2438997E+03  0.7818608E-02  0.1117222E+00
          2   -1    0    0  502    0  0.00000000000E+00  0.00000000000E+00  0.10238828723E+04  0.10238828723E+04  0.00000000000E+00 0. -1.
         -2   -1    0    0    0  501 -0.00000000000E+00 -0.00000000000E+00 -0.85242676711E+02  0.85242676711E+02  0.00000000000E+00 0.  1.
          6    1    1    2  502    0 -0.41647878855E+02  0.16783473328E+03  0.78225414697E+03  0.81939526112E+03  0.17200000000E+03 0. -1.
         -6    1    1    2    0  501  0.41647878855E+02 -0.16783473328E+03  0.15638604859E+03  0.28973028786E+03  0.17200000000E+03 0.  1.
</event>
<event>
 4    1  0.3141404E-002  0.1990280E+03  0.7818608E-02  0.1150562E+00
          1   -1    0    0  502    0  0.00000000000E+00  0.00000000000E+00  0.77584628969E+03  0.77584628969E+03  0.00000000000E+00 0. -1.
         -1   -1    0    0    0  501 -0.00000000000E+00 -0.00000000000E+00 -0.51456999719E+02  0.51456999719E+02  0.00000000000E+00 0.  1.
          6    1    1    2  502    0 -0.65967417724E+02  0.75342057368E+02  0.32570892162E+03  0.38170463376E+03  0.17200000000E+03 0.  1.
         -6    1    1    2    0  501  0.65967417724E+02 -0.75342057368E+02  0.39868036835E+03  0.44559865565E+03  0.17200000000E+03 0. -1.
</event>
<event>
 4    1  0.3141404E-002  0.2147033E+03  0.7818608E-02  0.1137895E+00
          2   -1    0    0  502    0  0.00000000000E+00  0.00000000000E+00  0.61334343290E+03  0.61334343290E+03  0.00000000000E+00 0. -1.
         -2   -1    0    0    0  501 -0.00000000000E+00 -0.00000000000E+00 -0.76277181699E+02  0.76277181699E+02  0.00000000000E+00 0.  1.
          6    1    1    2  502    0  0.99675110047E+01 -0.12811771224E+03  0.22676107365E+03  0.31227885614E+03  0.17200000000E+03 0. -1.
         -6    1    1    2    0  501 -0.99675110047E+01  0.12811771224E+03  0.31030517754E+03  0.37734175846E+03  0.17200000000E+03 0.  1.
</event>
<event>
 4    1  0.3141404E-002  0.2351568E+03  0.7818608E-02  0.1123062E+00
          2   -1    0    0  502    0  0.00000000000E+00  0.00000000000E+00  0.29938916103E+04  0.29938916103E+04  0.00000000000E+00 0. -1.
         -2   -1    0    0    0  501 -0.00000000000E+00 -0.00000000000E+00 -0.32367300306E+02  0.32367300306E+02  0.00000000000E+00 0.  1.
          6    1    1    2  502    0  0.33874591407E+02  0.15673937352E+03  0.48929113451E+03  0.54286695743E+03  0.17200000000E+03 0.  1.
         -6    1    1    2    0  501 -0.33874591407E+02 -0.15673937352E+03  0.24722331755E+04  0.24833919532E+04  0.17200000000E+03 0. -1.
</event>
<event>
 4    1  0.3141404E-002  0.2701347E+03  0.7818608E-02  0.1101203E+00
         -2   -1    0    0    0  501 -0.00000000000E+00  0.00000000000E+00  0.12127719121E+03  0.12127719121E+03  0.00000000000E+00 0.  1.
          2   -1    0    0  502    0  0.00000000000E+00 -0.00000000000E+00 -0.69915921488E+03  0.69915921488E+03  0.00000000000E+00 0. -1.
          6    1    1    2  502    0 -0.12746842240E+03 -0.16474388122E+03 -0.13578516609E+03  0.30234145670E+03  0.17200000000E+03 0. -1.
         -6    1    1    2    0  501  0.12746842240E+03  0.16474388122E+03 -0.44209685757E+03  0.51809494939E+03  0.17200000000E+03 0.  1.
</event>
<event>
 4    1  0.3141404E-002  0.2714457E+03  0.7818608E-02  0.1100455E+00
          2   -1    0    0  502    0  0.00000000000E+00  0.00000000000E+00  0.84790774503E+03  0.84790774503E+03  0.00000000000E+00 0. -1.
         -2   -1    0    0    0  501 -0.00000000000E+00 -0.00000000000E+00 -0.11607674407E+03  0.11607674407E+03  0.00000000000E+00 0.  1.
          6    1    1    2  502    0 -0.56121139159E+02  0.20235900518E+03  0.60756709329E+03  0.66544761032E+03  0.17200000000E+03 0. -1.
         -6    1    1    2    0  501  0.56121139159E+02 -0.20235900518E+03  0.12426390767E+03  0.29853687877E+03  0.17200000000E+03 0.  1.
</event>
<event>
 4    1  0.3141404E-002  0.1870250E+03  0.7818608E-02  0.1161172E+00
         -1   -1    0    0    0  501 -0.00000000000E+00  0.00000000000E+00  0.26964275481E+02  0.26964275481E+02  0.00000000000E+00 0.  1.
          1   -1    0    0  502    0  0.00000000000E+00 -0.00000000000E+00 -0.19546164738E+04  0.19546164738E+04  0.00000000000E+00 0. -1.
          6    1    1    2  502    0  0.20566835242E+02  0.70507919646E+02 -0.15384286869E+04  0.15497552020E+04  0.17200000000E+03 0. -1.
         -6    1    1    2    0  501 -0.20566835242E+02 -0.70507919646E+02 -0.38922351142E+03  0.43182554728E+03  0.17200000000E+03 0.  1.
</event>
<event>
 4    1  0.3141404E-002  0.4048794E+03  0.7818608E-02  0.1042103E+00
         -2   -1    0    0    0  501 -0.00000000000E+00  0.00000000000E+00  0.12478123270E+03  0.12478123270E+03  0.00000000000E+00 0.  1.
          2   -1    0    0  502    0  0.00000000000E+00 -0.00000000000E+00 -0.19251586702E+04  0.19251586702E+04  0.00000000000E+00 0. -1.
          6    1    1    2  502    0 -0.52929863940E+02  0.36268682168E+03 -0.14778259444E+04  0.15322848374E+04  0.17200000000E+03 0. -1.
         -6    1    1    2    0  501  0.52929863940E+02 -0.36268682168E+03 -0.32255149318E+03  0.51765506552E+03  0.17200000000E+03 0.  1.
</event>
<event>
 4    1  0.3141404E-002  0.2029531E+03  0.7818608E-02  0.1147271E+00
          2   -1    0    0  502    0  0.00000000000E+00  0.00000000000E+00  0.17690006067E+04  0.17690006067E+04  0.00000000000E+00 0. -1.
         -2   -1    0    0    0  501 -0.00000000000E+00 -0.00000000000E+00 -0.24517475903E+02  0.24517475903E+02  0.00000000000E+00 0.  1.
          6    1    1    2  502    0 -0.97357877580E+02 -0.46123873322E+02  0.10733580614E+04  0.10923769935E+04  0.17200000000E+03 0. -1.
         -6    1    1    2    0  501  0.97357877580E+02  0.46123873322E+02  0.67112506940E+03  0.70114108908E+03  0.17200000000E+03 0.  1.
</event>
<event>
 4    1  0.3141404E-002  0.4673298E+03  0.7818608E-02  0.1022677E+00
          2   -1    0    0  502    0  0.00000000000E+00  0.00000000000E+00  0.10487484000E+04  0.10487484000E+04  0.00000000000E+00 0. -1.
         -2   -1    0    0    0  501 -0.00000000000E+00 -0.00000000000E+00 -0.25588531202E+03  0.25588531202E+03  0.00000000000E+00 0.  1.
          6    1    1    2  502    0  0.86248220033E+02  0.42588075559E+03  0.11496889273E+03  0.48126398134E+03  0.17200000000E+03 0. -1.
         -6    1    1    2    0  501 -0.86248220033E+02 -0.42588075559E+03  0.67789419520E+03  0.82336973064E+03  0.17200000000E+03 0.  1.
</event>
<event>
 4    1  0.3141404E-002  0.1910956E+03  0.7818608E-02  0.1157477E+00
         -2   -1    0    0    0  501 -0.00000000000E+00  0.00000000000E+00  0.16004010755E+02  0.16004010755E+02  0.00000000000E+00 0.  1.
          2   -1    0    0  502    0  0.00000000000E+00 -0.00000000000E+00 -0.22980796305E+04  0.22980796305E+04  0.00000000000E+00 0. -1.
          6    1    1    2  502    0  0.52895881873E+02 -0.64308170364E+02 -0.12385036453E+04  0.12531595248E+04  0.17200000000E+03 0. -1.
         -6    1    1    2    0  501 -0.52895881873E+02  0.64308170364E+02 -0.10435719744E+04  0.10609241165E+04  0.17200000000E+03 0.  1.
</event>
<event>
 4    1  0.3141404E-002  0.3704957E+03  0.7818608E-02  0.1054504E+00
         -2   -1    0    0    0  501 -0.00000000000E+00  0.00000000000E+00  0.30480976107E+03  0.30480976107E+03  0.00000000000E+00 0.  1.
          2   -1    0    0  502    0  0.00000000000E+00 -0.00000000000E+00 -0.14917163823E+04  0.14917163823E+04  0.00000000000E+00 0. -1.
          6    1    1    2  502    0  0.85012592495E+02 -0.31694781907E+03 -0.13439779243E+04  0.13941103694E+04  0.17200000000E+03 0. -1.
         -6    1    1    2    0  501 -0.85012592495E+02  0.31694781907E+03  0.15707130311E+03  0.40241577399E+03  0.17200000000E+03 0.  1.
</event>
<event>
 4    1  0.3141404E-002  0.2001653E+03  0.7818608E-02  0.1149600E+00
          1   -1    0    0  502    0  0.00000000000E+00  0.00000000000E+00  0.42086735499E+03  0.42086735499E+03  0.00000000000E+00 0. -1.
         -1   -1    0    0    0  501 -0.00000000000E+00 -0.00000000000E+00 -0.13794523663E+03  0.13794523663E+03  0.00000000000E+00 0.  1.
          6    1    1    2  502    0 -0.79166559976E+02  0.64921549221E+02  0.29699736187E+03  0.35815301859E+03  0.17200000000E+03 0. -1.
         -6    1    1    2    0  501  0.79166559976E+02 -0.64921549221E+02 -0.14075243506E+02  0.20065957304E+03  0.17200000000E+03 0.  1.
</event>
<event>
 4    1  0.3141404E-002  0.1772427E+03  0.7818608E-02  0.1170499E+00
          2   -1    0    0  502    0  0.00000000000E+00  0.00000000000E+00  0.21940462405E+03  0.21940462405E+03  0.00000000000E+00 0. -1.
         -2   -1    0    0    0  501 -0.00000000000E+00 -0.00000000000E+00 -0.18064905876E+03  0.18064905876E+03  0.00000000000E+00 0.  1.
          6    1    1    2  502    0  0.24161777721E+02  0.35315541171E+02  0.11047189559E+03  0.20885166666E+03  0.17200000000E+03 0. -1.
         -6    1    1    2    0  501 -0.24161777721E+02 -0.35315541171E+02 -0.71716330296E+02  0.19120201616E+03  0.17200000000E+03 0.  1.
</event>
<event>
 4    1  0.3141404E-002  0.2162715E+03  0.7818608E-02  0.1136694E+00
          2   -1    0    0  502    0  0.00000000000E+00  0.00000000000E+00  0.33947371121E+03  0.33947371121E+03  0.00000000000E+00 0. -1.
         -2   -1    0    0    0  501 -0.00000000000E+00 -0.00000000000E+00 -0.15264867688E+03  0.15264867688E+03  0.00000000000E+00 0.  1.
          6    1    1    2  502    0 -0.83330822066E+02  0.10121915181E+03  0.16622528965E+02  0.21690931531E+03  0.17200000000E+03 0.  1.
         -6    1    1    2    0  501  0.83330822066E+02 -0.10121915181E+03  0.17020250536E+03  0.27521307278E+03  0.17200000000E+03 0.  1.
</event>
<event>
 4    1  0.3141404E-002  0.4260899E+03  0.7818608E-02  0.1035102E+00
         -2   -1    0    0    0  501 -0.00000000000E+00  0.00000000000E+00  0.11995980688E+04  0.11995980688E+04  0.00000000000E+00 0.  1.
          2   -1    0    0  502    0  0.00000000000E+00 -0.00000000000E+00 -0.70035920570E+03  0.70035920570E+03  0.00000000000E+00 0. -1.
          6    1    1    2  502    0 -0.38551649789E+03  0.57841401298E+02 -0.59147623983E+03  0.72896964281E+03  0.17200000000E+03 0. -1.
         -6    1    1    2    0  501  0.38551649789E+03 -0.57841401298E+02  0.10907151030E+04  0.11709876317E+04  0.17200000000E+03 0.  1.
</event>
<event>
 4    1  0.3141404E-002  0.3028823E+03  0.7818608E-02  0.1083809E+00
         -2   -1    0    0    0  501 -0.00000000000E+00  0.00000000000E+00  0.12657811976E+03  0.12657811976E+03  0.00000000000E+00 0.  1.
          2   -1    0    0  502    0  0.00000000000E+00 -0.00000000000E+00 -0.10157340120E+04  0.10157340120E+04  0.00000000000E+00 0. -1.
          6    1    1    2  502    0 -0.17135832202E+03 -0.18108009798E+03 -0.75027994203E+03  0.80910918164E+03  0.17200000000E+03 0. -1.
         -6    1    1    2    0  501  0.17135832202E+03  0.18108009798E+03 -0.13887595020E+03  0.33320295009E+03  0.17200000000E+03 0.  1.
</event>
<event>
 4    1  0.3141404E-002  0.2076694E+03  0.7818608E-02  0.1143425E+00
          2   -1    0    0  502    0  0.00000000000E+00  0.00000000000E+00  0.81277276499E+03  0.81277276499E+03  0.00000000000E+00 0. -1.
         -2   -1    0    0    0  501 -0.00000000000E+00 -0.00000000000E+00 -0.95753148889E+02  0.95753148889E+02  0.00000000000E+00 0.  1.
          6    1    1    2  502    0  0.63015761740E+01 -0.11620187646E+03  0.55187407668E+02  0.21487725780E+03  0.17200000000E+03 0.  1.
         -6    1    1    2    0  501 -0.63015761740E+01  0.11620187646E+03  0.66183220843E+03  0.69364865608E+03  0.17200000000E+03 0. -1.
</event>
<event>
 4    1  0.3141404E-002  0.1728314E+03  0.7818608E-02  0.1174927E+00
          1   -1    0    0  502    0  0.00000000000E+00  0.00000000000E+00  0.79541164621E+03  0.79541164621E+03  0.00000000000E+00 0. -1.
         -1   -1    0    0    0  501 -0.00000000000E+00 -0.00000000000E+00 -0.26491760210E+03  0.26491760210E+03  0.00000000000E+00 0.  1.
          6    1    1    2  502    0 -0.13844499391E+02  0.97485820025E+01  0.75639914922E+03  0.77589327743E+03  0.17200000000E+03 0. -1.
         -6    1    1    2    0  501  0.13844499391E+02 -0.97485820025E+01 -0.22590510511E+03  0.28443597088E+03  0.17200000000E+03 0.  1.
</event>
<event>
 4    1  0.3141404E-002  0.1759855E+03  0.7818608E-02  0.1171746E+00
          1   -1    0    0  502    0  0.00000000000E+00  0.00000000000E+00  0.45897285741E+03  0.45897285741E+03  0.00000000000E+00 0. -1.
         -1   -1    0    0    0  501 -0.00000000000E+00 -0.00000000000E+00 -0.69743622727E+02  0.69743622727E+02  0.00000000000E+00 0.  1.
          6    1    1    2  502    0  0.36134744359E+02  0.90096663505E+01  0.14697515404E+03  0.22928713384E+03  0.17200000000E+03 0.  1.
         -6    1    1    2    0  501 -0.36134744359E+02 -0.90096663505E+01  0.24225408064E+03  0.29942934630E+03  0.17200000000E+03 0. -1.
</event>
<event>
 4    1  0.3141404E-002  0.1778225E+03  0.7818608E-02  0.1169927E+00
         -2   -1    0    0    0  501 -0.00000000000E+00  0.00000000000E+00  0.47730014471E+02  0.47730014471E+02  0.00000000000E+00 0.  1.
          2   -1    0    0  502    0  0.00000000000E+00 -0.00000000000E+00 -0.14389629926E+04  0.14389629926E+04  0.00000000000E+00 0. -1.
          6    1    1    2  502    0 -0.39094276695E+02  0.22549153384E+02 -0.12416617908E+04  0.12543304308E+04  0.17200000000E+03 0. -1.
         -6    1    1    2    0  501  0.39094276695E+02 -0.22549153384E+02 -0.14957118731E+03  0.23236257629E+03  0.17200000000E+03 0.  1.
</event>
<event>
 4    1  0.3141404E-002  0.2391405E+03  0.7818608E-02  0.1120367E+00
          1   -1    0    0  502    0  0.00000000000E+00  0.00000000000E+00  0.71787982748E+03  0.71787982748E+03  0.00000000000E+00 0. -1.
         -1   -1    0    0    0  501 -0.00000000000E+00 -0.00000000000E+00 -0.10456754471E+03  0.10456754471E+03  0.00000000000E+00 0.  1.
          6    1    1    2  502    0 -0.15836659660E+03  0.50241522881E+02  0.50734453790E+03  0.56088026323E+03  0.17200000000E+03 0. -1.
         -6    1    1    2    0  501  0.15836659660E+03 -0.50241522881E+02  0.10596774487E+03  0.26156710897E+03  0.17200000000E+03 0.  1.
</event>
<event>
 4    1  0.3141404E-002  0.3308443E+03  0.7818608E-02  0.1070764E+00
         -2   -1    0    0    0  501 -0.00000000000E+00  0.00000000000E+00  0.11366669646E+03  0.11366669646E+03  0.00000000000E+00 0.  1.
          2   -1    0    0  502    0  0.00000000000E+00 -0.00000000000E+00 -0.10400693916E+04  0.10400693916E+04  0.00000000000E+00 0. -1.
          6    1    1    2  502    0 -0.11616910833E+03 -0.25764061836E+03 -0.62026026187E+03  0.70297990186E+03  0.17200000000E+03 0. -1.
         -6    1    1    2    0  501  0.11616910833E+03  0.25764061836E+03 -0.30614243331E+03  0.45075618624E+03  0.17200000000E+03 0.  1.
</event>
<event>
 4    1  0.3141404E-002  0.1857559E+03  0.7818608E-02  0.1162346E+00
          1   -1    0    0  502    0  0.00000000000E+00  0.00000000000E+00  0.16269124959E+03  0.16269124959E+03  0.00000000000E+00 0. -1.
         -1   -1    0    0    0  501 -0.00000000000E+00 -0.00000000000E+00 -0.22726782685E+03  0.22726782685E+03  0.00000000000E+00 0.  1.
          6    1    1    2  502    0  0.69347493410E+02 -0.10590615942E+02 -0.82675527205E+02  0.20332358148E+03  0.17200000000E+03 0. -1.
         -6    1    1    2    0  501 -0.69347493410E+02  0.10590615942E+02  0.18098949948E+02  0.18663549496E+03  0.17200000000E+03 0. -1.
</event>
<event>
 4    1  0.3141404E-002  0.3987804E+03  0.7818608E-02  0.1044203E+00
         -2   -1    0    0    0  501 -0.00000000000E+00  0.00000000000E+00  0.14451907266E+03  0.14451907266E+03  0.00000000000E+00 0.  1.
          2   -1    0    0  502    0  0.00000000000E+00 -0.00000000000E+00 -0.13340249286E+04  0.13340249286E+04  0.00000000000E+00 0. -1.
          6    1    1    2  502    0  0.22596482380E+03  0.27996732898E+03 -0.90413920425E+03  0.98817686046E+03  0.17200000000E+03 0. -1.
         -6    1    1    2    0  501 -0.22596482380E+03 -0.27996732898E+03 -0.28536665170E+03  0.49036714082E+03  0.17200000000E+03 0.  1.
</event>
<event>
 4    1  0.3141404E-002  0.1919092E+03  0.7818608E-02  0.1156751E+00
          2   -1    0    0  502    0  0.00000000000E+00  0.00000000000E+00  0.63652150569E+03  0.63652150569E+03  0.00000000000E+00 0. -1.
         -2   -1    0    0    0  501 -0.00000000000E+00 -0.00000000000E+00 -0.58572079306E+02  0.58572079306E+02  0.00000000000E+00 0.  1.
          6    1    1    2  502    0  0.78122723538E+02  0.33793397200E+02  0.25065494301E+03  0.31568505521E+03  0.17200000000E+03 0. -1.
         -6    1    1    2    0  501 -0.78122723538E+02 -0.33793397200E+02  0.32729448338E+03  0.37940852979E+03  0.17200000000E+03 0.  1.
</event>
<event>
 4    1  0.3141404E-002  0.4887702E+03  0.7818608E-02  0.1016752E+00
         -2   -1    0    0    0  501 -0.00000000000E+00  0.00000000000E+00  0.10247174302E+03  0.10247174302E+03  0.00000000000E+00 0.  1.
          2   -1    0    0  502    0  0.00000000000E+00 -0.00000000000E+00 -0.25178082543E+04  0.25178082543E+04  0.00000000000E+00 0. -1.
          6    1    1    2  502    0  0.43127009857E+03 -0.15270363882E+03 -0.85112616165E+03  0.98148461133E+03  0.17200000000E+03 0. -1.
         -6    1    1    2    0  501 -0.43127009857E+03  0.15270363882E+03 -0.15642103496E+04  0.16387953859E+04  0.17200000000E+03 0. -1.
</event>
<event>
 4    1  0.3141404E-002  0.1838010E+03  0.7818608E-02  0.1164174E+00
         -2   -1    0    0    0  501 -0.00000000000E+00  0.00000000000E+00  0.69615742450E+02  0.69615742450E+02  0.00000000000E+00 0.  1.
          2   -1    0    0  502    0  0.00000000000E+00 -0.00000000000E+00 -0.48711962044E+03  0.48711962044E+03  0.00000000000E+00 0. -1.
          6    1    1    2  502    0  0.61922559581E+02  0.19089184450E+02 -0.19162344764E+03  0.26552277875E+03  0.17200000000E+03 0.  1.
         -6    1    1    2    0  501 -0.61922559581E+02 -0.19089184450E+02 -0.22588043035E+03  0.29121258414E+03  0.17200000000E+03 0. -1.
</event>
<event>
 4    1  0.3141404E-002  0.2345588E+03  0.7818608E-02  0.1123472E+00
         -2   -1    0    0    0  501 -0.00000000000E+00  0.00000000000E+00  0.90666763578E+02  0.90666763578E+02  0.00000000000E+00 0.  1.
          2   -1    0    0  502    0  0.00000000000E+00 -0.00000000000E+00 -0.19974769078E+04  0.19974769078E+04  0.00000000000E+00 0. -1.
          6    1    1    2  502    0 -0.14954484894E+03 -0.55409224664E+02 -0.18245701599E+04  0.18395853099E+04  0.17200000000E+03 0. -1.
         -6    1    1    2    0  501  0.14954484894E+03  0.55409224664E+02 -0.82239984279E+02  0.24855836143E+03  0.17200000000E+03 0.  1.
</event>
<event>
 4    1  0.3141404E-002  0.2756111E+03  0.7818608E-02  0.1098110E+00
          2   -1    0    0  502    0  0.00000000000E+00  0.00000000000E+00  0.14426600943E+04  0.14426600943E+04  0.00000000000E+00 0. -1.
         -2   -1    0    0    0  501 -0.00000000000E+00 -0.00000000000E+00 -0.64261465551E+02  0.64261465551E+02  0.00000000000E+00 0.  1.
          6    1    1    2  502    0  0.18070660879E+03 -0.11714359584E+03  0.10094265323E+04  0.10463763303E+04  0.17200000000E+03 0. -1.
         -6    1    1    2    0  501 -0.18070660879E+03  0.11714359584E+03  0.36897209649E+03  0.46054522959E+03  0.17200000000E+03 0.  1.
</event>
<event>
 4    1  0.3141404E-002  0.3007551E+03  0.7818608E-02  0.1084864E+00
          2   -1    0    0  502    0  0.00000000000E+00  0.00000000000E+00  0.24058694754E+04  0.24058694754E+04  0.00000000000E+00 0. -1.
         -2   -1    0    0    0  501 -0.00000000000E+00 -0.00000000000E+00 -0.73510864074E+02  0.73510864074E+02  0.00000000000E+00 0.  1.
          6    1    1    2  502    0 -0.32011707493E+02  0.24463214851E+03  0.20326782774E+04  0.20548076837E+04  0.17200000000E+03 0. -1.
         -6    1    1    2    0  501  0.32011707493E+02 -0.24463214851E+03  0.29968033392E+03  0.42457265579E+03  0.17200000000E+03 0.  1.
</event>
<event>
 4    1  0.3141404E-002  0.2046914E+03  0.7818608E-02  0.1145840E+00
         -1   -1    0    0    0  501 -0.00000000000E+00  0.00000000000E+00  0.24640387239E+03  0.24640387239E+03  0.00000000000E+00 0.  1.
          1   -1    0    0  502    0  0.00000000000E+00 -0.00000000000E+00 -0.92623804798E+03  0.92623804798E+03  0.00000000000E+00 0. -1.
          6    1    1    2  502    0 -0.11094418734E+03  0.24408194080E+01 -0.86969252959E+03  0.89345602373E+03  0.17200000000E+03 0. -1.
         -6    1    1    2    0  501  0.11094418734E+03 -0.24408194080E+01  0.18985835400E+03  0.27918589665E+03  0.17200000000E+03 0.  1.
</event>
<event>
 4    1  0.3141404E-002  0.2608074E+03  0.7818608E-02  0.1106659E+00
          1   -1    0    0  502    0  0.00000000000E+00  0.00000000000E+00  0.28918501369E+04  0.28918501369E+04  0.00000000000E+00 0. -1.
         -1   -1    0    0    0  501 -0.00000000000E+00 -0.00000000000E+00 -0.10764117998E+03  0.10764117998E+03  0.00000000000E+00 0.  1.
          6    1    1    2  502    0  0.18333081696E+03  0.69471589235E+02  0.27179024178E+04  0.27303871599E+04  0.17200000000E+03 0. -1.
         -6    1    1    2    0  501 -0.18333081696E+03 -0.69471589235E+02  0.66306539057E+02  0.26910415694E+03  0.17200000000E+03 0.  1.
</event>
<event>
 4    1  0.3141404E-002  0.3566970E+03  0.7818608E-02  0.1059899E+00
         -2   -1    0    0    0  501 -0.00000000000E+00  0.00000000000E+00  0.23804887616E+03  0.23804887616E+03  0.00000000000E+00 0.  1.
          2   -1    0    0  502    0  0.00000000000E+00 -0.00000000000E+00 -0.57514290921E+03  0.57514290921E+03  0.00000000000E+00 0. -1.
          6    1    1    2  502    0 -0.22762885020E+03  0.21408841424E+03 -0.27665700432E+03  0.45141094426E+03  0.17200000000E+03 0.  1.
         -6    1    1    2    0  501  0.22762885020E+03 -0.21408841424E+03 -0.60437028730E+02  0.36178084112E+03  0.17200000000E+03 0.  1.
</event>
<event>
 4    1  0.3141404E-002  0.1825522E+03  0.7818608E-02  0.1165356E+00
         -2   -1    0    0    0  501 -0.00000000000E+00  0.00000000000E+00  0.10690424075E+03  0.10690424075E+03  0.00000000000E+00 0.  1.
          2   -1    0    0  502    0  0.00000000000E+00 -0.00000000000E+00 -0.83093872278E+03  0.83093872278E+03  0.00000000000E+00 0. -1.
          6    1    1    2  502    0 -0.31093892554E+02  0.52673429093E+02 -0.73268633777E+03  0.75508581621E+03  0.17200000000E+03 0. -1.
         -6    1    1    2    0  501  0.31093892554E+02 -0.52673429093E+02  0.86518557466E+01  0.18275714731E+03  0.17200000000E+03 0.  1.
</event>
<event>
 4    1  0.3141404E-002  0.1746420E+03  0.7818608E-02  0.1173092E+00
          2   -1    0    0  502    0  0.00000000000E+00  0.00000000000E+00  0.10635082836E+04  0.10635082836E+04  0.00000000000E+00 0. -1.
         -2   -1    0    0    0  501 -0.00000000000E+00 -0.00000000000E+00 -0.28698497332E+02  0.28698497332E+02  0.00000000000E+00 0.  1.
          6    1    1    2  502    0  0.13788343657E+01  0.30230964176E+02  0.50298597416E+03  0.53244220586E+03  0.17200000000E+03 0. -1.
         -6    1    1    2    0  501 -0.13788343657E+01 -0.30230964176E+02  0.53182381208E+03  0.55976457504E+03  0.17200000000E+03 0. -1.
</event>
<event>
 4    1  0.3141404E-002  0.3028713E+03  0.7818608E-02  0.1083814E+00
         -4   -1    0    0    0  501 -0.00000000000E+00  0.00000000000E+00  0.21851691024E+03  0.21851691024E+03  0.00000000000E+00 0.  1.
          4   -1    0    0  502    0  0.00000000000E+00 -0.00000000000E+00 -0.44843684477E+03  0.44843684477E+03  0.00000000000E+00 0. -1.
          6    1    1    2  502    0 -0.70568438520E+02 -0.23909652737E+03 -0.19924666209E+03  0.36253315196E+03  0.17200000000E+03 0.  1.
         -6    1    1    2    0  501  0.70568438520E+02  0.23909652737E+03 -0.30673272438E+02  0.30442060305E+03  0.17200000000E+03 0. -1.
</event>
<event>
 4    1  0.3141404E-002  0.2705464E+03  0.7818608E-02  0.1100967E+00
          2   -1    0    0  502    0  0.00000000000E+00  0.00000000000E+00  0.51826852890E+03  0.51826852890E+03  0.00000000000E+00 0. -1.
         -2   -1    0    0    0  501 -0.00000000000E+00 -0.00000000000E+00 -0.17871882506E+03  0.17871882506E+03  0.00000000000E+00 0.  1.
          6    1    1    2  502    0  0.20871205537E+03  0.71163251765E+01  0.32938382977E+03  0.42625001051E+03  0.17200000000E+03 0. -1.
         -6    1    1    2    0  501 -0.20871205537E+03 -0.71163251765E+01  0.10165874067E+02  0.27073734345E+03  0.17200000000E+03 0.  1.
</event>
<event>
 4    1  0.3141404E-002  0.3195683E+03  0.7818608E-02  0.1075848E+00
         -2   -1    0    0    0  501 -0.00000000000E+00  0.00000000000E+00  0.66367694636E+02  0.66367694636E+02  0.00000000000E+00 0.  1.
          2   -1    0    0  502    0  0.00000000000E+00 -0.00000000000E+00 -0.23389271235E+04  0.23389271235E+04  0.00000000000E+00 0. -1.
          6    1    1    2  502    0  0.26890021083E+03 -0.15250099524E+02 -0.18397092377E+04  0.18672584096E+04  0.17200000000E+03 0. -1.
         -6    1    1    2    0  501 -0.26890021083E+03  0.15250099524E+02 -0.43285019113E+03  0.53803640851E+03  0.17200000000E+03 0.  1.
</event>
<event>
 4    1  0.3141404E-002  0.5296645E+03  0.7818608E-02  0.1006314E+00
          2   -1    0    0  502    0  0.00000000000E+00  0.00000000000E+00  0.10253545356E+04  0.10253545356E+04  0.00000000000E+00 0. -1.
         -2   -1    0    0    0  501 -0.00000000000E+00 -0.00000000000E+00 -0.28132813903E+03  0.28132813903E+03  0.00000000000E+00 0.  1.
          6    1    1    2  502    0  0.53098846893E+02 -0.49813756928E+03  0.26377894681E+03  0.59171264838E+03  0.17200000000E+03 0. -1.
         -6    1    1    2    0  501 -0.53098846893E+02  0.49813756928E+03  0.48024744980E+03  0.71497002630E+03  0.17200000000E+03 0.  1.
</event>
<event>
 4    1  0.3141404E-002  0.1804140E+03  0.7818608E-02  0.1167403E+00
          1   -1    0    0  502    0  0.00000000000E+00  0.00000000000E+00  0.34509374952E+02  0.34509374952E+02  0.00000000000E+00 0. -1.
         -1   -1    0    0    0  501 -0.00000000000E+00 -0.00000000000E+00 -0.94619303978E+03  0.94619303978E+03  0.00000000000E+00 0.  1.
          6    1    1    2  502    0 -0.11377346802E+02  0.53252038781E+02 -0.48342303124E+03  0.51599132821E+03  0.17200000000E+03 0.  1.
         -6    1    1    2    0  501  0.11377346802E+02 -0.53252038781E+02 -0.42826063359E+03  0.46471108652E+03  0.17200000000E+03 0. -1.
</event>
<event>
 4    1  0.3141404E-002  0.1967335E+03  0.7818608E-02  0.1152525E+00
          2   -1    0    0  502    0  0.00000000000E+00  0.00000000000E+00  0.16581163909E+04  0.16581163909E+04  0.00000000000E+00 0. -1.
         -2   -1    0    0    0  501 -0.00000000000E+00 -0.00000000000E+00 -0.23488599966E+02  0.23488599966E+02  0.00000000000E+00 0.  1.
          6    1    1    2  502    0  0.22033368381E+02  0.92922601868E+02  0.88369439690E+03  0.90532859580E+03  0.17200000000E+03 0.  1.
         -6    1    1    2    0  501 -0.22033368381E+02 -0.92922601868E+02  0.75093339399E+03  0.77627639502E+03  0.17200000000E+03 0.  1.
</event>
<event>
 4    1  0.3141404E-002  0.4040425E+03  0.7818608E-02  0.1042389E+00
         -2   -1    0    0    0  501 -0.00000000000E+00  0.00000000000E+00  0.82151973184E+03  0.82151973184E+03  0.00000000000E+00 0.  1.
          2   -1    0    0  502    0  0.00000000000E+00 -0.00000000000E+00 -0.14713317780E+04  0.14713317780E+04  0.00000000000E+00 0. -1.
          6    1    1    2  502    0  0.35670796628E+03  0.80160661472E+02 -0.13911068896E+04  0.14485954174E+04  0.17200000000E+03 0. -1.
         -6    1    1    2    0  501 -0.35670796628E+03 -0.80160661472E+02  0.74129484343E+03  0.84425609252E+03  0.17200000000E+03 0.  1.
</event>
<event>
 4    1  0.3141404E-002  0.7343228E+03  0.7818608E-02  0.9660272E-01
          2   -1    0    0  502    0  0.00000000000E+00  0.00000000000E+00  0.12378602811E+04  0.12378602811E+04  0.00000000000E+00 0. -1.
         -2   -1    0    0    0  501 -0.00000000000E+00 -0.00000000000E+00 -0.54646971323E+03  0.54646971323E+03  0.00000000000E+00 0.  1.
          6    1    1    2  502    0  0.31037571970E+03 -0.64289415333E+03  0.74752314574E+03  0.10478648926E+04  0.17200000000E+03 0. -1.
         -6    1    1    2    0  501 -0.31037571970E+03  0.64289415333E+03 -0.56132577852E+02  0.73646510173E+03  0.17200000000E+03 0.  1.
</event>
<event>
 4    1  0.3141404E-002  0.1850721E+03  0.7818608E-02  0.1162983E+00
          2   -1    0    0  502    0  0.00000000000E+00  0.00000000000E+00  0.17839096580E+04  0.17839096580E+04  0.00000000000E+00 0. -1.
         -2   -1    0    0    0  501 -0.00000000000E+00 -0.00000000000E+00 -0.19211662660E+02  0.19211662660E+02  0.00000000000E+00 0.  1.
          6    1    1    2  502    0  0.26548538597E+02 -0.62951353302E+02  0.90422202666E+03  0.92296758951E+03  0.17200000000E+03 0. -1.
         -6    1    1    2    0  501 -0.26548538597E+02  0.62951353302E+02  0.86047596865E+03  0.88015373112E+03  0.17200000000E+03 0. -1.
</event>
<event>
 4    1  0.3141404E-002  0.1931633E+03  0.7818608E-02  0.1155639E+00
          2   -1    0    0  502    0  0.00000000000E+00  0.00000000000E+00  0.31993524809E+04  0.31993524809E+04  0.00000000000E+00 0. -1.
         -2   -1    0    0    0  501 -0.00000000000E+00 -0.00000000000E+00 -0.11902767941E+02  0.11902767941E+02  0.00000000000E+00 0.  1.
          6    1    1    2  502    0  0.22823192829E+01 -0.87879703201E+02  0.18219066060E+04  0.18321178271E+04  0.17200000000E+03 0. -1.
         -6    1    1    2    0  501 -0.22823192829E+01  0.87879703201E+02  0.13655431070E+04  0.13791374218E+04  0.17200000000E+03 0.  1.
</event>
<event>
 4    1  0.3141404E-002  0.2365003E+03  0.7818608E-02  0.1122146E+00
          1   -1    0    0  502    0  0.00000000000E+00  0.00000000000E+00  0.66055029790E+03  0.66055029790E+03  0.00000000000E+00 0. -1.
         -1   -1    0    0    0  501 -0.00000000000E+00 -0.00000000000E+00 -0.86587321917E+02  0.86587321917E+02  0.00000000000E+00 0.  1.
          6    1    1    2  502    0 -0.15666621679E+03 -0.42474658414E+02  0.23147142027E+03  0.33092509498E+03  0.17200000000E+03 0. -1.
         -6    1    1    2    0  501  0.15666621679E+03  0.42474658414E+02  0.34249155572E+03  0.41621252484E+03  0.17200000000E+03 0.  1.
</event>
<event>
 4    1  0.3141404E-002  0.2334388E+03  0.7818608E-02  0.1124242E+00
         -2   -1    0    0    0  501 -0.00000000000E+00  0.00000000000E+00  0.56744612456E+03  0.56744612456E+03  0.00000000000E+00 0.  1.
          2   -1    0    0  502    0  0.00000000000E+00 -0.00000000000E+00 -0.22558346299E+04  0.22558346299E+04  0.00000000000E+00 0. -1.
          6    1    1    2  502    0  0.13150774638E+03 -0.87266303368E+02 -0.22254603412E+04  0.22376700886E+04  0.17200000000E+03 0. -1.
         -6    1    1    2    0  501 -0.13150774638E+03  0.87266303368E+02  0.53707183589E+03  0.58561066586E+03  0.17200000000E+03 0.  1.
</event>
<event>
 4    1  0.3141404E-002  0.1762253E+03  0.7818608E-02  0.1171507E+00
         -2   -1    0    0    0  501 -0.00000000000E+00  0.00000000000E+00  0.14594810423E+03  0.14594810423E+03  0.00000000000E+00 0.  1.
          2   -1    0    0  502    0  0.00000000000E+00 -0.00000000000E+00 -0.17768314930E+04  0.17768314930E+04  0.00000000000E+00 0. -1.
          6    1    1    2  502    0 -0.93232137946E+01  0.37207751662E+02 -0.17174310957E+04  0.17264486403E+04  0.17200000000E+03 0. -1.
         -6    1    1    2    0  501  0.93232137946E+01 -0.37207751662E+02  0.86547706883E+02  0.19633095697E+03  0.17200000000E+03 0.  1.
</event>
<event>
 4    1  0.3141404E-002  0.1789666E+03  0.7818608E-02  0.1168807E+00
         -1   -1    0    0    0  501 -0.00000000000E+00  0.00000000000E+00  0.89043444104E+02  0.89043444104E+02  0.00000000000E+00 0.  1.
          1   -1    0    0  502    0  0.00000000000E+00 -0.00000000000E+00 -0.61051790143E+03  0.61051790143E+03  0.00000000000E+00 0. -1.
          6    1    1    2  502    0 -0.48380269124E+02 -0.10217249515E+02 -0.48493162148E+03  0.51690204114E+03  0.17200000000E+03 0. -1.
         -6    1    1    2    0  501  0.48380269124E+02  0.10217249515E+02 -0.36542835845E+02  0.18265930439E+03  0.17200000000E+03 0.  1.
</event>
<event>
 4    1  0.3141404E-002  0.1954290E+03  0.7818608E-02  0.1153654E+00
         -2   -1    0    0    0  501 -0.00000000000E+00  0.00000000000E+00  0.34475897664E+02  0.34475897664E+02  0.00000000000E+00 0.  1.
          2   -1    0    0  502    0  0.00000000000E+00 -0.00000000000E+00 -0.16417085783E+04  0.16417085783E+04  0.00000000000E+00 0. -1.
          6    1    1    2  502    0 -0.23625555828E+02  0.89723620668E+02 -0.12815593420E+04  0.12963744991E+04  0.17200000000E+03 0. -1.
         -6    1    1    2    0  501  0.23625555828E+02 -0.89723620668E+02 -0.32567333872E+03  0.37980997689E+03  0.17200000000E+03 0.  1.
</event>
<event>
 4    1  0.3141404E-002  0.2624560E+03  0.7818608E-02  0.1105677E+00
          1   -1    0    0  502    0  0.00000000000E+00  0.00000000000E+00  0.34619758076E+03  0.34619758076E+03  0.00000000000E+00 0. -1.
         -1   -1    0    0    0  501 -0.00000000000E+00 -0.00000000000E+00 -0.19942638272E+03  0.19942638272E+03  0.00000000000E+00 0.  1.
          6    1    1    2  502    0 -0.12279950306E+03 -0.15562586030E+03  0.60342813580E+02  0.26930351185E+03  0.17200000000E+03 0. -1.
         -6    1    1    2    0  501  0.12279950306E+03  0.15562586030E+03  0.86428384464E+02  0.27632045163E+03  0.17200000000E+03 0.  1.
</event>
<event>
 4    1  0.3141404E-002  0.2280636E+03  0.7818608E-02  0.1128010E+00
          2   -1    0    0  502    0  0.00000000000E+00  0.00000000000E+00  0.70062679552E+03  0.70062679552E+03  0.00000000000E+00 0. -1.
         -2   -1    0    0    0  501 -0.00000000000E+00 -0.00000000000E+00 -0.18814623264E+03  0.18814623264E+03  0.00000000000E+00 0.  1.
          6    1    1    2  502    0  0.62700233848E+02 -0.13600614518E+03  0.60201325793E+03  0.64376467251E+03  0.17200000000E+03 0. -1.
         -6    1    1    2    0  501 -0.62700233848E+02  0.13600614518E+03 -0.89532695055E+02  0.24500835564E+03  0.17200000000E+03 0.  1.
</event>
<event>
 4    1  0.3141404E-002  0.2994644E+03  0.7818608E-02  0.1085509E+00
          2   -1    0    0  502    0  0.00000000000E+00  0.00000000000E+00  0.72924056141E+03  0.72924056141E+03  0.00000000000E+00 0. -1.
         -2   -1    0    0    0  501 -0.00000000000E+00 -0.00000000000E+00 -0.12375350503E+03  0.12375350503E+03  0.00000000000E+00 0.  1.
          6    1    1    2  502    0 -0.24282388601E+03  0.33637223778E+02  0.33655465492E+03  0.45049743417E+03  0.17200000000E+03 0. -1.
         -6    1    1    2    0  501  0.24282388601E+03 -0.33637223778E+02  0.26893240146E+03  0.40249663228E+03  0.17200000000E+03 0.  1.
</event>
<event>
 4    1  0.3141404E-002  0.2372890E+03  0.7818608E-02  0.1121612E+00
          1   -1    0    0  502    0  0.00000000000E+00  0.00000000000E+00  0.56092377915E+03  0.56092377915E+03  0.00000000000E+00 0. -1.
         -1   -1    0    0    0  501 -0.00000000000E+00 -0.00000000000E+00 -0.12122345567E+03  0.12122345567E+03  0.00000000000E+00 0.  1.
          6    1    1    2  502    0  0.14438495938E+03  0.76649014279E+02  0.36127616801E+03  0.43223437792E+03  0.17200000000E+03 0. -1.
         -6    1    1    2    0  501 -0.14438495938E+03 -0.76649014279E+02  0.78424155464E+02  0.24991285690E+03  0.17200000000E+03 0.  1.
</event>
<event>
 4    1  0.3141404E-002  0.2089132E+03  0.7818608E-02  0.1142430E+00
         -1   -1    0    0    0  501 -0.00000000000E+00  0.00000000000E+00  0.10894616804E+03  0.10894616804E+03  0.00000000000E+00 0.  1.
          1   -1    0    0  502    0  0.00000000000E+00 -0.00000000000E+00 -0.54302710849E+03  0.54302710849E+03  0.00000000000E+00 0. -1.
          6    1    1    2  502    0  0.69695030732E+02  0.95933928961E+02 -0.38398532620E+03  0.43713778923E+03  0.17200000000E+03 0. -1.
         -6    1    1    2    0  501 -0.69695030732E+02 -0.95933928961E+02 -0.50095614246E+02  0.21483548729E+03  0.17200000000E+03 0.  1.
</event>
<event>
 4    1  0.3141404E-002  0.3751242E+03  0.7818608E-02  0.1052751E+00
          2   -1    0    0  502    0  0.00000000000E+00  0.00000000000E+00  0.20638427941E+04  0.20638427941E+04  0.00000000000E+00 0. -1.
         -2   -1    0    0    0  501 -0.00000000000E+00 -0.00000000000E+00 -0.89733342145E+02  0.89733342145E+02  0.00000000000E+00 0.  1.
          6    1    1    2  502    0  0.28829386816E+03  0.16739410788E+03  0.45935781174E+03  0.59306638834E+03  0.17200000000E+03 0. -1.
         -6    1    1    2    0  501 -0.28829386816E+03 -0.16739410788E+03  0.15147516402E+04  0.15605097479E+04  0.17200000000E+03 0. -1.
</event>
<event>
 4    1  0.3141404E-002  0.2007493E+03  0.7818608E-02  0.1149108E+00
         -1   -1    0    0    0  501 -0.00000000000E+00  0.00000000000E+00  0.16239045005E+03  0.16239045005E+03  0.00000000000E+00 0.  1.
          1   -1    0    0  502    0  0.00000000000E+00 -0.00000000000E+00 -0.25141298376E+03  0.25141298376E+03  0.00000000000E+00 0. -1.
          6    1    1    2  502    0 -0.79432970001E+02 -0.66382740133E+02 -0.21008770983E+02  0.20184556812E+03  0.17200000000E+03 0.  1.
         -6    1    1    2    0  501  0.79432970001E+02  0.66382740133E+02 -0.68013762726E+02  0.21195786570E+03  0.17200000000E+03 0.  1.
</event>
<event>
 4    1  0.3141404E-002  0.5797550E+03  0.7818608E-02  0.9948322E-01
          2   -1    0    0  502    0  0.00000000000E+00  0.00000000000E+00  0.23162669449E+03  0.23162669449E+03  0.00000000000E+00 0. -1.
         -2   -1    0    0    0  501 -0.00000000000E+00 -0.00000000000E+00 -0.16453383558E+04  0.16453383558E+04  0.00000000000E+00 0.  1.
          6    1    1    2  502    0  0.44768861585E+03  0.32574038557E+03 -0.38441168513E+03  0.69562075819E+03  0.17200000000E+03 0. -1.
         -6    1    1    2    0  501 -0.44768861585E+03 -0.32574038557E+03 -0.10292999762E+04  0.11813442921E+04  0.17200000000E+03 0.  1.
</event>
<event>
 4    1  0.3141404E-002  0.3850759E+03  0.7818608E-02  0.1049073E+00
         -1   -1    0    0    0  501 -0.00000000000E+00  0.00000000000E+00  0.69865654701E+03  0.69865654701E+03  0.00000000000E+00 0.  1.
          1   -1    0    0  502    0  0.00000000000E+00 -0.00000000000E+00 -0.24743025080E+03  0.24743025080E+03  0.00000000000E+00 0. -1.
          6    1    1    2  502    0  0.28052185238E+03  0.20001743047E+03  0.47219115152E+02  0.38796021315E+03  0.17200000000E+03 0. -1.
         -6    1    1    2    0  501 -0.28052185238E+03 -0.20001743047E+03  0.40400718105E+03  0.55812658465E+03  0.17200000000E+03 0.  1.
</event>
<event>
 4    1  0.3141404E-002  0.2250777E+03  0.7818608E-02  0.1130153E+00
         -3   -1    0    0    0  501 -0.00000000000E+00  0.00000000000E+00  0.15356721590E+03  0.15356721590E+03  0.00000000000E+00 0.  1.
          3   -1    0    0  502    0  0.00000000000E+00 -0.00000000000E+00 -0.11710002644E+04  0.11710002644E+04  0.00000000000E+00 0. -1.
          6    1    1    2  502    0 -0.47026531204E+01  0.14509949350E+03 -0.10700133488E+04  0.10934297163E+04  0.17200000000E+03 0. -1.
         -6    1    1    2    0  501  0.47026531204E+01 -0.14509949350E+03  0.52580300284E+02  0.23113776398E+03  0.17200000000E+03 0.  1.
</event>
<event>
 4    1  0.3141404E-002  0.2070158E+03  0.7818608E-02  0.1143951E+00
          2   -1    0    0  502    0  0.00000000000E+00  0.00000000000E+00  0.23920484755E+04  0.23920484755E+04  0.00000000000E+00 0. -1.
         -2   -1    0    0    0  501 -0.00000000000E+00 -0.00000000000E+00 -0.18770329303E+02  0.18770329303E+02  0.00000000000E+00 0.  1.
          6    1    1    2  502    0  0.11505522577E+03 -0.58176566054E+01  0.92944985548E+03  0.95222507001E+03  0.17200000000E+03 0. -1.
         -6    1    1    2    0  501 -0.11505522577E+03  0.58176566054E+01  0.14438282907E+04  0.14585937348E+04  0.17200000000E+03 0. -1.
</event>
<event>
 4    1  0.3141404E-002  0.1962511E+03  0.7818608E-02  0.1152941E+00
         -3   -1    0    0    0  501 -0.00000000000E+00  0.00000000000E+00  0.34621906187E+03  0.34621906187E+03  0.00000000000E+00 0.  1.
          3   -1    0    0  502    0  0.00000000000E+00 -0.00000000000E+00 -0.29846775973E+03  0.29846775973E+03  0.00000000000E+00 0. -1.
          6    1    1    2  502    0 -0.84194550387E+02  0.42915802388E+02 -0.23142480265E+03  0.30343356389E+03  0.17200000000E+03 0. -1.
         -6    1    1    2    0  501  0.84194550387E+02 -0.42915802388E+02  0.27917610479E+03  0.34125325771E+03  0.17200000000E+03 0.  1.
</event>
<event>
 4    1  0.3141404E-002  0.1814443E+03  0.7818608E-02  0.1166413E+00
         -2   -1    0    0    0  501 -0.00000000000E+00  0.00000000000E+00  0.28063346693E+03  0.28063346693E+03  0.00000000000E+00 0.  1.
          2   -1    0    0  502    0  0.00000000000E+00 -0.00000000000E+00 -0.19683103841E+03  0.19683103841E+03  0.00000000000E+00 0. -1.
          6    1    1    2  502    0  0.43248469485E+02 -0.38309376895E+02 -0.10983746876E+03  0.21209975958E+03  0.17200000000E+03 0. -1.
         -6    1    1    2    0  501 -0.43248469485E+02  0.38309376895E+02  0.19363989728E+03  0.26536474576E+03  0.17200000000E+03 0.  1.
</event>
<event>
 4    1  0.3141404E-002  0.1897300E+03  0.7818608E-02  0.1158705E+00
          2   -1    0    0  502    0  0.00000000000E+00  0.00000000000E+00  0.42104206325E+03  0.42104206325E+03  0.00000000000E+00 0. -1.
         -2   -1    0    0    0  501 -0.00000000000E+00 -0.00000000000E+00 -0.86502454423E+02  0.86502454423E+02  0.00000000000E+00 0.  1.
          6    1    1    2  502    0  0.74615637298E+02  0.29085650396E+02  0.19464128010E+03  0.27181371618E+03  0.17200000000E+03 0. -1.
         -6    1    1    2    0  501 -0.74615637298E+02 -0.29085650396E+02  0.13989832873E+03  0.23573080148E+03  0.17200000000E+03 0.  1.
</event>
<event>
 4    1  0.3141404E-002  0.9342756E+03  0.7818608E-02  0.9383721E-01
         -2   -1    0    0    0  501 -0.00000000000E+00  0.00000000000E+00  0.42755881824E+03  0.42755881824E+03  0.00000000000E+00 0.  1.
          2   -1    0    0  502    0  0.00000000000E+00 -0.00000000000E+00 -0.20732488842E+04  0.20732488842E+04  0.00000000000E+00 0. -1.
          6    1    1    2  502    0 -0.91745742305E+03  0.39480428825E+02 -0.97752597037E+03  0.13521937177E+04  0.17200000000E+03 0. -1.
         -6    1    1    2    0  501  0.91745742305E+03 -0.39480428825E+02 -0.66816409559E+03  0.11486139848E+04  0.17200000000E+03 0.  1.
</event>
<event>
 4    1  0.3141404E-002  0.1827738E+03  0.7818608E-02  0.1165145E+00
         -4   -1    0    0    0  501 -0.00000000000E+00  0.00000000000E+00  0.30131351637E+03  0.30131351637E+03  0.00000000000E+00 0.  1.
          4   -1    0    0  502    0  0.00000000000E+00 -0.00000000000E+00 -0.11786572824E+03  0.11786572824E+03  0.00000000000E+00 0. -1.
          6    1    1    2  502    0 -0.59914949537E+02  0.15246909112E+02  0.40658161628E+02  0.18724143645E+03  0.17200000000E+03 0. -1.
         -6    1    1    2    0  501  0.59914949537E+02 -0.15246909112E+02  0.14278962650E+03  0.23193780816E+03  0.17200000000E+03 0.  1.
</event>
<event>
 4    1  0.3141404E-002  0.2070549E+03  0.7818608E-02  0.1143920E+00
          1   -1    0    0  502    0  0.00000000000E+00  0.00000000000E+00  0.14533828446E+03  0.14533828446E+03  0.00000000000E+00 0. -1.
         -1   -1    0    0    0  501 -0.00000000000E+00 -0.00000000000E+00 -0.29512006071E+03  0.29512006071E+03  0.00000000000E+00 0.  1.
          6    1    1    2  502    0  0.97776363747E+02 -0.61053259283E+02 -0.79708512470E+02  0.22186744857E+03  0.17200000000E+03 0.  1.
         -6    1    1    2    0  501 -0.97776363747E+02  0.61053259283E+02 -0.70073263777E+02  0.21859089659E+03  0.17200000000E+03 0.  1.
</event>
<event>
 4    1  0.3141404E-002  0.3580263E+03  0.7818608E-02  0.1059368E+00
          2   -1    0    0  502    0  0.00000000000E+00  0.00000000000E+00  0.63498312631E+03  0.63498312631E+03  0.00000000000E+00 0. -1.
         -2   -1    0    0    0  501 -0.00000000000E+00 -0.00000000000E+00 -0.20434564493E+03  0.20434564493E+03  0.00000000000E+00 0.  1.
          6    1    1    2  502    0  0.27226901113E+03 -0.15642394469E+03  0.26152771989E+03  0.44337299553E+03  0.17200000000E+03 0. -1.
         -6    1    1    2    0  501 -0.27226901113E+03  0.15642394469E+03  0.16910976148E+03  0.39595577572E+03  0.17200000000E+03 0.  1.
</event>
<event>
 4    1  0.3141404E-002  0.1996064E+03  0.7818608E-02  0.1150071E+00
          1   -1    0    0  502    0  0.00000000000E+00  0.00000000000E+00  0.12093821538E+03  0.12093821538E+03  0.00000000000E+00 0. -1.
         -1   -1    0    0    0  501 -0.00000000000E+00 -0.00000000000E+00 -0.40496888608E+03  0.40496888608E+03  0.00000000000E+00 0.  1.
          6    1    1    2  502    0 -0.34099640300E+01 -0.10122794910E+03 -0.28460721680E+02  0.20162524200E+03  0.17200000000E+03 0.  1.
         -6    1    1    2    0  501  0.34099640300E+01  0.10122794910E+03 -0.25556994902E+03  0.32428185946E+03  0.17200000000E+03 0.  1.
</event>
<event>
 4    1  0.3141404E-002  0.4428540E+03  0.7818608E-02  0.1029875E+00
         -2   -1    0    0    0  501 -0.00000000000E+00  0.00000000000E+00  0.18241733533E+03  0.18241733533E+03  0.00000000000E+00 0.  1.
          2   -1    0    0  502    0  0.00000000000E+00 -0.00000000000E+00 -0.10914815160E+04  0.10914815160E+04  0.00000000000E+00 0. -1.
          6    1    1    2  502    0 -0.40109632433E+03 -0.75215749801E+02 -0.53252780403E+03  0.69260777679E+03  0.17200000000E+03 0. -1.
         -6    1    1    2    0  501  0.40109632433E+03  0.75215749801E+02 -0.37653637666E+03  0.58129107455E+03  0.17200000000E+03 0.  1.
</event>
<event>
 4    1  0.3141404E-002  0.3123932E+03  0.7818608E-02  0.1079204E+00
          2   -1    0    0  502    0  0.00000000000E+00  0.00000000000E+00  0.27355170122E+04  0.27355170122E+04  0.00000000000E+00 0. -1.
         -2   -1    0    0    0  501 -0.00000000000E+00 -0.00000000000E+00 -0.37230016939E+02  0.37230016939E+02  0.00000000000E+00 0.  1.
          6    1    1    2  502    0 -0.24980151842E+03 -0.74864725271E+02  0.16324805880E+04  0.16621018007E+04  0.17200000000E+03 0. -1.
         -6    1    1    2    0  501  0.24980151842E+03  0.74864725271E+02  0.10658064073E+04  0.11106452284E+04  0.17200000000E+03 0.  1.
</event>
<event>
 4    1  0.3141404E-002  0.3057488E+03  0.7818608E-02  0.1082402E+00
          1   -1    0    0  502    0  0.00000000000E+00  0.00000000000E+00  0.83580568983E+03  0.83580568983E+03  0.00000000000E+00 0. -1.
         -1   -1    0    0    0  501 -0.00000000000E+00 -0.00000000000E+00 -0.13317884056E+03  0.13317884056E+03  0.00000000000E+00 0.  1.
          6    1    1    2  502    0 -0.17480359697E+03 -0.18259792840E+03  0.54521623531E+03  0.62509442824E+03  0.17200000000E+03 0. -1.
         -6    1    1    2    0  501  0.17480359697E+03  0.18259792840E+03  0.15741061397E+03  0.34389010215E+03  0.17200000000E+03 0.  1.
</event>
<event>
 4    1  0.3141404E-002  0.3762319E+03  0.7818608E-02  0.1052335E+00
         -1   -1    0    0    0  501 -0.00000000000E+00  0.00000000000E+00  0.63667556492E+03  0.63667556492E+03  0.00000000000E+00 0.  1.
          1   -1    0    0  502    0  0.00000000000E+00 -0.00000000000E+00 -0.30826481475E+03  0.30826481475E+03  0.00000000000E+00 0. -1.
          6    1    1    2  502    0  0.31014047779E+03 -0.12561577152E+03 -0.85256117360E+02  0.38577071373E+03  0.17200000000E+03 0. -1.
         -6    1    1    2    0  501 -0.31014047779E+03  0.12561577152E+03  0.41366686753E+03  0.55916966595E+03  0.17200000000E+03 0.  1.
</event>
<event>
 4    1  0.3141404E-002  0.1736416E+03  0.7818608E-02  0.1174103E+00
          2   -1    0    0  502    0  0.00000000000E+00  0.00000000000E+00  0.25232289057E+03  0.25232289057E+03  0.00000000000E+00 0. -1.
         -2   -1    0    0    0  501 -0.00000000000E+00 -0.00000000000E+00 -0.11952139654E+03  0.11952139654E+03  0.00000000000E+00 0.  1.
          6    1    1    2  502    0 -0.12680220705E+02 -0.20165149748E+02  0.69143464861E+02  0.18690168537E+03  0.17200000000E+03 0. -1.
         -6    1    1    2    0  501  0.12680220705E+02  0.20165149748E+02  0.63658029172E+02  0.18494260174E+03  0.17200000000E+03 0.  1.
</event>
<event>
 4    1  0.3141404E-002  0.4507951E+03  0.7818608E-02  0.1027485E+00
          2   -1    0    0  502    0  0.00000000000E+00  0.00000000000E+00  0.12590817026E+04  0.12590817026E+04  0.00000000000E+00 0. -1.
         -2   -1    0    0    0  501 -0.00000000000E+00 -0.00000000000E+00 -0.21484689828E+03  0.21484689828E+03  0.00000000000E+00 0.  1.
          6    1    1    2  502    0  0.45201146241E+02  0.41423310871E+03  0.88968886590E+03  0.99737780709E+03  0.17200000000E+03 0. -1.
         -6    1    1    2    0  501 -0.45201146241E+02 -0.41423310871E+03  0.15454593839E+03  0.47655079377E+03  0.17200000000E+03 0.  1.
</event>
<event>
 4    1  0.3141404E-002  0.2374837E+03  0.7818608E-02  0.1121481E+00
          1   -1    0    0  502    0  0.00000000000E+00  0.00000000000E+00  0.56236211547E+02  0.56236211547E+02  0.00000000000E+00 0. -1.
         -1   -1    0    0    0  501 -0.00000000000E+00 -0.00000000000E+00 -0.10330506042E+04  0.10330506042E+04  0.00000000000E+00 0.  1.
          6    1    1    2  502    0 -0.32737494552E+02  0.16044547369E+03 -0.39533879030E+03  0.46118461888E+03  0.17200000000E+03 0. -1.
         -6    1    1    2    0  501  0.32737494552E+02 -0.16044547369E+03 -0.58147560241E+03  0.62810219692E+03  0.17200000000E+03 0.  1.
</event>
<event>
 4    1  0.3141404E-002  0.1727986E+03  0.7818608E-02  0.1174960E+00
          2   -1    0    0  502    0  0.00000000000E+00  0.00000000000E+00  0.30480896441E+03  0.30480896441E+03  0.00000000000E+00 0. -1.
         -2   -1    0    0    0  501 -0.00000000000E+00 -0.00000000000E+00 -0.20347114342E+03  0.20347114342E+03  0.00000000000E+00 0.  1.
          6    1    1    2  502    0  0.86482682851E+01 -0.14162201928E+02  0.23367646481E+03  0.29062699584E+03  0.17200000000E+03 0. -1.
         -6    1    1    2    0  501 -0.86482682851E+01  0.14162201928E+02 -0.13233864382E+03  0.21765311198E+03  0.17200000000E+03 0.  1.
</event>
<event>
 4    1  0.3141404E-002  0.1863226E+03  0.7818608E-02  0.1161821E+00
         -2   -1    0    0    0  501 -0.00000000000E+00  0.00000000000E+00  0.20048842382E+03  0.20048842382E+03  0.00000000000E+00 0.  1.
          2   -1    0    0  502    0  0.00000000000E+00 -0.00000000000E+00 -0.28907529863E+03  0.28907529863E+03  0.00000000000E+00 0. -1.
          6    1    1    2  502    0  0.66806615725E+02 -0.25865089880E+02 -0.19929936729E+03  0.27283028531E+03  0.17200000000E+03 0. -1.
         -6    1    1    2    0  501 -0.66806615725E+02  0.25865089880E+02  0.11071249248E+03  0.21673343713E+03  0.17200000000E+03 0.  1.
</event>
<event>
 4    1  0.3141404E-002  0.3852752E+03  0.7818608E-02  0.1049001E+00
          4   -1    0    0  502    0  0.00000000000E+00  0.00000000000E+00  0.20053083396E+04  0.20053083396E+04  0.00000000000E+00 0. -1.
         -4   -1    0    0    0  501 -0.00000000000E+00 -0.00000000000E+00 -0.75193033089E+02  0.75193033089E+02  0.00000000000E+00 0.  1.
          6    1    1    2  502    0  0.27624417471E+03 -0.20625737658E+03  0.83524041799E+03  0.91981710427E+03  0.17200000000E+03 0.  1.
         -6    1    1    2    0  501 -0.27624417471E+03  0.20625737658E+03  0.10948748885E+04  0.11606842684E+04  0.17200000000E+03 0. -1.
</event>
<event>
 4    1  0.3141404E-002  0.1854275E+03  0.7818608E-02  0.1162651E+00
         -2   -1    0    0    0  501 -0.00000000000E+00  0.00000000000E+00  0.20495765369E+03  0.20495765369E+03  0.00000000000E+00 0.  1.
          2   -1    0    0  502    0  0.00000000000E+00 -0.00000000000E+00 -0.32276452541E+03  0.32276452541E+03  0.00000000000E+00 0. -1.
          6    1    1    2  502    0 -0.39507276163E+02 -0.56908244858E+02 -0.24175843935E+03  0.30468100729E+03  0.17200000000E+03 0. -1.
         -6    1    1    2    0  501  0.39507276163E+02  0.56908244858E+02  0.12395156763E+03  0.22304117181E+03  0.17200000000E+03 0.  1.
</event>
<event>
 4    1  0.3141404E-002  0.1759249E+03  0.7818608E-02  0.1171806E+00
         -2   -1    0    0    0  501 -0.00000000000E+00  0.00000000000E+00  0.53381559404E+02  0.53381559404E+02  0.00000000000E+00 0.  1.
          2   -1    0    0  502    0  0.00000000000E+00 -0.00000000000E+00 -0.70012713316E+03  0.70012713316E+03  0.00000000000E+00 0. -1.
          6    1    1    2  502    0 -0.26987794728E+02  0.25243109243E+02 -0.47957524223E+03  0.51082479246E+03  0.17200000000E+03 0. -1.
         -6    1    1    2    0  501  0.26987794728E+02 -0.25243109243E+02 -0.16717033152E+03  0.24268390010E+03  0.17200000000E+03 0.  1.
</event>
<event>
 4    1  0.3141404E-002  0.2063900E+03  0.7818608E-02  0.1144457E+00
          1   -1    0    0  502    0  0.00000000000E+00  0.00000000000E+00  0.31355640666E+03  0.31355640666E+03  0.00000000000E+00 0. -1.
         -1   -1    0    0    0  501 -0.00000000000E+00 -0.00000000000E+00 -0.14244263393E+03  0.14244263393E+03  0.00000000000E+00 0.  1.
          6    1    1    2  502    0 -0.82400478359E+02 -0.78885927136E+02  0.13460512376E+03  0.24640488566E+03  0.17200000000E+03 0. -1.
         -6    1    1    2    0  501  0.82400478359E+02  0.78885927136E+02  0.36508648967E+02  0.20959415494E+03  0.17200000000E+03 0.  1.
</event>
<event>
 4    1  0.3141404E-002  0.2200292E+03  0.7818608E-02  0.1133861E+00
          1   -1    0    0  502    0  0.00000000000E+00  0.00000000000E+00  0.44789273947E+03  0.44789273947E+03  0.00000000000E+00 0. -1.
         -1   -1    0    0    0  501 -0.00000000000E+00 -0.00000000000E+00 -0.14361828755E+03  0.14361828755E+03  0.00000000000E+00 0.  1.
          6    1    1    2  502    0  0.64836273574E+02  0.12093434805E+03  0.29923743986E+03  0.37142415689E+03  0.17200000000E+03 0. -1.
         -6    1    1    2    0  501 -0.64836273574E+02 -0.12093434805E+03  0.50370120671E+01  0.22008687012E+03  0.17200000000E+03 0.  1.
</event>
<event>
 4    1  0.3141404E-002  0.1721642E+03  0.7818608E-02  0.1175610E+00
          4   -1    0    0  502    0  0.00000000000E+00  0.00000000000E+00  0.54405928657E+03  0.54405928657E+03  0.00000000000E+00 0. -1.
         -4   -1    0    0    0  501 -0.00000000000E+00 -0.00000000000E+00 -0.54480840119E+02  0.54480840119E+02  0.00000000000E+00 0.  1.
          6    1    1    2  502    0  0.68220941792E+01  0.31558465173E+01  0.24575184225E+03  0.30005744168E+03  0.17200000000E+03 0.  1.
         -6    1    1    2    0  501 -0.68220941792E+01 -0.31558465173E+01  0.24382660420E+03  0.29848268501E+03  0.17200000000E+03 0. -1.
</event>
<event>
 4    1  0.3141404E-002  0.2558733E+03  0.7818608E-02  0.1109648E+00
          2   -1    0    0  502    0  0.00000000000E+00  0.00000000000E+00  0.36708110324E+03  0.36708110324E+03  0.00000000000E+00 0. -1.
         -2   -1    0    0    0  501 -0.00000000000E+00 -0.00000000000E+00 -0.17862618037E+03  0.17862618037E+03  0.00000000000E+00 0.  1.
          6    1    1    2  502    0  0.98237671679E+02  0.16197683938E+03  0.10483810327E+03  0.27651792804E+03  0.17200000000E+03 0. -1.
         -6    1    1    2    0  501 -0.98237671679E+02 -0.16197683938E+03  0.83616819612E+02  0.26918935557E+03  0.17200000000E+03 0.  1.
</event>
<event>
 4    1  0.3141404E-002  0.4633229E+03  0.7818608E-02  0.1023822E+00
          2   -1    0    0  502    0  0.00000000000E+00  0.00000000000E+00  0.80834818778E+03  0.80834818778E+03  0.00000000000E+00 0. -1.
         -2   -1    0    0    0  501 -0.00000000000E+00 -0.00000000000E+00 -0.26689880085E+03  0.26689880085E+03  0.00000000000E+00 0.  1.
          6    1    1    2  502    0  0.29712313841E+02 -0.42918674336E+03  0.30874647469E+03  0.55676967222E+03  0.17200000000E+03 0. -1.
         -6    1    1    2    0  501 -0.29712313841E+02  0.42918674336E+03  0.23270291224E+03  0.51847731642E+03  0.17200000000E+03 0. -1.
</event>
<event>
 4    1  0.3141404E-002  0.1874401E+03  0.7818608E-02  0.1160791E+00
         -1   -1    0    0    0  501 -0.00000000000E+00  0.00000000000E+00  0.39982666472E+03  0.39982666472E+03  0.00000000000E+00 0.  1.
          1   -1    0    0  502    0  0.00000000000E+00 -0.00000000000E+00 -0.11490445891E+03  0.11490445891E+03  0.00000000000E+00 0. -1.
          6    1    1    2  502    0  0.45070012362E+02 -0.59316948405E+02  0.17630809155E+02  0.18826750068E+03  0.17200000000E+03 0. -1.
         -6    1    1    2    0  501 -0.45070012362E+02  0.59316948405E+02  0.26729139665E+03  0.32646362295E+03  0.17200000000E+03 0.  1.
</event>
<event>
 4    1  0.3141404E-002  0.2428974E+03  0.7818608E-02  0.1117878E+00
         -1   -1    0    0    0  501 -0.00000000000E+00  0.00000000000E+00  0.68749999890E+02  0.68749999890E+02  0.00000000000E+00 0.  1.
          1   -1    0    0  502    0  0.00000000000E+00 -0.00000000000E+00 -0.88155904114E+03  0.88155904114E+03  0.00000000000E+00 0. -1.
          6    1    1    2  502    0  0.17054557054E+03 -0.18148772546E+02 -0.32900865176E+03  0.40895704237E+03  0.17200000000E+03 0.  1.
         -6    1    1    2    0  501 -0.17054557054E+03  0.18148772546E+02 -0.48380038950E+03  0.54135199866E+03  0.17200000000E+03 0.  1.
</event>
<event>
 4    1  0.3141404E-002  0.2631558E+03  0.7818608E-02  0.1105262E+00
          1   -1    0    0  502    0  0.00000000000E+00  0.00000000000E+00  0.19046162557E+04  0.19046162557E+04  0.00000000000E+00 0. -1.
         -1   -1    0    0    0  501 -0.00000000000E+00 -0.00000000000E+00 -0.36466314489E+02  0.36466314489E+02  0.00000000000E+00 0.  1.
          6    1    1    2  502    0  0.19632660614E+03  0.33509094044E+02  0.88156093168E+03  0.92000036518E+03  0.17200000000E+03 0. -1.
         -6    1    1    2    0  501 -0.19632660614E+03 -0.33509094044E+02  0.98658900951E+03  0.10210822050E+04  0.17200000000E+03 0.  1.
</event>
<event>
 4    1  0.3141404E-002  0.2069450E+03  0.7818608E-02  0.1144008E+00
          1   -1    0    0  502    0  0.00000000000E+00  0.00000000000E+00  0.21260053303E+04  0.21260053303E+04  0.00000000000E+00 0. -1.
         -1   -1    0    0    0  501 -0.00000000000E+00 -0.00000000000E+00 -0.27725808274E+02  0.27725808274E+02  0.00000000000E+00 0.  1.
          6    1    1    2  502    0 -0.11104149576E+03  0.30199963980E+02  0.16122660202E+04  0.16254931472E+04  0.17200000000E+03 0. -1.
         -6    1    1    2    0  501  0.11104149576E+03 -0.30199963980E+02  0.48601350180E+03  0.52823799138E+03  0.17200000000E+03 0.  1.
</event>
<event>
 4    1  0.3141404E-002  0.1752393E+03  0.7818608E-02  0.1172492E+00
         -1   -1    0    0    0  501 -0.00000000000E+00  0.00000000000E+00  0.11124998653E+03  0.11124998653E+03  0.00000000000E+00 0.  1.
          1   -1    0    0  502    0  0.00000000000E+00 -0.00000000000E+00 -0.47502968128E+03  0.47502968128E+03  0.00000000000E+00 0. -1.
          6    1    1    2  502    0 -0.33070352061E+02 -0.55813394750E+01 -0.37161988210E+03  0.41086510720E+03  0.17200000000E+03 0. -1.
         -6    1    1    2    0  501  0.33070352061E+02  0.55813394750E+01  0.78401873503E+01  0.17541456061E+03  0.17200000000E+03 0.  1.
</event>
<event>
 4    1  0.3141404E-002  0.2851245E+03  0.7818608E-02  0.1092923E+00
         -2   -1    0    0    0  501 -0.00000000000E+00  0.00000000000E+00  0.72533223652E+02  0.72533223652E+02  0.00000000000E+00 0.  1.
          2   -1    0    0  502    0  0.00000000000E+00 -0.00000000000E+00 -0.17067103203E+04  0.17067103203E+04  0.00000000000E+00 0. -1.
          6    1    1    2  502    0  0.19764979967E+03  0.11245679589E+03 -0.13383280283E+04  0.13683632141E+04  0.17200000000E+03 0. -1.
         -6    1    1    2    0  501 -0.19764979967E+03 -0.11245679589E+03 -0.29584906835E+03  0.41088032990E+03  0.17200000000E+03 0.  1.
</event>
<event>
 4    1  0.3141404E-002  0.1970840E+03  0.7818608E-02  0.1152223E+00
         -1   -1    0    0    0  501 -0.00000000000E+00  0.00000000000E+00  0.19388355884E+03  0.19388355884E+03  0.00000000000E+00 0.  1.
          1   -1    0    0  502    0  0.00000000000E+00 -0.00000000000E+00 -0.43044356088E+03  0.43044356088E+03  0.00000000000E+00 0. -1.
          6    1    1    2  502    0  0.45658348544E+02 -0.84696044265E+02 -0.34651820126E+03  0.39864391192E+03  0.17200000000E+03 0. -1.
         -6    1    1    2    0  501 -0.45658348544E+02  0.84696044265E+02  0.10995819922E+03  0.22568320780E+03  0.17200000000E+03 0.  1.
</event>
<event>
 4    1  0.3141404E-002  0.2445493E+03  0.7818608E-02  0.1116799E+00
          1   -1    0    0  502    0  0.00000000000E+00  0.00000000000E+00  0.24533382995E+03  0.24533382995E+03  0.00000000000E+00 0. -1.
         -1   -1    0    0    0  501 -0.00000000000E+00 -0.00000000000E+00 -0.34656330596E+03  0.34656330596E+03  0.00000000000E+00 0.  1.
          6    1    1    2  502    0 -0.16684600668E+03  0.48813559023E+02  0.11056601348E+03  0.26838255686E+03  0.17200000000E+03 0. -1.
         -6    1    1    2    0  501  0.16684600668E+03 -0.48813559023E+02 -0.21179548950E+03  0.32351457905E+03  0.17200000000E+03 0.  1.
</event>
<event>
 4    1  0.3141404E-002  0.1081009E+04  0.7818608E-02  0.9223902E-01
         -2   -1    0    0    0  501 -0.00000000000E+00  0.00000000000E+00  0.10074737750E+04  0.10074737750E+04  0.00000000000E+00 0.  1.
          2   -1    0    0  502    0  0.00000000000E+00 -0.00000000000E+00 -0.35697381498E+04  0.35697381498E+04  0.00000000000E+00 0. -1.
          6    1    1    2  502    0 -0.92782725849E+03 -0.52738313330E+03 -0.31615127297E+04  0.33412188092E+04  0.17200000000E+03 0. -1.
         -6    1    1    2    0  501  0.92782725849E+03  0.52738313330E+03  0.59924835486E+03  0.12359931155E+04  0.17200000000E+03 0.  1.
</event>
<event>
 4    1  0.3141404E-002  0.2175817E+03  0.7818608E-02  0.1135699E+00
         -1   -1    0    0    0  501 -0.00000000000E+00  0.00000000000E+00  0.53808090871E+02  0.53808090871E+02  0.00000000000E+00 0.  1.
          1   -1    0    0  502    0  0.00000000000E+00 -0.00000000000E+00 -0.94712558648E+03  0.94712558648E+03  0.00000000000E+00 0. -1.
          6    1    1    2  502    0 -0.11428560396E+03 -0.68531786806E+02 -0.31325290280E+03  0.38140422938E+03  0.17200000000E+03 0.  1.
         -6    1    1    2    0  501  0.11428560396E+03  0.68531786806E+02 -0.58006459281E+03  0.61952944797E+03  0.17200000000E+03 0.  1.
</event>
<event>
 4    1  0.3141404E-002  0.2309863E+03  0.7818608E-02  0.1125948E+00
          2   -1    0    0  502    0  0.00000000000E+00  0.00000000000E+00  0.73682033813E+03  0.73682033813E+03  0.00000000000E+00 0. -1.
         -2   -1    0    0    0  501 -0.00000000000E+00 -0.00000000000E+00 -0.16723819902E+03  0.16723819902E+03  0.00000000000E+00 0.  1.
          6    1    1    2  502    0 -0.50438893002E+02  0.14569340162E+03  0.62517021227E+03  0.66647763917E+03  0.17200000000E+03 0. -1.
         -6    1    1    2    0  501  0.50438893002E+02 -0.14569340162E+03 -0.55588073157E+02  0.23758089797E+03  0.17200000000E+03 0.  1.
</event>
<event>
 4    1  0.3141404E-002  0.3321428E+03  0.7818608E-02  0.1070193E+00
         -1   -1    0    0    0  501 -0.00000000000E+00  0.00000000000E+00  0.54749907795E+03  0.54749907795E+03  0.00000000000E+00 0.  1.
          1   -1    0    0  502    0  0.00000000000E+00 -0.00000000000E+00 -0.20150108471E+03  0.20150108471E+03  0.00000000000E+00 0. -1.
          6    1    1    2  502    0  0.28346902239E+03  0.19497793223E+02  0.17110978434E+03  0.37362736636E+03  0.17200000000E+03 0.  1.
         -6    1    1    2    0  501 -0.28346902239E+03 -0.19497793223E+02  0.17488820890E+03  0.37537279631E+03  0.17200000000E+03 0.  1.
</event>
<event>
 4    1  0.3141404E-002  0.2194424E+03  0.7818608E-02  0.1134299E+00
         -2   -1    0    0    0  501 -0.00000000000E+00  0.00000000000E+00  0.72338746065E+02  0.72338746065E+02  0.00000000000E+00 0.  1.
          2   -1    0    0  502    0  0.00000000000E+00 -0.00000000000E+00 -0.24197766550E+04  0.24197766550E+04  0.00000000000E+00 0. -1.
          6    1    1    2  502    0 -0.13327702464E+03  0.28429242508E+02 -0.22346236321E+04  0.22453725223E+04  0.17200000000E+03 0. -1.
         -6    1    1    2    0  501  0.13327702464E+03 -0.28429242508E+02 -0.11281427685E+03  0.24674287869E+03  0.17200000000E+03 0.  1.
</event>
<event>
 4    1  0.3141404E-002  0.1831799E+03  0.7818608E-02  0.1164761E+00
          3   -1    0    0  502    0  0.00000000000E+00  0.00000000000E+00  0.83144574778E+02  0.83144574778E+02  0.00000000000E+00 0. -1.
         -3   -1    0    0    0  501 -0.00000000000E+00 -0.00000000000E+00 -0.40428323015E+03  0.40428323015E+03  0.00000000000E+00 0.  1.
          6    1    1    2  502    0  0.29179320078E+02  0.55852036539E+02 -0.15035239076E+03  0.23698253968E+03  0.17200000000E+03 0. -1.
         -6    1    1    2    0  501 -0.29179320078E+02 -0.55852036539E+02 -0.17078626461E+03  0.25044526525E+03  0.17200000000E+03 0.  1.
</event>
<event>
 4    1  0.3141404E-002  0.2175994E+03  0.7818608E-02  0.1135686E+00
         -2   -1    0    0    0  501 -0.00000000000E+00  0.00000000000E+00  0.94084938795E+02  0.94084938795E+02  0.00000000000E+00 0.  1.
          2   -1    0    0  502    0  0.00000000000E+00 -0.00000000000E+00 -0.51936490621E+03  0.51936490621E+03  0.00000000000E+00 0. -1.
          6    1    1    2  502    0 -0.13059842570E+03  0.26637033783E+02 -0.26664694199E+03  0.34416576244E+03  0.17200000000E+03 0. -1.
         -6    1    1    2    0  501  0.13059842570E+03 -0.26637033783E+02 -0.15863302542E+03  0.26928408256E+03  0.17200000000E+03 0.  1.
</event>
<event>
 4    1  0.3141404E-002  0.4239805E+03  0.7818608E-02  0.1035779E+00
          2   -1    0    0  502    0  0.00000000000E+00  0.00000000000E+00  0.63853851701E+03  0.63853851701E+03  0.00000000000E+00 0. -1.
         -2   -1    0    0    0  501 -0.00000000000E+00 -0.00000000000E+00 -0.37908171793E+03  0.37908171793E+03  0.00000000000E+00 0.  1.
          6    1    1    2  502    0  0.36975110103E+03  0.11601544703E+03  0.38785672847E+03  0.57462361810E+03  0.17200000000E+03 0. -1.
         -6    1    1    2    0  501 -0.36975110103E+03 -0.11601544703E+03 -0.12839992939E+03  0.44299661684E+03  0.17200000000E+03 0.  1.
</event>
<event>
 4    1  0.3141404E-002  0.2023771E+03  0.7818608E-02  0.1147749E+00
         -2   -1    0    0    0  501 -0.00000000000E+00  0.00000000000E+00  0.34226603086E+02  0.34226603086E+02  0.00000000000E+00 0.  1.
          2   -1    0    0  502    0  0.00000000000E+00 -0.00000000000E+00 -0.12135746115E+04  0.12135746115E+04  0.00000000000E+00 0. -1.
          6    1    1    2  502    0  0.26635682914E+02 -0.10326194821E+03 -0.66340190310E+03  0.69358386269E+03  0.17200000000E+03 0. -1.
         -6    1    1    2    0  501 -0.26635682914E+02  0.10326194821E+03 -0.51594610536E+03  0.55421735194E+03  0.17200000000E+03 0.  1.
</event>
<event>
 4    1  0.3141404E-002  0.1949973E+03  0.7818608E-02  0.1154030E+00
         -1   -1    0    0    0  501 -0.00000000000E+00  0.00000000000E+00  0.24313547224E+03  0.24313547224E+03  0.00000000000E+00 0.  1.
          1   -1    0    0  502    0  0.00000000000E+00 -0.00000000000E+00 -0.18115211693E+03  0.18115211693E+03  0.00000000000E+00 0. -1.
          6    1    1    2  502    0 -0.19313369753E+02  0.89816190513E+02 -0.47442001883E+02  0.20068556967E+03  0.17200000000E+03 0. -1.
         -6    1    1    2    0  501  0.19313369753E+02 -0.89816190513E+02  0.10942535719E+03  0.22360201950E+03  0.17200000000E+03 0.  1.
</event>
<event>
 4    1  0.3141404E-002  0.1923890E+03  0.7818608E-02  0.1156324E+00
         -2   -1    0    0    0  501 -0.00000000000E+00  0.00000000000E+00  0.36104547506E+02  0.36104547506E+02  0.00000000000E+00 0.  1.
          2   -1    0    0  502    0  0.00000000000E+00 -0.00000000000E+00 -0.14241437592E+04  0.14241437592E+04  0.00000000000E+00 0. -1.
          6    1    1    2  502    0 -0.86168608232E+02 -0.21207443127E+01 -0.10804653554E+04  0.10974602092E+04  0.17200000000E+03 0. -1.
         -6    1    1    2    0  501  0.86168608232E+02  0.21207443127E+01 -0.30757385629E+03  0.36278809748E+03  0.17200000000E+03 0.  1.
</event>
<event>
 4    1  0.3141404E-002  0.4045955E+03  0.7818608E-02  0.1042200E+00
         -2   -1    0    0    0  501 -0.00000000000E+00  0.00000000000E+00  0.12108816854E+04  0.12108816854E+04  0.00000000000E+00 0.  1.
          2   -1    0    0  502    0  0.00000000000E+00 -0.00000000000E+00 -0.60376403746E+03  0.60376403746E+03  0.00000000000E+00 0. -1.
          6    1    1    2  502    0  0.29238421152E+03  0.22051068282E+03 -0.49575616843E+03  0.63989973192E+03  0.17200000000E+03 0. -1.
         -6    1    1    2    0  501 -0.29238421152E+03 -0.22051068282E+03  0.11028738164E+04  0.11747459909E+04  0.17200000000E+03 0.  1.
</event>
<event>
 4    1  0.3141404E-002  0.1930178E+03  0.7818608E-02  0.1155767E+00
          2   -1    0    0  502    0  0.00000000000E+00  0.00000000000E+00  0.77872541866E+03  0.77872541866E+03  0.00000000000E+00 0. -1.
         -2   -1    0    0    0  501 -0.00000000000E+00 -0.00000000000E+00 -0.58137285322E+02  0.58137285322E+02  0.00000000000E+00 0.  1.
          6    1    1    2  502    0  0.74462790326E+02  0.46121002209E+02  0.53637570600E+03  0.57004802603E+03  0.17200000000E+03 0. -1.
         -6    1    1    2    0  501 -0.74462790326E+02 -0.46121002209E+02  0.18421242734E+03  0.26681467796E+03  0.17200000000E+03 0.  1.
</event>
<event>
 4    1  0.3141404E-002  0.2269458E+03  0.7818608E-02  0.1128808E+00
         -1   -1    0    0    0  501 -0.00000000000E+00  0.00000000000E+00  0.64294612912E+02  0.64294612912E+02  0.00000000000E+00 0.  1.
          1   -1    0    0  502    0  0.00000000000E+00 -0.00000000000E+00 -0.80733981313E+03  0.80733981313E+03  0.00000000000E+00 0. -1.
          6    1    1    2  502    0  0.81227537244E+02 -0.12378409372E+03 -0.33311283235E+03  0.40307390605E+03  0.17200000000E+03 0. -1.
         -6    1    1    2    0  501 -0.81227537244E+02  0.12378409372E+03 -0.40993236787E+03  0.46856051999E+03  0.17200000000E+03 0. -1.
</event>
<event>
 4    1  0.3141404E-002  0.3047865E+03  0.7818608E-02  0.1082872E+00
          2   -1    0    0  502    0  0.00000000000E+00  0.00000000000E+00  0.88601562623E+03  0.88601562623E+03  0.00000000000E+00 0. -1.
         -2   -1    0    0    0  501 -0.00000000000E+00 -0.00000000000E+00 -0.10829260025E+03  0.10829260025E+03  0.00000000000E+00 0.  1.
          6    1    1    2  502    0  0.24559659524E+03 -0.54709400507E+02  0.30016333275E+03  0.42777661509E+03  0.17200000000E+03 0. -1.
         -6    1    1    2    0  501 -0.24559659524E+03  0.54709400507E+02  0.47755969323E+03  0.56653161138E+03  0.17200000000E+03 0.  1.
</event>
<event>
 4    1  0.3141404E-002  0.1994038E+03  0.7818608E-02  0.1150243E+00
         -2   -1    0    0    0  501 -0.00000000000E+00  0.00000000000E+00  0.88090733329E+02  0.88090733329E+02  0.00000000000E+00 0.  1.
          2   -1    0    0  502    0  0.00000000000E+00 -0.00000000000E+00 -0.52434268911E+03  0.52434268911E+03  0.00000000000E+00 0. -1.
          6    1    1    2  502    0  0.18013918359E+02 -0.99264144026E+02 -0.33235840032E+03  0.38758738087E+03  0.17200000000E+03 0. -1.
         -6    1    1    2    0  501 -0.18013918359E+02  0.99264144026E+02 -0.10389355546E+03  0.22484604157E+03  0.17200000000E+03 0.  1.
</event>
<event>
 4    1  0.3141404E-002  0.4858284E+03  0.7818608E-02  0.1017546E+00
         -2   -1    0    0    0  501 -0.00000000000E+00  0.00000000000E+00  0.54813682971E+03  0.54813682971E+03  0.00000000000E+00 0.  1.
          2   -1    0    0  502    0  0.00000000000E+00 -0.00000000000E+00 -0.48605555087E+03  0.48605555087E+03  0.00000000000E+00 0. -1.
          6    1    1    2  502    0 -0.26511473962E+03  0.36899782986E+03 -0.14361802980E+03  0.50661164820E+03  0.17200000000E+03 0. -1.
         -6    1    1    2    0  501  0.26511473962E+03 -0.36899782986E+03  0.20569930863E+03  0.52758073238E+03  0.17200000000E+03 0.  1.
</event>
<event>
 4    1  0.3141404E-002  0.2262166E+03  0.7818608E-02  0.1129331E+00
          1   -1    0    0  502    0  0.00000000000E+00  0.00000000000E+00  0.75116796542E+02  0.75116796542E+02  0.00000000000E+00 0. -1.
         -1   -1    0    0    0  501 -0.00000000000E+00 -0.00000000000E+00 -0.12832795118E+04  0.12832795118E+04  0.00000000000E+00 0.  1.
          6    1    1    2  502    0  0.96717235181E+02 -0.11061514950E+03 -0.13887912173E+03  0.26544556002E+03  0.17200000000E+03 0. -1.
         -6    1    1    2    0  501 -0.96717235181E+02  0.11061514950E+03 -0.10692835935E+04  0.10929507483E+04  0.17200000000E+03 0.  1.
</event>
<event>
 4    1  0.3141404E-002  0.6174981E+03  0.7818608E-02  0.9869754E-01
         -1   -1    0    0    0  501 -0.00000000000E+00  0.00000000000E+00  0.17860223351E+03  0.17860223351E+03  0.00000000000E+00 0.  1.
          1   -1    0    0  502    0  0.00000000000E+00 -0.00000000000E+00 -0.24869912144E+04  0.24869912144E+04  0.00000000000E+00 0. -1.
          6    1    1    2  502    0 -0.91353460345E+01  0.59298941146E+03 -0.65273748161E+03  0.89853776579E+03  0.17200000000E+03 0. -1.
         -6    1    1    2    0  501  0.91353460345E+01 -0.59298941146E+03 -0.16556514993E+04  0.17670556821E+04  0.17200000000E+03 0.  1.
</event>
<event>
 4    1  0.3141404E-002  0.1842573E+03  0.7818608E-02  0.1163745E+00
          1   -1    0    0  502    0  0.00000000000E+00  0.00000000000E+00  0.11152013233E+03  0.11152013233E+03  0.00000000000E+00 0. -1.
         -1   -1    0    0    0  501 -0.00000000000E+00 -0.00000000000E+00 -0.41266094864E+03  0.41266094864E+03  0.00000000000E+00 0.  1.
          6    1    1    2  502    0 -0.43119810841E+02 -0.50074266790E+02 -0.16350102462E+02  0.18498128590E+03  0.17200000000E+03 0. -1.
         -6    1    1    2    0  501  0.43119810841E+02  0.50074266790E+02 -0.28479071385E+03  0.33919979508E+03  0.17200000000E+03 0.  1.
</event>
<event>
 4    1  0.3141404E-002  0.1833098E+03  0.7818608E-02  0.1164638E+00
          2   -1    0    0  502    0  0.00000000000E+00  0.00000000000E+00  0.30641289279E+03  0.30641289279E+03  0.00000000000E+00 0. -1.
         -2   -1    0    0    0  501 -0.00000000000E+00 -0.00000000000E+00 -0.18416991734E+03  0.18416991734E+03  0.00000000000E+00 0.  1.
          6    1    1    2  502    0  0.30447658567E+02 -0.55600637989E+02  0.21713711695E+03  0.28416723670E+03  0.17200000000E+03 0. -1.
         -6    1    1    2    0  501 -0.30447658567E+02  0.55600637989E+02 -0.94894141506E+02  0.20641557342E+03  0.17200000000E+03 0.  1.
</event>
<event>
 4    1  0.3141404E-002  0.2051883E+03  0.7818608E-02  0.1145434E+00
         -2   -1    0    0    0  501 -0.00000000000E+00  0.00000000000E+00  0.10713935450E+03  0.10713935450E+03  0.00000000000E+00 0.  1.
          2   -1    0    0  502    0  0.00000000000E+00 -0.00000000000E+00 -0.40310774819E+03  0.40310774819E+03  0.00000000000E+00 0. -1.
          6    1    1    2  502    0 -0.11188474856E+03  0.17255844585E+00 -0.18844884551E+03  0.27859503605E+03  0.17200000000E+03 0. -1.
         -6    1    1    2    0  501  0.11188474856E+03 -0.17255844585E+00 -0.10751954818E+03  0.23165206664E+03  0.17200000000E+03 0.  1.
</event>
<event>
 4    1  0.3141404E-002  0.3419913E+03  0.7818608E-02  0.1065951E+00
         -1   -1    0    0    0  501 -0.00000000000E+00  0.00000000000E+00  0.48990391436E+02  0.48990391436E+02  0.00000000000E+00 0.  1.
          1   -1    0    0  502    0  0.00000000000E+00 -0.00000000000E+00 -0.25699818554E+04  0.25699818554E+04  0.00000000000E+00 0. -1.
          6    1    1    2  502    0  0.24757839954E+03 -0.16148986608E+03 -0.91143258616E+03  0.97348210044E+03  0.17200000000E+03 0. -1.
         -6    1    1    2    0  501 -0.24757839954E+03  0.16148986608E+03 -0.16095588778E+04  0.16454901464E+04  0.17200000000E+03 0.  1.
</event>
<event>
 4    1  0.3141404E-002  0.2395752E+03  0.7818608E-02  0.1120076E+00
         -2   -1    0    0    0  501 -0.00000000000E+00  0.00000000000E+00  0.48521131884E+02  0.48521131884E+02  0.00000000000E+00 0.  1.
          2   -1    0    0  502    0  0.00000000000E+00 -0.00000000000E+00 -0.11988202981E+04  0.11988202981E+04  0.00000000000E+00 0. -1.
          6    1    1    2  502    0 -0.13196208426E+03  0.10197190439E+03 -0.50330711894E+03  0.55741754273E+03  0.17200000000E+03 0. -1.
         -6    1    1    2    0  501  0.13196208426E+03 -0.10197190439E+03 -0.64699204731E+03  0.68992388728E+03  0.17200000000E+03 0. -1.
</event>
<event>
 4    1  0.3141404E-002  0.2176963E+03  0.7818608E-02  0.1135612E+00
          2   -1    0    0  502    0  0.00000000000E+00  0.00000000000E+00  0.76742021480E+03  0.76742021480E+03  0.00000000000E+00 0. -1.
         -2   -1    0    0    0  501 -0.00000000000E+00 -0.00000000000E+00 -0.83515796318E+02  0.83515796318E+02  0.00000000000E+00 0.  1.
          6    1    1    2  502    0 -0.10991404346E+03 -0.75674304324E+02  0.55913448632E+03  0.60001922559E+03  0.17200000000E+03 0. -1.
         -6    1    1    2    0  501  0.10991404346E+03  0.75674304324E+02  0.12476993215E+03  0.25091678552E+03  0.17200000000E+03 0.  1.
</event>
<event>
 4    1  0.3141404E-002  0.4872966E+03  0.7818608E-02  0.1017149E+00
         -2   -1    0    0    0  501 -0.00000000000E+00  0.00000000000E+00  0.16852474477E+03  0.16852474477E+03  0.00000000000E+00 0.  1.
          2   -1    0    0  502    0  0.00000000000E+00 -0.00000000000E+00 -0.15689723954E+04  0.15689723954E+04  0.00000000000E+00 0. -1.
          6    1    1    2  502    0  0.44571620722E+02 -0.45374807909E+03 -0.97759156236E+03  0.10923109500E+04  0.17200000000E+03 0. -1.
         -6    1    1    2    0  501 -0.44571620722E+02  0.45374807909E+03 -0.42285608829E+03  0.64518619022E+03  0.17200000000E+03 0.  1.
</event>
<event>
 4    1  0.3141404E-002  0.2988503E+03  0.7818608E-02  0.1085817E+00
          2   -1    0    0  502    0  0.00000000000E+00  0.00000000000E+00  0.14395596280E+04  0.14395596280E+04  0.00000000000E+00 0. -1.
         -2   -1    0    0    0  501 -0.00000000000E+00 -0.00000000000E+00 -0.62778999762E+02  0.62778999762E+02  0.00000000000E+00 0.  1.
          6    1    1    2  502    0  0.23540926481E+03  0.65650400930E+02  0.60693787787E+03  0.67652426763E+03  0.17200000000E+03 0.  1.
         -6    1    1    2    0  501 -0.23540926481E+03 -0.65650400930E+02  0.76984275035E+03  0.82581436011E+03  0.17200000000E+03 0. -1.
</event>
<event>
 4    1  0.3141404E-002  0.3278759E+03  0.7818608E-02  0.1072081E+00
         -1   -1    0    0    0  501 -0.00000000000E+00  0.00000000000E+00  0.34183925100E+02  0.34183925100E+02  0.00000000000E+00 0.  1.
          1   -1    0    0  502    0  0.00000000000E+00 -0.00000000000E+00 -0.34617113789E+04  0.34617113789E+04  0.00000000000E+00 0. -1.
          6    1    1    2  502    0  0.15068313299E+03 -0.23497483953E+03 -0.22426135753E+04  0.22664549918E+04  0.17200000000E+03 0.  1.
         -6    1    1    2    0  501 -0.15068313299E+03  0.23497483953E+03 -0.11849138786E+04  0.12294403122E+04  0.17200000000E+03 0.  1.
</event>
<event>
 4    1  0.3141404E-002  0.4603344E+03  0.7818608E-02  0.1024684E+00
          2   -1    0    0  502    0  0.00000000000E+00  0.00000000000E+00  0.17309452419E+04  0.17309452419E+04  0.00000000000E+00 0. -1.
         -2   -1    0    0    0  501 -0.00000000000E+00 -0.00000000000E+00 -0.14334652182E+03  0.14334652182E+03  0.00000000000E+00 0.  1.
          6    1    1    2  502    0  0.82665616424E+02 -0.41891548960E+03  0.43576119534E+03  0.63387349758E+03  0.17200000000E+03 0. -1.
         -6    1    1    2    0  501 -0.82665616424E+02  0.41891548960E+03  0.11518375247E+04  0.12404182661E+04  0.17200000000E+03 0.  1.
</event>
<event>
 4    1  0.3141404E-002  0.4450242E+03  0.7818608E-02  0.1029216E+00
          2   -1    0    0  502    0  0.00000000000E+00  0.00000000000E+00  0.68195802129E+03  0.68195802129E+03  0.00000000000E+00 0. -1.
         -2   -1    0    0    0  501 -0.00000000000E+00 -0.00000000000E+00 -0.31102533469E+03  0.31102533469E+03  0.00000000000E+00 0.  1.
          6    1    1    2  502    0 -0.16982061707E+03  0.37366224895E+03  0.31329356540E+03  0.54424202006E+03  0.17200000000E+03 0. -1.
         -6    1    1    2    0  501  0.16982061707E+03 -0.37366224895E+03  0.57639121196E+02  0.44874133592E+03  0.17200000000E+03 0.  1.
</event>
<event>
 4    1  0.3141404E-002  0.2084459E+03  0.7818608E-02  0.1142803E+00
         -2   -1    0    0    0  501 -0.00000000000E+00  0.00000000000E+00  0.32998061440E+02  0.32998061440E+02  0.00000000000E+00 0.  1.
          2   -1    0    0  502    0  0.00000000000E+00 -0.00000000000E+00 -0.13886969247E+04  0.13886969247E+04  0.00000000000E+00 0. -1.
          6    1    1    2  502    0  0.23778749042E+02 -0.11532674711E+03 -0.83966691741E+03  0.86515329260E+03  0.17200000000E+03 0. -1.
         -6    1    1    2    0  501 -0.23778749042E+02  0.11532674711E+03 -0.51603194580E+03  0.55654169349E+03  0.17200000000E+03 0. -1.
</event>
<event>
 4    1  0.3141404E-002  0.4709681E+03  0.7818608E-02  0.1021647E+00
         -1   -1    0    0    0  501 -0.00000000000E+00  0.00000000000E+00  0.17586898722E+03  0.17586898722E+03  0.00000000000E+00 0.  1.
          1   -1    0    0  502    0  0.00000000000E+00 -0.00000000000E+00 -0.22316719587E+04  0.22316719587E+04  0.00000000000E+00 0. -1.
          6    1    1    2  502    0 -0.60908534474E+02 -0.43418553178E+03 -0.18217062380E+04  0.18816015899E+04  0.17200000000E+03 0. -1.
         -6    1    1    2    0  501  0.60908534474E+02  0.43418553178E+03 -0.23409673348E+03  0.52593935602E+03  0.17200000000E+03 0.  1.
</event>
<event>
 4    1  0.3141404E-002  0.3831188E+03  0.7818608E-02  0.1049787E+00
         -1   -1    0    0    0  501 -0.00000000000E+00  0.00000000000E+00  0.92365115541E+02  0.92365115541E+02  0.00000000000E+00 0.  1.
          1   -1    0    0  502    0  0.00000000000E+00 -0.00000000000E+00 -0.17931530230E+04  0.17931530230E+04  0.00000000000E+00 0. -1.
          6    1    1    2  502    0  0.33594750996E+03  0.65842886613E+02 -0.11683986149E+04  0.12296077986E+04  0.17200000000E+03 0. -1.
         -6    1    1    2    0  501 -0.33594750996E+03 -0.65842886613E+02 -0.53238929257E+03  0.65591033992E+03  0.17200000000E+03 0.  1.
</event>
<event>
 4    1  0.3141404E-002  0.1881258E+03  0.7818608E-02  0.1160163E+00
         -1   -1    0    0    0  501 -0.00000000000E+00  0.00000000000E+00  0.10170136817E+03  0.10170136817E+03  0.00000000000E+00 0.  1.
          1   -1    0    0  502    0  0.00000000000E+00 -0.00000000000E+00 -0.46768565003E+03  0.46768565003E+03  0.00000000000E+00 0. -1.
          6    1    1    2  502    0 -0.71940764098E+02 -0.25136589315E+02 -0.32701619897E+03  0.37726769813E+03  0.17200000000E+03 0. -1.
         -6    1    1    2    0  501  0.71940764098E+02  0.25136589315E+02 -0.38968082888E+02  0.19211932007E+03  0.17200000000E+03 0.  1.
</event>
<event>
 4    1  0.3141404E-002  0.3940240E+03  0.7818608E-02  0.1045869E+00
         -1   -1    0    0    0  501 -0.00000000000E+00  0.00000000000E+00  0.24940963274E+03  0.24940963274E+03  0.00000000000E+00 0.  1.
          1   -1    0    0  502    0  0.00000000000E+00 -0.00000000000E+00 -0.67208464907E+03  0.67208464907E+03  0.00000000000E+00 0. -1.
          6    1    1    2  502    0  0.27257853266E+03  0.22665361546E+03 -0.86176355622E+02  0.40333767755E+03  0.17200000000E+03 0. -1.
         -6    1    1    2    0  501 -0.27257853266E+03 -0.22665361546E+03 -0.33649866071E+03  0.51815660425E+03  0.17200000000E+03 0.  1.
</event>
<event>
 4    1  0.3141404E-002  0.2247548E+03  0.7818608E-02  0.1130387E+00
          4   -1    0    0  502    0  0.00000000000E+00  0.00000000000E+00  0.31464574847E+03  0.31464574847E+03  0.00000000000E+00 0. -1.
         -4   -1    0    0    0  501 -0.00000000000E+00 -0.00000000000E+00 -0.16837421066E+03  0.16837421066E+03  0.00000000000E+00 0.  1.
          6    1    1    2  502    0  0.14461691543E+03  0.40829712763E+01  0.21056697678E+02  0.22573902498E+03  0.17200000000E+03 0. -1.
         -6    1    1    2    0  501 -0.14461691543E+03 -0.40829712763E+01  0.12521484013E+03  0.25728093414E+03  0.17200000000E+03 0.  1.
</event>
<event>
 4    1  0.3141404E-002  0.2278214E+03  0.7818608E-02  0.1128183E+00
         -2   -1    0    0    0  501 -0.00000000000E+00  0.00000000000E+00  0.39227291618E+02  0.39227291618E+02  0.00000000000E+00 0.  1.
          2   -1    0    0  502    0  0.00000000000E+00 -0.00000000000E+00 -0.14970433699E+04  0.14970433699E+04  0.00000000000E+00 0. -1.
          6    1    1    2  502    0  0.31821848606E+02  0.14596560443E+03 -0.99072271930E+03  0.10165796055E+04  0.17200000000E+03 0. -1.
         -6    1    1    2    0  501 -0.31821848606E+02 -0.14596560443E+03 -0.46709335896E+03  0.51969105602E+03  0.17200000000E+03 0.  1.
</event>
<event>
 4    1  0.3141404E-002  0.2364131E+03  0.7818608E-02  0.1122206E+00
         -2   -1    0    0    0  501 -0.00000000000E+00  0.00000000000E+00  0.60430572537E+02  0.60430572537E+02  0.00000000000E+00 0.  1.
          2   -1    0    0  502    0  0.00000000000E+00 -0.00000000000E+00 -0.22580770873E+04  0.22580770873E+04  0.00000000000E+00 0. -1.
          6    1    1    2  502    0 -0.16191440779E+03  0.95317879677E+01 -0.19895737253E+04  0.20035704976E+04  0.17200000000E+03 0. -1.
         -6    1    1    2    0  501  0.16191440779E+03 -0.95317879677E+01 -0.20807278940E+03  0.31493716218E+03  0.17200000000E+03 0.  1.
</event>
<event>
 4    1  0.3141404E-002  0.2585525E+03  0.7818608E-02  0.1108016E+00
         -1   -1    0    0    0  501 -0.00000000000E+00  0.00000000000E+00  0.20124455061E+03  0.20124455061E+03  0.00000000000E+00 0.  1.
          1   -1    0    0  502    0  0.00000000000E+00 -0.00000000000E+00 -0.33297907311E+03  0.33297907311E+03  0.00000000000E+00 0. -1.
          6    1    1    2  502    0  0.13902076614E+03  0.13393520381E+03 -0.52782030839E+02  0.26388511708E+03  0.17200000000E+03 0.  1.
         -6    1    1    2    0  501 -0.13902076614E+03 -0.13393520381E+03 -0.78952491660E+02  0.27033850664E+03  0.17200000000E+03 0.  1.
</event>
<event>
 4    1  0.3141404E-002  0.1842468E+03  0.7818608E-02  0.1163755E+00
         -2   -1    0    0    0  501 -0.00000000000E+00  0.00000000000E+00  0.13411477949E+03  0.13411477949E+03  0.00000000000E+00 0.  1.
          2   -1    0    0  502    0  0.00000000000E+00 -0.00000000000E+00 -0.29521387328E+03  0.29521387328E+03  0.00000000000E+00 0. -1.
          6    1    1    2  502    0  0.65354117397E+02 -0.95764953612E+01 -0.16161037935E+03  0.24508117969E+03  0.17200000000E+03 0. -1.
         -6    1    1    2    0  501 -0.65354117397E+02  0.95764953612E+01  0.51128555705E+00  0.18424747308E+03  0.17200000000E+03 0.  1.
</event>
<event>
 4    1  0.3141404E-002  0.2333778E+03  0.7818608E-02  0.1124285E+00
         -1   -1    0    0    0  501 -0.00000000000E+00  0.00000000000E+00  0.69938468406E+02  0.69938468406E+02  0.00000000000E+00 0.  1.
          1   -1    0    0  502    0  0.00000000000E+00 -0.00000000000E+00 -0.13461614864E+04  0.13461614864E+04  0.00000000000E+00 0. -1.
          6    1    1    2  502    0  0.15748728066E+03 -0.88859425029E+01 -0.10977972098E+04  0.11223296830E+04  0.17200000000E+03 0. -1.
         -6    1    1    2    0  501 -0.15748728066E+03  0.88859425029E+01 -0.17842580815E+03  0.29377027174E+03  0.17200000000E+03 0.  1.
</event>
<event>
 4    1  0.3141404E-002  0.2355564E+03  0.7818608E-02  0.1122789E+00
         -2   -1    0    0    0  501 -0.00000000000E+00  0.00000000000E+00  0.26852302632E+03  0.26852302632E+03  0.00000000000E+00 0.  1.
          2   -1    0    0  502    0  0.00000000000E+00 -0.00000000000E+00 -0.36950741019E+03  0.36950741019E+03  0.00000000000E+00 0. -1.
          6    1    1    2  502    0 -0.45014759918E+01 -0.16088060146E+03 -0.26228964256E+03  0.35253749844E+03  0.17200000000E+03 0. -1.
         -6    1    1    2    0  501  0.45014759918E+01  0.16088060146E+03  0.16130525868E+03  0.28549293808E+03  0.17200000000E+03 0.  1.
</event>
<event>
 4    1  0.3141404E-002  0.2545647E+03  0.7818608E-02  0.1110454E+00
         -3   -1    0    0    0  501 -0.00000000000E+00  0.00000000000E+00  0.44680249301E+03  0.44680249301E+03  0.00000000000E+00 0.  1.
          3   -1    0    0  502    0  0.00000000000E+00 -0.00000000000E+00 -0.41822276698E+03  0.41822276698E+03  0.00000000000E+00 0. -1.
          6    1    1    2  502    0 -0.25597041336E+02  0.18591383349E+03 -0.33527157290E+03  0.42096340649E+03  0.17200000000E+03 0. -1.
         -6    1    1    2    0  501  0.25597041336E+02 -0.18591383349E+03  0.36385129893E+03  0.44406185351E+03  0.17200000000E+03 0.  1.
</event>
<event>
 4    1  0.3141404E-002  0.1010552E+04  0.7818608E-02  0.9297046E-01
          1   -1    0    0  502    0  0.00000000000E+00  0.00000000000E+00  0.17517090079E+04  0.17517090079E+04  0.00000000000E+00 0. -1.
         -1   -1    0    0    0  501 -0.00000000000E+00 -0.00000000000E+00 -0.59189639767E+03  0.59189639767E+03  0.00000000000E+00 0.  1.
          6    1    1    2  502    0 -0.97335556679E+03  0.21026397587E+03  0.43610551705E+03  0.11006380063E+04  0.17200000000E+03 0. -1.
         -6    1    1    2    0  501  0.97335556679E+03 -0.21026397587E+03  0.72370709323E+03  0.12429673993E+04  0.17200000000E+03 0.  1.
</event>
<event>
 4    1  0.3141404E-002  0.3865364E+03  0.7818608E-02  0.1048544E+00
         -2   -1    0    0    0  501 -0.00000000000E+00  0.00000000000E+00  0.28783822142E+03  0.28783822142E+03  0.00000000000E+00 0.  1.
          2   -1    0    0  502    0  0.00000000000E+00 -0.00000000000E+00 -0.61738541039E+03  0.61738541039E+03  0.00000000000E+00 0. -1.
          6    1    1    2  502    0  0.89575394723E+02  0.33436898070E+03  0.15836395398E+02  0.38686064418E+03  0.17200000000E+03 0.  1.
         -6    1    1    2    0  501 -0.89575394723E+02 -0.33436898070E+03 -0.34538358437E+03  0.51836298763E+03  0.17200000000E+03 0. -1.
</event>
<event>
 4    1  0.3141404E-002  0.1813725E+03  0.7818608E-02  0.1166481E+00
         -1   -1    0    0    0  501 -0.00000000000E+00  0.00000000000E+00  0.54535860392E+03  0.54535860392E+03  0.00000000000E+00 0.  1.
          1   -1    0    0  502    0  0.00000000000E+00 -0.00000000000E+00 -0.68819661332E+02  0.68819661332E+02  0.00000000000E+00 0. -1.
          6    1    1    2  502    0  0.51846542201E+02 -0.24978414111E+02  0.13034718373E+03  0.22335257647E+03  0.17200000000E+03 0. -1.
         -6    1    1    2    0  501 -0.51846542201E+02  0.24978414111E+02  0.34619175886E+03  0.39082568879E+03  0.17200000000E+03 0.  1.
</event>
<event>
 4    1  0.3141404E-002  0.2219398E+03  0.7818608E-02  0.1132445E+00
          2   -1    0    0  502    0  0.00000000000E+00  0.00000000000E+00  0.14736832223E+04  0.14736832223E+04  0.00000000000E+00 0. -1.
         -2   -1    0    0    0  501 -0.00000000000E+00 -0.00000000000E+00 -0.54828708842E+02  0.54828708842E+02  0.00000000000E+00 0.  1.
          6    1    1    2  502    0  0.88784518076E+02  0.10858440653E+03  0.11869383443E+04  0.12075097917E+04  0.17200000000E+03 0. -1.
         -6    1    1    2    0  501 -0.88784518076E+02 -0.10858440653E+03  0.23191616922E+03  0.32100213946E+03  0.17200000000E+03 0.  1.
</event>
<event>
 4    1  0.3141404E-002  0.5864158E+03  0.7818608E-02  0.9933997E-01
         -2   -1    0    0    0  501 -0.00000000000E+00  0.00000000000E+00  0.57839208703E+03  0.57839208703E+03  0.00000000000E+00 0.  1.
          2   -1    0    0  502    0  0.00000000000E+00 -0.00000000000E+00 -0.18535904225E+04  0.18535904225E+04  0.00000000000E+00 0. -1.
          6    1    1    2  502    0 -0.13004499815E+03 -0.54533275200E+03 -0.16397734460E+04  0.17414765189E+04  0.17200000000E+03 0. -1.
         -6    1    1    2    0  501  0.13004499815E+03  0.54533275200E+03  0.36457511044E+03  0.69050599064E+03  0.17200000000E+03 0.  1.
</event>
<event>
 4    1  0.3141404E-002  0.2897837E+03  0.7818608E-02  0.1090462E+00
         -2   -1    0    0    0  501 -0.00000000000E+00  0.00000000000E+00  0.12236430469E+03  0.12236430469E+03  0.00000000000E+00 0.  1.
          2   -1    0    0  502    0  0.00000000000E+00 -0.00000000000E+00 -0.96260015865E+03  0.96260015865E+03  0.00000000000E+00 0. -1.
          6    1    1    2  502    0 -0.23302478573E+03 -0.94893161603E+01 -0.71077370901E+03  0.76757661722E+03  0.17200000000E+03 0. -1.
         -6    1    1    2    0  501  0.23302478573E+03  0.94893161603E+01 -0.12946214495E+03  0.31738784611E+03  0.17200000000E+03 0.  1.
</event>
<event>
 4    1  0.3141404E-002  0.4839180E+03  0.7818608E-02  0.1018064E+00
         -1   -1    0    0    0  501 -0.00000000000E+00  0.00000000000E+00  0.21885349955E+03  0.21885349955E+03  0.00000000000E+00 0.  1.
          1   -1    0    0  502    0  0.00000000000E+00 -0.00000000000E+00 -0.10700567599E+04  0.10700567599E+04  0.00000000000E+00 0. -1.
          6    1    1    2  502    0 -0.26647156346E+02  0.45153356984E+03 -0.42960365768E+03  0.64709809019E+03  0.17200000000E+03 0. -1.
         -6    1    1    2    0  501  0.26647156346E+02 -0.45153356984E+03 -0.42159960264E+03  0.64181216924E+03  0.17200000000E+03 0.  1.
</event>
<event>
 4    1  0.3141404E-002  0.2345372E+03  0.7818608E-02  0.1123486E+00
          2   -1    0    0  502    0  0.00000000000E+00  0.00000000000E+00  0.93758634832E+03  0.93758634832E+03  0.00000000000E+00 0. -1.
         -2   -1    0    0    0  501 -0.00000000000E+00 -0.00000000000E+00 -0.66936315666E+02  0.66936315666E+02  0.00000000000E+00 0.  1.
          6    1    1    2  502    0  0.20695408329E+02 -0.15809933756E+03  0.61183471750E+03  0.65524760358E+03  0.17200000000E+03 0. -1.
         -6    1    1    2    0  501 -0.20695408329E+02  0.15809933756E+03  0.25881531516E+03  0.34927506041E+03  0.17200000000E+03 0.  1.
</event>
<event>
 4    1  0.3141404E-002  0.4155403E+03  0.7818608E-02  0.1038528E+00
          1   -1    0    0  502    0  0.00000000000E+00  0.00000000000E+00  0.28480973337E+04  0.28480973337E+04  0.00000000000E+00 0. -1.
         -1   -1    0    0    0  501 -0.00000000000E+00 -0.00000000000E+00 -0.77523051418E+02  0.77523051418E+02  0.00000000000E+00 0.  1.
          6    1    1    2  502    0  0.30314788045E+03 -0.22625459139E+03  0.20681843221E+04  0.21095165721E+04  0.17200000000E+03 0. -1.
         -6    1    1    2    0  501 -0.30314788045E+03  0.22625459139E+03  0.70238996015E+03  0.81610381305E+03  0.17200000000E+03 0.  1.
</event>
<event>
 4    1  0.3141404E-002  0.2047038E+03  0.7818608E-02  0.1145830E+00
          2   -1    0    0  502    0  0.00000000000E+00  0.00000000000E+00  0.45816414663E+03  0.45816414663E+03  0.00000000000E+00 0. -1.
         -2   -1    0    0    0  501 -0.00000000000E+00 -0.00000000000E+00 -0.10514973249E+03  0.10514973249E+03  0.00000000000E+00 0.  1.
          6    1    1    2  502    0 -0.37322400224E+02 -0.10453083429E+03  0.27813560893E+03  0.34534486217E+03  0.17200000000E+03 0. -1.
         -6    1    1    2    0  501  0.37322400224E+02  0.10453083429E+03  0.74878805215E+02  0.21796901694E+03  0.17200000000E+03 0. -1.
</event>
<event>
 4    1  0.3141404E-002  0.4728932E+03  0.7818608E-02  0.1021107E+00
          1   -1    0    0  502    0  0.00000000000E+00  0.00000000000E+00  0.41560992091E+03  0.41560992091E+03  0.00000000000E+00 0. -1.
         -1   -1    0    0    0  501 -0.00000000000E+00 -0.00000000000E+00 -0.54494230678E+03  0.54494230678E+03  0.00000000000E+00 0.  1.
          6    1    1    2  502    0 -0.10872748709E+03 -0.42687509641E+03 -0.10739056126E+02  0.47301516013E+03  0.17200000000E+03 0. -1.
         -6    1    1    2    0  501  0.10872748709E+03  0.42687509641E+03 -0.11859332975E+03  0.48753706756E+03  0.17200000000E+03 0.  1.
</event>
<event>
 4    1  0.3141404E-002  0.1778831E+03  0.7818608E-02  0.1169868E+00
         -2   -1    0    0    0  501 -0.00000000000E+00  0.00000000000E+00  0.41129043990E+02  0.41129043990E+02  0.00000000000E+00 0.  1.
          2   -1    0    0  502    0  0.00000000000E+00 -0.00000000000E+00 -0.14472983887E+04  0.14472983887E+04  0.00000000000E+00 0. -1.
          6    1    1    2  502    0  0.78108098107E+01 -0.44692209195E+02 -0.19373184604E+03  0.26301032391E+03  0.17200000000E+03 0.  1.
         -6    1    1    2    0  501 -0.78108098107E+01  0.44692209195E+02 -0.12124374987E+04  0.12254171088E+04  0.17200000000E+03 0. -1.
</event>
<event>
 4    1  0.3141404E-002  0.5529806E+03  0.7818608E-02  0.1000806E+00
         -1   -1    0    0    0  501 -0.00000000000E+00  0.00000000000E+00  0.46148131247E+03  0.46148131247E+03  0.00000000000E+00 0.  1.
          1   -1    0    0  502    0  0.00000000000E+00 -0.00000000000E+00 -0.93034281635E+03  0.93034281635E+03  0.00000000000E+00 0. -1.
          6    1    1    2  502    0  0.24619358844E+03  0.46431915815E+03 -0.60774461598E+03  0.82166969146E+03  0.17200000000E+03 0. -1.
         -6    1    1    2    0  501 -0.24619358844E+03 -0.46431915815E+03  0.13888311210E+03  0.57015443736E+03  0.17200000000E+03 0.  1.
</event>
<event>
 4    1  0.3141404E-002  0.2001202E+03  0.7818608E-02  0.1149638E+00
         -2   -1    0    0    0  501 -0.00000000000E+00  0.00000000000E+00  0.81410254313E+02  0.81410254313E+02  0.00000000000E+00 0.  1.
          2   -1    0    0  502    0  0.00000000000E+00 -0.00000000000E+00 -0.49229607946E+03  0.49229607946E+03  0.00000000000E+00 0. -1.
          6    1    1    2  502    0  0.80408505550E+02  0.63234130525E+02 -0.21327351941E+03  0.29246141131E+03  0.17200000000E+03 0. -1.
         -6    1    1    2    0  501 -0.80408505550E+02 -0.63234130525E+02 -0.19761230574E+03  0.28124492246E+03  0.17200000000E+03 0.  1.
</event>
<event>
 4    1  0.3141404E-002  0.3760281E+03  0.7818608E-02  0.1052412E+00
         -2   -1    0    0    0  501 -0.00000000000E+00  0.00000000000E+00  0.28701588165E+03  0.28701588165E+03  0.00000000000E+00 0.  1.
          2   -1    0    0  502    0  0.00000000000E+00 -0.00000000000E+00 -0.70945328163E+03  0.70945328163E+03  0.00000000000E+00 0. -1.
          6    1    1    2  502    0 -0.32782335755E+03  0.65916662711E+02 -0.48664735976E+03  0.61499822190E+03  0.17200000000E+03 0. -1.
         -6    1    1    2    0  501  0.32782335755E+03 -0.65916662711E+02  0.64209959788E+02  0.38147094138E+03  0.17200000000E+03 0.  1.
</event>
<event>
 4    1  0.3141404E-002  0.2050960E+03  0.7818608E-02  0.1145509E+00
          1   -1    0    0  502    0  0.00000000000E+00  0.00000000000E+00  0.56211169394E+03  0.56211169394E+03  0.00000000000E+00 0. -1.
         -1   -1    0    0    0  501 -0.00000000000E+00 -0.00000000000E+00 -0.16379285746E+03  0.16379285746E+03  0.00000000000E+00 0.  1.
          6    1    1    2  502    0  0.83359862756E+02 -0.74373984830E+02  0.46664459895E+03  0.50972692500E+03  0.17200000000E+03 0. -1.
         -6    1    1    2    0  501 -0.83359862756E+02  0.74373984830E+02 -0.68325762471E+02  0.21617762640E+03  0.17200000000E+03 0.  1.
</event>
<event>
 4    1  0.3141404E-002  0.1862076E+03  0.7818608E-02  0.1161927E+00
          1   -1    0    0  502    0  0.00000000000E+00  0.00000000000E+00  0.34624113341E+03  0.34624113341E+03  0.00000000000E+00 0. -1.
         -1   -1    0    0    0  501 -0.00000000000E+00 -0.00000000000E+00 -0.11021617732E+03  0.11021617732E+03  0.00000000000E+00 0.  1.
          6    1    1    2  502    0  0.42186894152E+02  0.57528692814E+02  0.18701293814E+03  0.26390741476E+03  0.17200000000E+03 0. -1.
         -6    1    1    2    0  501 -0.42186894152E+02 -0.57528692814E+02  0.49012017947E+02  0.19254989597E+03  0.17200000000E+03 0.  1.
</event>
<event>
 4    1  0.3141404E-002  0.1843714E+03  0.7818608E-02  0.1163638E+00
          1   -1    0    0  502    0  0.00000000000E+00  0.00000000000E+00  0.24631503820E+04  0.24631503820E+04  0.00000000000E+00 0. -1.
         -1   -1    0    0    0  501 -0.00000000000E+00 -0.00000000000E+00 -0.20256501673E+02  0.20256501673E+02  0.00000000000E+00 0.  1.
          6    1    1    2  502    0 -0.53116992309E+02  0.39842118755E+02  0.19224438136E+04  0.19312646182E+04  0.17200000000E+03 0. -1.
         -6    1    1    2    0  501  0.53116992309E+02 -0.39842118755E+02  0.52045006674E+03  0.55214226542E+03  0.17200000000E+03 0.  1.
</event>
<event>
 4    1  0.3141404E-002  0.1939914E+03  0.7818608E-02  0.1154910E+00
         -2   -1    0    0    0  501 -0.00000000000E+00  0.00000000000E+00  0.83540797358E+02  0.83540797358E+02  0.00000000000E+00 0.  1.
          2   -1    0    0  502    0  0.00000000000E+00 -0.00000000000E+00 -0.71988151436E+03  0.71988151436E+03  0.00000000000E+00 0. -1.
          6    1    1    2  502    0 -0.54741099785E+01  0.89547128537E+02 -0.56391901832E+03  0.59635334604E+03  0.17200000000E+03 0. -1.
         -6    1    1    2    0  501  0.54741099785E+01 -0.89547128537E+02 -0.72421698691E+02  0.20706896569E+03  0.17200000000E+03 0.  1.
</event>
<event>
 4    1  0.3141404E-002  0.2108025E+03  0.7818608E-02  0.1140932E+00
         -1   -1    0    0    0  501 -0.00000000000E+00  0.00000000000E+00  0.17951363048E+03  0.17951363048E+03  0.00000000000E+00 0.  1.
          1   -1    0    0  502    0  0.00000000000E+00 -0.00000000000E+00 -0.34821613370E+03  0.34821613370E+03  0.00000000000E+00 0. -1.
          6    1    1    2  502    0  0.10821003697E+03 -0.56073891047E+02  0.57525007394E+02  0.21851045703E+03  0.17200000000E+03 0.  1.
         -6    1    1    2    0  501 -0.10821003697E+03  0.56073891047E+02 -0.22622751061E+03  0.30921930715E+03  0.17200000000E+03 0. -1.
</event>
<event>
 4    1  0.3141404E-002  0.2814840E+03  0.7818608E-02  0.1094881E+00
         -1   -1    0    0    0  501 -0.00000000000E+00  0.00000000000E+00  0.13467305047E+03  0.13467305047E+03  0.00000000000E+00 0.  1.
          1   -1    0    0  502    0  0.00000000000E+00 -0.00000000000E+00 -0.59098404873E+03  0.59098404873E+03  0.00000000000E+00 0. -1.
          6    1    1    2  502    0 -0.22278898808E+03 -0.37852834767E+01 -0.25243387061E+03  0.37809538559E+03  0.17200000000E+03 0. -1.
         -6    1    1    2    0  501  0.22278898808E+03  0.37852834767E+01 -0.20387712766E+03  0.34756171360E+03  0.17200000000E+03 0.  1.
</event>
<event>
 4    1  0.3141404E-002  0.2799297E+03  0.7818608E-02  0.1095727E+00
         -1   -1    0    0    0  501 -0.00000000000E+00  0.00000000000E+00  0.12157905267E+03  0.12157905267E+03  0.00000000000E+00 0.  1.
          1   -1    0    0  502    0  0.00000000000E+00 -0.00000000000E+00 -0.64747112705E+03  0.64747112705E+03  0.00000000000E+00 0. -1.
          6    1    1    2  502    0 -0.19265246949E+03  0.10798908310E+03 -0.28888870763E+03  0.40226521284E+03  0.17200000000E+03 0. -1.
         -6    1    1    2    0  501  0.19265246949E+03 -0.10798908310E+03 -0.23700336676E+03  0.36678496687E+03  0.17200000000E+03 0.  1.
</event>
<event>
 4    1  0.3141404E-002  0.1869652E+03  0.7818608E-02  0.1161227E+00
         -2   -1    0    0    0  501 -0.00000000000E+00  0.00000000000E+00  0.93933687469E+01  0.93933687469E+01  0.00000000000E+00 0.  1.
          2   -1    0    0  502    0  0.00000000000E+00 -0.00000000000E+00 -0.47884596441E+04  0.47884596441E+04  0.00000000000E+00 0. -1.
          6    1    1    2  502    0 -0.16644865291E+02 -0.71378912610E+02 -0.35219955897E+04  0.35269546261E+04  0.17200000000E+03 0. -1.
         -6    1    1    2    0  501  0.16644865291E+02  0.71378912610E+02 -0.12570706856E+04  0.12708983867E+04  0.17200000000E+03 0.  1.
</event>
<event>
 4    1  0.3141404E-002  0.2194726E+03  0.7818608E-02  0.1134277E+00
          1   -1    0    0  502    0  0.00000000000E+00  0.00000000000E+00  0.11530959424E+04  0.11530959424E+04  0.00000000000E+00 0. -1.
         -1   -1    0    0    0  501 -0.00000000000E+00 -0.00000000000E+00 -0.17374846969E+03  0.17374846969E+03  0.00000000000E+00 0.  1.
          6    1    1    2  502    0 -0.12905015487E+03  0.43934711823E+02  0.10678712580E+04  0.10901913708E+04  0.17200000000E+03 0. -1.
         -6    1    1    2    0  501  0.12905015487E+03 -0.43934711823E+02 -0.88523785285E+02  0.23665304126E+03  0.17200000000E+03 0.  1.
</event>
<event>
 4    1  0.3141404E-002  0.1965682E+03  0.7818608E-02  0.1152667E+00
         -2   -1    0    0    0  501 -0.00000000000E+00  0.00000000000E+00  0.11183108680E+02  0.11183108680E+02  0.00000000000E+00 0.  1.
          2   -1    0    0  502    0  0.00000000000E+00 -0.00000000000E+00 -0.41707785682E+04  0.41707785682E+04  0.00000000000E+00 0. -1.
          6    1    1    2  502    0  0.74406359097E+02  0.59319219681E+02 -0.29459452841E+04  0.29524960106E+04  0.17200000000E+03 0. -1.
         -6    1    1    2    0  501 -0.74406359097E+02 -0.59319219681E+02 -0.12136501754E+04  0.12294656662E+04  0.17200000000E+03 0.  1.
</event>
<event>
 4    1  0.3141404E-002  0.3368515E+03  0.7818608E-02  0.1068145E+00
         -1   -1    0    0    0  501 -0.00000000000E+00  0.00000000000E+00  0.12711127739E+04  0.12711127739E+04  0.00000000000E+00 0.  1.
          1   -1    0    0  502    0  0.00000000000E+00 -0.00000000000E+00 -0.14843794614E+03  0.14843794614E+03  0.00000000000E+00 0. -1.
          6    1    1    2  502    0 -0.85942861479E+02  0.27658408765E+03  0.10094645443E+04  0.10641840062E+04  0.17200000000E+03 0.  1.
         -6    1    1    2    0  501  0.85942861479E+02 -0.27658408765E+03  0.11321028347E+03  0.35536671378E+03  0.17200000000E+03 0.  1.
</event>
<event>
 4    1  0.3141404E-002  0.3776067E+03  0.7818608E-02  0.1051822E+00
         -1   -1    0    0    0  501 -0.00000000000E+00  0.00000000000E+00  0.10677965267E+03  0.10677965267E+03  0.00000000000E+00 0.  1.
          1   -1    0    0  502    0  0.00000000000E+00 -0.00000000000E+00 -0.20462083417E+04  0.20462083417E+04  0.00000000000E+00 0. -1.
          6    1    1    2  502    0 -0.28633592989E+03 -0.17610957789E+03 -0.16042150548E+04  0.16480572776E+04  0.17200000000E+03 0. -1.
         -6    1    1    2    0  501  0.28633592989E+03  0.17610957789E+03 -0.33521363423E+03  0.50493071678E+03  0.17200000000E+03 0.  1.
</event>
<event>
 4    1  0.3141404E-002  0.2408159E+03  0.7818608E-02  0.1119251E+00
          2   -1    0    0  502    0  0.00000000000E+00  0.00000000000E+00  0.17637485264E+03  0.17637485264E+03  0.00000000000E+00 0. -1.
         -2   -1    0    0    0  501 -0.00000000000E+00 -0.00000000000E+00 -0.33550427766E+03  0.33550427766E+03  0.00000000000E+00 0.  1.
          6    1    1    2  502    0 -0.92667098872E+02  0.14078738253E+03 -0.43388528850E+02  0.24469336470E+03  0.17200000000E+03 0. -1.
         -6    1    1    2    0  501  0.92667098872E+02 -0.14078738253E+03 -0.11574089617E+03  0.26718576560E+03  0.17200000000E+03 0.  1.
</event>
<event>
 4    1  0.3141404E-002  0.1301995E+04  0.7818608E-02  0.9027985E-01
         -2   -1    0    0    0  501 -0.00000000000E+00  0.00000000000E+00  0.21709519268E+04  0.21709519268E+04  0.00000000000E+00 0.  1.
          2   -1    0    0  502    0  0.00000000000E+00 -0.00000000000E+00 -0.21448304649E+04  0.21448304649E+04  0.00000000000E+00 0. -1.
          6    1    1    2  502    0 -0.12852769790E+04  0.11691549048E+03 -0.17077652817E+04  0.21474758210E+04  0.17200000000E+03 0. -1.
         -6    1    1    2    0  501  0.12852769790E+04 -0.11691549048E+03  0.17338867436E+04  0.21683065706E+04  0.17200000000E+03 0.  1.
</event>
<event>
 4    1  0.3141404E-002  0.1805397E+03  0.7818608E-02  0.1167282E+00
          2   -1    0    0  502    0  0.00000000000E+00  0.00000000000E+00  0.18619898449E+04  0.18619898449E+04  0.00000000000E+00 0. -1.
         -2   -1    0    0    0  501 -0.00000000000E+00 -0.00000000000E+00 -0.25407466315E+02  0.25407466315E+02  0.00000000000E+00 0.  1.
          6    1    1    2  502    0  0.49864401037E+02  0.22893558542E+02  0.14445840412E+04  0.14558219759E+04  0.17200000000E+03 0. -1.
         -6    1    1    2    0  501 -0.49864401037E+02 -0.22893558542E+02  0.39199833740E+03  0.43157533530E+03  0.17200000000E+03 0.  1.
</event>
<event>
 4    1  0.3141404E-002  0.1776597E+03  0.7818608E-02  0.1170087E+00
          1   -1    0    0  502    0  0.00000000000E+00  0.00000000000E+00  0.18771975538E+04  0.18771975538E+04  0.00000000000E+00 0. -1.
         -1   -1    0    0    0  501 -0.00000000000E+00 -0.00000000000E+00 -0.21166544631E+02  0.21166544631E+02  0.00000000000E+00 0.  1.
          6    1    1    2  502    0  0.39695023804E+02  0.20082045067E+02  0.13584448730E+04  0.13700129403E+04  0.17200000000E+03 0. -1.
         -6    1    1    2    0  501 -0.39695023804E+02 -0.20082045067E+02  0.49758613610E+03  0.52835115812E+03  0.17200000000E+03 0.  1.
</event>
<event>
 4    1  0.3141404E-002  0.2523166E+03  0.7818608E-02  0.1111849E+00
          1   -1    0    0  502    0  0.00000000000E+00  0.00000000000E+00  0.66284094602E+02  0.66284094602E+02  0.00000000000E+00 0. -1.
         -1   -1    0    0    0  501 -0.00000000000E+00 -0.00000000000E+00 -0.96122273576E+03  0.96122273576E+03  0.00000000000E+00 0.  1.
          6    1    1    2  502    0  0.16599084987E+03  0.80787937093E+02 -0.46187946718E+03  0.52630437507E+03  0.17200000000E+03 0. -1.
         -6    1    1    2    0  501 -0.16599084987E+03 -0.80787937093E+02 -0.43305917398E+03  0.50120245529E+03  0.17200000000E+03 0.  1.
</event>
<event>
 4    1  0.3141404E-002  0.3962725E+03  0.7818608E-02  0.1045078E+00
         -2   -1    0    0    0  501 -0.00000000000E+00  0.00000000000E+00  0.97502775705E+02  0.97502775705E+02  0.00000000000E+00 0.  1.
          2   -1    0    0  502    0  0.00000000000E+00 -0.00000000000E+00 -0.17807644623E+04  0.17807644623E+04  0.00000000000E+00 0. -1.
          6    1    1    2  502    0  0.23568678880E+03  0.26814103665E+03 -0.11319918576E+04  0.11993487581E+04  0.17200000000E+03 0. -1.
         -6    1    1    2    0  501 -0.23568678880E+03 -0.26814103665E+03 -0.55126982899E+03  0.67891847987E+03  0.17200000000E+03 0.  1.
</event>
<event>
 4    1  0.3141404E-002  0.2600327E+03  0.7818608E-02  0.1107124E+00
         -2   -1    0    0    0  501 -0.00000000000E+00  0.00000000000E+00  0.31212176572E+03  0.31212176572E+03  0.00000000000E+00 0.  1.
          2   -1    0    0  502    0  0.00000000000E+00 -0.00000000000E+00 -0.27809449600E+03  0.27809449600E+03  0.00000000000E+00 0. -1.
          6    1    1    2  502    0  0.81192803238E+02 -0.17731528680E+03 -0.12171752031E+03  0.28710997367E+03  0.17200000000E+03 0. -1.
         -6    1    1    2    0  501 -0.81192803238E+02  0.17731528680E+03  0.15574479004E+03  0.30310628805E+03  0.17200000000E+03 0.  1.
</event>
<event>
 4    1  0.3141404E-002  0.4714168E+03  0.7818608E-02  0.1021521E+00
         -2   -1    0    0    0  501 -0.00000000000E+00  0.00000000000E+00  0.54786374855E+03  0.54786374855E+03  0.00000000000E+00 0.  1.
          2   -1    0    0  502    0  0.00000000000E+00 -0.00000000000E+00 -0.64593710833E+03  0.64593710833E+03  0.00000000000E+00 0. -1.
          6    1    1    2  502    0  0.26951833455E+03  0.34642406806E+03 -0.41310578144E+03  0.62680950396E+03  0.17200000000E+03 0. -1.
         -6    1    1    2    0  501 -0.26951833455E+03 -0.34642406806E+03  0.31503242166E+03  0.56699135292E+03  0.17200000000E+03 0.  1.
</event>
<event>
 4    1  0.3141404E-002  0.3391323E+03  0.7818608E-02  0.1067166E+00
         -2   -1    0    0    0  501 -0.00000000000E+00  0.00000000000E+00  0.73814112836E+02  0.73814112836E+02  0.00000000000E+00 0.  1.
          2   -1    0    0  502    0  0.00000000000E+00 -0.00000000000E+00 -0.16225322276E+04  0.16225322276E+04  0.00000000000E+00 0. -1.
          6    1    1    2  502    0  0.11039909424E+03  0.27062659897E+03 -0.94336275325E+03  0.10024689523E+04  0.17200000000E+03 0.  1.
         -6    1    1    2    0  501 -0.11039909424E+03 -0.27062659897E+03 -0.60535536155E+03  0.69387738819E+03  0.17200000000E+03 0.  1.
</event>
<event>
 4    1  0.3141404E-002  0.1821930E+03  0.7818608E-02  0.1165697E+00
          2   -1    0    0  502    0  0.00000000000E+00  0.00000000000E+00  0.48448083130E+03  0.48448083130E+03  0.00000000000E+00 0. -1.
         -2   -1    0    0    0  501 -0.00000000000E+00 -0.00000000000E+00 -0.75927286926E+02  0.75927286926E+02  0.00000000000E+00 0.  1.
          6    1    1    2  502    0 -0.59868011109E+02 -0.51106265972E+01  0.29182471848E+03  0.34402901560E+03  0.17200000000E+03 0. -1.
         -6    1    1    2    0  501  0.59868011109E+02  0.51106265972E+01  0.11672882589E+03  0.21637910262E+03  0.17200000000E+03 0.  1.
</event>
<event>
 4    1  0.3141404E-002  0.2102986E+03  0.7818608E-02  0.1141330E+00
         -2   -1    0    0    0  501 -0.00000000000E+00  0.00000000000E+00  0.11446740773E+03  0.11446740773E+03  0.00000000000E+00 0.  1.
          2   -1    0    0  502    0  0.00000000000E+00 -0.00000000000E+00 -0.55793262509E+03  0.55793262509E+03  0.00000000000E+00 0. -1.
          6    1    1    2  502    0 -0.12090615022E+03  0.48153754357E+01 -0.40816974640E+03  0.45916013207E+03  0.17200000000E+03 0. -1.
         -6    1    1    2    0  501  0.12090615022E+03 -0.48153754357E+01 -0.35295470965E+02  0.21323990075E+03  0.17200000000E+03 0.  1.
</event>
<event>
 4    1  0.3141404E-002  0.3314982E+03  0.7818608E-02  0.1070476E+00
          2   -1    0    0  502    0  0.00000000000E+00  0.00000000000E+00  0.13873629004E+03  0.13873629004E+03  0.00000000000E+00 0. -1.
         -2   -1    0    0    0  501 -0.00000000000E+00 -0.00000000000E+00 -0.92254614177E+03  0.92254614177E+03  0.00000000000E+00 0.  1.
          6    1    1    2  502    0  0.50219949070E+02 -0.27889967759E+03 -0.19235762899E+03  0.38326561400E+03  0.17200000000E+03 0. -1.
         -6    1    1    2    0  501 -0.50219949070E+02  0.27889967759E+03 -0.59145222274E+03  0.67801681781E+03  0.17200000000E+03 0.  1.
</event>
<event>
 4    1  0.3141404E-002  0.2167139E+03  0.7818608E-02  0.1136357E+00
          1   -1    0    0  502    0  0.00000000000E+00  0.00000000000E+00  0.86631566102E+03  0.86631566102E+03  0.00000000000E+00 0. -1.
         -1   -1    0    0    0  501 -0.00000000000E+00 -0.00000000000E+00 -0.54240168576E+02  0.54240168576E+02  0.00000000000E+00 0.  1.
          6    1    1    2  502    0  0.58976109431E+02  0.11790980291E+03  0.41648419306E+03  0.46949332921E+03  0.17200000000E+03 0.  1.
         -6    1    1    2    0  501 -0.58976109431E+02 -0.11790980291E+03  0.39559129938E+03  0.45106250038E+03  0.17200000000E+03 0.  1.
</event>
<event>
 4    1  0.3141404E-002  0.2275199E+03  0.7818608E-02  0.1128398E+00
          2   -1    0    0  502    0  0.00000000000E+00  0.00000000000E+00  0.27632290511E+04  0.27632290511E+04  0.00000000000E+00 0. -1.
         -2   -1    0    0    0  501 -0.00000000000E+00 -0.00000000000E+00 -0.20061403794E+02  0.20061403794E+02  0.00000000000E+00 0.  1.
          6    1    1    2  502    0 -0.14768532860E+03 -0.19244252430E+02  0.17296066341E+04  0.17445069235E+04  0.17200000000E+03 0. -1.
         -6    1    1    2    0  501  0.14768532860E+03  0.19244252430E+02  0.10135610133E+04  0.10387835314E+04  0.17200000000E+03 0.  1.
</event>
<event>
 4    1  0.3141404E-002  0.3318769E+03  0.7818608E-02  0.1070309E+00
         -2   -1    0    0    0  501 -0.00000000000E+00  0.00000000000E+00  0.79425565377E+02  0.79425565377E+02  0.00000000000E+00 0.  1.
          2   -1    0    0  502    0  0.00000000000E+00 -0.00000000000E+00 -0.14149149719E+04  0.14149149719E+04  0.00000000000E+00 0. -1.
          6    1    1    2  502    0 -0.17609650550E+03 -0.22259449196E+03 -0.77318760390E+03  0.84140439618E+03  0.17200000000E+03 0. -1.
         -6    1    1    2    0  501  0.17609650550E+03  0.22259449196E+03 -0.56230180260E+03  0.65293614107E+03  0.17200000000E+03 0.  1.
</event>
<event>
 4    1  0.3141404E-002  0.4318561E+03  0.7818608E-02  0.1033275E+00
         -2   -1    0    0    0  501 -0.00000000000E+00  0.00000000000E+00  0.18605723640E+03  0.18605723640E+03  0.00000000000E+00 0.  1.
          2   -1    0    0  502    0  0.00000000000E+00 -0.00000000000E+00 -0.12003731476E+04  0.12003731476E+04  0.00000000000E+00 0. -1.
          6    1    1    2  502    0 -0.19615164200E+03  0.34415142084E+03 -0.78869612881E+03  0.89918921853E+03  0.17200000000E+03 0. -1.
         -6    1    1    2    0  501  0.19615164200E+03 -0.34415142084E+03 -0.22561978241E+03  0.48724116548E+03  0.17200000000E+03 0.  1.
</event>
<event>
 4    1  0.3141404E-002  0.2118892E+03  0.7818608E-02  0.1140079E+00
         -1   -1    0    0    0  501 -0.00000000000E+00  0.00000000000E+00  0.19921212456E+03  0.19921212456E+03  0.00000000000E+00 0.  1.
          1   -1    0    0  502    0  0.00000000000E+00 -0.00000000000E+00 -0.38332958854E+03  0.38332958854E+03  0.00000000000E+00 0. -1.
          6    1    1    2  502    0 -0.10821706771E+03  0.60017619765E+02 -0.27903205027E+03  0.35036542853E+03  0.17200000000E+03 0. -1.
         -6    1    1    2    0  501  0.10821706771E+03 -0.60017619765E+02  0.94914586301E+02  0.23217628457E+03  0.17200000000E+03 0.  1.
</event>
<event>
 4    1  0.3141404E-002  0.3190766E+03  0.7818608E-02  0.1076075E+00
         -2   -1    0    0    0  501 -0.00000000000E+00  0.00000000000E+00  0.85090052442E+02  0.85090052442E+02  0.00000000000E+00 0.  1.
          2   -1    0    0  502    0  0.00000000000E+00 -0.00000000000E+00 -0.14733747170E+04  0.14733747170E+04  0.00000000000E+00 0. -1.
          6    1    1    2  502    0 -0.47905103798E+02  0.26444471674E+03 -0.10319388558E+04  0.10801424486E+04  0.17200000000E+03 0. -1.
         -6    1    1    2    0  501  0.47905103798E+02 -0.26444471674E+03 -0.35634580873E+03  0.47832232080E+03  0.17200000000E+03 0.  1.
</event>
<event>
 4    1  0.3141404E-002  0.1754038E+03  0.7818608E-02  0.1172327E+00
         -2   -1    0    0    0  501 -0.00000000000E+00  0.00000000000E+00  0.35196439095E+02  0.35196439095E+02  0.00000000000E+00 0.  1.
          2   -1    0    0  502    0  0.00000000000E+00 -0.00000000000E+00 -0.97395202908E+03  0.97395202908E+03  0.00000000000E+00 0. -1.
          6    1    1    2  502    0  0.33252308645E+02  0.87630145653E+01 -0.63090826419E+03  0.65483718913E+03  0.17200000000E+03 0. -1.
         -6    1    1    2    0  501 -0.33252308645E+02 -0.87630145653E+01 -0.30784732580E+03  0.35431127904E+03  0.17200000000E+03 0.  1.
</event>
<event>
 4    1  0.3141404E-002  0.1855364E+03  0.7818608E-02  0.1162550E+00
          1   -1    0    0  502    0  0.00000000000E+00  0.00000000000E+00  0.18165564075E+02  0.18165564075E+02  0.00000000000E+00 0. -1.
         -1   -1    0    0    0  501 -0.00000000000E+00 -0.00000000000E+00 -0.25038856686E+04  0.25038856686E+04  0.00000000000E+00 0.  1.
          6    1    1    2  502    0 -0.60543238776E+02 -0.34267740154E+02 -0.62101213053E+03  0.64813565559E+03  0.17200000000E+03 0. -1.
         -6    1    1    2    0  501  0.60543238776E+02  0.34267740154E+02 -0.18647079740E+04  0.18739155771E+04  0.17200000000E+03 0.  1.
</event>
<event>
 4    1  0.3141404E-002  0.3196110E+03  0.7818608E-02  0.1075828E+00
         -2   -1    0    0    0  501 -0.00000000000E+00  0.00000000000E+00  0.75131455093E+02  0.75131455093E+02  0.00000000000E+00 0.  1.
          2   -1    0    0  502    0  0.00000000000E+00 -0.00000000000E+00 -0.13677544791E+04  0.13677544791E+04  0.00000000000E+00 0. -1.
          6    1    1    2  502    0  0.26348873671E+03  0.56043424577E+02 -0.70190509964E+03  0.77124700889E+03  0.17200000000E+03 0.  1.
         -6    1    1    2    0  501 -0.26348873671E+03 -0.56043424577E+02 -0.59071792432E+03  0.67163892526E+03  0.17200000000E+03 0. -1.
</event>
<event>
 4    1  0.3141404E-002  0.6139401E+03  0.7818608E-02  0.9876900E-01
         -2   -1    0    0    0  501 -0.00000000000E+00  0.00000000000E+00  0.35880522196E+03  0.35880522196E+03  0.00000000000E+00 0.  1.
          2   -1    0    0  502    0  0.00000000000E+00 -0.00000000000E+00 -0.26789425283E+04  0.26789425283E+04  0.00000000000E+00 0. -1.
          6    1    1    2  502    0  0.55918079769E+03 -0.18615922455E+03 -0.23442743544E+04  0.24233333799E+04  0.17200000000E+03 0. -1.
         -6    1    1    2    0  501 -0.55918079769E+03  0.18615922455E+03  0.24137048085E+02  0.61441437034E+03  0.17200000000E+03 0.  1.
</event>
<event>
 4    1  0.3141404E-002  0.1749765E+03  0.7818608E-02  0.1172755E+00
          2   -1    0    0  502    0  0.00000000000E+00  0.00000000000E+00  0.54649433001E+03  0.54649433001E+03  0.00000000000E+00 0. -1.
         -2   -1    0    0    0  501 -0.00000000000E+00 -0.00000000000E+00 -0.65690248618E+02  0.65690248618E+02  0.00000000000E+00 0.  1.
          6    1    1    2  502    0 -0.16001289166E+02  0.27870043949E+02  0.35781922091E+03  0.39831065195E+03  0.17200000000E+03 0. -1.
         -6    1    1    2    0  501  0.16001289166E+02 -0.27870043949E+02  0.12298486048E+03  0.21387392668E+03  0.17200000000E+03 0.  1.
</event>
<event>
 4    1  0.3141404E-002  0.1735111E+03  0.7818608E-02  0.1174235E+00
          2   -1    0    0  502    0  0.00000000000E+00  0.00000000000E+00  0.27065805165E+04  0.27065805165E+04  0.00000000000E+00 0. -1.
         -2   -1    0    0    0  501 -0.00000000000E+00 -0.00000000000E+00 -0.53087646826E+02  0.53087646826E+02  0.00000000000E+00 0.  1.
          6    1    1    2  502    0  0.79406233368E+01  0.21425187496E+02  0.25535369017E+04  0.25594250918E+04  0.17200000000E+03 0. -1.
         -6    1    1    2    0  501 -0.79406233368E+01 -0.21425187496E+02  0.99955967950E+02  0.20024307151E+03  0.17200000000E+03 0.  1.
</event>
<event>
 4    1  0.3141404E-002  0.1843281E+03  0.7818608E-02  0.1163679E+00
         -2   -1    0    0    0  501 -0.00000000000E+00  0.00000000000E+00  0.35954078768E+02  0.35954078768E+02  0.00000000000E+00 0.  1.
          2   -1    0    0  502    0  0.00000000000E+00 -0.00000000000E+00 -0.12516062965E+04  0.12516062965E+04  0.00000000000E+00 0. -1.
          6    1    1    2  502    0 -0.61271987121E+02  0.25270507823E+02 -0.92645807032E+03  0.94461707111E+03  0.17200000000E+03 0. -1.
         -6    1    1    2    0  501  0.61271987121E+02 -0.25270507823E+02 -0.28919414744E+03  0.34294330418E+03  0.17200000000E+03 0.  1.
</event>
<event>
 4    1  0.3141404E-002  0.3146526E+03  0.7818608E-02  0.1078137E+00
         -2   -1    0    0    0  501 -0.00000000000E+00  0.00000000000E+00  0.46127487855E+02  0.46127487855E+02  0.00000000000E+00 0.  1.
          2   -1    0    0  502    0  0.00000000000E+00 -0.00000000000E+00 -0.21474447266E+04  0.21474447266E+04  0.00000000000E+00 0. -1.
          6    1    1    2  502    0 -0.25938781329E+03  0.46262345759E+02 -0.10752971560E+04  0.11203884220E+04  0.17200000000E+03 0. -1.
         -6    1    1    2    0  501  0.25938781329E+03 -0.46262345759E+02 -0.10260200827E+04  0.10731837925E+04  0.17200000000E+03 0.  1.
</event>
<event>
 4    1  0.3141404E-002  0.2650911E+03  0.7818608E-02  0.1104122E+00
          2   -1    0    0  502    0  0.00000000000E+00  0.00000000000E+00  0.15251380965E+04  0.15251380965E+04  0.00000000000E+00 0. -1.
         -2   -1    0    0    0  501 -0.00000000000E+00 -0.00000000000E+00 -0.46208356988E+02  0.46208356988E+02  0.00000000000E+00 0.  1.
          6    1    1    2  502    0  0.61481486438E+02  0.19211804513E+03  0.69752579102E+03  0.74620074081E+03  0.17200000000E+03 0. -1.
         -6    1    1    2    0  501 -0.61481486438E+02 -0.19211804513E+03  0.78140394845E+03  0.82514571265E+03  0.17200000000E+03 0. -1.
</event>
<event>
 4    1  0.3141404E-002  0.2429704E+03  0.7818608E-02  0.1117830E+00
         -2   -1    0    0    0  501 -0.00000000000E+00  0.00000000000E+00  0.93792594059E+02  0.93792594059E+02  0.00000000000E+00 0.  1.
          2   -1    0    0  502    0  0.00000000000E+00 -0.00000000000E+00 -0.69654137406E+03  0.69654137406E+03  0.00000000000E+00 0. -1.
          6    1    1    2  502    0  0.45131841693E+02  0.16557085498E+03 -0.42404752297E+03  0.48872373882E+03  0.17200000000E+03 0. -1.
         -6    1    1    2    0  501 -0.45131841693E+02 -0.16557085498E+03 -0.17870125703E+03  0.30161022930E+03  0.17200000000E+03 0.  1.
</event>
<event>
 4    1  0.3141404E-002  0.3420682E+03  0.7818608E-02  0.1065918E+00
         -2   -1    0    0    0  501 -0.00000000000E+00  0.00000000000E+00  0.16963506102E+03  0.16963506102E+03  0.00000000000E+00 0.  1.
          2   -1    0    0  502    0  0.00000000000E+00 -0.00000000000E+00 -0.70688667903E+03  0.70688667903E+03  0.00000000000E+00 0. -1.
          6    1    1    2  502    0  0.27104328824E+03  0.11816158148E+03 -0.33680616735E+03  0.48005105750E+03  0.17200000000E+03 0. -1.
         -6    1    1    2    0  501 -0.27104328824E+03 -0.11816158148E+03 -0.20044545065E+03  0.39647068255E+03  0.17200000000E+03 0.  1.
</event>
<event>
 4    1  0.3141404E-002  0.1742300E+03  0.7818608E-02  0.1173507E+00
          2   -1    0    0  502    0  0.00000000000E+00  0.00000000000E+00  0.11445575169E+04  0.11445575169E+04  0.00000000000E+00 0. -1.
         -2   -1    0    0    0  501 -0.00000000000E+00 -0.00000000000E+00 -0.16136165837E+03  0.16136165837E+03  0.00000000000E+00 0.  1.
          6    1    1    2  502    0  0.14899452914E+02  0.23454259613E+02  0.10884885457E+04  0.11023445061E+04  0.17200000000E+03 0. -1.
         -6    1    1    2    0  501 -0.14899452914E+02 -0.23454259613E+02 -0.10529268711E+03  0.20357466923E+03  0.17200000000E+03 0.  1.
</event>
<event>
 4    1  0.3141404E-002  0.6173638E+03  0.7818608E-02  0.9870022E-01
         -2   -1    0    0    0  501 -0.00000000000E+00  0.00000000000E+00  0.32891760017E+03  0.32891760017E+03  0.00000000000E+00 0.  1.
          2   -1    0    0  502    0  0.00000000000E+00 -0.00000000000E+00 -0.13249397296E+04  0.13249397296E+04  0.00000000000E+00 0. -1.
          6    1    1    2  502    0  0.58863441668E+03 -0.71159080562E+02 -0.79086625096E+03  0.10032983196E+04  0.17200000000E+03 0. -1.
         -6    1    1    2    0  501 -0.58863441668E+03  0.71159080562E+02 -0.20515587852E+03  0.65055901019E+03  0.17200000000E+03 0.  1.
</event>
<event>
 4    1  0.3141404E-002  0.2079762E+03  0.7818608E-02  0.1143179E+00
          1   -1    0    0  502    0  0.00000000000E+00  0.00000000000E+00  0.56075603145E+02  0.56075603145E+02  0.00000000000E+00 0. -1.
         -1   -1    0    0    0  501 -0.00000000000E+00 -0.00000000000E+00 -0.13822077383E+04  0.13822077383E+04  0.00000000000E+00 0.  1.
          6    1    1    2  502    0 -0.69424423847E+02 -0.94076315276E+02 -0.18499039172E+03  0.27834429894E+03  0.17200000000E+03 0. -1.
         -6    1    1    2    0  501  0.69424423847E+02  0.94076315276E+02 -0.11411417434E+04  0.11599390425E+04  0.17200000000E+03 0.  1.
</event>
<event>
 4    1  0.3141404E-002  0.2462127E+03  0.7818608E-02  0.1115722E+00
         -1   -1    0    0    0  501 -0.00000000000E+00  0.00000000000E+00  0.26776751313E+03  0.26776751313E+03  0.00000000000E+00 0.  1.
          1   -1    0    0  502    0  0.00000000000E+00 -0.00000000000E+00 -0.38530809982E+03  0.38530809982E+03  0.00000000000E+00 0. -1.
          6    1    1    2  502    0 -0.91128145870E+02 -0.15077259844E+03 -0.26847677676E+03  0.36428079152E+03  0.17200000000E+03 0. -1.
         -6    1    1    2    0  501  0.91128145870E+02  0.15077259844E+03  0.15093619007E+03  0.28879482143E+03  0.17200000000E+03 0.  1.
</event>
<event>
 4    1  0.3141404E-002  0.3401454E+03  0.7818608E-02  0.1066734E+00
          2   -1    0    0  502    0  0.00000000000E+00  0.00000000000E+00  0.11490052752E+04  0.11490052752E+04  0.00000000000E+00 0. -1.
         -2   -1    0    0    0  501 -0.00000000000E+00 -0.00000000000E+00 -0.21771895165E+03  0.21771895165E+03  0.00000000000E+00 0.  1.
          6    1    1    2  502    0  0.84313029758E+02 -0.28108045156E+03  0.96664630271E+03  0.10247458132E+04  0.17200000000E+03 0. -1.
         -6    1    1    2    0  501 -0.84313029758E+02  0.28108045156E+03 -0.35359979175E+02  0.34197841359E+03  0.17200000000E+03 0.  1.
</event>
<event>
 4    1  0.3141404E-002  0.3670429E+03  0.7818608E-02  0.1055829E+00
          2   -1    0    0  502    0  0.00000000000E+00  0.00000000000E+00  0.87595022155E+03  0.87595022155E+03  0.00000000000E+00 0. -1.
         -2   -1    0    0    0  501 -0.00000000000E+00 -0.00000000000E+00 -0.16487116476E+03  0.16487116476E+03  0.00000000000E+00 0.  1.
          6    1    1    2  502    0 -0.32255959706E+03 -0.33042533739E+02  0.49040006290E+03  0.61254609980E+03  0.17200000000E+03 0.  1.
         -6    1    1    2    0  501  0.32255959706E+03  0.33042533739E+02  0.22067899389E+03  0.42827528651E+03  0.17200000000E+03 0.  1.
</event>
<event>
 4    1  0.3141404E-002  0.3218216E+03  0.7818608E-02  0.1074814E+00
         -1   -1    0    0    0  501 -0.00000000000E+00  0.00000000000E+00  0.64707598603E+03  0.64707598603E+03  0.00000000000E+00 0.  1.
          1   -1    0    0  502    0  0.00000000000E+00 -0.00000000000E+00 -0.39407445633E+03  0.39407445633E+03  0.00000000000E+00 0. -1.
          6    1    1    2  502    0  0.27197844884E+03  0.35890296111E+01 -0.27465986979E+03  0.42309242707E+03  0.17200000000E+03 0. -1.
         -6    1    1    2    0  501 -0.27197844884E+03 -0.35890296111E+01  0.52766139948E+03  0.61805801530E+03  0.17200000000E+03 0.  1.
</event>
<event>
 4    1  0.3141404E-002  0.4330217E+03  0.7818608E-02  0.1032910E+00
         -2   -1    0    0    0  501 -0.00000000000E+00  0.00000000000E+00  0.80815449891E+02  0.80815449891E+02  0.00000000000E+00 0.  1.
          2   -1    0    0  502    0  0.00000000000E+00 -0.00000000000E+00 -0.25779259489E+04  0.25779259489E+04  0.00000000000E+00 0. -1.
          6    1    1    2  502    0 -0.34231336647E+03 -0.20185472047E+03 -0.16688872319E+04  0.17241497505E+04  0.17200000000E+03 0. -1.
         -6    1    1    2    0  501  0.34231336647E+03  0.20185472047E+03 -0.82822326710E+03  0.93459164838E+03  0.17200000000E+03 0.  1.
</event>
<event>
 4    1  0.3141404E-002  0.2335299E+03  0.7818608E-02  0.1124180E+00
          1   -1    0    0  502    0  0.00000000000E+00  0.00000000000E+00  0.71943877283E+03  0.71943877283E+03  0.00000000000E+00 0. -1.
         -1   -1    0    0    0  501 -0.00000000000E+00 -0.00000000000E+00 -0.99260730174E+02  0.99260730174E+02  0.00000000000E+00 0.  1.
          6    1    1    2  502    0 -0.14845712620E+03 -0.53969264713E+02  0.11109441936E+03  0.25860813960E+03  0.17200000000E+03 0. -1.
         -6    1    1    2    0  501  0.14845712620E+03  0.53969264713E+02  0.50908362329E+03  0.56009136340E+03  0.17200000000E+03 0.  1.
</event>
<event>
 4    1  0.3141404E-002  0.1926703E+03  0.7818608E-02  0.1156075E+00
         -1   -1    0    0    0  501 -0.00000000000E+00  0.00000000000E+00  0.11705220630E+03  0.11705220630E+03  0.00000000000E+00 0.  1.
          1   -1    0    0  502    0  0.00000000000E+00 -0.00000000000E+00 -0.39211423770E+03  0.39211423770E+03  0.00000000000E+00 0. -1.
          6    1    1    2  502    0  0.28081567033E+02 -0.82153862461E+02 -0.26208732601E+02  0.19444466871E+03  0.17200000000E+03 0.  1.
         -6    1    1    2    0  501 -0.28081567033E+02  0.82153862461E+02 -0.24885329880E+03  0.31472177530E+03  0.17200000000E+03 0. -1.
</event>
<event>
 4    1  0.3141404E-002  0.1838858E+03  0.7818608E-02  0.1164094E+00
         -4   -1    0    0    0  501 -0.00000000000E+00  0.00000000000E+00  0.13434116117E+03  0.13434116117E+03  0.00000000000E+00 0.  1.
          4   -1    0    0  502    0  0.00000000000E+00 -0.00000000000E+00 -0.28273490032E+03  0.28273490032E+03  0.00000000000E+00 0. -1.
          6    1    1    2  502    0  0.51117592165E+02 -0.40211862469E+02 -0.14328500170E+03  0.23311926952E+03  0.17200000000E+03 0. -1.
         -6    1    1    2    0  501 -0.51117592165E+02  0.40211862469E+02 -0.51087374502E+01  0.18395679197E+03  0.17200000000E+03 0.  1.
</event>
<event>
 4    1  0.3141404E-002  0.2231825E+03  0.7818608E-02  0.1131532E+00
          1   -1    0    0  502    0  0.00000000000E+00  0.00000000000E+00  0.73769139827E+03  0.73769139827E+03  0.00000000000E+00 0. -1.
         -1   -1    0    0    0  501 -0.00000000000E+00 -0.00000000000E+00 -0.88269745645E+02  0.88269745645E+02  0.00000000000E+00 0.  1.
          6    1    1    2  502    0 -0.84049210025E+02  0.11472637203E+03  0.52493152731E+03  0.57040645027E+03  0.17200000000E+03 0. -1.
         -6    1    1    2    0  501  0.84049210025E+02 -0.11472637203E+03  0.12449012532E+03  0.25555469365E+03  0.17200000000E+03 0.  1.
</event>
<event>
 4    1  0.3141404E-002  0.5130130E+03  0.7818608E-02  0.1010437E+00
          2   -1    0    0  502    0  0.00000000000E+00  0.00000000000E+00  0.34569676417E+03  0.34569676417E+03  0.00000000000E+00 0. -1.
         -2   -1    0    0    0  501 -0.00000000000E+00 -0.00000000000E+00 -0.79076925740E+03  0.79076925740E+03  0.00000000000E+00 0.  1.
          6    1    1    2  502    0 -0.17431972804E+03  0.45078932613E+03 -0.11285992349E+03  0.52528063592E+03  0.17200000000E+03 0. -1.
         -6    1    1    2    0  501  0.17431972804E+03 -0.45078932613E+03 -0.33221256974E+03  0.61118538565E+03  0.17200000000E+03 0.  1.
</event>
<event>
 4    1  0.3141404E-002  0.2193779E+03  0.7818608E-02  0.1134348E+00
         -1   -1    0    0    0  501 -0.00000000000E+00  0.00000000000E+00  0.85864808440E+02  0.85864808440E+02  0.00000000000E+00 0.  1.
          1   -1    0    0  502    0  0.00000000000E+00 -0.00000000000E+00 -0.59851748368E+03  0.59851748368E+03  0.00000000000E+00 0. -1.
          6    1    1    2  502    0 -0.33715488194E+02 -0.13193159194E+03 -0.34257618815E+03  0.40679862805E+03  0.17200000000E+03 0.  1.
         -6    1    1    2    0  501  0.33715488194E+02  0.13193159194E+03 -0.17007648709E+03  0.27758366407E+03  0.17200000000E+03 0.  1.
</event>
<event>
 4    1  0.3141404E-002  0.1829936E+03  0.7818608E-02  0.1164937E+00
         -1   -1    0    0    0  501 -0.00000000000E+00  0.00000000000E+00  0.48480081488E+02  0.48480081488E+02  0.00000000000E+00 0.  1.
          1   -1    0    0  502    0  0.00000000000E+00 -0.00000000000E+00 -0.72948709882E+03  0.72948709882E+03  0.00000000000E+00 0. -1.
          6    1    1    2  502    0 -0.62005550209E+01  0.62162735288E+02 -0.25084377881E+03  0.31049839599E+03  0.17200000000E+03 0.  1.
         -6    1    1    2    0  501  0.62005550209E+01 -0.62162735288E+02 -0.43016323852E+03  0.46746878432E+03  0.17200000000E+03 0. -1.
</event>
<event>
 4    1  0.3141404E-002  0.2252004E+03  0.7818608E-02  0.1130064E+00
          2   -1    0    0  502    0  0.00000000000E+00  0.00000000000E+00  0.47737343740E+03  0.47737343740E+03  0.00000000000E+00 0. -1.
         -2   -1    0    0    0  501 -0.00000000000E+00 -0.00000000000E+00 -0.29269822979E+03  0.29269822979E+03  0.00000000000E+00 0.  1.
          6    1    1    2  502    0  0.11848535980E+03 -0.84216581737E+02  0.39965289845E+03  0.45873483884E+03  0.17200000000E+03 0. -1.
         -6    1    1    2    0  501 -0.11848535980E+03  0.84216581737E+02 -0.21497769084E+03  0.31133682835E+03  0.17200000000E+03 0.  1.
</event>
<event>
 4    1  0.3141404E-002  0.1836561E+03  0.7818608E-02  0.1164311E+00
          2   -1    0    0  502    0  0.00000000000E+00  0.00000000000E+00  0.85532126182E+03  0.85532126182E+03  0.00000000000E+00 0. -1.
         -2   -1    0    0    0  501 -0.00000000000E+00 -0.00000000000E+00 -0.43335587471E+02  0.43335587471E+02  0.00000000000E+00 0.  1.
          6    1    1    2  502    0 -0.48678312694E+02 -0.42142653617E+02  0.54079826479E+03  0.57113251052E+03  0.17200000000E+03 0. -1.
         -6    1    1    2    0  501  0.48678312694E+02  0.42142653617E+02  0.27118740957E+03  0.32752433877E+03  0.17200000000E+03 0.  1.
</event>
<event>
 4    1  0.3141404E-002  0.1752709E+03  0.7818608E-02  0.1172460E+00
         -2   -1    0    0    0  501 -0.00000000000E+00  0.00000000000E+00  0.38658959043E+02  0.38658959043E+02  0.00000000000E+00 0.  1.
          2   -1    0    0  502    0  0.00000000000E+00 -0.00000000000E+00 -0.11002672383E+04  0.11002672383E+04  0.00000000000E+00 0. -1.
          6    1    1    2  502    0  0.18527366388E+02 -0.28153851867E+02 -0.83093696057E+03  0.84922089890E+03  0.17200000000E+03 0. -1.
         -6    1    1    2    0  501 -0.18527366388E+02  0.28153851867E+02 -0.23067131866E+03  0.28970529842E+03  0.17200000000E+03 0.  1.
</event>
<event>
 4    1  0.3141404E-002  0.3416326E+03  0.7818608E-02  0.1066103E+00
         -1   -1    0    0    0  501 -0.00000000000E+00  0.00000000000E+00  0.25185409545E+03  0.25185409545E+03  0.00000000000E+00 0.  1.
          1   -1    0    0  502    0  0.00000000000E+00 -0.00000000000E+00 -0.17057614748E+04  0.17057614748E+04  0.00000000000E+00 0. -1.
          6    1    1    2  502    0  0.22460039720E+03  0.19152931833E+03 -0.15622868703E+04  0.15992038904E+04  0.17200000000E+03 0. -1.
         -6    1    1    2    0  501 -0.22460039720E+03 -0.19152931833E+03  0.10837949088E+03  0.35841167984E+03  0.17200000000E+03 0.  1.
</event>
<event>
 4    1  0.3141404E-002  0.3220284E+03  0.7818608E-02  0.1074720E+00
         -2   -1    0    0    0  501 -0.00000000000E+00  0.00000000000E+00  0.11623804897E+03  0.11623804897E+03  0.00000000000E+00 0.  1.
          2   -1    0    0  502    0  0.00000000000E+00 -0.00000000000E+00 -0.14412072967E+04  0.14412072967E+04  0.00000000000E+00 0. -1.
          6    1    1    2  502    0  0.49918217954E+02 -0.26763115004E+03 -0.18183702727E+03  0.36982017987E+03  0.17200000000E+03 0.  1.
         -6    1    1    2    0  501 -0.49918217954E+02  0.26763115004E+03 -0.11431322204E+04  0.11876251657E+04  0.17200000000E+03 0.  1.
</event>
<event>
 4    1  0.3141404E-002  0.2141969E+03  0.7818608E-02  0.1138285E+00
         -2   -1    0    0    0  501 -0.00000000000E+00  0.00000000000E+00  0.25244241992E+02  0.25244241992E+02  0.00000000000E+00 0.  1.
          2   -1    0    0  502    0  0.00000000000E+00 -0.00000000000E+00 -0.18183401473E+04  0.18183401473E+04  0.00000000000E+00 0. -1.
          6    1    1    2  502    0 -0.12737171377E+03  0.85297808322E+01 -0.91686896414E+03  0.94155669401E+03  0.17200000000E+03 0. -1.
         -6    1    1    2    0  501  0.12737171377E+03 -0.85297808322E+01 -0.87622694116E+03  0.90202769528E+03  0.17200000000E+03 0. -1.
</event>
<event>
 4    1  0.3141404E-002  0.1767994E+03  0.7818608E-02  0.1170937E+00
         -2   -1    0    0    0  501 -0.00000000000E+00  0.00000000000E+00  0.12416130170E+02  0.12416130170E+02  0.00000000000E+00 0.  1.
          2   -1    0    0  502    0  0.00000000000E+00 -0.00000000000E+00 -0.27312924687E+04  0.27312924687E+04  0.00000000000E+00 0. -1.
          6    1    1    2  502    0  0.40914965488E+02  0.54362197222E-01 -0.97565587406E+03  0.99154547144E+03  0.17200000000E+03 0.  1.
         -6    1    1    2    0  501 -0.40914965488E+02 -0.54362197222E-01 -0.17432204645E+04  0.17521631274E+04  0.17200000000E+03 0. -1.
</event>
<event>
 4    1  0.3141404E-002  0.1806496E+03  0.7818608E-02  0.1167176E+00
          1   -1    0    0  502    0  0.00000000000E+00  0.00000000000E+00  0.64877722378E+03  0.64877722378E+03  0.00000000000E+00 0. -1.
         -1   -1    0    0    0  501 -0.00000000000E+00 -0.00000000000E+00 -0.60738952793E+02  0.60738952793E+02  0.00000000000E+00 0.  1.
          6    1    1    2  502    0 -0.43166872985E+02 -0.34451180621E+02  0.14695645286E+03  0.23287434768E+03  0.17200000000E+03 0.  1.
         -6    1    1    2    0  501  0.43166872985E+02  0.34451180621E+02  0.44108181813E+03  0.47664182890E+03  0.17200000000E+03 0. -1.
</event>
<event>
 4    1  0.3141404E-002  0.5093364E+03  0.7818608E-02  0.1011370E+00
         -1   -1    0    0    0  501 -0.00000000000E+00  0.00000000000E+00  0.70171779235E+03  0.70171779235E+03  0.00000000000E+00 0.  1.
          1   -1    0    0  502    0  0.00000000000E+00 -0.00000000000E+00 -0.38124808350E+03  0.38124808350E+03  0.00000000000E+00 0. -1.
          6    1    1    2  502    0 -0.46760686438E+02  0.47712996842E+03  0.65986001835E+02  0.51359295264E+03  0.17200000000E+03 0. -1.
         -6    1    1    2    0  501  0.46760686438E+02 -0.47712996842E+03  0.25448370702E+03  0.56937292322E+03  0.17200000000E+03 0. -1.
</event>
<event>
 4    1  0.3141404E-002  0.2690614E+03  0.7818608E-02  0.1101818E+00
         -2   -1    0    0    0  501 -0.00000000000E+00  0.00000000000E+00  0.50333087460E+02  0.50333087460E+02  0.00000000000E+00 0.  1.
          2   -1    0    0  502    0  0.00000000000E+00 -0.00000000000E+00 -0.14771541370E+04  0.14771541370E+04  0.00000000000E+00 0. -1.
          6    1    1    2  502    0 -0.15165296133E+03  0.14075311425E+03 -0.83727749653E+03  0.87944736400E+03  0.17200000000E+03 0. -1.
         -6    1    1    2    0  501  0.15165296133E+03 -0.14075311425E+03 -0.58954355303E+03  0.64803986048E+03  0.17200000000E+03 0.  1.
</event>
<event>
 4    1  0.3141404E-002  0.1815943E+03  0.7818608E-02  0.1166269E+00
         -1   -1    0    0    0  501 -0.00000000000E+00  0.00000000000E+00  0.36470040638E+03  0.36470040638E+03  0.00000000000E+00 0.  1.
          1   -1    0    0  502    0  0.00000000000E+00 -0.00000000000E+00 -0.96034597802E+02  0.96034597802E+02  0.00000000000E+00 0. -1.
          6    1    1    2  502    0 -0.49188041906E+02  0.31193294138E+02  0.78635162819E+02  0.19788879174E+03  0.17200000000E+03 0. -1.
         -6    1    1    2    0  501  0.49188041906E+02 -0.31193294138E+02  0.19003064576E+03  0.26284621244E+03  0.17200000000E+03 0.  1.
</event>
<event>
 4    1  0.3141404E-002  0.3955546E+03  0.7818608E-02  0.1045330E+00
         -2   -1    0    0    0  501 -0.00000000000E+00  0.00000000000E+00  0.16649477568E+03  0.16649477568E+03  0.00000000000E+00 0.  1.
          2   -1    0    0  502    0  0.00000000000E+00 -0.00000000000E+00 -0.22698664381E+04  0.22698664381E+04  0.00000000000E+00 0. -1.
          6    1    1    2  502    0 -0.23383011692E+03 -0.26870599387E+03 -0.19842020416E+04  0.20232452092E+04  0.17200000000E+03 0. -1.
         -6    1    1    2    0  501  0.23383011692E+03  0.26870599387E+03 -0.11916962084E+03  0.41311600459E+03  0.17200000000E+03 0.  1.
</event>
<event>
 4    1  0.3141404E-002  0.2808333E+03  0.7818608E-02  0.1095235E+00
         -1   -1    0    0    0  501 -0.00000000000E+00  0.00000000000E+00  0.15666536972E+04  0.15666536972E+04  0.00000000000E+00 0.  1.
          1   -1    0    0  502    0  0.00000000000E+00 -0.00000000000E+00 -0.66249283924E+02  0.66249283924E+02  0.00000000000E+00 0. -1.
          6    1    1    2  502    0  0.44678410080E+02  0.21745613316E+03  0.35012129542E+03  0.44883432543E+03  0.17200000000E+03 0. -1.
         -6    1    1    2    0  501 -0.44678410080E+02 -0.21745613316E+03  0.11502831178E+04  0.11840686557E+04  0.17200000000E+03 0.  1.
</event>
<event>
 4    1  0.3141404E-002  0.2223718E+03  0.7818608E-02  0.1132127E+00
         -2   -1    0    0    0  501 -0.00000000000E+00  0.00000000000E+00  0.89487664684E+02  0.89487664684E+02  0.00000000000E+00 0.  1.
          2   -1    0    0  502    0  0.00000000000E+00 -0.00000000000E+00 -0.55374042136E+03  0.55374042136E+03  0.00000000000E+00 0. -1.
          6    1    1    2  502    0  0.13179868826E+03  0.49943054549E+02 -0.24684141439E+03  0.33223468631E+03  0.17200000000E+03 0. -1.
         -6    1    1    2    0  501 -0.13179868826E+03 -0.49943054549E+02 -0.21741134228E+03  0.31099339974E+03  0.17200000000E+03 0. -1.
</event>
<event>
 4    1  0.3141404E-002  0.2461592E+03  0.7818608E-02  0.1115756E+00
          2   -1    0    0  502    0  0.00000000000E+00  0.00000000000E+00  0.22294559870E+03  0.22294559870E+03  0.00000000000E+00 0. -1.
         -2   -1    0    0    0  501 -0.00000000000E+00 -0.00000000000E+00 -0.33911823666E+03  0.33911823666E+03  0.00000000000E+00 0.  1.
          6    1    1    2  502    0  0.15906033274E+03  0.75565744865E+02  0.67135175536E+02  0.25514996187E+03  0.17200000000E+03 0. -1.
         -6    1    1    2    0  501 -0.15906033274E+03 -0.75565744865E+02 -0.18330781350E+03  0.30691387349E+03  0.17200000000E+03 0.  1.
</event>
<event>
 4    1  0.3141404E-002  0.3601810E+03  0.7818608E-02  0.1058512E+00
         -1   -1    0    0    0  501 -0.00000000000E+00  0.00000000000E+00  0.55416671837E+02  0.55416671837E+02  0.00000000000E+00 0.  1.
          1   -1    0    0  502    0  0.00000000000E+00 -0.00000000000E+00 -0.25400499027E+04  0.25400499027E+04  0.00000000000E+00 0. -1.
          6    1    1    2  502    0  0.27488542957E+03  0.15679401767E+03 -0.16056008845E+04  0.16455043494E+04  0.17200000000E+03 0. -1.
         -6    1    1    2    0  501 -0.27488542957E+03 -0.15679401767E+03 -0.87903234636E+03  0.94996222521E+03  0.17200000000E+03 0.  1.
</event>
<event>
 4    1  0.3141404E-002  0.7012636E+03  0.7818608E-02  0.9715074E-01
         -2   -1    0    0    0  501 -0.00000000000E+00  0.00000000000E+00  0.21767667506E+03  0.21767667506E+03  0.00000000000E+00 0.  1.
          2   -1    0    0  502    0  0.00000000000E+00 -0.00000000000E+00 -0.22701427254E+04  0.22701427254E+04  0.00000000000E+00 0. -1.
          6    1    1    2  502    0  0.47544656779E+03 -0.48593956237E+03 -0.93978997876E+03  0.11725936642E+04  0.17200000000E+03 0. -1.
         -6    1    1    2    0  501 -0.47544656779E+03  0.48593956237E+03 -0.11126760715E+04  0.13152257362E+04  0.17200000000E+03 0. -1.
</event>
<event>
 4    1  0.3141404E-002  0.2100465E+03  0.7818608E-02  0.1141529E+00
          1   -1    0    0  502    0  0.00000000000E+00  0.00000000000E+00  0.13739413771E+03  0.13739413771E+03  0.00000000000E+00 0. -1.
         -1   -1    0    0    0  501 -0.00000000000E+00 -0.00000000000E+00 -0.33341663875E+03  0.33341663875E+03  0.00000000000E+00 0.  1.
          6    1    1    2  502    0 -0.10986647858E+03  0.49647852179E+02 -0.14322538360E+03  0.25423033424E+03  0.17200000000E+03 0.  1.
         -6    1    1    2    0  501  0.10986647858E+03 -0.49647852179E+02 -0.52797117430E+02  0.21658044222E+03  0.17200000000E+03 0. -1.
</event>
<event>
 4    1  0.3141404E-002  0.1730423E+03  0.7818608E-02  0.1174712E+00
         -1   -1    0    0    0  501 -0.00000000000E+00  0.00000000000E+00  0.89950521084E+02  0.89950521084E+02  0.00000000000E+00 0.  1.
          1   -1    0    0  502    0  0.00000000000E+00 -0.00000000000E+00 -0.57093590155E+03  0.57093590155E+03  0.00000000000E+00 0. -1.
          6    1    1    2  502    0  0.17446174314E+02  0.74340520347E+01 -0.45386274045E+03  0.48573142919E+03  0.17200000000E+03 0. -1.
         -6    1    1    2    0  501 -0.17446174314E+02 -0.74340520347E+01 -0.27122640011E+02  0.17515499345E+03  0.17200000000E+03 0.  1.
</event>
<event>
 4    1  0.3141404E-002  0.2149074E+03  0.7818608E-02  0.1137738E+00
         -2   -1    0    0    0  501 -0.00000000000E+00  0.00000000000E+00  0.24532284727E+02  0.24532284727E+02  0.00000000000E+00 0.  1.
          2   -1    0    0  502    0  0.00000000000E+00 -0.00000000000E+00 -0.19922723984E+04  0.19922723984E+04  0.00000000000E+00 0. -1.
          6    1    1    2  502    0 -0.12826992072E+03  0.12166884098E+02 -0.12204345293E+04  0.12392117034E+04  0.17200000000E+03 0. -1.
         -6    1    1    2    0  501  0.12826992072E+03 -0.12166884098E+02 -0.74730558444E+03  0.77759297975E+03  0.17200000000E+03 0.  1.
</event>
<event>
 4    1  0.3141404E-002  0.2291343E+03  0.7818608E-02  0.1127251E+00
          1   -1    0    0  502    0  0.00000000000E+00  0.00000000000E+00  0.13683841638E+03  0.13683841638E+03  0.00000000000E+00 0. -1.
         -1   -1    0    0    0  501 -0.00000000000E+00 -0.00000000000E+00 -0.10480399795E+04  0.10480399795E+04  0.00000000000E+00 0.  1.
          6    1    1    2  502    0 -0.14804191062E+03  0.31656339408E+02  0.16088181020E+02  0.22969841248E+03  0.17200000000E+03 0. -1.
         -6    1    1    2    0  501  0.14804191062E+03 -0.31656339408E+02 -0.92728974418E+03  0.95517998345E+03  0.17200000000E+03 0.  1.
</event>
<event>
 4    1  0.3141404E-002  0.3233200E+03  0.7818608E-02  0.1074131E+00
         -1   -1    0    0    0  501 -0.00000000000E+00  0.00000000000E+00  0.77438732805E+03  0.77438732805E+03  0.00000000000E+00 0.  1.
          1   -1    0    0  502    0  0.00000000000E+00 -0.00000000000E+00 -0.22552383584E+03  0.22552383584E+03  0.00000000000E+00 0. -1.
          6    1    1    2  502    0 -0.23657275836E+03  0.13778652516E+03 -0.42332956962E+02  0.32607955434E+03  0.17200000000E+03 0. -1.
         -6    1    1    2    0  501  0.23657275836E+03 -0.13778652516E+03  0.59119644917E+03  0.67383160955E+03  0.17200000000E+03 0.  1.
</event>
<event>
 4    1  0.3141404E-002  0.4246533E+03  0.7818608E-02  0.1035562E+00
         -1   -1    0    0    0  501 -0.00000000000E+00  0.00000000000E+00  0.13326219845E+03  0.13326219845E+03  0.00000000000E+00 0.  1.
          1   -1    0    0  502    0  0.00000000000E+00 -0.00000000000E+00 -0.13664415405E+04  0.13664415405E+04  0.00000000000E+00 0. -1.
          6    1    1    2  502    0  0.38281952488E+03  0.64773812240E+02 -0.69040485486E+03  0.81054876411E+03  0.17200000000E+03 0. -1.
         -6    1    1    2    0  501 -0.38281952488E+03 -0.64773812240E+02 -0.54277448715E+03  0.68915497479E+03  0.17200000000E+03 0.  1.
</event>
<event>
 4    1  0.3141404E-002  0.2497160E+03  0.7818608E-02  0.1113484E+00
         -2   -1    0    0    0  501 -0.00000000000E+00  0.00000000000E+00  0.13314922168E+02  0.13314922168E+02  0.00000000000E+00 0.  1.
          2   -1    0    0  502    0  0.00000000000E+00 -0.00000000000E+00 -0.47180052220E+04  0.47180052220E+04  0.00000000000E+00 0. -1.
          6    1    1    2  502    0  0.15947243796E+03  0.85689180375E+02 -0.25551697072E+04  0.25673430481E+04  0.17200000000E+03 0. -1.
         -6    1    1    2    0  501 -0.15947243796E+03 -0.85689180375E+02 -0.21495205926E+04  0.21639770960E+04  0.17200000000E+03 0.  1.
</event>
<event>
 4    1  0.3141404E-002  0.2256468E+03  0.7818608E-02  0.1129742E+00
          2   -1    0    0  502    0  0.00000000000E+00  0.00000000000E+00  0.19313319333E+04  0.19313319333E+04  0.00000000000E+00 0. -1.
         -2   -1    0    0    0  501 -0.00000000000E+00 -0.00000000000E+00 -0.47483772224E+02  0.47483772224E+02  0.00000000000E+00 0.  1.
          6    1    1    2  502    0  0.14604800287E+03 -0.15743644322E+01  0.16017865319E+04  0.16176021116E+04  0.17200000000E+03 0. -1.
         -6    1    1    2    0  501 -0.14604800287E+03  0.15743644322E+01  0.28206162920E+03  0.36121359392E+03  0.17200000000E+03 0.  1.
</event>
<event>
 4    1  0.3141404E-002  0.1980478E+03  0.7818608E-02  0.1151397E+00
          1   -1    0    0  502    0  0.00000000000E+00  0.00000000000E+00  0.68120446272E+03  0.68120446272E+03  0.00000000000E+00 0. -1.
         -1   -1    0    0    0  501 -0.00000000000E+00 -0.00000000000E+00 -0.72157912856E+02  0.72157912856E+02  0.00000000000E+00 0.  1.
          6    1    1    2  502    0 -0.10205490951E+02  0.97646208006E+02  0.47383909258E+03  0.51356247881E+03  0.17200000000E+03 0. -1.
         -6    1    1    2    0  501  0.10205490951E+02 -0.97646208006E+02  0.13520745728E+03  0.23979989676E+03  0.17200000000E+03 0.  1.
</event>
<event>
 4    1  0.3141404E-002  0.3602759E+03  0.7818608E-02  0.1058475E+00
         -1   -1    0    0    0  501 -0.00000000000E+00  0.00000000000E+00  0.17760842021E+03  0.17760842021E+03  0.00000000000E+00 0.  1.
          1   -1    0    0  502    0  0.00000000000E+00 -0.00000000000E+00 -0.10183062040E+04  0.10183062040E+04  0.00000000000E+00 0. -1.
          6    1    1    2  502    0  0.36451212243E+00 -0.31656686749E+03 -0.73806852022E+03  0.82130618834E+03  0.17200000000E+03 0. -1.
         -6    1    1    2    0  501 -0.36451212243E+00  0.31656686749E+03 -0.10262926352E+03  0.37460843583E+03  0.17200000000E+03 0.  1.
</event>
<event>
 4    1  0.3141404E-002  0.5343431E+03  0.7818608E-02  0.1005184E+00
          2   -1    0    0  502    0  0.00000000000E+00  0.00000000000E+00  0.23097661253E+04  0.23097661253E+04  0.00000000000E+00 0. -1.
         -2   -1    0    0    0  501 -0.00000000000E+00 -0.00000000000E+00 -0.25862736262E+03  0.25862736262E+03  0.00000000000E+00 0.  1.
          6    1    1    2  502    0 -0.31871776973E+03 -0.39288359527E+03  0.19534253008E+04  0.20251896065E+04  0.17200000000E+03 0. -1.
         -6    1    1    2    0  501  0.31871776973E+03  0.39288359527E+03  0.97713461802E+02  0.54320388142E+03  0.17200000000E+03 0.  1.
</event>
<event>
 4    1  0.3141404E-002  0.1850264E+03  0.7818608E-02  0.1163025E+00
          2   -1    0    0  502    0  0.00000000000E+00  0.00000000000E+00  0.25318766427E+02  0.25318766427E+02  0.00000000000E+00 0. -1.
         -2   -1    0    0    0  501 -0.00000000000E+00 -0.00000000000E+00 -0.15007579499E+04  0.15007579499E+04  0.00000000000E+00 0.  1.
          6    1    1    2  502    0 -0.59955793328E+02 -0.32497026317E+02 -0.49760807125E+03  0.53089410097E+03  0.17200000000E+03 0. -1.
         -6    1    1    2    0  501  0.59955793328E+02  0.32497026317E+02 -0.97783111220E+03  0.99518261533E+03  0.17200000000E+03 0.  1.
</event>
<event>
 4    1  0.3141404E-002  0.2372195E+03  0.7818608E-02  0.1121659E+00
         -2   -1    0    0    0  501 -0.00000000000E+00  0.00000000000E+00  0.24160423016E+02  0.24160423016E+02  0.00000000000E+00 0.  1.
          2   -1    0    0  502    0  0.00000000000E+00 -0.00000000000E+00 -0.29098349149E+04  0.29098349149E+04  0.00000000000E+00 0. -1.
          6    1    1    2  502    0 -0.13468279276E+03  0.92464129919E+02 -0.20981796881E+04  0.21115470806E+04  0.17200000000E+03 0. -1.
         -6    1    1    2    0  501  0.13468279276E+03 -0.92464129919E+02 -0.78749480371E+03  0.82244825725E+03  0.17200000000E+03 0.  1.
</event>
<event>
 4    1  0.3141404E-002  0.1764862E+03  0.7818608E-02  0.1171248E+00
         -2   -1    0    0    0  501 -0.00000000000E+00  0.00000000000E+00  0.17916257775E+02  0.17916257775E+02  0.00000000000E+00 0.  1.
          2   -1    0    0  502    0  0.00000000000E+00 -0.00000000000E+00 -0.26238375360E+04  0.26238375360E+04  0.00000000000E+00 0. -1.
          6    1    1    2  502    0 -0.83827401856E+00  0.39530643411E+02 -0.53568951219E+03  0.56401296789E+03  0.17200000000E+03 0.  1.
         -6    1    1    2    0  501  0.83827401856E+00 -0.39530643411E+02 -0.20702317660E+04  0.20777408259E+04  0.17200000000E+03 0. -1.
</event>
<event>
 4    1  0.3141404E-002  0.1855981E+03  0.7818608E-02  0.1162493E+00
         -1   -1    0    0    0  501 -0.00000000000E+00  0.00000000000E+00  0.63174693508E+02  0.63174693508E+02  0.00000000000E+00 0.  1.
          1   -1    0    0  502    0  0.00000000000E+00 -0.00000000000E+00 -0.11352282507E+04  0.11352282507E+04  0.00000000000E+00 0. -1.
          6    1    1    2  502    0 -0.66868021380E+02  0.19782063599E+02 -0.96798866419E+03  0.98562098006E+03  0.17200000000E+03 0. -1.
         -6    1    1    2    0  501  0.66868021380E+02 -0.19782063599E+02 -0.10406489305E+03  0.21278196420E+03  0.17200000000E+03 0.  1.
</event>
<event>
 4    1  0.3141404E-002  0.2163353E+03  0.7818608E-02  0.1136645E+00
         -1   -1    0    0    0  501 -0.00000000000E+00  0.00000000000E+00  0.65055637386E+02  0.65055637386E+02  0.00000000000E+00 0.  1.
          1   -1    0    0  502    0  0.00000000000E+00 -0.00000000000E+00 -0.76277071422E+03  0.76277071422E+03  0.00000000000E+00 0. -1.
          6    1    1    2  502    0 -0.18286875476E+02 -0.12993293502E+03 -0.44755687563E+03  0.49709972273E+03  0.17200000000E+03 0. -1.
         -6    1    1    2    0  501  0.18286875476E+02  0.12993293502E+03 -0.25015820120E+03  0.33072662887E+03  0.17200000000E+03 0.  1.
</event>
<event>
 4    1  0.3141404E-002  0.1836085E+03  0.7818608E-02  0.1164356E+00
         -1   -1    0    0    0  501 -0.00000000000E+00  0.00000000000E+00  0.49687491520E+02  0.49687491520E+02  0.00000000000E+00 0.  1.
          1   -1    0    0  502    0  0.00000000000E+00 -0.00000000000E+00 -0.11254173007E+04  0.11254173007E+04  0.00000000000E+00 0. -1.
          6    1    1    2  502    0 -0.38767031933E+02 -0.51236708807E+02 -0.90812933707E+03  0.92650470907E+03  0.17200000000E+03 0. -1.
         -6    1    1    2    0  501  0.38767031933E+02  0.51236708807E+02 -0.16760047215E+03  0.24860008319E+03  0.17200000000E+03 0.  1.
</event>
<event>
 4    1  0.3141404E-002  0.2127505E+03  0.7818608E-02  0.1139406E+00
         -2   -1    0    0    0  501 -0.00000000000E+00  0.00000000000E+00  0.29145382165E+02  0.29145382165E+02  0.00000000000E+00 0.  1.
          2   -1    0    0  502    0  0.00000000000E+00 -0.00000000000E+00 -0.17733952024E+04  0.17733952024E+04  0.00000000000E+00 0. -1.
          6    1    1    2  502    0  0.12279305019E+03  0.24507920467E+02 -0.11898515294E+04  0.12087222316E+04  0.17200000000E+03 0. -1.
         -6    1    1    2    0  501 -0.12279305019E+03 -0.24507920467E+02 -0.55439829083E+03  0.59381835288E+03  0.17200000000E+03 0.  1.
</event>
<event>
 4    1  0.3141404E-002  0.1923742E+03  0.7818608E-02  0.1156337E+00
         -2   -1    0    0    0  501 -0.00000000000E+00  0.00000000000E+00  0.34433951282E+02  0.34433951282E+02  0.00000000000E+00 0.  1.
          2   -1    0    0  502    0  0.00000000000E+00 -0.00000000000E+00 -0.11038620598E+04  0.11038620598E+04  0.00000000000E+00 0. -1.
          6    1    1    2  502    0 -0.83888481688E+02 -0.19661447826E+02 -0.62714401830E+03  0.65598587605E+03  0.17200000000E+03 0.  1.
         -6    1    1    2    0  501  0.83888481688E+02  0.19661447826E+02 -0.44228409020E+03  0.48231013501E+03  0.17200000000E+03 0.  1.
</event>
<event>
 4    1  0.3141404E-002  0.4568962E+03  0.7818608E-02  0.1025685E+00
          1   -1    0    0  502    0  0.00000000000E+00  0.00000000000E+00  0.21703255645E+04  0.21703255645E+04  0.00000000000E+00 0. -1.
         -1   -1    0    0    0  501 -0.00000000000E+00 -0.00000000000E+00 -0.13148098476E+03  0.13148098476E+03  0.00000000000E+00 0.  1.
          6    1    1    2  502    0 -0.43002506726E+02 -0.42109495053E+03  0.16157239391E+04  0.16790824936E+04  0.17200000000E+03 0. -1.
         -6    1    1    2    0  501  0.43002506726E+02  0.42109495053E+03  0.42312064060E+03  0.62272405562E+03  0.17200000000E+03 0.  1.
</event>
<event>
 4    1  0.3141404E-002  0.2127899E+03  0.7818608E-02  0.1139376E+00
          1   -1    0    0  502    0  0.00000000000E+00  0.00000000000E+00  0.29434808909E+04  0.29434808909E+04  0.00000000000E+00 0. -1.
         -1   -1    0    0    0  501 -0.00000000000E+00 -0.00000000000E+00 -0.15383428471E+02  0.15383428471E+02  0.00000000000E+00 0.  1.
          6    1    1    2  502    0 -0.11365932688E+03  0.52698044330E+02  0.14561178269E+04  0.14715837224E+04  0.17200000000E+03 0.  1.
         -6    1    1    2    0  501  0.11365932688E+03 -0.52698044330E+02  0.14719796356E+04  0.14872805970E+04  0.17200000000E+03 0. -1.
</event>
<event>
 4    1  0.3141404E-002  0.2374392E+03  0.7818608E-02  0.1121511E+00
          2   -1    0    0  502    0  0.00000000000E+00  0.00000000000E+00  0.29546314989E+03  0.29546314989E+03  0.00000000000E+00 0. -1.
         -2   -1    0    0    0  501 -0.00000000000E+00 -0.00000000000E+00 -0.55222445847E+03  0.55222445847E+03  0.00000000000E+00 0.  1.
          6    1    1    2  502    0 -0.83481333984E+02 -0.14079857567E+03  0.21450607963E+03  0.31998473437E+03  0.17200000000E+03 0. -1.
         -6    1    1    2    0  501  0.83481333984E+02  0.14079857567E+03 -0.47126738821E+03  0.52770287399E+03  0.17200000000E+03 0.  1.
</event>
<event>
 4    1  0.3141404E-002  0.2194637E+03  0.7818608E-02  0.1134284E+00
         -1   -1    0    0    0  501 -0.00000000000E+00  0.00000000000E+00  0.85635089239E+02  0.85635089239E+02  0.00000000000E+00 0.  1.
          1   -1    0    0  502    0  0.00000000000E+00 -0.00000000000E+00 -0.66010542590E+03  0.66010542590E+03  0.00000000000E+00 0. -1.
          6    1    1    2  502    0  0.13213192977E+03  0.33488437511E+02 -0.14380889487E+03  0.26238391825E+03  0.17200000000E+03 0.  1.
         -6    1    1    2    0  501 -0.13213192977E+03 -0.33488437511E+02 -0.43066144180E+03  0.48335659690E+03  0.17200000000E+03 0.  1.
</event>
<event>
 4    1  0.3141404E-002  0.5799155E+03  0.7818608E-02  0.9947974E-01
          4   -1    0    0  502    0  0.00000000000E+00  0.00000000000E+00  0.11824535456E+04  0.11824535456E+04  0.00000000000E+00 0. -1.
         -4   -1    0    0    0  501 -0.00000000000E+00 -0.00000000000E+00 -0.32654611164E+03  0.32654611164E+03  0.00000000000E+00 0.  1.
          6    1    1    2  502    0  0.42875728306E+03  0.35054990478E+03  0.15692691639E+03  0.60077291934E+03  0.17200000000E+03 0. -1.
         -6    1    1    2    0  501 -0.42875728306E+03 -0.35054990478E+03  0.69898051760E+03  0.90822673794E+03  0.17200000000E+03 0.  1.
</event>
<event>
 4    1  0.3141404E-002  0.2683283E+03  0.7818608E-02  0.1102240E+00
         -3   -1    0    0    0  501 -0.00000000000E+00  0.00000000000E+00  0.71019616971E+03  0.71019616971E+03  0.00000000000E+00 0.  1.
          3   -1    0    0  502    0  0.00000000000E+00 -0.00000000000E+00 -0.10826164988E+03  0.10826164988E+03  0.00000000000E+00 0. -1.
          6    1    1    2  502    0  0.14754335911E+03  0.14369075554E+03  0.40413834940E+03  0.48510605181E+03  0.17200000000E+03 0.  1.
         -6    1    1    2    0  501 -0.14754335911E+03 -0.14369075554E+03  0.19779617044E+03  0.33335176779E+03  0.17200000000E+03 0. -1.
</event>
<event>
 4    1  0.3141404E-002  0.2143020E+03  0.7818608E-02  0.1138204E+00
          1   -1    0    0  502    0  0.00000000000E+00  0.00000000000E+00  0.56878348682E+03  0.56878348682E+03  0.00000000000E+00 0. -1.
         -1   -1    0    0    0  501 -0.00000000000E+00 -0.00000000000E+00 -0.26583825254E+03  0.26583825254E+03  0.00000000000E+00 0.  1.
          6    1    1    2  502    0 -0.26873450566E+02 -0.12497658882E+03  0.49968844458E+03  0.54370384562E+03  0.17200000000E+03 0. -1.
         -6    1    1    2    0  501  0.26873450566E+02  0.12497658882E+03 -0.19674321029E+03  0.29091789374E+03  0.17200000000E+03 0.  1.
</event>
<event>
 4    1  0.3141404E-002  0.2214401E+03  0.7818608E-02  0.1132814E+00
          2   -1    0    0  502    0  0.00000000000E+00  0.00000000000E+00  0.15918303221E+04  0.15918303221E+04  0.00000000000E+00 0. -1.
         -2   -1    0    0    0  501 -0.00000000000E+00 -0.00000000000E+00 -0.33334408241E+02  0.33334408241E+02  0.00000000000E+00 0.  1.
          6    1    1    2  502    0  0.11670876451E+03  0.76359544538E+02  0.10031013969E+04  0.10272527091E+04  0.17200000000E+03 0. -1.
         -6    1    1    2    0  501 -0.11670876451E+03 -0.76359544538E+02  0.55539451695E+03  0.59791202130E+03  0.17200000000E+03 0.  1.
</event>
<event>
 4    1  0.3141404E-002  0.1954265E+03  0.7818608E-02  0.1153656E+00
         -3   -1    0    0    0  501 -0.00000000000E+00  0.00000000000E+00  0.37815028510E+02  0.37815028510E+02  0.00000000000E+00 0.  1.
          3   -1    0    0  502    0  0.00000000000E+00 -0.00000000000E+00 -0.11051190554E+04  0.11051190554E+04  0.00000000000E+00 0. -1.
          6    1    1    2  502    0  0.86085680959E+02 -0.34594135672E+02 -0.70134767369E+03  0.72806597096E+03  0.17200000000E+03 0. -1.
         -6    1    1    2    0  501 -0.86085680959E+02  0.34594135672E+02 -0.36595635319E+03  0.41486811293E+03  0.17200000000E+03 0.  1.
</event>
<event>
 4    1  0.3141404E-002  0.3224980E+03  0.7818608E-02  0.1074505E+00
         -1   -1    0    0    0  501 -0.00000000000E+00  0.00000000000E+00  0.50798357724E+03  0.50798357724E+03  0.00000000000E+00 0.  1.
          1   -1    0    0  502    0  0.00000000000E+00 -0.00000000000E+00 -0.20822326910E+03  0.20822326910E+03  0.00000000000E+00 0. -1.
          6    1    1    2  502    0 -0.25815713014E+03 -0.88180844059E+02  0.19619149351E+03  0.37748651264E+03  0.17200000000E+03 0. -1.
         -6    1    1    2    0  501  0.25815713014E+03  0.88180844059E+02  0.10356881463E+03  0.33872033370E+03  0.17200000000E+03 0.  1.
</event>
<event>
 4    1  0.3141404E-002  0.1939511E+03  0.7818608E-02  0.1154945E+00
         -1   -1    0    0    0  501 -0.00000000000E+00  0.00000000000E+00  0.10089883390E+04  0.10089883390E+04  0.00000000000E+00 0.  1.
          1   -1    0    0  502    0  0.00000000000E+00 -0.00000000000E+00 -0.37666111611E+02  0.37666111611E+02  0.00000000000E+00 0. -1.
          6    1    1    2  502    0  0.44671554820E+02  0.77701331802E+02  0.53851286902E+03  0.57237501245E+03  0.17200000000E+03 0.  1.
         -6    1    1    2    0  501 -0.44671554820E+02 -0.77701331802E+02  0.43280935837E+03  0.47427943817E+03  0.17200000000E+03 0.  1.
</event>
<event>
 4    1  0.3141404E-002  0.5220624E+03  0.7818608E-02  0.1008176E+00
          2   -1    0    0  502    0  0.00000000000E+00  0.00000000000E+00  0.88722631951E+03  0.88722631951E+03  0.00000000000E+00 0. -1.
         -2   -1    0    0    0  501 -0.00000000000E+00 -0.00000000000E+00 -0.45458527536E+03  0.45458527536E+03  0.00000000000E+00 0.  1.
          6    1    1    2  502    0 -0.38534197281E+03 -0.30737060093E+03  0.59834589471E+03  0.79408244663E+03  0.17200000000E+03 0. -1.
         -6    1    1    2    0  501  0.38534197281E+03  0.30737060093E+03 -0.16570485057E+03  0.54772914824E+03  0.17200000000E+03 0.  1.
</event>
<event>
 4    1  0.3141404E-002  0.1767145E+03  0.7818608E-02  0.1171021E+00
         -1   -1    0    0    0  501 -0.00000000000E+00  0.00000000000E+00  0.15263487293E+03  0.15263487293E+03  0.00000000000E+00 0.  1.
          1   -1    0    0  502    0  0.00000000000E+00 -0.00000000000E+00 -0.90142654740E+03  0.90142654740E+03  0.00000000000E+00 0. -1.
          6    1    1    2  502    0 -0.12125404802E+02  0.38691111874E+02 -0.83777369082E+03  0.85620837686E+03  0.17200000000E+03 0. -1.
         -6    1    1    2    0  501  0.12125404802E+02 -0.38691111874E+02  0.88982016344E+02  0.19785304347E+03  0.17200000000E+03 0.  1.
</event>
<event>
 4    1  0.3141404E-002  0.3064862E+03  0.7818608E-02  0.1082042E+00
          2   -1    0    0  502    0  0.00000000000E+00  0.00000000000E+00  0.12347157816E+04  0.12347157816E+04  0.00000000000E+00 0. -1.
         -2   -1    0    0    0  501 -0.00000000000E+00 -0.00000000000E+00 -0.10736183189E+03  0.10736183189E+03  0.00000000000E+00 0.  1.
          6    1    1    2  502    0 -0.22147411774E+03  0.12368919857E+03  0.92590974469E+03  0.97531669625E+03  0.17200000000E+03 0. -1.
         -6    1    1    2    0  501  0.22147411774E+03 -0.12368919857E+03  0.20144420501E+03  0.36676091722E+03  0.17200000000E+03 0.  1.
</event>
<event>
 4    1  0.3141404E-002  0.2120674E+03  0.7818608E-02  0.1139939E+00
         -1   -1    0    0    0  501 -0.00000000000E+00  0.00000000000E+00  0.15910501335E+03  0.15910501335E+03  0.00000000000E+00 0.  1.
          1   -1    0    0  502    0  0.00000000000E+00 -0.00000000000E+00 -0.60173044381E+03  0.60173044381E+03  0.00000000000E+00 0. -1.
          6    1    1    2  502    0  0.12392440180E+03 -0.55975586927E+01 -0.49832765094E+03  0.54157459109E+03  0.17200000000E+03 0. -1.
         -6    1    1    2    0  501 -0.12392440180E+03  0.55975586927E+01  0.55702220481E+02  0.21926086607E+03  0.17200000000E+03 0.  1.
</event>
<event>
 4    1  0.3141404E-002  0.1937002E+03  0.7818608E-02  0.1155166E+00
         -2   -1    0    0    0  501 -0.00000000000E+00  0.00000000000E+00  0.11944583185E+03  0.11944583185E+03  0.00000000000E+00 0.  1.
          2   -1    0    0  502    0  0.00000000000E+00 -0.00000000000E+00 -0.31412063871E+03  0.31412063871E+03  0.00000000000E+00 0. -1.
          6    1    1    2  502    0  0.92799371280E+01 -0.88598221615E+02 -0.98231950874E+02  0.21718489422E+03  0.17200000000E+03 0. -1.
         -6    1    1    2    0  501 -0.92799371280E+01  0.88598221615E+02 -0.96442855983E+02  0.21638157633E+03  0.17200000000E+03 0.  1.
</event>
<event>
 4    1  0.3141404E-002  0.1979230E+03  0.7818608E-02  0.1151503E+00
         -2   -1    0    0    0  501 -0.00000000000E+00  0.00000000000E+00  0.11795205881E+03  0.11795205881E+03  0.00000000000E+00 0.  1.
          2   -1    0    0  502    0  0.00000000000E+00 -0.00000000000E+00 -0.18305145958E+04  0.18305145958E+04  0.00000000000E+00 0. -1.
          6    1    1    2  502    0  0.85424702124E+00  0.97922309582E+02 -0.17377164465E+04  0.17489516737E+04  0.17200000000E+03 0. -1.
         -6    1    1    2    0  501 -0.85424702124E+00 -0.97922309582E+02  0.25153909505E+02  0.19951498093E+03  0.17200000000E+03 0.  1.
</event>
<event>
 4    1  0.3141404E-002  0.2121891E+03  0.7818608E-02  0.1139844E+00
          2   -1    0    0  502    0  0.00000000000E+00  0.00000000000E+00  0.17831309963E+03  0.17831309963E+03  0.00000000000E+00 0. -1.
         -2   -1    0    0    0  501 -0.00000000000E+00 -0.00000000000E+00 -0.40772724182E+03  0.40772724182E+03  0.00000000000E+00 0.  1.
          6    1    1    2  502    0  0.11478823441E+03  0.47580061601E+02  0.66091709929E+02  0.22224381913E+03  0.17200000000E+03 0. -1.
         -6    1    1    2    0  501 -0.11478823441E+03 -0.47580061601E+02 -0.29550585212E+03  0.36379652233E+03  0.17200000000E+03 0.  1.
</event>
<event>
 4    1  0.3141404E-002  0.2457160E+03  0.7818608E-02  0.1116043E+00
         -1   -1    0    0    0  501 -0.00000000000E+00  0.00000000000E+00  0.78646089446E+03  0.78646089446E+03  0.00000000000E+00 0.  1.
          1   -1    0    0  502    0  0.00000000000E+00 -0.00000000000E+00 -0.76894480337E+02  0.76894480337E+02  0.00000000000E+00 0. -1.
          6    1    1    2  502    0  0.47861210524E+02 -0.16882434098E+03  0.33739260448E+03  0.41738486214E+03  0.17200000000E+03 0.  1.
         -6    1    1    2    0  501 -0.47861210524E+02  0.16882434098E+03  0.37217380965E+03  0.44597051267E+03  0.17200000000E+03 0.  1.
</event>
<event>
 4    1  0.3141404E-002  0.1957111E+03  0.7818608E-02  0.1153409E+00
          1   -1    0    0  502    0  0.00000000000E+00  0.00000000000E+00  0.84806923330E+03  0.84806923330E+03  0.00000000000E+00 0. -1.
         -1   -1    0    0    0  501 -0.00000000000E+00 -0.00000000000E+00 -0.10681379908E+03  0.10681379908E+03  0.00000000000E+00 0.  1.
          6    1    1    2  502    0 -0.58656814556E+02 -0.72651315890E+02  0.73334620125E+03  0.75901217809E+03  0.17200000000E+03 0. -1.
         -6    1    1    2    0  501  0.58656814556E+02  0.72651315890E+02  0.79092329726E+01  0.19587085429E+03  0.17200000000E+03 0.  1.
</event>
<event>
 4    1  0.3141404E-002  0.2231321E+03  0.7818608E-02  0.1131569E+00
          2   -1    0    0  502    0  0.00000000000E+00  0.00000000000E+00  0.20508471834E+03  0.20508471834E+03  0.00000000000E+00 0. -1.
         -2   -1    0    0    0  501 -0.00000000000E+00 -0.00000000000E+00 -0.28240841264E+03  0.28240841264E+03  0.00000000000E+00 0.  1.
          6    1    1    2  502    0 -0.14011907529E+02 -0.14144815510E+03  0.52659277514E+02  0.22926167068E+03  0.17200000000E+03 0. -1.
         -6    1    1    2    0  501  0.14011907529E+02  0.14144815510E+03 -0.12998297181E+03  0.25823146031E+03  0.17200000000E+03 0.  1.
</event>
<event>
 4    1  0.3141404E-002  0.2558423E+03  0.7818608E-02  0.1109667E+00
          2   -1    0    0  502    0  0.00000000000E+00  0.00000000000E+00  0.15505992921E+04  0.15505992921E+04  0.00000000000E+00 0. -1.
         -2   -1    0    0    0  501 -0.00000000000E+00 -0.00000000000E+00 -0.46482955266E+02  0.46482955266E+02  0.00000000000E+00 0.  1.
          6    1    1    2  502    0  0.18234437076E+03 -0.51203650825E+02  0.99408720878E+03  0.10264816910E+04  0.17200000000E+03 0. -1.
         -6    1    1    2    0  501 -0.18234437076E+03  0.51203650825E+02  0.51002912805E+03  0.57060055632E+03  0.17200000000E+03 0.  1.
</event>
<event>
 4    1  0.3141404E-002  0.3532377E+03  0.7818608E-02  0.1061294E+00
          2   -1    0    0  502    0  0.00000000000E+00  0.00000000000E+00  0.24039827723E+03  0.24039827723E+03  0.00000000000E+00 0. -1.
         -2   -1    0    0    0  501 -0.00000000000E+00 -0.00000000000E+00 -0.14888460547E+04  0.14888460547E+04  0.00000000000E+00 0.  1.
          6    1    1    2  502    0 -0.26894186993E+03  0.15120572027E+03  0.73596052219E+02  0.36082305656E+03  0.17200000000E+03 0. -1.
         -6    1    1    2    0  501  0.26894186993E+03 -0.15120572027E+03 -0.13220438297E+04  0.13684212753E+04  0.17200000000E+03 0.  1.
</event>
<event>
 4    1  0.3141404E-002  0.2065062E+03  0.7818608E-02  0.1144363E+00
          1   -1    0    0  502    0  0.00000000000E+00  0.00000000000E+00  0.76028383826E+02  0.76028383826E+02  0.00000000000E+00 0. -1.
         -1   -1    0    0    0  501 -0.00000000000E+00 -0.00000000000E+00 -0.58790576622E+03  0.58790576622E+03  0.00000000000E+00 0.  1.
          6    1    1    2  502    0  0.50447211547E+02 -0.10254694891E+03 -0.18479786434E+03  0.27711919556E+03  0.17200000000E+03 0. -1.
         -6    1    1    2    0  501 -0.50447211547E+02  0.10254694891E+03 -0.32707951805E+03  0.38681495448E+03  0.17200000000E+03 0.  1.
</event>
<event>
 4    1  0.3141404E-002  0.2451167E+03  0.7818608E-02  0.1116430E+00
         -1   -1    0    0    0  501 -0.00000000000E+00  0.00000000000E+00  0.14525835772E+03  0.14525835772E+03  0.00000000000E+00 0.  1.
          1   -1    0    0  502    0  0.00000000000E+00 -0.00000000000E+00 -0.45183084651E+03  0.45183084651E+03  0.00000000000E+00 0. -1.
          6    1    1    2  502    0  0.30725052336E+02 -0.17191327088E+03 -0.24010177308E+03  0.34311960449E+03  0.17200000000E+03 0. -1.
         -6    1    1    2    0  501 -0.30725052336E+02  0.17191327088E+03 -0.66470715717E+02  0.25396959974E+03  0.17200000000E+03 0.  1.
</event>
<event>
 4    1  0.3141404E-002  0.2010499E+03  0.7818608E-02  0.1148856E+00
          1   -1    0    0  502    0  0.00000000000E+00  0.00000000000E+00  0.21710637398E+03  0.21710637398E+03  0.00000000000E+00 0. -1.
         -1   -1    0    0    0  501 -0.00000000000E+00 -0.00000000000E+00 -0.23388383715E+03  0.23388383715E+03  0.00000000000E+00 0.  1.
          6    1    1    2  502    0  0.42837559579E+02  0.94878929909E+02 -0.11022662622E+03  0.22928361690E+03  0.17200000000E+03 0.  1.
         -6    1    1    2    0  501 -0.42837559579E+02 -0.94878929909E+02  0.93449163045E+02  0.22170659423E+03  0.17200000000E+03 0. -1.
</event>
<event>
 4    1  0.3141404E-002  0.3241760E+03  0.7818608E-02  0.1073743E+00
          1   -1    0    0  502    0  0.00000000000E+00  0.00000000000E+00  0.11767885357E+04  0.11767885357E+04  0.00000000000E+00 0. -1.
         -1   -1    0    0    0  501 -0.00000000000E+00 -0.00000000000E+00 -0.16110735696E+03  0.16110735696E+03  0.00000000000E+00 0.  1.
          6    1    1    2  502    0  0.24421260954E+03 -0.12596141536E+03  0.95443343171E+03  0.10079847481E+04  0.17200000000E+03 0. -1.
         -6    1    1    2    0  501 -0.24421260954E+03  0.12596141536E+03  0.61247747067E+02  0.32991114461E+03  0.17200000000E+03 0.  1.
</event>
<event>
 4    1  0.3141404E-002  0.1840557E+03  0.7818608E-02  0.1163935E+00
         -2   -1    0    0    0  501 -0.00000000000E+00  0.00000000000E+00  0.64761516569E+02  0.64761516569E+02  0.00000000000E+00 0.  1.
          2   -1    0    0  502    0  0.00000000000E+00 -0.00000000000E+00 -0.55920896464E+03  0.55920896464E+03  0.00000000000E+00 0. -1.
          6    1    1    2  502    0 -0.47428140949E+02  0.45200203948E+02 -0.16794094544E+03  0.24915988470E+03  0.17200000000E+03 0.  1.
         -6    1    1    2    0  501  0.47428140949E+02 -0.45200203948E+02 -0.32650650263E+03  0.37481059650E+03  0.17200000000E+03 0. -1.
</event>
<event>
 4    1  0.3141404E-002  0.3738987E+03  0.7818608E-02  0.1053212E+00
         -4   -1    0    0    0  501 -0.00000000000E+00  0.00000000000E+00  0.55271758818E+03  0.55271758818E+03  0.00000000000E+00 0.  1.
          4   -1    0    0  502    0  0.00000000000E+00 -0.00000000000E+00 -0.25441487258E+03  0.25441487258E+03  0.00000000000E+00 0. -1.
          6    1    1    2  502    0 -0.26275704124E+03 -0.20291618819E+03  0.17995641724E+03  0.41495126733E+03  0.17200000000E+03 0. -1.
         -6    1    1    2    0  501  0.26275704124E+03  0.20291618819E+03  0.11834629835E+03  0.39218119344E+03  0.17200000000E+03 0.  1.
</event>
<event>
 4    1  0.3141404E-002  0.4098558E+03  0.7818608E-02  0.1040419E+00
          2   -1    0    0  502    0  0.00000000000E+00  0.00000000000E+00  0.81999545470E+03  0.81999545470E+03  0.00000000000E+00 0. -1.
         -2   -1    0    0    0  501 -0.00000000000E+00 -0.00000000000E+00 -0.23245138430E+03  0.23245138430E+03  0.00000000000E+00 0.  1.
          6    1    1    2  502    0 -0.20480354974E+03  0.31056925905E+03  0.47507918888E+03  0.62744082937E+03  0.17200000000E+03 0. -1.
         -6    1    1    2    0  501  0.20480354974E+03 -0.31056925905E+03  0.11246488151E+03  0.42500600963E+03  0.17200000000E+03 0.  1.
</event>
<event>
 4    1  0.3141404E-002  0.2134952E+03  0.7818608E-02  0.1138828E+00
         -1   -1    0    0    0  501 -0.00000000000E+00  0.00000000000E+00  0.18034048374E+03  0.18034048374E+03  0.00000000000E+00 0.  1.
          1   -1    0    0  502    0  0.00000000000E+00 -0.00000000000E+00 -0.81534220864E+03  0.81534220864E+03  0.00000000000E+00 0. -1.
          6    1    1    2  502    0  0.12539558282E+03  0.16497141440E+02 -0.73104291045E+03  0.76157990046E+03  0.17200000000E+03 0. -1.
         -6    1    1    2    0  501 -0.12539558282E+03 -0.16497141440E+02  0.96041185548E+02  0.23410279192E+03  0.17200000000E+03 0.  1.
</event>
<event>
 4    1  0.3141404E-002  0.4998385E+03  0.7818608E-02  0.1013821E+00
          1   -1    0    0  502    0  0.00000000000E+00  0.00000000000E+00  0.26636039938E+04  0.26636039938E+04  0.00000000000E+00 0. -1.
         -1   -1    0    0    0  501 -0.00000000000E+00 -0.00000000000E+00 -0.10245495877E+03  0.10245495877E+03  0.00000000000E+00 0.  1.
          6    1    1    2  502    0 -0.28316518445E+02 -0.46845781107E+03  0.16826134964E+04  0.17552853683E+04  0.17200000000E+03 0.  1.
         -6    1    1    2    0  501  0.28316518445E+02  0.46845781107E+03  0.87853553862E+03  0.10107735842E+04  0.17200000000E+03 0.  1.
</event>
<event>
 4    1  0.3141404E-002  0.1731793E+03  0.7818608E-02  0.1174572E+00
         -2   -1    0    0    0  501 -0.00000000000E+00  0.00000000000E+00  0.10054503822E+03  0.10054503822E+03  0.00000000000E+00 0.  1.
          2   -1    0    0  502    0  0.00000000000E+00 -0.00000000000E+00 -0.48537311725E+03  0.48537311725E+03  0.00000000000E+00 0. -1.
          6    1    1    2  502    0  0.12768125563E+02  0.15621664994E+02 -0.10530926423E+02  0.17349916962E+03  0.17200000000E+03 0.  1.
         -6    1    1    2    0  501 -0.12768125563E+02 -0.15621664994E+02 -0.37429715261E+03  0.41241898586E+03  0.17200000000E+03 0. -1.
</event>
<event>
 4    1  0.3141404E-002  0.1827162E+03  0.7818608E-02  0.1165200E+00
         -4   -1    0    0    0  501 -0.00000000000E+00  0.00000000000E+00  0.19947744991E+03  0.19947744991E+03  0.00000000000E+00 0.  1.
          4   -1    0    0  502    0  0.00000000000E+00 -0.00000000000E+00 -0.17712517177E+03  0.17712517177E+03  0.00000000000E+00 0. -1.
          6    1    1    2  502    0 -0.58160588936E+02 -0.20458613837E+02  0.55381936286E+02  0.19092503202E+03  0.17200000000E+03 0. -1.
         -6    1    1    2    0  501  0.58160588936E+02  0.20458613837E+02 -0.33029658149E+02  0.18567758966E+03  0.17200000000E+03 0. -1.
</event>
<event>
 4    1  0.3141404E-002  0.2637352E+03  0.7818608E-02  0.1104920E+00
         -1   -1    0    0    0  501 -0.00000000000E+00  0.00000000000E+00  0.71057985323E+02  0.71057985323E+02  0.00000000000E+00 0.  1.
          1   -1    0    0  502    0  0.00000000000E+00 -0.00000000000E+00 -0.13757235502E+04  0.13757235502E+04  0.00000000000E+00 0. -1.
          6    1    1    2  502    0  0.14140774406E+03 -0.14133687274E+03 -0.26380276490E+03  0.37302568336E+03  0.17200000000E+03 0.  1.
         -6    1    1    2    0  501 -0.14140774406E+03  0.14133687274E+03 -0.10408627999E+04  0.10737558521E+04  0.17200000000E+03 0. -1.
</event>
<event>
 4    1  0.3141404E-002  0.2108093E+03  0.7818608E-02  0.1140927E+00
          4   -1    0    0  502    0  0.00000000000E+00  0.00000000000E+00  0.60033195975E+02  0.60033195975E+02  0.00000000000E+00 0. -1.
         -4   -1    0    0    0  501 -0.00000000000E+00 -0.00000000000E+00 -0.84848063786E+03  0.84848063786E+03  0.00000000000E+00 0.  1.
          6    1    1    2  502    0  0.12108663153E+03 -0.13949360273E+02 -0.55645059982E+03  0.59504439080E+03  0.17200000000E+03 0.  1.
         -6    1    1    2    0  501 -0.12108663153E+03  0.13949360273E+02 -0.23199684207E+03  0.31346944304E+03  0.17200000000E+03 0. -1.
</event>
<event>
 4    1  0.3141404E-002  0.2852436E+03  0.7818608E-02  0.1092859E+00
          2   -1    0    0  502    0  0.00000000000E+00  0.00000000000E+00  0.12091502091E+03  0.12091502091E+03  0.00000000000E+00 0. -1.
         -2   -1    0    0    0  501 -0.00000000000E+00 -0.00000000000E+00 -0.87779271015E+03  0.87779271015E+03  0.00000000000E+00 0.  1.
          6    1    1    2  502    0  0.15152020095E+03  0.16976906784E+03 -0.61969256442E+03  0.68218969656E+03  0.17200000000E+03 0. -1.
         -6    1    1    2    0  501 -0.15152020095E+03 -0.16976906784E+03 -0.13718512482E+03  0.31651803450E+03  0.17200000000E+03 0. -1.
</event>
<event>
 4    1  0.3141404E-002  0.3133864E+03  0.7818608E-02  0.1078734E+00
          2   -1    0    0  502    0  0.00000000000E+00  0.00000000000E+00  0.11561889598E+04  0.11561889598E+04  0.00000000000E+00 0. -1.
         -2   -1    0    0    0  501 -0.00000000000E+00 -0.00000000000E+00 -0.10201227859E+03  0.10201227859E+03  0.00000000000E+00 0.  1.
          6    1    1    2  502    0 -0.12352365323E+03  0.23101712675E+03  0.78441936728E+03  0.84470394194E+03  0.17200000000E+03 0. -1.
         -6    1    1    2    0  501  0.12352365323E+03 -0.23101712675E+03  0.26975731396E+03  0.41349729648E+03  0.17200000000E+03 0.  1.
</event>
<event>
 4    1  0.3141404E-002  0.2952787E+03  0.7818608E-02  0.1087625E+00
          2   -1    0    0  502    0  0.00000000000E+00  0.00000000000E+00  0.21556261334E+03  0.21556261334E+03  0.00000000000E+00 0. -1.
         -2   -1    0    0    0  501 -0.00000000000E+00 -0.00000000000E+00 -0.46891821853E+03  0.46891821853E+03  0.00000000000E+00 0.  1.
          6    1    1    2  502    0 -0.23833929936E+03 -0.28281800537E+02  0.19676521954E+00  0.29527871677E+03  0.17200000000E+03 0. -1.
         -6    1    1    2    0  501  0.23833929936E+03  0.28281800537E+02 -0.25355237041E+03  0.38920211510E+03  0.17200000000E+03 0.  1.
</event>
<event>
 4    1  0.3141404E-002  0.1925314E+03  0.7818608E-02  0.1156198E+00
         -1   -1    0    0    0  501 -0.00000000000E+00  0.00000000000E+00  0.52336214792E+02  0.52336214792E+02  0.00000000000E+00 0.  1.
          1   -1    0    0  502    0  0.00000000000E+00 -0.00000000000E+00 -0.78950415174E+03  0.78950415174E+03  0.00000000000E+00 0. -1.
          6    1    1    2  502    0  0.52149805243E+02  0.69026943151E+02 -0.50359964414E+03  0.53914833084E+03  0.17200000000E+03 0. -1.
         -6    1    1    2    0  501 -0.52149805243E+02 -0.69026943151E+02 -0.23356829281E+03  0.30269203570E+03  0.17200000000E+03 0.  1.
</event>
<event>
 4    1  0.3141404E-002  0.3605767E+03  0.7818608E-02  0.1058356E+00
          2   -1    0    0  502    0  0.00000000000E+00  0.00000000000E+00  0.13705485802E+04  0.13705485802E+04  0.00000000000E+00 0. -1.
         -2   -1    0    0    0  501 -0.00000000000E+00 -0.00000000000E+00 -0.98808218323E+02  0.98808218323E+02  0.00000000000E+00 0.  1.
          6    1    1    2  502    0 -0.24929899159E+03  0.19565670340E+03  0.78265757154E+03  0.86172408988E+03  0.17200000000E+03 0. -1.
         -6    1    1    2    0  501  0.24929899159E+03 -0.19565670340E+03  0.48908279030E+03  0.60763270860E+03  0.17200000000E+03 0.  1.
</event>
<event>
 4    1  0.3141404E-002  0.1925341E+03  0.7818608E-02  0.1156195E+00
         -2   -1    0    0    0  501 -0.00000000000E+00  0.00000000000E+00  0.10107842379E+03  0.10107842379E+03  0.00000000000E+00 0.  1.
          2   -1    0    0  502    0  0.00000000000E+00 -0.00000000000E+00 -0.46739160610E+03  0.46739160610E+03  0.00000000000E+00 0. -1.
          6    1    1    2  502    0  0.85990626375E+02 -0.95385004778E+01 -0.31505825067E+03  0.36923037813E+03  0.17200000000E+03 0. -1.
         -6    1    1    2    0  501 -0.85990626375E+02  0.95385004778E+01 -0.51254931642E+02  0.19923965176E+03  0.17200000000E+03 0.  1.
</event>
<event>
 4    1  0.3141404E-002  0.3270723E+03  0.7818608E-02  0.1072440E+00
          2   -1    0    0  502    0  0.00000000000E+00  0.00000000000E+00  0.29642280258E+04  0.29642280258E+04  0.00000000000E+00 0. -1.
         -2   -1    0    0    0  501 -0.00000000000E+00 -0.00000000000E+00 -0.71623803851E+02  0.71623803851E+02  0.00000000000E+00 0.  1.
          6    1    1    2  502    0  0.10258764823E+03 -0.25858854249E+03  0.25154760441E+04  0.25366505452E+04  0.17200000000E+03 0. -1.
         -6    1    1    2    0  501 -0.10258764823E+03  0.25858854249E+03  0.37712817777E+03  0.49920128440E+03  0.17200000000E+03 0.  1.
</event>
<event>
 4    1  0.3141404E-002  0.3735181E+03  0.7818608E-02  0.1053356E+00
          2   -1    0    0  502    0  0.00000000000E+00  0.00000000000E+00  0.48810019229E+04  0.48810019229E+04  0.00000000000E+00 0. -1.
         -2   -1    0    0    0  501 -0.00000000000E+00 -0.00000000000E+00 -0.28588358255E+02  0.28588358255E+02  0.00000000000E+00 0.  1.
          6    1    1    2  502    0 -0.29098060416E+03  0.15894034971E+03  0.24584574075E+04  0.24866701774E+04  0.17200000000E+03 0. -1.
         -6    1    1    2    0  501  0.29098060416E+03 -0.15894034971E+03  0.23939561571E+04  0.24229201037E+04  0.17200000000E+03 0.  1.
</event>
<event>
 4    1  0.3141404E-002  0.2815899E+03  0.7818608E-02  0.1094824E+00
          2   -1    0    0  502    0  0.00000000000E+00  0.00000000000E+00  0.11063255180E+04  0.11063255180E+04  0.00000000000E+00 0. -1.
         -2   -1    0    0    0  501 -0.00000000000E+00 -0.00000000000E+00 -0.82583235099E+02  0.82583235099E+02  0.00000000000E+00 0.  1.
          6    1    1    2  502    0 -0.39821783980E+01 -0.22291929343E+03  0.72794589395E+03  0.78051143083E+03  0.17200000000E+03 0. -1.
         -6    1    1    2    0  501  0.39821783980E+01  0.22291929343E+03  0.29579638898E+03  0.40839732230E+03  0.17200000000E+03 0.  1.
</event>
<event>
 4    1  0.3141404E-002  0.2429908E+03  0.7818608E-02  0.1117816E+00
         -2   -1    0    0    0  501 -0.00000000000E+00  0.00000000000E+00  0.21261531400E+03  0.21261531400E+03  0.00000000000E+00 0.  1.
          2   -1    0    0  502    0  0.00000000000E+00 -0.00000000000E+00 -0.27773449672E+03  0.27773449672E+03  0.00000000000E+00 0. -1.
          6    1    1    2  502    0  0.15912583954E+03 -0.64338839922E+02 -0.35049048257E+02  0.24550550893E+03  0.17200000000E+03 0. -1.
         -6    1    1    2    0  501 -0.15912583954E+03  0.64338839922E+02 -0.30070134465E+02  0.24484430179E+03  0.17200000000E+03 0.  1.
</event>
<event>
 4    1  0.3141404E-002  0.1934374E+03  0.7818608E-02  0.1155397E+00
          4   -1    0    0  502    0  0.00000000000E+00  0.00000000000E+00  0.10767194057E+03  0.10767194057E+03  0.00000000000E+00 0. -1.
         -4   -1    0    0    0  501 -0.00000000000E+00 -0.00000000000E+00 -0.41094849242E+03  0.41094849242E+03  0.00000000000E+00 0.  1.
          6    1    1    2  502    0 -0.76159718425E+02  0.45097003100E+02 -0.49762334196E+02  0.19973565607E+03  0.17200000000E+03 0. -1.
         -6    1    1    2    0  501  0.76159718425E+02 -0.45097003100E+02 -0.25351421766E+03  0.31888477692E+03  0.17200000000E+03 0.  1.
</event>
<event>
 4    1  0.3141404E-002  0.2530567E+03  0.7818608E-02  0.1111388E+00
         -2   -1    0    0    0  501 -0.00000000000E+00  0.00000000000E+00  0.68912683661E+02  0.68912683661E+02  0.00000000000E+00 0.  1.
          2   -1    0    0  502    0  0.00000000000E+00 -0.00000000000E+00 -0.93225508593E+03  0.93225508593E+03  0.00000000000E+00 0. -1.
          6    1    1    2  502    0 -0.74230753588E+02  0.17012785912E+03 -0.46005214738E+03  0.52505777924E+03  0.17200000000E+03 0. -1.
         -6    1    1    2    0  501  0.74230753588E+02 -0.17012785912E+03 -0.40329025489E+03  0.47610999036E+03  0.17200000000E+03 0. -1.
</event>
<event>
 4    1  0.3141404E-002  0.4085610E+03  0.7818608E-02  0.1040855E+00
         -1   -1    0    0    0  501 -0.00000000000E+00  0.00000000000E+00  0.63162704728E+03  0.63162704728E+03  0.00000000000E+00 0.  1.
          1   -1    0    0  502    0  0.00000000000E+00 -0.00000000000E+00 -0.37519694724E+03  0.37519694724E+03  0.00000000000E+00 0. -1.
          6    1    1    2  502    0 -0.21946414365E+03 -0.29861943365E+03  0.40193487618E+03  0.57312626985E+03  0.17200000000E+03 0. -1.
         -6    1    1    2    0  501  0.21946414365E+03  0.29861943365E+03 -0.14550477614E+03  0.43369772467E+03  0.17200000000E+03 0.  1.
</event>
<event>
 4    1  0.3141404E-002  0.2191611E+03  0.7818608E-02  0.1134510E+00
         -2   -1    0    0    0  501 -0.00000000000E+00  0.00000000000E+00  0.74375072530E+02  0.74375072530E+02  0.00000000000E+00 0.  1.
          2   -1    0    0  502    0  0.00000000000E+00 -0.00000000000E+00 -0.77714951222E+03  0.77714951222E+03  0.00000000000E+00 0. -1.
          6    1    1    2  502    0  0.31824949952E+01  0.13578454750E+03 -0.52642258671E+03  0.57022128285E+03  0.17200000000E+03 0.  1.
         -6    1    1    2    0  501 -0.31824949952E+01 -0.13578454750E+03 -0.17635185298E+03  0.28130330191E+03  0.17200000000E+03 0.  1.
</event>
<event>
 4    1  0.3141404E-002  0.1162903E+04  0.7818608E-02  0.9145962E-01
          2   -1    0    0  502    0  0.00000000000E+00  0.00000000000E+00  0.18019555319E+04  0.18019555319E+04  0.00000000000E+00 0. -1.
         -2   -1    0    0    0  501 -0.00000000000E+00 -0.00000000000E+00 -0.86291718353E+03  0.86291718353E+03  0.00000000000E+00 0.  1.
          6    1    1    2  502    0  0.11500390420E+04  0.13020266946E+02 -0.11435682435E+02  0.11629591997E+04  0.17200000000E+03 0. -1.
         -6    1    1    2    0  501 -0.11500390420E+04 -0.13020266946E+02  0.95047403082E+03  0.15019135157E+04  0.17200000000E+03 0.  1.
</event>
<event>
 4    1  0.3141404E-002  0.1838644E+03  0.7818608E-02  0.1164115E+00
          2   -1    0    0  502    0  0.00000000000E+00  0.00000000000E+00  0.34049836935E+03  0.34049836935E+03  0.00000000000E+00 0. -1.
         -2   -1    0    0    0  501 -0.00000000000E+00 -0.00000000000E+00 -0.25541957170E+03  0.25541957170E+03  0.00000000000E+00 0.  1.
          6    1    1    2  502    0  0.62387367241E+02 -0.18164092194E+02  0.27549866538E+03  0.33121840598E+03  0.17200000000E+03 0. -1.
         -6    1    1    2    0  501 -0.62387367241E+02  0.18164092194E+02 -0.19041986773E+03  0.26469953506E+03  0.17200000000E+03 0.  1.
</event>
<event>
 4    1  0.3141404E-002  0.2897865E+03  0.7818608E-02  0.1090461E+00
         -1   -1    0    0    0  501 -0.00000000000E+00  0.00000000000E+00  0.29768777163E+03  0.29768777163E+03  0.00000000000E+00 0.  1.
          1   -1    0    0  502    0  0.00000000000E+00 -0.00000000000E+00 -0.44819971182E+03  0.44819971182E+03  0.00000000000E+00 0. -1.
          6    1    1    2  502    0 -0.23206875741E+03  0.23158373646E+02 -0.30229398067E+03  0.41875753030E+03  0.17200000000E+03 0. -1.
         -6    1    1    2    0  501  0.23206875741E+03 -0.23158373646E+02  0.15178204047E+03  0.32712995315E+03  0.17200000000E+03 0.  1.
</event>
<event>
 4    1  0.3141404E-002  0.2326274E+03  0.7818608E-02  0.1124804E+00
         -2   -1    0    0    0  501 -0.00000000000E+00  0.00000000000E+00  0.64703808737E+02  0.64703808737E+02  0.00000000000E+00 0.  1.
          2   -1    0    0  502    0  0.00000000000E+00 -0.00000000000E+00 -0.89986129989E+03  0.89986129989E+03  0.00000000000E+00 0. -1.
          6    1    1    2  502    0 -0.63026939488E+02 -0.14338448374E+03 -0.54569793232E+03  0.59321306342E+03  0.17200000000E+03 0. -1.
         -6    1    1    2    0  501  0.63026939488E+02  0.14338448374E+03 -0.28945955884E+03  0.37135204521E+03  0.17200000000E+03 0.  1.
</event>
<event>
 4    1  0.3141404E-002  0.3604651E+03  0.7818608E-02  0.1058400E+00
          2   -1    0    0  502    0  0.00000000000E+00  0.00000000000E+00  0.15161843357E+04  0.15161843357E+04  0.00000000000E+00 0. -1.
         -2   -1    0    0    0  501 -0.00000000000E+00 -0.00000000000E+00 -0.13794634319E+03  0.13794634319E+03  0.00000000000E+00 0.  1.
          6    1    1    2  502    0 -0.72010994952E+02 -0.30848908492E+03  0.11981191092E+04  0.12511692527E+04  0.17200000000E+03 0. -1.
         -6    1    1    2    0  501  0.72010994952E+02  0.30848908492E+03  0.18011888328E+03  0.40296142622E+03  0.17200000000E+03 0.  1.
</event>
<event>
 4    1  0.3141404E-002  0.7730960E+03  0.7818608E-02  0.9599797E-01
          1   -1    0    0  502    0  0.00000000000E+00  0.00000000000E+00  0.23782364574E+04  0.23782364574E+04  0.00000000000E+00 0. -1.
         -1   -1    0    0    0  501 -0.00000000000E+00 -0.00000000000E+00 -0.56640849451E+03  0.56640849451E+03  0.00000000000E+00 0.  1.
          6    1    1    2  502    0 -0.47455271551E+03 -0.58557082427E+03  0.20040607719E+04  0.21480076926E+04  0.17200000000E+03 0. -1.
         -6    1    1    2    0  501  0.47455271551E+03  0.58557082427E+03 -0.19223280901E+03  0.79663725930E+03  0.17200000000E+03 0.  1.
</event>
<event>
 4    1  0.3141404E-002  0.1720288E+03  0.7818608E-02  0.1175748E+00
         -2   -1    0    0    0  501 -0.00000000000E+00  0.00000000000E+00  0.14850609923E+02  0.14850609923E+02  0.00000000000E+00 0.  1.
          2   -1    0    0  502    0  0.00000000000E+00 -0.00000000000E+00 -0.33199359305E+04  0.33199359305E+04  0.00000000000E+00 0. -1.
          6    1    1    2  502    0 -0.43894675803E+00 -0.31186084239E+01 -0.27067718843E+04  0.27122330194E+04  0.17200000000E+03 0. -1.
         -6    1    1    2    0  501  0.43894675803E+00  0.31186084239E+01 -0.59831343629E+03  0.62255352095E+03  0.17200000000E+03 0.  1.
</event>
<event>
 4    1  0.3141404E-002  0.2070790E+03  0.7818608E-02  0.1143900E+00
          1   -1    0    0  502    0  0.00000000000E+00  0.00000000000E+00  0.24368044286E+03  0.24368044286E+03  0.00000000000E+00 0. -1.
         -1   -1    0    0    0  501 -0.00000000000E+00 -0.00000000000E+00 -0.19997143338E+03  0.19997143338E+03  0.00000000000E+00 0.  1.
          6    1    1    2  502    0 -0.35881450394E+02  0.10959117552E+03  0.98696790166E+02  0.22939651398E+03  0.17200000000E+03 0. -1.
         -6    1    1    2    0  501  0.35881450394E+02 -0.10959117552E+03 -0.54987780678E+02  0.21425536226E+03  0.17200000000E+03 0.  1.
</event>
<event>
 4    1  0.3141404E-002  0.3103370E+03  0.7818608E-02  0.1080184E+00
          2   -1    0    0  502    0  0.00000000000E+00  0.00000000000E+00  0.13188422308E+04  0.13188422308E+04  0.00000000000E+00 0. -1.
         -2   -1    0    0    0  501 -0.00000000000E+00 -0.00000000000E+00 -0.78681436819E+03  0.78681436819E+03  0.00000000000E+00 0.  1.
          6    1    1    2  502    0  0.24730874876E+03  0.74588569899E+02  0.12687954099E+04  0.13061971000E+04  0.17200000000E+03 0. -1.
         -6    1    1    2    0  501 -0.24730874876E+03 -0.74588569899E+02 -0.73676754721E+03  0.79945949903E+03  0.17200000000E+03 0.  1.
</event>
<event>
 4    1  0.3141404E-002  0.2255254E+03  0.7818608E-02  0.1129829E+00
         -2   -1    0    0    0  501 -0.00000000000E+00  0.00000000000E+00  0.60866075247E+02  0.60866075247E+02  0.00000000000E+00 0.  1.
          2   -1    0    0  502    0  0.00000000000E+00 -0.00000000000E+00 -0.11014563864E+04  0.11014563864E+04  0.00000000000E+00 0. -1.
          6    1    1    2  502    0  0.12715341603E+03  0.71482331903E+02 -0.80579730906E+03  0.83676222325E+03  0.17200000000E+03 0. -1.
         -6    1    1    2    0  501 -0.12715341603E+03 -0.71482331903E+02 -0.23479300205E+03  0.32556023835E+03  0.17200000000E+03 0.  1.
</event>
<event>
 4    1  0.3141404E-002  0.2656216E+03  0.7818608E-02  0.1103812E+00
         -2   -1    0    0    0  501 -0.00000000000E+00  0.00000000000E+00  0.35307707641E+02  0.35307707641E+02  0.00000000000E+00 0.  1.
          2   -1    0    0  502    0  0.00000000000E+00 -0.00000000000E+00 -0.20885160645E+04  0.20885160645E+04  0.00000000000E+00 0. -1.
          6    1    1    2  502    0 -0.28496595008E+02  0.20039660202E+03 -0.80588087152E+03  0.84852744983E+03  0.17200000000E+03 0.  1.
         -6    1    1    2    0  501  0.28496595008E+02 -0.20039660202E+03 -0.12473274853E+04  0.12752963223E+04  0.17200000000E+03 0. -1.
</event>
<event>
 4    1  0.3141404E-002  0.3280231E+03  0.7818608E-02  0.1072015E+00
          1   -1    0    0  502    0  0.00000000000E+00  0.00000000000E+00  0.79627862034E+03  0.79627862034E+03  0.00000000000E+00 0. -1.
         -1   -1    0    0    0  501 -0.00000000000E+00 -0.00000000000E+00 -0.13800274254E+03  0.13800274254E+03  0.00000000000E+00 0.  1.
          6    1    1    2  502    0 -0.27864065579E+03 -0.19352548052E+02  0.39656610804E+03  0.51464921472E+03  0.17200000000E+03 0. -1.
         -6    1    1    2    0  501  0.27864065579E+03  0.19352548052E+02  0.26170976976E+03  0.41963214815E+03  0.17200000000E+03 0.  1.
</event>
<event>
 4    1  0.3141404E-002  0.3708610E+03  0.7818608E-02  0.1054364E+00
         -1   -1    0    0    0  501 -0.00000000000E+00  0.00000000000E+00  0.39379079579E+03  0.39379079579E+03  0.00000000000E+00 0.  1.
          1   -1    0    0  502    0  0.00000000000E+00 -0.00000000000E+00 -0.49318593702E+03  0.49318593702E+03  0.00000000000E+00 0. -1.
          6    1    1    2  502    0 -0.26160709299E+03  0.19878528440E+03 -0.28927003126E+03  0.47033499910E+03  0.17200000000E+03 0. -1.
         -6    1    1    2    0  501  0.26160709299E+03 -0.19878528440E+03  0.18987489003E+03  0.41664173370E+03  0.17200000000E+03 0.  1.
</event>
<event>
 4    1  0.3141404E-002  0.1975127E+03  0.7818608E-02  0.1151855E+00
          1   -1    0    0  502    0  0.00000000000E+00  0.00000000000E+00  0.32503240715E+04  0.32503240715E+04  0.00000000000E+00 0. -1.
         -1   -1    0    0    0  501 -0.00000000000E+00 -0.00000000000E+00 -0.14596114291E+03  0.14596114291E+03  0.00000000000E+00 0.  1.
          6    1    1    2  502    0 -0.95701907543E+02  0.16382910099E+02  0.31790081196E+04  0.31851379686E+04  0.17200000000E+03 0. -1.
         -6    1    1    2    0  501  0.95701907543E+02 -0.16382910099E+02 -0.74645191010E+02  0.21114724576E+03  0.17200000000E+03 0.  1.
</event>
<event>
 4    1  0.3141404E-002  0.3089267E+03  0.7818608E-02  0.1080861E+00
         -1   -1    0    0    0  501 -0.00000000000E+00  0.00000000000E+00  0.12561146914E+03  0.12561146914E+03  0.00000000000E+00 0.  1.
          1   -1    0    0  502    0  0.00000000000E+00 -0.00000000000E+00 -0.76794844508E+03  0.76794844508E+03  0.00000000000E+00 0. -1.
          6    1    1    2  502    0 -0.25661354570E+03 -0.10960107025E+01 -0.27505936420E+03  0.41363433962E+03  0.17200000000E+03 0. -1.
         -6    1    1    2    0  501  0.25661354570E+03  0.10960107025E+01 -0.36727761173E+03  0.47992557460E+03  0.17200000000E+03 0.  1.
</event>
<event>
 4    1  0.3141404E-002  0.1857159E+03  0.7818608E-02  0.1162383E+00
          4   -1    0    0  502    0  0.00000000000E+00  0.00000000000E+00  0.26387945733E+03  0.26387945733E+03  0.00000000000E+00 0. -1.
         -4   -1    0    0    0  501 -0.00000000000E+00 -0.00000000000E+00 -0.17456518940E+03  0.17456518940E+03  0.00000000000E+00 0.  1.
          6    1    1    2  502    0  0.22418964511E+01 -0.70009691655E+02  0.15454275259E+03  0.24160679916E+03  0.17200000000E+03 0. -1.
         -6    1    1    2    0  501 -0.22418964511E+01  0.70009691655E+02 -0.65228484657E+02  0.19683784757E+03  0.17200000000E+03 0.  1.
</event>
<event>
 4    1  0.3141404E-002  0.6727612E+03  0.7818608E-02  0.9764982E-01
         -1   -1    0    0    0  501 -0.00000000000E+00  0.00000000000E+00  0.70807832671E+03  0.70807832671E+03  0.00000000000E+00 0.  1.
          1   -1    0    0  502    0  0.00000000000E+00 -0.00000000000E+00 -0.67128983873E+03  0.67128983873E+03  0.00000000000E+00 0. -1.
          6    1    1    2  502    0 -0.45476409956E+03  0.46498742146E+03 -0.13238462940E+03  0.68566272939E+03  0.17200000000E+03 0. -1.
         -6    1    1    2    0  501  0.45476409956E+03 -0.46498742146E+03  0.16917311738E+03  0.69370543605E+03  0.17200000000E+03 0.  1.
</event>
<event>
 4    1  0.3141404E-002  0.1746583E+03  0.7818608E-02  0.1173075E+00
          2   -1    0    0  502    0  0.00000000000E+00  0.00000000000E+00  0.16497764234E+04  0.16497764234E+04  0.00000000000E+00 0. -1.
         -2   -1    0    0    0  501 -0.00000000000E+00 -0.00000000000E+00 -0.23171707535E+02  0.23171707535E+02  0.00000000000E+00 0.  1.
          6    1    1    2  502    0  0.12057757588E+01  0.30332815660E+02  0.11892633392E+04  0.12020203091E+04  0.17200000000E+03 0. -1.
         -6    1    1    2    0  501 -0.12057757588E+01 -0.30332815660E+02  0.43734137662E+03  0.47092782176E+03  0.17200000000E+03 0.  1.
</event>
<event>
 4    1  0.3141404E-002  0.1871333E+03  0.7818608E-02  0.1161073E+00
         -1   -1    0    0    0  501 -0.00000000000E+00  0.00000000000E+00  0.25547781232E+02  0.25547781232E+02  0.00000000000E+00 0.  1.
          1   -1    0    0  502    0  0.00000000000E+00 -0.00000000000E+00 -0.15187369462E+04  0.15187369462E+04  0.00000000000E+00 0. -1.
          6    1    1    2  502    0  0.66270697426E+02  0.32296324974E+02 -0.98764707958E+03  0.10052191859E+04  0.17200000000E+03 0. -1.
         -6    1    1    2    0  501 -0.66270697426E+02 -0.32296324974E+02 -0.50554208540E+03  0.53906554152E+03  0.17200000000E+03 0.  1.
</event>
<event>
 4    1  0.3141404E-002  0.3792800E+03  0.7818608E-02  0.1051200E+00
          1   -1    0    0  502    0  0.00000000000E+00  0.00000000000E+00  0.16197583047E+04  0.16197583047E+04  0.00000000000E+00 0. -1.
         -1   -1    0    0    0  501 -0.00000000000E+00 -0.00000000000E+00 -0.94922812511E+02  0.94922812511E+02  0.00000000000E+00 0.  1.
          6    1    1    2  502    0 -0.11796764838E+03  0.31678535806E+03  0.97995403198E+03  0.10507917177E+04  0.17200000000E+03 0. -1.
         -6    1    1    2    0  501  0.11796764838E+03 -0.31678535806E+03  0.54488146025E+03  0.66388939957E+03  0.17200000000E+03 0.  1.
</event>
<event>
 4    1  0.3141404E-002  0.1802687E+03  0.7818608E-02  0.1167543E+00
         -2   -1    0    0    0  501 -0.00000000000E+00  0.00000000000E+00  0.97687740707E+02  0.97687740707E+02  0.00000000000E+00 0.  1.
          2   -1    0    0  502    0  0.00000000000E+00 -0.00000000000E+00 -0.36000869796E+03  0.36000869796E+03  0.00000000000E+00 0. -1.
          6    1    1    2  502    0  0.40007546668E+02  0.36224407359E+02 -0.19423569456E+03  0.26499871041E+03  0.17200000000E+03 0. -1.
         -6    1    1    2    0  501 -0.40007546668E+02 -0.36224407359E+02 -0.68085262694E+02  0.19269772826E+03  0.17200000000E+03 0.  1.
</event>
<event>
 4    1  0.3141404E-002  0.1889750E+03  0.7818608E-02  0.1159389E+00
         -2   -1    0    0    0  501 -0.00000000000E+00  0.00000000000E+00  0.55443178628E+02  0.55443178628E+02  0.00000000000E+00 0.  1.
          2   -1    0    0  502    0  0.00000000000E+00 -0.00000000000E+00 -0.12718971211E+04  0.12718971211E+04  0.00000000000E+00 0. -1.
          6    1    1    2  502    0  0.25025286414E+02  0.74170695833E+02 -0.10744912809E+04  0.10909826166E+04  0.17200000000E+03 0. -1.
         -6    1    1    2    0  501 -0.25025286414E+02 -0.74170695833E+02 -0.14196266160E+03  0.23635768312E+03  0.17200000000E+03 0.  1.
</event>
<event>
 4    1  0.3141404E-002  0.2002150E+03  0.7818608E-02  0.1149558E+00
         -1   -1    0    0    0  501 -0.00000000000E+00  0.00000000000E+00  0.79585709909E+02  0.79585709909E+02  0.00000000000E+00 0.  1.
          1   -1    0    0  502    0  0.00000000000E+00 -0.00000000000E+00 -0.70286005100E+03  0.70286005100E+03  0.00000000000E+00 0. -1.
          6    1    1    2  502    0  0.52717692764E+02  0.87879936799E+02 -0.51989844233E+03  0.55711796665E+03  0.17200000000E+03 0. -1.
         -6    1    1    2    0  501 -0.52717692764E+02 -0.87879936799E+02 -0.10337589876E+03  0.22532779426E+03  0.17200000000E+03 0.  1.
</event>
<event>
 4    1  0.3141404E-002  0.2339756E+03  0.7818608E-02  0.1123872E+00
         -2   -1    0    0    0  501 -0.00000000000E+00  0.00000000000E+00  0.23859918431E+02  0.23859918431E+02  0.00000000000E+00 0.  1.
          2   -1    0    0  502    0  0.00000000000E+00 -0.00000000000E+00 -0.23316319707E+04  0.23316319707E+04  0.00000000000E+00 0. -1.
          6    1    1    2  502    0 -0.24354310099E+02  0.15674003800E+03 -0.13026808845E+04  0.13235263725E+04  0.17200000000E+03 0. -1.
         -6    1    1    2    0  501  0.24354310099E+02 -0.15674003800E+03 -0.10050911678E+04  0.10319655166E+04  0.17200000000E+03 0.  1.
</event>
<event>
 4    1  0.3141404E-002  0.1950294E+03  0.7818608E-02  0.1154002E+00
         -1   -1    0    0    0  501 -0.00000000000E+00  0.00000000000E+00  0.25156018670E+02  0.25156018670E+02  0.00000000000E+00 0.  1.
          1   -1    0    0  502    0  0.00000000000E+00 -0.00000000000E+00 -0.18341822634E+04  0.18341822634E+04  0.00000000000E+00 0. -1.
          6    1    1    2  502    0 -0.64402576193E+02 -0.65610888391E+02 -0.51489204982E+03  0.55059086758E+03  0.17200000000E+03 0.  1.
         -6    1    1    2    0  501  0.64402576193E+02  0.65610888391E+02 -0.12941341949E+04  0.13087474145E+04  0.17200000000E+03 0. -1.
</event>
<event>
 4    1  0.3141404E-002  0.2427259E+03  0.7818608E-02  0.1117990E+00
          2   -1    0    0  502    0  0.00000000000E+00  0.00000000000E+00  0.70424741587E+03  0.70424741587E+03  0.00000000000E+00 0. -1.
         -2   -1    0    0    0  501 -0.00000000000E+00 -0.00000000000E+00 -0.22076235469E+03  0.22076235469E+03  0.00000000000E+00 0.  1.
          6    1    1    2  502    0 -0.16761617002E+03 -0.35166550070E+02  0.60622746602E+03  0.65301424736E+03  0.17200000000E+03 0. -1.
         -6    1    1    2    0  501  0.16761617002E+03  0.35166550070E+02 -0.12274240484E+03  0.27199552320E+03  0.17200000000E+03 0.  1.
</event>
<event>
 4    1  0.3141404E-002  0.8240043E+03  0.7818608E-02  0.9525907E-01
          2   -1    0    0  502    0  0.00000000000E+00  0.00000000000E+00  0.30938012129E+04  0.30938012129E+04  0.00000000000E+00 0. -1.
         -2   -1    0    0    0  501 -0.00000000000E+00 -0.00000000000E+00 -0.34834723426E+03  0.34834723426E+03  0.00000000000E+00 0.  1.
          6    1    1    2  502    0 -0.79164260366E+03  0.15066902613E+03  0.24195874812E+04  0.25560490501E+04  0.17200000000E+03 0. -1.
         -6    1    1    2    0  501  0.79164260366E+03 -0.15066902613E+03  0.32586649748E+03  0.88609939710E+03  0.17200000000E+03 0.  1.
</event>
<event>
 4    1  0.3141404E-002  0.6309951E+03  0.7818608E-02  0.9843109E-01
          2   -1    0    0  502    0  0.00000000000E+00  0.00000000000E+00  0.19709725470E+04  0.19709725470E+04  0.00000000000E+00 0. -1.
         -2   -1    0    0    0  501 -0.00000000000E+00 -0.00000000000E+00 -0.24529396688E+03  0.24529396688E+03  0.00000000000E+00 0.  1.
          6    1    1    2  502    0 -0.37937465901E+02  0.60591386151E+03  0.39734387664E+03  0.74567889550E+03  0.17200000000E+03 0. -1.
         -6    1    1    2    0  501  0.37937465901E+02 -0.60591386151E+03  0.13283347035E+04  0.14705876184E+04  0.17200000000E+03 0.  1.
</event>
<event>
 4    1  0.3141404E-002  0.2208976E+03  0.7818608E-02  0.1133216E+00
          2   -1    0    0  502    0  0.00000000000E+00  0.00000000000E+00  0.10080697517E+04  0.10080697517E+04  0.00000000000E+00 0. -1.
         -2   -1    0    0    0  501 -0.00000000000E+00 -0.00000000000E+00 -0.49203195856E+02  0.49203195856E+02  0.00000000000E+00 0.  1.
          6    1    1    2  502    0 -0.90296104110E+02 -0.10515873389E+03  0.41210767068E+03  0.46757724278E+03  0.17200000000E+03 0. -1.
         -6    1    1    2    0  501  0.90296104110E+02  0.10515873389E+03  0.54675888517E+03  0.58969570478E+03  0.17200000000E+03 0.  1.
</event>
<event>
 4    1  0.3141404E-002  0.4256605E+03  0.7818608E-02  0.1035240E+00
          3   -1    0    0  502    0  0.00000000000E+00  0.00000000000E+00  0.83706192553E+03  0.83706192553E+03  0.00000000000E+00 0. -1.
         -3   -1    0    0    0  501 -0.00000000000E+00 -0.00000000000E+00 -0.44989980303E+03  0.44989980303E+03  0.00000000000E+00 0.  1.
          6    1    1    2  502    0 -0.33471145570E+03  0.19892482230E+03  0.65710179818E+03  0.78292376173E+03  0.17200000000E+03 0. -1.
         -6    1    1    2    0  501  0.33471145570E+03 -0.19892482230E+03 -0.26993967568E+03  0.50403796683E+03  0.17200000000E+03 0.  1.
</event>
<event>
 4    1  0.3141404E-002  0.5329482E+03  0.7818608E-02  0.1005520E+00
          2   -1    0    0  502    0  0.00000000000E+00  0.00000000000E+00  0.88324666047E+03  0.88324666047E+03  0.00000000000E+00 0. -1.
         -2   -1    0    0    0  501 -0.00000000000E+00 -0.00000000000E+00 -0.41070550569E+03  0.41070550569E+03  0.00000000000E+00 0.  1.
          6    1    1    2  502    0  0.47945834106E+03 -0.15674655989E+03  0.53765849148E+03  0.75704057904E+03  0.17200000000E+03 0. -1.
         -6    1    1    2    0  501 -0.47945834106E+03  0.15674655989E+03 -0.65117336698E+02  0.53691158712E+03  0.17200000000E+03 0.  1.
</event>
<event>
 4    1  0.3141404E-002  0.4154872E+03  0.7818608E-02  0.1038545E+00
         -2   -1    0    0    0  501 -0.00000000000E+00  0.00000000000E+00  0.18130668265E+04  0.18130668265E+04  0.00000000000E+00 0.  1.
          2   -1    0    0  502    0  0.00000000000E+00 -0.00000000000E+00 -0.38629156480E+03  0.38629156480E+03  0.00000000000E+00 0. -1.
          6    1    1    2  502    0  0.37076828346E+03 -0.74675744157E+02 -0.24119309981E+03  0.48042033489E+03  0.17200000000E+03 0. -1.
         -6    1    1    2    0  501 -0.37076828346E+03  0.74675744157E+02  0.16679683616E+04  0.17189380565E+04  0.17200000000E+03 0.  1.
</event>
<event>
 4    1  0.3141404E-002  0.1881452E+03  0.7818608E-02  0.1160145E+00
         -1   -1    0    0    0  501 -0.00000000000E+00  0.00000000000E+00  0.74396556597E+02  0.74396556597E+02  0.00000000000E+00 0.  1.
          1   -1    0    0  502    0  0.00000000000E+00 -0.00000000000E+00 -0.12338229587E+04  0.12338229587E+04  0.00000000000E+00 0. -1.
          6    1    1    2  502    0 -0.62694343696E+02 -0.43405590887E+02 -0.10924122567E+04  0.11084959019E+04  0.17200000000E+03 0. -1.
         -6    1    1    2    0  501  0.62694343696E+02  0.43405590887E+02 -0.67014145431E+02  0.19972361338E+03  0.17200000000E+03 0.  1.
</event>
<event>
 4    1  0.3141404E-002  0.2026223E+03  0.7818608E-02  0.1147545E+00
         -2   -1    0    0    0  501 -0.00000000000E+00  0.00000000000E+00  0.19029000093E+02  0.19029000093E+02  0.00000000000E+00 0.  1.
          2   -1    0    0  502    0  0.00000000000E+00 -0.00000000000E+00 -0.24067078671E+04  0.24067078671E+04  0.00000000000E+00 0. -1.
          6    1    1    2  502    0  0.50667363473E+02  0.94364346123E+02 -0.15840947381E+04  0.15970009238E+04  0.17200000000E+03 0. -1.
         -6    1    1    2    0  501 -0.50667363473E+02 -0.94364346123E+02 -0.80358412896E+03  0.82873594338E+03  0.17200000000E+03 0.  1.
</event>
<event>
 4    1  0.3141404E-002  0.2486572E+03  0.7818608E-02  0.1114156E+00
          2   -1    0    0  502    0  0.00000000000E+00  0.00000000000E+00  0.50006986986E+02  0.50006986986E+02  0.00000000000E+00 0. -1.
         -2   -1    0    0    0  501 -0.00000000000E+00 -0.00000000000E+00 -0.12661668162E+04  0.12661668162E+04  0.00000000000E+00 0.  1.
          6    1    1    2  502    0 -0.14833381740E+03 -0.10121002385E+03 -0.50723632311E+03  0.56490625576E+03  0.17200000000E+03 0. -1.
         -6    1    1    2    0  501  0.14833381740E+03  0.10121002385E+03 -0.70892350613E+03  0.75126754746E+03  0.17200000000E+03 0.  1.
</event>
<event>
 4    1  0.3141404E-002  0.2723368E+03  0.7818608E-02  0.1099950E+00
          2   -1    0    0  502    0  0.00000000000E+00  0.00000000000E+00  0.17240093978E+03  0.17240093978E+03  0.00000000000E+00 0. -1.
         -2   -1    0    0    0  501 -0.00000000000E+00 -0.00000000000E+00 -0.49352635918E+03  0.49352635918E+03  0.00000000000E+00 0.  1.
          6    1    1    2  502    0  0.15166195890E+03  0.14690804475E+03 -0.41294370267E+02  0.27544972028E+03  0.17200000000E+03 0. -1.
         -6    1    1    2    0  501 -0.15166195890E+03 -0.14690804475E+03 -0.27983104914E+03  0.39047757868E+03  0.17200000000E+03 0.  1.
</event>
<event>
 4    1  0.3141404E-002  0.2380864E+03  0.7818608E-02  0.1121074E+00
          2   -1    0    0  502    0  0.00000000000E+00  0.00000000000E+00  0.10250529386E+03  0.10250529386E+03  0.00000000000E+00 0. -1.
         -2   -1    0    0    0  501 -0.00000000000E+00 -0.00000000000E+00 -0.75355267607E+03  0.75355267607E+03  0.00000000000E+00 0.  1.
          6    1    1    2  502    0  0.14241979847E+03  0.82569521563E+02 -0.10470603374E+03  0.26009321096E+03  0.17200000000E+03 0. -1.
         -6    1    1    2    0  501 -0.14241979847E+03 -0.82569521563E+02 -0.54634134847E+03  0.59596475897E+03  0.17200000000E+03 0.  1.
</event>
<event>
 4    1  0.3141404E-002  0.1804910E+03  0.7818608E-02  0.1167329E+00
          2   -1    0    0  502    0  0.00000000000E+00  0.00000000000E+00  0.16852164598E+04  0.16852164598E+04  0.00000000000E+00 0. -1.
         -2   -1    0    0    0  501 -0.00000000000E+00 -0.00000000000E+00 -0.64339835367E+02  0.64339835367E+02  0.00000000000E+00 0.  1.
          6    1    1    2  502    0  0.35741130108E+02  0.41419514605E+02  0.15420937367E+04  0.15526203970E+04  0.17200000000E+03 0. -1.
         -6    1    1    2    0  501 -0.35741130108E+02 -0.41419514605E+02  0.78782887752E+02  0.19693589813E+03  0.17200000000E+03 0.  1.
</event>
<event>
 4    1  0.3141404E-002  0.3472600E+03  0.7818608E-02  0.1063745E+00
         -2   -1    0    0    0  501 -0.00000000000E+00  0.00000000000E+00  0.41416876692E+03  0.41416876692E+03  0.00000000000E+00 0.  1.
          2   -1    0    0  502    0  0.00000000000E+00 -0.00000000000E+00 -0.33170419330E+03  0.33170419330E+03  0.00000000000E+00 0. -1.
          6    1    1    2  502    0 -0.29731030374E+03  0.51108741079E+02 -0.89150987383E+02  0.35852115513E+03  0.17200000000E+03 0. -1.
         -6    1    1    2    0  501  0.29731030374E+03 -0.51108741079E+02  0.17161556100E+03  0.38735180509E+03  0.17200000000E+03 0.  1.
</event>
<event>
 4    1  0.3141404E-002  0.1838509E+03  0.7818608E-02  0.1164127E+00
         -2   -1    0    0    0  501 -0.00000000000E+00  0.00000000000E+00  0.29007975790E+02  0.29007975790E+02  0.00000000000E+00 0.  1.
          2   -1    0    0  502    0  0.00000000000E+00 -0.00000000000E+00 -0.11821179166E+04  0.11821179166E+04  0.00000000000E+00 0. -1.
          6    1    1    2  502    0 -0.25048866719E+02  0.59914182078E+02 -0.64892056178E+03  0.67446204522E+03  0.17200000000E+03 0. -1.
         -6    1    1    2    0  501  0.25048866719E+02 -0.59914182078E+02 -0.50418937906E+03  0.53666384721E+03  0.17200000000E+03 0.  1.
</event>
<event>
 4    1  0.3141404E-002  0.2660927E+03  0.7818608E-02  0.1103537E+00
         -2   -1    0    0    0  501 -0.00000000000E+00  0.00000000000E+00  0.10168928996E+03  0.10168928996E+03  0.00000000000E+00 0.  1.
          2   -1    0    0  502    0  0.00000000000E+00 -0.00000000000E+00 -0.11134911969E+04  0.11134911969E+04  0.00000000000E+00 0. -1.
          6    1    1    2  502    0 -0.11126619103E+03  0.16982680418E+03 -0.87781261554E+03  0.91725694147E+03  0.17200000000E+03 0. -1.
         -6    1    1    2    0  501  0.11126619103E+03 -0.16982680418E+03 -0.13398929139E+03  0.29792354538E+03  0.17200000000E+03 0.  1.
</event>
<event>
 4    1  0.3141404E-002  0.5708481E+03  0.7818608E-02  0.9967804E-01
          2   -1    0    0  502    0  0.00000000000E+00  0.00000000000E+00  0.16260515205E+04  0.16260515205E+04  0.00000000000E+00 0. -1.
         -2   -1    0    0    0  501 -0.00000000000E+00 -0.00000000000E+00 -0.64054742628E+03  0.64054742628E+03  0.00000000000E+00 0.  1.
          6    1    1    2  502    0  0.21069103407E+03  0.50188928138E+03  0.14321855631E+04  0.15417597251E+04  0.17200000000E+03 0. -1.
         -6    1    1    2    0  501 -0.21069103407E+03 -0.50188928138E+03 -0.44668146894E+03  0.72483922168E+03  0.17200000000E+03 0.  1.
</event>
<event>
 4    1  0.3141404E-002  0.1948876E+03  0.7818608E-02  0.1154125E+00
          1   -1    0    0  502    0  0.00000000000E+00  0.00000000000E+00  0.35895865680E+03  0.35895865680E+03  0.00000000000E+00 0. -1.
         -1   -1    0    0    0  501 -0.00000000000E+00 -0.00000000000E+00 -0.10620244671E+03  0.10620244671E+03  0.00000000000E+00 0.  1.
          6    1    1    2  502    0 -0.82116145844E+02  0.40670655638E+02  0.11222719636E+03  0.22489132318E+03  0.17200000000E+03 0. -1.
         -6    1    1    2    0  501  0.82116145844E+02 -0.40670655638E+02  0.14052901373E+03  0.24026978033E+03  0.17200000000E+03 0.  1.
</event>
<event>
 4    1  0.3141404E-002  0.5099473E+03  0.7818608E-02  0.1011215E+00
          2   -1    0    0  502    0  0.00000000000E+00  0.00000000000E+00  0.15041909011E+04  0.15041909011E+04  0.00000000000E+00 0. -1.
         -2   -1    0    0    0  501 -0.00000000000E+00 -0.00000000000E+00 -0.20366309179E+03  0.20366309179E+03  0.00000000000E+00 0.  1.
          6    1    1    2  502    0 -0.36514961936E+03  0.31165364068E+03  0.31828333841E+03  0.60112437962E+03  0.17200000000E+03 0. -1.
         -6    1    1    2    0  501  0.36514961936E+03 -0.31165364068E+03  0.98224447094E+03  0.11067296133E+04  0.17200000000E+03 0. -1.
</event>
<event>
 4    1  0.3141404E-002  0.1846648E+03  0.7818608E-02  0.1163363E+00
          2   -1    0    0  502    0  0.00000000000E+00  0.00000000000E+00  0.94296170405E+02  0.94296170405E+02  0.00000000000E+00 0. -1.
         -2   -1    0    0    0  501 -0.00000000000E+00 -0.00000000000E+00 -0.47215512988E+03  0.47215512988E+03  0.00000000000E+00 0.  1.
          6    1    1    2  502    0 -0.51035378318E+02  0.43731778342E+02 -0.51902833278E+02  0.19182018241E+03  0.17200000000E+03 0. -1.
         -6    1    1    2    0  501  0.51035378318E+02 -0.43731778342E+02 -0.32595612620E+03  0.37463111788E+03  0.17200000000E+03 0.  1.
</event>
<event>
 4    1  0.3141404E-002  0.2116691E+03  0.7818608E-02  0.1140251E+00
          1   -1    0    0  502    0  0.00000000000E+00  0.00000000000E+00  0.12953123331E+03  0.12953123331E+03  0.00000000000E+00 0. -1.
         -1   -1    0    0    0  501 -0.00000000000E+00 -0.00000000000E+00 -0.46483215061E+03  0.46483215061E+03  0.00000000000E+00 0.  1.
          6    1    1    2  502    0  0.10470557157E+03  0.65242378964E+02 -0.17323071292E+02  0.21237681966E+03  0.17200000000E+03 0. -1.
         -6    1    1    2    0  501 -0.10470557157E+03 -0.65242378964E+02 -0.31797784601E+03  0.38198656427E+03  0.17200000000E+03 0.  1.
</event>
<event>
 4    1  0.3141404E-002  0.5865045E+03  0.7818608E-02  0.9933807E-01
          2   -1    0    0  502    0  0.00000000000E+00  0.00000000000E+00  0.11514505758E+04  0.11514505758E+04  0.00000000000E+00 0. -1.
         -2   -1    0    0    0  501 -0.00000000000E+00 -0.00000000000E+00 -0.30099790683E+03  0.30099790683E+03  0.00000000000E+00 0.  1.
          6    1    1    2  502    0  0.49456486185E+03 -0.26421421561E+03  0.36236641820E+03  0.68941785250E+03  0.17200000000E+03 0.  1.
         -6    1    1    2    0  501 -0.49456486185E+03  0.26421421561E+03  0.48808625075E+03  0.76303063010E+03  0.17200000000E+03 0.  1.
</event>
<event>
 4    1  0.3141404E-002  0.1808290E+03  0.7818608E-02  0.1167003E+00
          1   -1    0    0  502    0  0.00000000000E+00  0.00000000000E+00  0.32993300783E+03  0.32993300783E+03  0.00000000000E+00 0. -1.
         -1   -1    0    0    0  501 -0.00000000000E+00 -0.00000000000E+00 -0.99401995665E+02  0.99401995665E+02  0.00000000000E+00 0.  1.
          6    1    1    2  502    0 -0.48600933263E+02 -0.27442512484E+02  0.12693150259E+03  0.22093154722E+03  0.17200000000E+03 0. -1.
         -6    1    1    2    0  501  0.48600933263E+02  0.27442512484E+02  0.10359950957E+03  0.20840345628E+03  0.17200000000E+03 0.  1.
</event>
<event>
 4    1  0.3141404E-002  0.2309815E+03  0.7818608E-02  0.1125951E+00
          1   -1    0    0  502    0  0.00000000000E+00  0.00000000000E+00  0.56693662845E+03  0.56693662845E+03  0.00000000000E+00 0. -1.
         -1   -1    0    0    0  501 -0.00000000000E+00 -0.00000000000E+00 -0.97979982220E+02  0.97979982220E+02  0.00000000000E+00 0.  1.
          6    1    1    2  502    0 -0.36378575035E+02  0.14981678698E+03  0.30058030651E+03  0.37907913559E+03  0.17200000000E+03 0. -1.
         -6    1    1    2    0  501  0.36378575035E+02 -0.14981678698E+03  0.16837633973E+03  0.28583747508E+03  0.17200000000E+03 0.  1.
</event>
<event>
 4    1  0.3141404E-002  0.1914145E+03  0.7818608E-02  0.1157192E+00
          1   -1    0    0  502    0  0.00000000000E+00  0.00000000000E+00  0.59529354677E+02  0.59529354677E+02  0.00000000000E+00 0. -1.
         -1   -1    0    0    0  501 -0.00000000000E+00 -0.00000000000E+00 -0.61578644997E+03  0.61578644997E+03  0.00000000000E+00 0.  1.
          6    1    1    2  502    0  0.53132344669E+02 -0.65057443584E+02 -0.27067691388E+03  0.33151999747E+03  0.17200000000E+03 0. -1.
         -6    1    1    2    0  501 -0.53132344669E+02  0.65057443584E+02 -0.28558018142E+03  0.34379580718E+03  0.17200000000E+03 0. -1.
</event>
<event>
 4    1  0.3141404E-002  0.3987903E+03  0.7818608E-02  0.1044199E+00
          1   -1    0    0  502    0  0.00000000000E+00  0.00000000000E+00  0.35048024932E+04  0.35048024932E+04  0.00000000000E+00 0. -1.
         -1   -1    0    0    0  501 -0.00000000000E+00 -0.00000000000E+00 -0.18590785075E+03  0.18590785075E+03  0.00000000000E+00 0.  1.
          6    1    1    2  502    0 -0.24845072591E+03  0.26023435035E+03  0.32638692493E+04  0.32881417483E+04  0.17200000000E+03 0. -1.
         -6    1    1    2    0  501  0.24845072591E+03 -0.26023435035E+03  0.55025393130E+02  0.40256859564E+03  0.17200000000E+03 0.  1.
</event>
<event>
 4    1  0.3141404E-002  0.1929539E+03  0.7818608E-02  0.1155824E+00
          1   -1    0    0  502    0  0.00000000000E+00  0.00000000000E+00  0.17345875322E+04  0.17345875322E+04  0.00000000000E+00 0. -1.
         -1   -1    0    0    0  501 -0.00000000000E+00 -0.00000000000E+00 -0.22502065733E+02  0.22502065733E+02  0.00000000000E+00 0.  1.
          6    1    1    2  502    0  0.86978637625E+02 -0.90521073869E+01  0.10447378459E+04  0.10624068856E+04  0.17200000000E+03 0.  1.
         -6    1    1    2    0  501 -0.86978637625E+02  0.90521073869E+01  0.66734762061E+03  0.69468271231E+03  0.17200000000E+03 0.  1.
</event>
<event>
 4    1  0.3141404E-002  0.2328310E+03  0.7818608E-02  0.1124663E+00
         -2   -1    0    0    0  501 -0.00000000000E+00  0.00000000000E+00  0.36143302525E+03  0.36143302525E+03  0.00000000000E+00 0.  1.
          2   -1    0    0  502    0  0.00000000000E+00 -0.00000000000E+00 -0.92191619110E+03  0.92191619110E+03  0.00000000000E+00 0. -1.
          6    1    1    2  502    0  0.15466569464E+03 -0.26547611902E+02 -0.86740348269E+03  0.89810859844E+03  0.17200000000E+03 0. -1.
         -6    1    1    2    0  501 -0.15466569464E+03  0.26547611902E+02  0.30692031685E+03  0.38524061791E+03  0.17200000000E+03 0.  1.
</event>
<event>
 4    1  0.3141404E-002  0.2873176E+03  0.7818608E-02  0.1091758E+00
          1   -1    0    0  502    0  0.00000000000E+00  0.00000000000E+00  0.95310290688E+02  0.95310290688E+02  0.00000000000E+00 0. -1.
         -1   -1    0    0    0  501 -0.00000000000E+00 -0.00000000000E+00 -0.11847478144E+04  0.11847478144E+04  0.00000000000E+00 0.  1.
          6    1    1    2  502    0 -0.90499765956E+02 -0.21160624088E+03 -0.87662817064E+03  0.92251198278E+03  0.17200000000E+03 0. -1.
         -6    1    1    2    0  501  0.90499765956E+02  0.21160624088E+03 -0.21280935305E+03  0.35754612229E+03  0.17200000000E+03 0.  1.
</event>
<event>
 4    1  0.3141404E-002  0.2396745E+03  0.7818608E-02  0.1120010E+00
          2   -1    0    0  502    0  0.00000000000E+00  0.00000000000E+00  0.34773188196E+03  0.34773188196E+03  0.00000000000E+00 0. -1.
         -2   -1    0    0    0  501 -0.00000000000E+00 -0.00000000000E+00 -0.33995533212E+03  0.33995533212E+03  0.00000000000E+00 0.  1.
          6    1    1    2  502    0  0.32058858692E+02  0.16380508170E+03  0.25041860613E+03  0.34663143756E+03  0.17200000000E+03 0. -1.
         -6    1    1    2    0  501 -0.32058858692E+02 -0.16380508170E+03 -0.24264205630E+03  0.34105577652E+03  0.17200000000E+03 0.  1.
</event>
<event>
 4    1  0.3141404E-002  0.1878139E+03  0.7818608E-02  0.1160448E+00
          1   -1    0    0  502    0  0.00000000000E+00  0.00000000000E+00  0.98100399937E+03  0.98100399937E+03  0.00000000000E+00 0. -1.
         -1   -1    0    0    0  501 -0.00000000000E+00 -0.00000000000E+00 -0.43976543254E+02  0.43976543254E+02  0.00000000000E+00 0.  1.
          6    1    1    2  502    0 -0.57242115065E+02 -0.49126358651E+02  0.24966340508E+03  0.31241938911E+03  0.17200000000E+03 0. -1.
         -6    1    1    2    0  501  0.57242115065E+02  0.49126358651E+02  0.68736405103E+03  0.71256115351E+03  0.17200000000E+03 0.  1.
</event>
<event>
 4    1  0.3141404E-002  0.1764557E+03  0.7818608E-02  0.1171278E+00
          1   -1    0    0  502    0  0.00000000000E+00  0.00000000000E+00  0.40521511019E+02  0.40521511019E+02  0.00000000000E+00 0. -1.
         -1   -1    0    0    0  501 -0.00000000000E+00 -0.00000000000E+00 -0.77210669009E+03  0.77210669009E+03  0.00000000000E+00 0.  1.
          6    1    1    2  502    0  0.39333467564E+02 -0.23470285079E+01 -0.33763086528E+03  0.38096093160E+03  0.17200000000E+03 0. -1.
         -6    1    1    2    0  501 -0.39333467564E+02  0.23470285079E+01 -0.39395431380E+03  0.43166726952E+03  0.17200000000E+03 0.  1.
</event>
<event>
 4    1  0.3141404E-002  0.3939588E+03  0.7818608E-02  0.1045892E+00
         -1   -1    0    0    0  501 -0.00000000000E+00  0.00000000000E+00  0.20081635800E+03  0.20081635800E+03  0.00000000000E+00 0.  1.
          1   -1    0    0  502    0  0.00000000000E+00 -0.00000000000E+00 -0.19159595744E+04  0.19159595744E+04  0.00000000000E+00 0. -1.
          6    1    1    2  502    0  0.35428725056E+03  0.10004643586E+02 -0.16750817878E+04  0.17207854441E+04  0.17200000000E+03 0. -1.
         -6    1    1    2    0  501 -0.35428725056E+03 -0.10004643586E+02 -0.40061428651E+02  0.39599048835E+03  0.17200000000E+03 0.  1.
</event>
<event>
 4    1  0.3141404E-002  0.1726228E+03  0.7818608E-02  0.1175140E+00
          1   -1    0    0  502    0  0.00000000000E+00  0.00000000000E+00  0.13256351079E+04  0.13256351079E+04  0.00000000000E+00 0. -1.
         -1   -1    0    0    0  501 -0.00000000000E+00 -0.00000000000E+00 -0.22769447315E+02  0.22769447315E+02  0.00000000000E+00 0.  1.
          6    1    1    2  502    0  0.52184807546E+01 -0.13689657235E+02  0.57525585355E+03  0.60059798226E+03  0.17200000000E+03 0.  1.
         -6    1    1    2    0  501 -0.52184807546E+01  0.13689657235E+02  0.72760980708E+03  0.74780657299E+03  0.17200000000E+03 0. -1.
</event>
<event>
 4    1  0.3141404E-002  0.3271434E+03  0.7818608E-02  0.1072408E+00
         -2   -1    0    0    0  501 -0.00000000000E+00  0.00000000000E+00  0.33017772642E+02  0.33017772642E+02  0.00000000000E+00 0.  1.
          2   -1    0    0  502    0  0.00000000000E+00 -0.00000000000E+00 -0.34119662944E+04  0.34119662944E+04  0.00000000000E+00 0. -1.
          6    1    1    2  502    0  0.21196462406E+03  0.18030471456E+03 -0.20746337888E+04  0.21002685899E+04  0.17200000000E+03 0. -1.
         -6    1    1    2    0  501 -0.21196462406E+03 -0.18030471456E+03 -0.13043147329E+04  0.13447154771E+04  0.17200000000E+03 0.  1.
</event>
<event>
 4    1  0.3141404E-002  0.2548576E+03  0.7818608E-02  0.1110273E+00
          3   -1    0    0  502    0  0.00000000000E+00  0.00000000000E+00  0.10100443060E+03  0.10100443060E+03  0.00000000000E+00 0. -1.
         -3   -1    0    0    0  501 -0.00000000000E+00 -0.00000000000E+00 -0.65645092459E+03  0.65645092459E+03  0.00000000000E+00 0.  1.
          6    1    1    2  502    0  0.18606728921E+03  0.27337560277E+02 -0.33180563467E+03  0.41838661249E+03  0.17200000000E+03 0.  1.
         -6    1    1    2    0  501 -0.18606728921E+03 -0.27337560277E+02 -0.22364085932E+03  0.33906874270E+03  0.17200000000E+03 0. -1.
</event>
<event>
 4    1  0.3141404E-002  0.2851088E+03  0.7818608E-02  0.1092931E+00
          2   -1    0    0  502    0  0.00000000000E+00  0.00000000000E+00  0.12879833683E+04  0.12879833683E+04  0.00000000000E+00 0. -1.
         -2   -1    0    0    0  501 -0.00000000000E+00 -0.00000000000E+00 -0.83358947385E+02  0.83358947385E+02  0.00000000000E+00 0.  1.
          6    1    1    2  502    0  0.22733783068E+03 -0.45344863585E+01  0.26438680560E+03  0.38882828318E+03  0.17200000000E+03 0. -1.
         -6    1    1    2    0  501 -0.22733783068E+03  0.45344863585E+01  0.94023761535E+03  0.98251403254E+03  0.17200000000E+03 0.  1.
</event>
<event>
 4    1  0.3141404E-002  0.1758914E+03  0.7818608E-02  0.1171840E+00
          1   -1    0    0  502    0  0.00000000000E+00  0.00000000000E+00  0.56511170997E+03  0.56511170997E+03  0.00000000000E+00 0. -1.
         -1   -1    0    0    0  501 -0.00000000000E+00 -0.00000000000E+00 -0.82105858869E+02  0.82105858869E+02  0.00000000000E+00 0.  1.
          6    1    1    2  502    0  0.32306613672E+02  0.17608397706E+02  0.42830762814E+03  0.46301749134E+03  0.17200000000E+03 0. -1.
         -6    1    1    2    0  501 -0.32306613672E+02 -0.17608397706E+02  0.54698222955E+02  0.18420007750E+03  0.17200000000E+03 0.  1.
</event>
<event>
 4    1  0.3141404E-002  0.1851779E+03  0.7818608E-02  0.1162884E+00
         -2   -1    0    0    0  501 -0.00000000000E+00  0.00000000000E+00  0.25079932931E+02  0.25079932931E+02  0.00000000000E+00 0.  1.
          2   -1    0    0  502    0  0.00000000000E+00 -0.00000000000E+00 -0.15223830141E+04  0.15223830141E+04  0.00000000000E+00 0. -1.
          6    1    1    2  502    0  0.11863647220E+02 -0.67572881501E+02 -0.50167053749E+03  0.53475617680E+03  0.17200000000E+03 0.  1.
         -6    1    1    2    0  501 -0.11863647220E+02  0.67572881501E+02 -0.99563254366E+03  0.10127067702E+04  0.17200000000E+03 0. -1.
</event>
<event>
 4    1  0.3141404E-002  0.1745476E+03  0.7818608E-02  0.1173187E+00
          1   -1    0    0  502    0  0.00000000000E+00  0.00000000000E+00  0.82766883685E+02  0.82766883685E+02  0.00000000000E+00 0. -1.
         -1   -1    0    0    0  501 -0.00000000000E+00 -0.00000000000E+00 -0.40101660853E+03  0.40101660853E+03  0.00000000000E+00 0.  1.
          6    1    1    2  502    0  0.15628137840E+01 -0.29671998158E+02 -0.89827433306E+02  0.19630547021E+03  0.17200000000E+03 0. -1.
         -6    1    1    2    0  501 -0.15628137840E+01  0.29671998158E+02 -0.22842229154E+03  0.28747802200E+03  0.17200000000E+03 0.  1.
</event>
<event>
 4    1  0.3141404E-002  0.4142429E+03  0.7818608E-02  0.1038956E+00
         -2   -1    0    0    0  501 -0.00000000000E+00  0.00000000000E+00  0.57642857058E+03  0.57642857058E+03  0.00000000000E+00 0.  1.
          2   -1    0    0  502    0  0.00000000000E+00 -0.00000000000E+00 -0.30263284188E+03  0.30263284188E+03  0.00000000000E+00 0. -1.
          6    1    1    2  502    0 -0.37559185356E+03 -0.30723337751E+02  0.80727315077E+02  0.42203561857E+03  0.17200000000E+03 0. -1.
         -6    1    1    2    0  501  0.37559185356E+03  0.30723337751E+02  0.19306841363E+03  0.45702579389E+03  0.17200000000E+03 0.  1.
</event>
<event>
 4    1  0.3141404E-002  0.2319045E+03  0.7818608E-02  0.1125306E+00
          1   -1    0    0  502    0  0.00000000000E+00  0.00000000000E+00  0.37169305551E+03  0.37169305551E+03  0.00000000000E+00 0. -1.
         -1   -1    0    0    0  501 -0.00000000000E+00 -0.00000000000E+00 -0.15600633217E+03  0.15600633217E+03  0.00000000000E+00 0.  1.
          6    1    1    2  502    0  0.15078168239E+03 -0.38217752100E+02  0.17891020423E+03  0.29289686495E+03  0.17200000000E+03 0. -1.
         -6    1    1    2    0  501 -0.15078168239E+03  0.38217752100E+02  0.36776519107E+02  0.23480252273E+03  0.17200000000E+03 0.  1.
</event>
<event>
 4    1  0.3141404E-002  0.2193518E+03  0.7818608E-02  0.1134367E+00
          2   -1    0    0  502    0  0.00000000000E+00  0.00000000000E+00  0.90250335525E+03  0.90250335525E+03  0.00000000000E+00 0. -1.
         -2   -1    0    0    0  501 -0.00000000000E+00 -0.00000000000E+00 -0.85311885489E+02  0.85311885489E+02  0.00000000000E+00 0.  1.
          6    1    1    2  502    0  0.11412915988E+03 -0.74200645493E+02  0.71108368954E+03  0.74414730697E+03  0.17200000000E+03 0. -1.
         -6    1    1    2    0  501 -0.11412915988E+03  0.74200645493E+02  0.10610778022E+03  0.24366793377E+03  0.17200000000E+03 0.  1.
</event>
<event>
 4    1  0.3141404E-002  0.2431368E+03  0.7818608E-02  0.1117721E+00
         -1   -1    0    0    0  501 -0.00000000000E+00  0.00000000000E+00  0.52205430295E+02  0.52205430295E+02  0.00000000000E+00 0.  1.
          1   -1    0    0  502    0  0.00000000000E+00 -0.00000000000E+00 -0.16433923898E+04  0.16433923898E+04  0.00000000000E+00 0. -1.
          6    1    1    2  502    0  0.15589864818E+03  0.72298751350E+02 -0.12683583029E+04  0.12914520054E+04  0.17200000000E+03 0. -1.
         -6    1    1    2    0  501 -0.15589864818E+03 -0.72298751350E+02 -0.32282865669E+03  0.40414581469E+03  0.17200000000E+03 0.  1.
</event>
<event>
 4    1  0.3141404E-002  0.2146738E+03  0.7818608E-02  0.1137917E+00
         -1   -1    0    0    0  501 -0.00000000000E+00  0.00000000000E+00  0.99123833016E+02  0.99123833016E+02  0.00000000000E+00 0.  1.
          1   -1    0    0  502    0  0.00000000000E+00 -0.00000000000E+00 -0.79719680652E+03  0.79719680652E+03  0.00000000000E+00 0. -1.
          6    1    1    2  502    0 -0.10044286717E+03  0.80075372024E+02 -0.59702508777E+02  0.22282105898E+03  0.17200000000E+03 0. -1.
         -6    1    1    2    0  501  0.10044286717E+03 -0.80075372024E+02 -0.63837046472E+03  0.67349958055E+03  0.17200000000E+03 0. -1.
</event>
<event>
 4    1  0.3141404E-002  0.1761734E+03  0.7818608E-02  0.1171559E+00
          3   -1    0    0  502    0  0.00000000000E+00  0.00000000000E+00  0.39032513306E+03  0.39032513306E+03  0.00000000000E+00 0. -1.
         -3   -1    0    0    0  501 -0.00000000000E+00 -0.00000000000E+00 -0.10208900254E+03  0.10208900254E+03  0.00000000000E+00 0.  1.
          6    1    1    2  502    0  0.37484069872E+02 -0.69279941672E+01  0.25989090967E+03  0.31397505876E+03  0.17200000000E+03 0. -1.
         -6    1    1    2    0  501 -0.37484069872E+02  0.69279941672E+01  0.28345220854E+02  0.17843907684E+03  0.17200000000E+03 0.  1.
</event>
<event>
 4    1  0.3141404E-002  0.3869543E+03  0.7818608E-02  0.1048393E+00
          1   -1    0    0  502    0  0.00000000000E+00  0.00000000000E+00  0.52679812117E+03  0.52679812117E+03  0.00000000000E+00 0. -1.
         -1   -1    0    0    0  501 -0.00000000000E+00 -0.00000000000E+00 -0.32302714915E+03  0.32302714915E+03  0.00000000000E+00 0.  1.
          6    1    1    2  502    0 -0.29558655398E+03 -0.18104765535E+03  0.24913726476E+03  0.46022064392E+03  0.17200000000E+03 0. -1.
         -6    1    1    2    0  501  0.29558655398E+03  0.18104765535E+03 -0.45366292744E+02  0.38960462640E+03  0.17200000000E+03 0.  1.
</event>
<event>
 4    1  0.3141404E-002  0.2181243E+03  0.7818608E-02  0.1135289E+00
         -1   -1    0    0    0  501 -0.00000000000E+00  0.00000000000E+00  0.26383027572E+03  0.26383027572E+03  0.00000000000E+00 0.  1.
          1   -1    0    0  502    0  0.00000000000E+00 -0.00000000000E+00 -0.18373221476E+03  0.18373221476E+03  0.00000000000E+00 0. -1.
          6    1    1    2  502    0 -0.12996186572E+03  0.33228224476E+02  0.70472111535E+02  0.22922591465E+03  0.17200000000E+03 0. -1.
         -6    1    1    2    0  501  0.12996186572E+03 -0.33228224476E+02  0.96259494264E+01  0.21833657583E+03  0.17200000000E+03 0.  1.
</event>
<event>
 4    1  0.3141404E-002  0.6258956E+03  0.7818608E-02  0.9853091E-01
         -2   -1    0    0    0  501 -0.00000000000E+00  0.00000000000E+00  0.24511122950E+03  0.24511122950E+03  0.00000000000E+00 0.  1.
          2   -1    0    0  502    0  0.00000000000E+00 -0.00000000000E+00 -0.17579903210E+04  0.17579903210E+04  0.00000000000E+00 0. -1.
          6    1    1    2  502    0 -0.49958503333E+03  0.33552354587E+03 -0.10583602527E+04  0.12295819126E+04  0.17200000000E+03 0. -1.
         -6    1    1    2    0  501  0.49958503333E+03 -0.33552354587E+03 -0.45451883880E+03  0.77351963788E+03  0.17200000000E+03 0.  1.
</event>
<event>
 4    1  0.3141404E-002  0.3191588E+03  0.7818608E-02  0.1076037E+00
         -2   -1    0    0    0  501 -0.00000000000E+00  0.00000000000E+00  0.28575722103E+02  0.28575722103E+02  0.00000000000E+00 0.  1.
          2   -1    0    0  502    0  0.00000000000E+00 -0.00000000000E+00 -0.35946759659E+04  0.35946759659E+04  0.00000000000E+00 0. -1.
          6    1    1    2  502    0  0.26847314437E+03 -0.14160882697E+02 -0.19486306961E+04  0.19745946292E+04  0.17200000000E+03 0. -1.
         -6    1    1    2    0  501 -0.26847314437E+03  0.14160882697E+02 -0.16174695477E+04  0.16486570588E+04  0.17200000000E+03 0.  1.
</event>
<event>
 4    1  0.3141404E-002  0.1765601E+03  0.7818608E-02  0.1171174E+00
          2   -1    0    0  502    0  0.00000000000E+00  0.00000000000E+00  0.26615362585E+03  0.26615362585E+03  0.00000000000E+00 0. -1.
         -2   -1    0    0    0  501 -0.00000000000E+00 -0.00000000000E+00 -0.14393903941E+03  0.14393903941E+03  0.00000000000E+00 0.  1.
          6    1    1    2  502    0 -0.21674922389E+02 -0.33461400504E+02 -0.27391430430E+02  0.17867220837E+03  0.17200000000E+03 0.  1.
         -6    1    1    2    0  501  0.21674922389E+02  0.33461400504E+02  0.14960601686E+03  0.23142045689E+03  0.17200000000E+03 0. -1.
</event>
<event>
 4    1  0.3141404E-002  0.3292651E+03  0.7818608E-02  0.1071462E+00
          2   -1    0    0  502    0  0.00000000000E+00  0.00000000000E+00  0.37787947946E+03  0.37787947946E+03  0.00000000000E+00 0. -1.
         -2   -1    0    0    0  501 -0.00000000000E+00 -0.00000000000E+00 -0.82910226701E+03  0.82910226701E+03  0.00000000000E+00 0.  1.
          6    1    1    2  502    0  0.13153549295E+03  0.24805228884E+03  0.26241724102E+03  0.42104433530E+03  0.17200000000E+03 0. -1.
         -6    1    1    2    0  501 -0.13153549295E+03 -0.24805228884E+03 -0.71364002857E+03  0.78593741117E+03  0.17200000000E+03 0.  1.
</event>
<event>
 4    1  0.3141404E-002  0.2128352E+03  0.7818608E-02  0.1139340E+00
          2   -1    0    0  502    0  0.00000000000E+00  0.00000000000E+00  0.44612333210E+03  0.44612333210E+03  0.00000000000E+00 0. -1.
         -2   -1    0    0    0  501 -0.00000000000E+00 -0.00000000000E+00 -0.24303523903E+03  0.24303523903E+03  0.00000000000E+00 0.  1.
          6    1    1    2  502    0  0.87351985793E+02 -0.89913604951E+02  0.36446627454E+03  0.42205981929E+03  0.17200000000E+03 0. -1.
         -6    1    1    2    0  501 -0.87351985793E+02  0.89913604951E+02 -0.16137818148E+03  0.26709875184E+03  0.17200000000E+03 0.  1.
</event>
<event>
 4    1  0.3141404E-002  0.1878384E+03  0.7818608E-02  0.1160426E+00
          3   -1    0    0  502    0  0.00000000000E+00  0.00000000000E+00  0.86221415429E+02  0.86221415429E+02  0.00000000000E+00 0. -1.
         -3   -1    0    0    0  501 -0.00000000000E+00 -0.00000000000E+00 -0.42850600974E+03  0.42850600974E+03  0.00000000000E+00 0.  1.
          6    1    1    2  502    0  0.31446205032E+02 -0.68632259014E+02 -0.22574651527E+03  0.29367454766E+03  0.17200000000E+03 0.  1.
         -6    1    1    2    0  501 -0.31446205032E+02  0.68632259014E+02 -0.11653807905E+03  0.22105287751E+03  0.17200000000E+03 0. -1.
</event>
<event>
 4    1  0.3141404E-002  0.1816739E+03  0.7818608E-02  0.1166193E+00
         -1   -1    0    0    0  501 -0.00000000000E+00  0.00000000000E+00  0.28967896904E+03  0.28967896904E+03  0.00000000000E+00 0.  1.
          1   -1    0    0  502    0  0.00000000000E+00 -0.00000000000E+00 -0.13609247886E+03  0.13609247886E+03  0.00000000000E+00 0. -1.
          6    1    1    2  502    0 -0.33277736817E+02 -0.48104040338E+02 -0.91004845231E+01  0.18190169126E+03  0.17200000000E+03 0. -1.
         -6    1    1    2    0  501  0.33277736817E+02  0.48104040338E+02  0.16268697471E+03  0.24386975664E+03  0.17200000000E+03 0.  1.
</event>
<event>
 4    1  0.3141404E-002  0.3639160E+03  0.7818608E-02  0.1057044E+00
         -2   -1    0    0    0  501 -0.00000000000E+00  0.00000000000E+00  0.62544679964E+03  0.62544679964E+03  0.00000000000E+00 0.  1.
          2   -1    0    0  502    0  0.00000000000E+00 -0.00000000000E+00 -0.53694638723E+03  0.53694638723E+03  0.00000000000E+00 0. -1.
          6    1    1    2  502    0  0.38124066719E+02 -0.31842965636E+03 -0.40805767772E+03  0.54675950733E+03  0.17200000000E+03 0. -1.
         -6    1    1    2    0  501 -0.38124066719E+02  0.31842965636E+03  0.49655809013E+03  0.61563367954E+03  0.17200000000E+03 0.  1.
</event>
<event>
 4    1  0.3141404E-002  0.2388288E+03  0.7818608E-02  0.1120575E+00
         -2   -1    0    0    0  501 -0.00000000000E+00  0.00000000000E+00  0.14546009620E+03  0.14546009620E+03  0.00000000000E+00 0.  1.
          2   -1    0    0  502    0  0.00000000000E+00 -0.00000000000E+00 -0.45534861903E+03  0.45534861903E+03  0.00000000000E+00 0. -1.
          6    1    1    2  502    0  0.15262603269E+03  0.64501957773E+02 -0.43011268949E+02  0.24267092464E+03  0.17200000000E+03 0.  1.
         -6    1    1    2    0  501 -0.15262603269E+03 -0.64501957773E+02 -0.26687725388E+03  0.35813779059E+03  0.17200000000E+03 0. -1.
</event>
<event>
 4    1  0.3141404E-002  0.4671574E+03  0.7818608E-02  0.1022726E+00
          2   -1    0    0  502    0  0.00000000000E+00  0.00000000000E+00  0.32941998519E+03  0.32941998519E+03  0.00000000000E+00 0. -1.
         -2   -1    0    0    0  501 -0.00000000000E+00 -0.00000000000E+00 -0.93515812343E+03  0.93515812343E+03  0.00000000000E+00 0.  1.
          6    1    1    2  502    0  0.43091020610E+03 -0.54482990755E+02  0.38554748257E+02  0.46874563530E+03  0.17200000000E+03 0. -1.
         -6    1    1    2    0  501 -0.43091020610E+03  0.54482990755E+02 -0.64429288650E+03  0.79583247332E+03  0.17200000000E+03 0.  1.
</event>
<event>
 4    1  0.3141404E-002  0.6262546E+03  0.7818608E-02  0.9852385E-01
          3   -1    0    0  502    0  0.00000000000E+00  0.00000000000E+00  0.10371307785E+04  0.10371307785E+04  0.00000000000E+00 0. -1.
         -3   -1    0    0    0  501 -0.00000000000E+00 -0.00000000000E+00 -0.46801618889E+03  0.46801618889E+03  0.00000000000E+00 0.  1.
          6    1    1    2  502    0  0.56719936972E+03  0.20222675612E+03  0.61432477435E+03  0.87726262560E+03  0.17200000000E+03 0. -1.
         -6    1    1    2    0  501 -0.56719936972E+03 -0.20222675612E+03 -0.45210184705E+02  0.62788434182E+03  0.17200000000E+03 0.  1.
</event>
<event>
 4    1  0.3141404E-002  0.2101254E+03  0.7818608E-02  0.1141467E+00
         -1   -1    0    0    0  501 -0.00000000000E+00  0.00000000000E+00  0.19728404312E+03  0.19728404312E+03  0.00000000000E+00 0.  1.
          1   -1    0    0  502    0  0.00000000000E+00 -0.00000000000E+00 -0.81551806803E+03  0.81551806803E+03  0.00000000000E+00 0. -1.
          6    1    1    2  502    0 -0.10593672878E+03 -0.57845255920E+02 -0.74047148217E+03  0.76970817849E+03  0.17200000000E+03 0. -1.
         -6    1    1    2    0  501  0.10593672878E+03  0.57845255920E+02  0.12223745725E+03  0.24309393265E+03  0.17200000000E+03 0.  1.
</event>
<event>
 4    1  0.3141404E-002  0.2229769E+03  0.7818608E-02  0.1131683E+00
          2   -1    0    0  502    0  0.00000000000E+00  0.00000000000E+00  0.15471418702E+03  0.15471418702E+03  0.00000000000E+00 0. -1.
         -2   -1    0    0    0  501 -0.00000000000E+00 -0.00000000000E+00 -0.33304801267E+03  0.33304801267E+03  0.00000000000E+00 0.  1.
          6    1    1    2  502    0 -0.10086130969E+03 -0.99808273861E+02 -0.13485739863E+03  0.26058628761E+03  0.17200000000E+03 0. -1.
         -6    1    1    2    0  501  0.10086130969E+03  0.99808273861E+02 -0.43476427014E+02  0.22717591208E+03  0.17200000000E+03 0.  1.
</event>
<event>
 4    1  0.3141404E-002  0.1909541E+03  0.7818608E-02  0.1157604E+00
         -2   -1    0    0    0  501 -0.00000000000E+00  0.00000000000E+00  0.13026862695E+03  0.13026862695E+03  0.00000000000E+00 0.  1.
          2   -1    0    0  502    0  0.00000000000E+00 -0.00000000000E+00 -0.28059146023E+03  0.28059146023E+03  0.00000000000E+00 0. -1.
          6    1    1    2  502    0  0.41643877786E+02  0.71730537667E+02 -0.85285797182E+02  0.20913428651E+03  0.17200000000E+03 0. -1.
         -6    1    1    2    0  501 -0.41643877786E+02 -0.71730537667E+02 -0.65037036100E+02  0.20172580067E+03  0.17200000000E+03 0.  1.
</event>
<event>
 4    1  0.3141404E-002  0.2013906E+03  0.7818608E-02  0.1148571E+00
         -2   -1    0    0    0  501 -0.00000000000E+00  0.00000000000E+00  0.52606093685E+02  0.52606093685E+02  0.00000000000E+00 0.  1.
          2   -1    0    0  502    0  0.00000000000E+00 -0.00000000000E+00 -0.81083932061E+03  0.81083932061E+03  0.00000000000E+00 0. -1.
          6    1    1    2  502    0  0.24896569013E+02  0.10175617353E+03 -0.47483856879E+03  0.51578079105E+03  0.17200000000E+03 0. -1.
         -6    1    1    2    0  501 -0.24896569013E+02 -0.10175617353E+03 -0.28339465813E+03  0.34766462325E+03  0.17200000000E+03 0.  1.
</event>
<event>
 4    1  0.3141404E-002  0.2079977E+03  0.7818608E-02  0.1143161E+00
         -1   -1    0    0    0  501 -0.00000000000E+00  0.00000000000E+00  0.21454230019E+03  0.21454230019E+03  0.00000000000E+00 0.  1.
          1   -1    0    0  502    0  0.00000000000E+00 -0.00000000000E+00 -0.20292852771E+03  0.20292852771E+03  0.00000000000E+00 0. -1.
          6    1    1    2  502    0 -0.54211635270E+02  0.10363466571E+03 -0.10743635349E+02  0.20827498898E+03  0.17200000000E+03 0. -1.
         -6    1    1    2    0  501  0.54211635270E+02 -0.10363466571E+03  0.22357407833E+02  0.20919583892E+03  0.17200000000E+03 0. -1.
</event>
<event>
 4    1  0.3141404E-002  0.4332956E+03  0.7818608E-02  0.1032824E+00
         -1   -1    0    0    0  501 -0.00000000000E+00  0.00000000000E+00  0.35028321186E+03  0.35028321186E+03  0.00000000000E+00 0.  1.
          1   -1    0    0  502    0  0.00000000000E+00 -0.00000000000E+00 -0.14125862932E+04  0.14125862932E+04  0.00000000000E+00 0. -1.
          6    1    1    2  502    0 -0.76781483596E+02  0.39021233074E+03 -0.12255116797E+04  0.12998553521E+04  0.17200000000E+03 0. -1.
         -6    1    1    2    0  501  0.76781483596E+02 -0.39021233074E+03  0.16320859834E+03  0.46301415298E+03  0.17200000000E+03 0.  1.
</event>
<event>
 4    1  0.3141404E-002  0.5142410E+03  0.7818608E-02  0.1010127E+00
         -2   -1    0    0    0  501 -0.00000000000E+00  0.00000000000E+00  0.69975298728E+03  0.69975298728E+03  0.00000000000E+00 0.  1.
          2   -1    0    0  502    0  0.00000000000E+00 -0.00000000000E+00 -0.93070303055E+03  0.93070303055E+03  0.00000000000E+00 0. -1.
          6    1    1    2  502    0  0.39180394589E+03 -0.28521827002E+03 -0.74375718146E+03  0.90422261559E+03  0.17200000000E+03 0. -1.
         -6    1    1    2    0  501 -0.39180394589E+03  0.28521827002E+03  0.51280713819E+03  0.72623340225E+03  0.17200000000E+03 0.  1.
</event>
<event>
 4    1  0.3141404E-002  0.2264230E+03  0.7818608E-02  0.1129183E+00
         -1   -1    0    0    0  501 -0.00000000000E+00  0.00000000000E+00  0.46712649724E+03  0.46712649724E+03  0.00000000000E+00 0.  1.
          1   -1    0    0  502    0  0.00000000000E+00 -0.00000000000E+00 -0.11717895205E+03  0.11717895205E+03  0.00000000000E+00 0. -1.
          6    1    1    2  502    0  0.81475143420E+02 -0.12265886286E+03  0.10141533708E+03  0.24809769493E+03  0.17200000000E+03 0. -1.
         -6    1    1    2    0  501 -0.81475143420E+02  0.12265886286E+03  0.24853220810E+03  0.33620775437E+03  0.17200000000E+03 0.  1.
</event>
<event>
 4    1  0.3141404E-002  0.2039587E+03  0.7818608E-02  0.1146441E+00
         -2   -1    0    0    0  501 -0.00000000000E+00  0.00000000000E+00  0.29716136799E+02  0.29716136799E+02  0.00000000000E+00 0.  1.
          2   -1    0    0  502    0  0.00000000000E+00 -0.00000000000E+00 -0.14088053055E+04  0.14088053055E+04  0.00000000000E+00 0. -1.
          6    1    1    2  502    0 -0.26103543076E+02  0.10646007604E+03 -0.74678152990E+03  0.77413293184E+03  0.17200000000E+03 0.  1.
         -6    1    1    2    0  501  0.26103543076E+02 -0.10646007604E+03 -0.63230763884E+03  0.66438851050E+03  0.17200000000E+03 0.  1.
</event>
<event>
 4    1  0.3141404E-002  0.2071552E+03  0.7818608E-02  0.1143839E+00
          1   -1    0    0  502    0  0.00000000000E+00  0.00000000000E+00  0.17803369871E+04  0.17803369871E+04  0.00000000000E+00 0. -1.
         -1   -1    0    0    0  501 -0.00000000000E+00 -0.00000000000E+00 -0.24155153250E+02  0.24155153250E+02  0.00000000000E+00 0.  1.
          6    1    1    2  502    0 -0.10642447727E+03 -0.44756085705E+02  0.91960314337E+03  0.94264692111E+03  0.17200000000E+03 0. -1.
         -6    1    1    2    0  501  0.10642447727E+03  0.44756085705E+02  0.83657869046E+03  0.86184521923E+03  0.17200000000E+03 0. -1.
</event>
<event>
 4    1  0.3141404E-002  0.1919592E+03  0.7818608E-02  0.1156706E+00
         -2   -1    0    0    0  501 -0.00000000000E+00  0.00000000000E+00  0.64814215217E+02  0.64814215217E+02  0.00000000000E+00 0.  1.
          2   -1    0    0  502    0  0.00000000000E+00 -0.00000000000E+00 -0.59265826298E+03  0.59265826298E+03  0.00000000000E+00 0. -1.
          6    1    1    2  502    0  0.60868727110E+01 -0.85013389835E+02 -0.19758167382E+03  0.27547566916E+03  0.17200000000E+03 0. -1.
         -6    1    1    2    0  501 -0.60868727110E+01  0.85013389835E+02 -0.33026237395E+03  0.38199680904E+03  0.17200000000E+03 0. -1.
</event>
<event>
 4    1  0.3141404E-002  0.1767069E+03  0.7818608E-02  0.1171029E+00
          2   -1    0    0  502    0  0.00000000000E+00  0.00000000000E+00  0.40561136674E+03  0.40561136674E+03  0.00000000000E+00 0. -1.
         -2   -1    0    0    0  501 -0.00000000000E+00 -0.00000000000E+00 -0.17032513651E+03  0.17032513651E+03  0.00000000000E+00 0.  1.
          6    1    1    2  502    0  0.22435824080E+02 -0.33733543308E+02  0.33082157101E+03  0.37505763556E+03  0.17200000000E+03 0. -1.
         -6    1    1    2    0  501 -0.22435824080E+02  0.33733543308E+02 -0.95535340774E+02  0.20087886769E+03  0.17200000000E+03 0.  1.
</event>
<event>
 4    1  0.3141404E-002  0.2167808E+03  0.7818608E-02  0.1136306E+00
          1   -1    0    0  502    0  0.00000000000E+00  0.00000000000E+00  0.17159036375E+04  0.17159036375E+04  0.00000000000E+00 0. -1.
         -1   -1    0    0    0  501 -0.00000000000E+00 -0.00000000000E+00 -0.34840046824E+02  0.34840046824E+02  0.00000000000E+00 0.  1.
          6    1    1    2  502    0  0.37403912713E+02 -0.12653407536E+03  0.12453985516E+04  0.12641247870E+04  0.17200000000E+03 0. -1.
         -6    1    1    2    0  501 -0.37403912713E+02  0.12653407536E+03  0.43566503912E+03  0.48661889732E+03  0.17200000000E+03 0.  1.
</event>
<event>
 4    1  0.3141404E-002  0.1917911E+03  0.7818608E-02  0.1156856E+00
         -1   -1    0    0    0  501 -0.00000000000E+00  0.00000000000E+00  0.46463854295E+03  0.46463854295E+03  0.00000000000E+00 0.  1.
          1   -1    0    0  502    0  0.00000000000E+00 -0.00000000000E+00 -0.12534808041E+03  0.12534808041E+03  0.00000000000E+00 0. -1.
          6    1    1    2  502    0 -0.82032242828E+02 -0.21691923863E+02 -0.94102031253E+01  0.19202182258E+03  0.17200000000E+03 0. -1.
         -6    1    1    2    0  501  0.82032242828E+02  0.21691923863E+02  0.34870066566E+03  0.39796480078E+03  0.17200000000E+03 0.  1.
</event>
<event>
 4    1  0.3141404E-002  0.3683636E+03  0.7818608E-02  0.1055320E+00
         -2   -1    0    0    0  501 -0.00000000000E+00  0.00000000000E+00  0.27011716594E+03  0.27011716594E+03  0.00000000000E+00 0.  1.
          2   -1    0    0  502    0  0.00000000000E+00 -0.00000000000E+00 -0.70266820059E+03  0.70266820059E+03  0.00000000000E+00 0. -1.
          6    1    1    2  502    0  0.32383219123E+03 -0.35220518933E+02 -0.47597940467E+03  0.60187055643E+03  0.17200000000E+03 0. -1.
         -6    1    1    2    0  501 -0.32383219123E+03  0.35220518933E+02  0.43428370025E+02  0.37091481010E+03  0.17200000000E+03 0.  1.
</event>
<event>
 4    1  0.3141404E-002  0.1856049E+03  0.7818608E-02  0.1162486E+00
         -1   -1    0    0    0  501 -0.00000000000E+00  0.00000000000E+00  0.38323524199E+02  0.38323524199E+02  0.00000000000E+00 0.  1.
          1   -1    0    0  502    0  0.00000000000E+00 -0.00000000000E+00 -0.95087249753E+03  0.95087249753E+03  0.00000000000E+00 0. -1.
          6    1    1    2  502    0  0.25454572420E+02  0.64940223880E+02 -0.34064690559E+03  0.38792973877E+03  0.17200000000E+03 0.  1.
         -6    1    1    2    0  501 -0.25454572420E+02 -0.64940223880E+02 -0.57190206774E+03  0.60126628295E+03  0.17200000000E+03 0. -1.
</event>
<event>
 4    1  0.3141404E-002  0.2784282E+03  0.7818608E-02  0.1096551E+00
         -1   -1    0    0    0  501 -0.00000000000E+00  0.00000000000E+00  0.26100749266E+03  0.26100749266E+03  0.00000000000E+00 0.  1.
          1   -1    0    0  502    0  0.00000000000E+00 -0.00000000000E+00 -0.29776450359E+03  0.29776450359E+03  0.00000000000E+00 0. -1.
          6    1    1    2  502    0  0.11701590960E+03 -0.18505552886E+03 -0.32426587204E+02  0.28031010581E+03  0.17200000000E+03 0. -1.
         -6    1    1    2    0  501 -0.11701590960E+03  0.18505552886E+03 -0.43304237234E+01  0.27846189044E+03  0.17200000000E+03 0.  1.
</event>
<event>
 4    1  0.3141404E-002  0.1961027E+03  0.7818608E-02  0.1153069E+00
         -1   -1    0    0    0  501 -0.00000000000E+00  0.00000000000E+00  0.26409696545E+03  0.26409696545E+03  0.00000000000E+00 0.  1.
          1   -1    0    0  502    0  0.00000000000E+00 -0.00000000000E+00 -0.15659480035E+03  0.15659480035E+03  0.00000000000E+00 0. -1.
          6    1    1    2  502    0 -0.59470627220E+02  0.73044643128E+02 -0.19492595284E+01  0.19611240400E+03  0.17200000000E+03 0. -1.
         -6    1    1    2    0  501  0.59470627220E+02 -0.73044643128E+02  0.10945142463E+03  0.22457936180E+03  0.17200000000E+03 0.  1.
</event>
<event>
 4    1  0.3141404E-002  0.3706246E+03  0.7818608E-02  0.1054454E+00
          2   -1    0    0  502    0  0.00000000000E+00  0.00000000000E+00  0.32242249752E+04  0.32242249752E+04  0.00000000000E+00 0. -1.
         -2   -1    0    0    0  501 -0.00000000000E+00 -0.00000000000E+00 -0.20695722004E+03  0.20695722004E+03  0.00000000000E+00 0.  1.
          6    1    1    2  502    0  0.36047249912E+02 -0.32631153052E+03  0.30374791279E+04  0.30600068744E+04  0.17200000000E+03 0. -1.
         -6    1    1    2    0  501 -0.36047249912E+02  0.32631153052E+03 -0.20211372747E+02  0.37117532079E+03  0.17200000000E+03 0.  1.
</event>
<event>
 4    1  0.3141404E-002  0.2362170E+03  0.7818608E-02  0.1122339E+00
          1   -1    0    0  502    0  0.00000000000E+00  0.00000000000E+00  0.14804438574E+04  0.14804438574E+04  0.00000000000E+00 0. -1.
         -1   -1    0    0    0  501 -0.00000000000E+00 -0.00000000000E+00 -0.38795536210E+02  0.38795536210E+02  0.00000000000E+00 0.  1.
          6    1    1    2  502    0 -0.16104485553E+03 -0.16703643880E+02  0.59261421068E+03  0.63795772580E+03  0.17200000000E+03 0.  1.
         -6    1    1    2    0  501  0.16104485553E+03  0.16703643880E+02  0.84903411056E+03  0.88128166786E+03  0.17200000000E+03 0. -1.
</event>
<event>
 4    1  0.3141404E-002  0.1836943E+03  0.7818608E-02  0.1164275E+00
          1   -1    0    0  502    0  0.00000000000E+00  0.00000000000E+00  0.20194698927E+04  0.20194698927E+04  0.00000000000E+00 0. -1.
         -1   -1    0    0    0  501 -0.00000000000E+00 -0.00000000000E+00 -0.26294491563E+02  0.26294491563E+02  0.00000000000E+00 0.  1.
          6    1    1    2  502    0  0.41277742540E+02  0.49555372113E+02  0.37900168048E+03  0.42117200849E+03  0.17200000000E+03 0.  1.
         -6    1    1    2    0  501 -0.41277742540E+02 -0.49555372113E+02  0.16141737206E+04  0.16245923757E+04  0.17200000000E+03 0.  1.
</event>
<event>
 4    1  0.3141404E-002  0.5108101E+03  0.7818608E-02  0.1010995E+00
         -2   -1    0    0    0  501 -0.00000000000E+00  0.00000000000E+00  0.19686115021E+03  0.19686115021E+03  0.00000000000E+00 0.  1.
          2   -1    0    0  502    0  0.00000000000E+00 -0.00000000000E+00 -0.13258415933E+04  0.13258415933E+04  0.00000000000E+00 0. -1.
          6    1    1    2  502    0 -0.30215590218E+03 -0.37422560290E+03 -0.55118520052E+03  0.75148660425E+03  0.17200000000E+03 0. -1.
         -6    1    1    2    0  501  0.30215590218E+03  0.37422560290E+03 -0.57779524253E+03  0.77121613921E+03  0.17200000000E+03 0.  1.
</event>
<event>
 4    1  0.3141404E-002  0.2347642E+03  0.7818608E-02  0.1123331E+00
         -2   -1    0    0    0  501 -0.00000000000E+00  0.00000000000E+00  0.20898472971E+03  0.20898472971E+03  0.00000000000E+00 0.  1.
          2   -1    0    0  502    0  0.00000000000E+00 -0.00000000000E+00 -0.52778078881E+03  0.52778078881E+03  0.00000000000E+00 0. -1.
          6    1    1    2  502    0  0.15919221447E+03 -0.13713230214E+02 -0.41996626476E+03  0.48112979264E+03  0.17200000000E+03 0. -1.
         -6    1    1    2    0  501 -0.15919221447E+03  0.13713230214E+02  0.10117020567E+03  0.25563572588E+03  0.17200000000E+03 0.  1.
</event>
<event>
 4    1  0.3141404E-002  0.1893370E+03  0.7818608E-02  0.1159061E+00
          1   -1    0    0  502    0  0.00000000000E+00  0.00000000000E+00  0.96699191941E+02  0.96699191941E+02  0.00000000000E+00 0. -1.
         -1   -1    0    0    0  501 -0.00000000000E+00 -0.00000000000E+00 -0.52401003406E+03  0.52401003406E+03  0.00000000000E+00 0.  1.
          6    1    1    2  502    0  0.95430603047E+01  0.78571241442E+02 -0.45797188639E+02  0.19479705457E+03  0.17200000000E+03 0. -1.
         -6    1    1    2    0  501 -0.95430603047E+01 -0.78571241442E+02 -0.38151365348E+03  0.42591217143E+03  0.17200000000E+03 0.  1.
</event>
<event>
 4    1  0.3141404E-002  0.3135990E+03  0.7818608E-02  0.1078634E+00
         -2   -1    0    0    0  501 -0.00000000000E+00  0.00000000000E+00  0.11137329834E+03  0.11137329834E+03  0.00000000000E+00 0.  1.
          2   -1    0    0  502    0  0.00000000000E+00 -0.00000000000E+00 -0.11292896590E+04  0.11292896590E+04  0.00000000000E+00 0. -1.
          6    1    1    2  502    0  0.21034597283E+03 -0.15657234284E+03 -0.79864633672E+03  0.85800949760E+03  0.17200000000E+03 0. -1.
         -6    1    1    2    0  501 -0.21034597283E+03  0.15657234284E+03 -0.21927002390E+03  0.38265345968E+03  0.17200000000E+03 0.  1.
</event>
<event>
 4    1  0.3141404E-002  0.3537711E+03  0.7818608E-02  0.1061078E+00
         -1   -1    0    0    0  501 -0.00000000000E+00  0.00000000000E+00  0.15891257536E+03  0.15891257536E+03  0.00000000000E+00 0.  1.
          1   -1    0    0  502    0  0.00000000000E+00 -0.00000000000E+00 -0.82427416037E+03  0.82427416037E+03  0.00000000000E+00 0. -1.
          6    1    1    2  502    0  0.30390565021E+03 -0.56668840698E+02 -0.43642328513E+03  0.56180004053E+03  0.17200000000E+03 0. -1.
         -6    1    1    2    0  501 -0.30390565021E+03  0.56668840698E+02 -0.22893829988E+03  0.42138669520E+03  0.17200000000E+03 0.  1.
</event>
<event>
 4    1  0.3141404E-002  0.3230137E+03  0.7818608E-02  0.1074271E+00
          1   -1    0    0  502    0  0.00000000000E+00  0.00000000000E+00  0.45850763941E+03  0.45850763941E+03  0.00000000000E+00 0. -1.
         -1   -1    0    0    0  501 -0.00000000000E+00 -0.00000000000E+00 -0.22794050448E+03  0.22794050448E+03  0.00000000000E+00 0.  1.
          6    1    1    2  502    0 -0.24189500784E+03 -0.12743884401E+03  0.12931257125E+03  0.34793619366E+03  0.17200000000E+03 0. -1.
         -6    1    1    2    0  501  0.24189500784E+03  0.12743884401E+03  0.10125456369E+03  0.33851195023E+03  0.17200000000E+03 0. -1.
</event>
<event>
 4    1  0.3141404E-002  0.2430389E+03  0.7818608E-02  0.1117785E+00
         -2   -1    0    0    0  501 -0.00000000000E+00  0.00000000000E+00  0.18661179955E+04  0.18661179955E+04  0.00000000000E+00 0.  1.
          2   -1    0    0  502    0  0.00000000000E+00 -0.00000000000E+00 -0.10020940394E+03  0.10020940394E+03  0.00000000000E+00 0. -1.
          6    1    1    2  502    0  0.52669454460E+01  0.17162800113E+03  0.69756569206E+02  0.25285151855E+03  0.17200000000E+03 0. -1.
         -6    1    1    2    0  501 -0.52669454460E+01 -0.17162800113E+03  0.16961520224E+04  0.17134758809E+04  0.17200000000E+03 0.  1.
</event>
<event>
 4    1  0.3141404E-002  0.1980387E+03  0.7818608E-02  0.1151404E+00
          2   -1    0    0  502    0  0.00000000000E+00  0.00000000000E+00  0.80451211979E+03  0.80451211979E+03  0.00000000000E+00 0. -1.
         -2   -1    0    0    0  501 -0.00000000000E+00 -0.00000000000E+00 -0.52543034570E+02  0.52543034570E+02  0.00000000000E+00 0.  1.
          6    1    1    2  502    0  0.77633953552E+02  0.60068980973E+02  0.49113377192E+03  0.52955801867E+03  0.17200000000E+03 0. -1.
         -6    1    1    2    0  501 -0.77633953552E+02 -0.60068980973E+02  0.26083531330E+03  0.32749713568E+03  0.17200000000E+03 0.  1.
</event>
<event>
 4    1  0.3141404E-002  0.1816913E+03  0.7818608E-02  0.1166176E+00
         -1   -1    0    0    0  501 -0.00000000000E+00  0.00000000000E+00  0.29956507442E+02  0.29956507442E+02  0.00000000000E+00 0.  1.
          1   -1    0    0  502    0  0.00000000000E+00 -0.00000000000E+00 -0.11822137359E+04  0.11822137359E+04  0.00000000000E+00 0. -1.
          6    1    1    2  502    0 -0.24483264681E+02 -0.53181792986E+02 -0.73401348743E+03  0.75616633956E+03  0.17200000000E+03 0. -1.
         -6    1    1    2    0  501  0.24483264681E+02  0.53181792986E+02 -0.41824374101E+03  0.45600390377E+03  0.17200000000E+03 0.  1.
</event>
<event>
 4    1  0.3141404E-002  0.2030245E+03  0.7818608E-02  0.1147212E+00
         -2   -1    0    0    0  501 -0.00000000000E+00  0.00000000000E+00  0.32266874990E+02  0.32266874990E+02  0.00000000000E+00 0.  1.
          2   -1    0    0  502    0  0.00000000000E+00 -0.00000000000E+00 -0.13767326883E+04  0.13767326883E+04  0.00000000000E+00 0. -1.
          6    1    1    2  502    0  0.10579493250E+03  0.21033038309E+02 -0.48303452394E+03  0.52396689567E+03  0.17200000000E+03 0.  1.
         -6    1    1    2    0  501 -0.10579493250E+03 -0.21033038309E+02 -0.86143128933E+03  0.88503266758E+03  0.17200000000E+03 0. -1.
</event>
<event>
 4    1  0.3141404E-002  0.1785238E+03  0.7818608E-02  0.1169239E+00
         -1   -1    0    0    0  501 -0.00000000000E+00  0.00000000000E+00  0.14130698329E+03  0.14130698329E+03  0.00000000000E+00 0.  1.
          1   -1    0    0  502    0  0.00000000000E+00 -0.00000000000E+00 -0.23945367741E+03  0.23945367741E+03  0.00000000000E+00 0. -1.
          6    1    1    2  502    0 -0.41679127959E+02  0.23443452362E+02 -0.94960553654E+02  0.20220843681E+03  0.17200000000E+03 0. -1.
         -6    1    1    2    0  501  0.41679127959E+02 -0.23443452362E+02 -0.31861404692E+01  0.17855222389E+03  0.17200000000E+03 0.  1.
</event>
<event>
 4    1  0.3141404E-002  0.1922799E+03  0.7818608E-02  0.1156421E+00
          1   -1    0    0  502    0  0.00000000000E+00  0.00000000000E+00  0.16044232155E+04  0.16044232155E+04  0.00000000000E+00 0. -1.
         -1   -1    0    0    0  501 -0.00000000000E+00 -0.00000000000E+00 -0.26251493619E+02  0.26251493619E+02  0.00000000000E+00 0.  1.
          6    1    1    2  502    0 -0.82895843389E+02 -0.22711883174E+02  0.10741063369E+04  0.10911809994E+04  0.17200000000E+03 0. -1.
         -6    1    1    2    0  501  0.82895843389E+02  0.22711883174E+02  0.50406538501E+03  0.53949370975E+03  0.17200000000E+03 0.  1.
</event>
<event>
 4    1  0.3141404E-002  0.2081423E+03  0.7818608E-02  0.1143046E+00
          1   -1    0    0  502    0  0.00000000000E+00  0.00000000000E+00  0.17575950847E+03  0.17575950847E+03  0.00000000000E+00 0. -1.
         -1   -1    0    0    0  501 -0.00000000000E+00 -0.00000000000E+00 -0.26579049014E+03  0.26579049014E+03  0.00000000000E+00 0.  1.
          6    1    1    2  502    0 -0.38641136011E+02 -0.11066197950E+03 -0.10450609060E+03  0.23290498937E+03  0.17200000000E+03 0.  1.
         -6    1    1    2    0  501  0.38641136011E+02  0.11066197950E+03  0.14475108932E+02  0.20864500923E+03  0.17200000000E+03 0.  1.
</event>
<event>
 4    1  0.3141404E-002  0.2604220E+03  0.7818608E-02  0.1106890E+00
         -4   -1    0    0    0  501 -0.00000000000E+00  0.00000000000E+00  0.18067349107E+03  0.18067349107E+03  0.00000000000E+00 0.  1.
          4   -1    0    0  502    0  0.00000000000E+00 -0.00000000000E+00 -0.55697402820E+03  0.55697402820E+03  0.00000000000E+00 0. -1.
          6    1    1    2  502    0  0.94976186254E+02  0.17092431350E+03 -0.39875247127E+03  0.47625951984E+03  0.17200000000E+03 0. -1.
         -6    1    1    2    0  501 -0.94976186254E+02 -0.17092431350E+03  0.22451934139E+02  0.26138799943E+03  0.17200000000E+03 0.  1.
</event>
<event>
 4    1  0.3141404E-002  0.3924484E+03  0.7818608E-02  0.1046426E+00
         -1   -1    0    0    0  501 -0.00000000000E+00  0.00000000000E+00  0.56203882881E+03  0.56203882881E+03  0.00000000000E+00 0.  1.
          1   -1    0    0  502    0  0.00000000000E+00 -0.00000000000E+00 -0.53558471613E+03  0.53558471613E+03  0.00000000000E+00 0. -1.
          6    1    1    2  502    0 -0.14309579757E+03 -0.32242111989E+03 -0.37029486024E+03  0.53956841026E+03  0.17200000000E+03 0. -1.
         -6    1    1    2    0  501  0.14309579757E+03  0.32242111989E+03  0.39674897292E+03  0.55805513468E+03  0.17200000000E+03 0.  1.
</event>
<event>
 4    1  0.3141404E-002  0.2226661E+03  0.7818608E-02  0.1131911E+00
          1   -1    0    0  502    0  0.00000000000E+00  0.00000000000E+00  0.11449770854E+04  0.11449770854E+04  0.00000000000E+00 0. -1.
         -1   -1    0    0    0  501 -0.00000000000E+00 -0.00000000000E+00 -0.12090195258E+03  0.12090195258E+03  0.00000000000E+00 0.  1.
          6    1    1    2  502    0  0.44625950785E+02  0.13418169537E+03  0.10191161787E+04  0.10431577007E+04  0.17200000000E+03 0. -1.
         -6    1    1    2    0  501 -0.44625950785E+02 -0.13418169537E+03  0.49589541333E+01  0.22272133728E+03  0.17200000000E+03 0.  1.
</event>
<event>
 4    1  0.3141404E-002  0.5979766E+03  0.7818608E-02  0.9909613E-01
         -2   -1    0    0    0  501 -0.00000000000E+00  0.00000000000E+00  0.28156384719E+03  0.28156384719E+03  0.00000000000E+00 0.  1.
          2   -1    0    0  502    0  0.00000000000E+00 -0.00000000000E+00 -0.16378746970E+04  0.16378746970E+04  0.00000000000E+00 0. -1.
          6    1    1    2  502    0  0.26509872759E+03 -0.50765608802E+03 -0.11330124422E+04  0.12811296708E+04  0.17200000000E+03 0. -1.
         -6    1    1    2    0  501 -0.26509872759E+03  0.50765608802E+03 -0.22329840760E+03  0.63830887344E+03  0.17200000000E+03 0.  1.
</event>
<event>
 4    1  0.3141404E-002  0.3230079E+03  0.7818608E-02  0.1074273E+00
          2   -1    0    0  502    0  0.00000000000E+00  0.00000000000E+00  0.21251165813E+04  0.21251165813E+04  0.00000000000E+00 0. -1.
         -2   -1    0    0    0  501 -0.00000000000E+00 -0.00000000000E+00 -0.16550023481E+03  0.16550023481E+03  0.00000000000E+00 0.  1.
          6    1    1    2  502    0  0.25346392281E+03 -0.10249958519E+03  0.19403318120E+04  0.19670337226E+04  0.17200000000E+03 0. -1.
         -6    1    1    2    0  501 -0.25346392281E+03  0.10249958519E+03  0.19284534477E+02  0.32358309350E+03  0.17200000000E+03 0.  1.
</event>
<event>
 4    1  0.3141404E-002  0.1750918E+03  0.7818608E-02  0.1172640E+00
         -2   -1    0    0    0  501 -0.00000000000E+00  0.00000000000E+00  0.34011750235E+03  0.34011750235E+03  0.00000000000E+00 0.  1.
          2   -1    0    0  502    0  0.00000000000E+00 -0.00000000000E+00 -0.90651586175E+02  0.90651586175E+02  0.00000000000E+00 0. -1.
          6    1    1    2  502    0  0.13434043394E+02  0.29877580095E+02  0.14096191546E+03  0.22478301743E+03  0.17200000000E+03 0. -1.
         -6    1    1    2    0  501 -0.13434043394E+02 -0.29877580095E+02  0.10850400071E+03  0.20598607109E+03  0.17200000000E+03 0. -1.
</event>
<event>
 4    1  0.3141404E-002  0.4859413E+03  0.7818608E-02  0.1017515E+00
          2   -1    0    0  502    0  0.00000000000E+00  0.00000000000E+00  0.29990483132E+04  0.29990483132E+04  0.00000000000E+00 0. -1.
         -2   -1    0    0    0  501 -0.00000000000E+00 -0.00000000000E+00 -0.90469992472E+02  0.90469992472E+02  0.00000000000E+00 0.  1.
          6    1    1    2  502    0 -0.27978785845E+03  0.35815314313E+03  0.20105715242E+04  0.20684624178E+04  0.17200000000E+03 0. -1.
         -6    1    1    2    0  501  0.27978785845E+03 -0.35815314313E+03  0.89800679650E+03  0.10210558879E+04  0.17200000000E+03 0.  1.
</event>
<event>
 4    1  0.3141404E-002  0.3409666E+03  0.7818608E-02  0.1066385E+00
          2   -1    0    0  502    0  0.00000000000E+00  0.00000000000E+00  0.67698385251E+03  0.67698385251E+03  0.00000000000E+00 0. -1.
         -2   -1    0    0    0  501 -0.00000000000E+00 -0.00000000000E+00 -0.27653423699E+03  0.27653423699E+03  0.00000000000E+00 0.  1.
          6    1    1    2  502    0 -0.20270700984E+03 -0.21350429081E+03  0.49372918977E+03  0.60002227197E+03  0.17200000000E+03 0. -1.
         -6    1    1    2    0  501  0.20270700984E+03  0.21350429081E+03 -0.93279574256E+02  0.35349581753E+03  0.17200000000E+03 0.  1.
</event>
<event>
 4    1  0.3141404E-002  0.2168706E+03  0.7818608E-02  0.1136238E+00
          2   -1    0    0  502    0  0.00000000000E+00  0.00000000000E+00  0.25780239882E+04  0.25780239882E+04  0.00000000000E+00 0. -1.
         -2   -1    0    0    0  501 -0.00000000000E+00 -0.00000000000E+00 -0.36279732445E+02  0.36279732445E+02  0.00000000000E+00 0.  1.
          6    1    1    2  502    0  0.50792831351E+02 -0.12193832112E+03  0.21925172296E+04  0.22032168908E+04  0.17200000000E+03 0. -1.
         -6    1    1    2    0  501 -0.50792831351E+02  0.12193832112E+03  0.34922702624E+03  0.41108682992E+03  0.17200000000E+03 0.  1.
</event>
<event>
 4    1  0.3141404E-002  0.6419569E+03  0.7818608E-02  0.9821990E-01
         -2   -1    0    0    0  501 -0.00000000000E+00  0.00000000000E+00  0.65821607251E+03  0.65821607251E+03  0.00000000000E+00 0.  1.
          2   -1    0    0  502    0  0.00000000000E+00 -0.00000000000E+00 -0.71382536953E+03  0.71382536953E+03  0.00000000000E+00 0. -1.
          6    1    1    2  502    0 -0.27712721086E+03  0.55292414504E+03 -0.26829943126E+03  0.69576805473E+03  0.17200000000E+03 0. -1.
         -6    1    1    2    0  501  0.27712721086E+03 -0.55292414504E+03  0.21269013424E+03  0.67627338731E+03  0.17200000000E+03 0.  1.
</event>
<event>
 4    1  0.3141404E-002  0.2049345E+03  0.7818608E-02  0.1145641E+00
         -1   -1    0    0    0  501 -0.00000000000E+00  0.00000000000E+00  0.31826435408E+02  0.31826435408E+02  0.00000000000E+00 0.  1.
          1   -1    0    0  502    0  0.00000000000E+00 -0.00000000000E+00 -0.13209089818E+04  0.13209089818E+04  0.00000000000E+00 0. -1.
          6    1    1    2  502    0  0.55475311627E+02 -0.96626363763E+02 -0.66583306120E+03  0.69665761301E+03  0.17200000000E+03 0. -1.
         -6    1    1    2    0  501 -0.55475311627E+02  0.96626363763E+02 -0.62324948523E+03  0.65607780424E+03  0.17200000000E+03 0.  1.
</event>
<event>
 4    1  0.3141404E-002  0.1726436E+03  0.7818608E-02  0.1175119E+00
         -1   -1    0    0    0  501 -0.00000000000E+00  0.00000000000E+00  0.10435243829E+03  0.10435243829E+03  0.00000000000E+00 0.  1.
          1   -1    0    0  502    0  0.00000000000E+00 -0.00000000000E+00 -0.62200262720E+03  0.62200262720E+03  0.00000000000E+00 0. -1.
          6    1    1    2  502    0 -0.70179021509E+01 -0.13136006149E+02 -0.52590151503E+03  0.55351441636E+03  0.17200000000E+03 0. -1.
         -6    1    1    2    0  501  0.70179021509E+01  0.13136006149E+02  0.82513261263E+01  0.17284064913E+03  0.17200000000E+03 0.  1.
</event>
<event>
 4    1  0.3141404E-002  0.1958471E+03  0.7818608E-02  0.1153291E+00
         -2   -1    0    0    0  501 -0.00000000000E+00  0.00000000000E+00  0.40350830322E+03  0.40350830322E+03  0.00000000000E+00 0.  1.
          2   -1    0    0  502    0  0.00000000000E+00 -0.00000000000E+00 -0.18692632338E+03  0.18692632338E+03  0.00000000000E+00 0. -1.
          6    1    1    2  502    0 -0.93541099542E+02  0.47065634183E+01 -0.98672157531E+02  0.21929952967E+03  0.17200000000E+03 0. -1.
         -6    1    1    2    0  501  0.93541099542E+02 -0.47065634183E+01  0.31525413737E+03  0.37113509693E+03  0.17200000000E+03 0.  1.
</event>
<event>
 4    1  0.3141404E-002  0.1732744E+03  0.7818608E-02  0.1174476E+00
          2   -1    0    0  502    0  0.00000000000E+00  0.00000000000E+00  0.46536137677E+03  0.46536137677E+03  0.00000000000E+00 0. -1.
         -2   -1    0    0    0  501 -0.00000000000E+00 -0.00000000000E+00 -0.64865830039E+02  0.64865830039E+02  0.00000000000E+00 0.  1.
          6    1    1    2  502    0 -0.16304815253E+02  0.13197483978E+02  0.18082423125E+03  0.25044245485E+03  0.17200000000E+03 0.  1.
         -6    1    1    2    0  501  0.16304815253E+02 -0.13197483978E+02  0.21967131548E+03  0.27978475196E+03  0.17200000000E+03 0. -1.
</event>
<event>
 4    1  0.3141404E-002  0.2229197E+03  0.7818608E-02  0.1131725E+00
          1   -1    0    0  502    0  0.00000000000E+00  0.00000000000E+00  0.33098072000E+03  0.33098072000E+03  0.00000000000E+00 0. -1.
         -1   -1    0    0    0  501 -0.00000000000E+00 -0.00000000000E+00 -0.15217751311E+03  0.15217751311E+03  0.00000000000E+00 0.  1.
          6    1    1    2  502    0  0.19944384530E+02 -0.14039736076E+03  0.11736012275E+03  0.25192577437E+03  0.17200000000E+03 0.  1.
         -6    1    1    2    0  501 -0.19944384530E+02  0.14039736076E+03  0.61443084142E+02  0.23123245873E+03  0.17200000000E+03 0. -1.
</event>
<event>
 4    1  0.3141404E-002  0.2980507E+03  0.7818608E-02  0.1086219E+00
          2   -1    0    0  502    0  0.00000000000E+00  0.00000000000E+00  0.28689913638E+04  0.28689913638E+04  0.00000000000E+00 0. -1.
         -2   -1    0    0    0  501 -0.00000000000E+00 -0.00000000000E+00 -0.33348153478E+02  0.33348153478E+02  0.00000000000E+00 0.  1.
          6    1    1    2  502    0 -0.16977146893E+03  0.17443580974E+03  0.10297704727E+04  0.10720361141E+04  0.17200000000E+03 0. -1.
         -6    1    1    2    0  501  0.16977146893E+03 -0.17443580974E+03  0.18058727376E+04  0.18303034032E+04  0.17200000000E+03 0.  1.
</event>
<event>
 4    1  0.3141404E-002  0.1774881E+03  0.7818608E-02  0.1170256E+00
          2   -1    0    0  502    0  0.00000000000E+00  0.00000000000E+00  0.11412652867E+03  0.11412652867E+03  0.00000000000E+00 0. -1.
         -2   -1    0    0    0  501 -0.00000000000E+00 -0.00000000000E+00 -0.27938857137E+03  0.27938857137E+03  0.00000000000E+00 0.  1.
          6    1    1    2  502    0 -0.11527711987E+02 -0.42250718503E+02 -0.61048920790E+02  0.18769385202E+03  0.17200000000E+03 0. -1.
         -6    1    1    2    0  501  0.11527711987E+02  0.42250718503E+02 -0.10421312191E+03  0.20582124802E+03  0.17200000000E+03 0.  1.
</event>
<event>
 4    1  0.3141404E-002  0.2541546E+03  0.7818608E-02  0.1110707E+00
          1   -1    0    0  502    0  0.00000000000E+00  0.00000000000E+00  0.13457176201E+03  0.13457176201E+03  0.00000000000E+00 0. -1.
         -1   -1    0    0    0  501 -0.00000000000E+00 -0.00000000000E+00 -0.49252595168E+03  0.49252595168E+03  0.00000000000E+00 0.  1.
          6    1    1    2  502    0 -0.43446699318E+02 -0.18199712597E+03 -0.12897593457E+03  0.28500765120E+03  0.17200000000E+03 0. -1.
         -6    1    1    2    0  501  0.43446699318E+02  0.18199712597E+03 -0.22897825511E+03  0.34209006249E+03  0.17200000000E+03 0.  1.
</event>
<event>
 4    1  0.3141404E-002  0.1739525E+03  0.7818608E-02  0.1173788E+00
          2   -1    0    0  502    0  0.00000000000E+00  0.00000000000E+00  0.52733977152E+03  0.52733977152E+03  0.00000000000E+00 0. -1.
         -2   -1    0    0    0  501 -0.00000000000E+00 -0.00000000000E+00 -0.88906829510E+02  0.88906829510E+02  0.00000000000E+00 0.  1.
          6    1    1    2  502    0 -0.25126007637E+02  0.66449616877E+01  0.40269606937E+03  0.43866114036E+03  0.17200000000E+03 0. -1.
         -6    1    1    2    0  501  0.25126007637E+02 -0.66449616877E+01  0.35736872641E+02  0.17758546067E+03  0.17200000000E+03 0.  1.
</event>
<event>
 4    1  0.3141404E-002  0.2306004E+03  0.7818608E-02  0.1126218E+00
          2   -1    0    0  502    0  0.00000000000E+00  0.00000000000E+00  0.69260094721E+03  0.69260094721E+03  0.00000000000E+00 0. -1.
         -2   -1    0    0    0  501 -0.00000000000E+00 -0.00000000000E+00 -0.76986696021E+02  0.76986696021E+02  0.00000000000E+00 0.  1.
          6    1    1    2  502    0 -0.12022839020E+03 -0.95591127785E+02  0.28777364985E+03  0.36876849523E+03  0.17200000000E+03 0. -1.
         -6    1    1    2    0  501  0.12022839020E+03  0.95591127785E+02  0.32784060133E+03  0.40081914800E+03  0.17200000000E+03 0. -1.
</event>
<event>
 4    1  0.3141404E-002  0.1804397E+03  0.7818608E-02  0.1167378E+00
          2   -1    0    0  502    0  0.00000000000E+00  0.00000000000E+00  0.18031326202E+03  0.18031326202E+03  0.00000000000E+00 0. -1.
         -2   -1    0    0    0  501 -0.00000000000E+00 -0.00000000000E+00 -0.21944331330E+03  0.21944331330E+03  0.00000000000E+00 0.  1.
          6    1    1    2  502    0  0.16546660535E+02  0.51968073552E+02 -0.10369518155E+03  0.20811334248E+03  0.17200000000E+03 0.  1.
         -6    1    1    2    0  501 -0.16546660535E+02 -0.51968073552E+02  0.64565130267E+02  0.19164323283E+03  0.17200000000E+03 0. -1.
</event>
<event>
 4    1  0.3141404E-002  0.1962022E+03  0.7818608E-02  0.1152983E+00
          2   -1    0    0  502    0  0.00000000000E+00  0.00000000000E+00  0.31096552671E+04  0.31096552671E+04  0.00000000000E+00 0. -1.
         -2   -1    0    0    0  501 -0.00000000000E+00 -0.00000000000E+00 -0.12390407305E+02  0.12390407305E+02  0.00000000000E+00 0.  1.
          6    1    1    2  502    0  0.37591829718E+02 -0.86591795196E+02  0.15018464849E+04  0.15146082493E+04  0.17200000000E+03 0.  1.
         -6    1    1    2    0  501 -0.37591829718E+02  0.86591795196E+02  0.15954183749E+04  0.16074374251E+04  0.17200000000E+03 0.  1.
</event>
<event>
 4    1  0.3141404E-002  0.3331581E+03  0.7818608E-02  0.1069748E+00
         -2   -1    0    0    0  501 -0.00000000000E+00  0.00000000000E+00  0.48674861511E+03  0.48674861511E+03  0.00000000000E+00 0.  1.
          2   -1    0    0  502    0  0.00000000000E+00 -0.00000000000E+00 -0.34278696672E+03  0.34278696672E+03  0.00000000000E+00 0. -1.
          6    1    1    2  502    0 -0.27687312105E+03 -0.68931936853E+02 -0.16800098322E+03  0.37312017828E+03  0.17200000000E+03 0. -1.
         -6    1    1    2    0  501  0.27687312105E+03  0.68931936853E+02  0.31196263162E+03  0.45641540355E+03  0.17200000000E+03 0.  1.
</event>
<event>
 4    1  0.3141404E-002  0.2498382E+03  0.7818608E-02  0.1113407E+00
         -2   -1    0    0    0  501 -0.00000000000E+00  0.00000000000E+00  0.75243188988E+02  0.75243188988E+02  0.00000000000E+00 0.  1.
          2   -1    0    0  502    0  0.00000000000E+00 -0.00000000000E+00 -0.83516798232E+03  0.83516798232E+03  0.00000000000E+00 0. -1.
          6    1    1    2  502    0 -0.80286924640E+02 -0.16244736404E+03 -0.41724616879E+03  0.48632653816E+03  0.17200000000E+03 0. -1.
         -6    1    1    2    0  501  0.80286924640E+02  0.16244736404E+03 -0.34267862454E+03  0.42408463315E+03  0.17200000000E+03 0.  1.
</event>
<event>
 4    1  0.3141404E-002  0.2095189E+03  0.7818608E-02  0.1141947E+00
         -3   -1    0    0    0  501 -0.00000000000E+00  0.00000000000E+00  0.72372392918E+03  0.72372392918E+03  0.00000000000E+00 0.  1.
          3   -1    0    0  502    0  0.00000000000E+00 -0.00000000000E+00 -0.65759264432E+02  0.65759264432E+02  0.00000000000E+00 0. -1.
          6    1    1    2  502    0 -0.36480315222E+02  0.11394460859E+03  0.21901615508E+03  0.30309447935E+03  0.17200000000E+03 0. -1.
         -6    1    1    2    0  501  0.36480315222E+02 -0.11394460859E+03  0.43894850967E+03  0.48638871426E+03  0.17200000000E+03 0.  1.
</event>
<event>
 4    1  0.3141404E-002  0.2375832E+03  0.7818608E-02  0.1121413E+00
         -2   -1    0    0    0  501 -0.00000000000E+00  0.00000000000E+00  0.65804264275E+02  0.65804264275E+02  0.00000000000E+00 0.  1.
          2   -1    0    0  502    0  0.00000000000E+00 -0.00000000000E+00 -0.17929527568E+04  0.17929527568E+04  0.00000000000E+00 0. -1.
          6    1    1    2  502    0  0.56956827782E+02  0.15368056304E+03 -0.15347764469E+04  0.15530565147E+04  0.17200000000E+03 0. -1.
         -6    1    1    2    0  501 -0.56956827782E+02 -0.15368056304E+03 -0.19237204557E+03  0.30570050639E+03  0.17200000000E+03 0.  1.
</event>
<event>
 4    1  0.3141404E-002  0.2776019E+03  0.7818608E-02  0.1097006E+00
          1   -1    0    0  502    0  0.00000000000E+00  0.00000000000E+00  0.88589828494E+03  0.88589828494E+03  0.00000000000E+00 0. -1.
         -1   -1    0    0    0  501 -0.00000000000E+00 -0.00000000000E+00 -0.92344653807E+02  0.92344653807E+02  0.00000000000E+00 0.  1.
          6    1    1    2  502    0 -0.17419530175E+03  0.13089999967E+03  0.51457652706E+03  0.58468095169E+03  0.17200000000E+03 0. -1.
         -6    1    1    2    0  501  0.17419530175E+03 -0.13089999967E+03  0.27897710408E+03  0.39356198706E+03  0.17200000000E+03 0.  1.
</event>
<event>
 4    1  0.3141404E-002  0.3480901E+03  0.7818608E-02  0.1063402E+00
         -1   -1    0    0    0  501 -0.00000000000E+00  0.00000000000E+00  0.22339170335E+03  0.22339170335E+03  0.00000000000E+00 0.  1.
          1   -1    0    0  502    0  0.00000000000E+00 -0.00000000000E+00 -0.91759707728E+03  0.91759707728E+03  0.00000000000E+00 0. -1.
          6    1    1    2  502    0 -0.18672347159E+03 -0.23815340893E+03 -0.71190499306E+03  0.79244900163E+03  0.17200000000E+03 0. -1.
         -6    1    1    2    0  501  0.18672347159E+03  0.23815340893E+03  0.17699619138E+02  0.34853977900E+03  0.17200000000E+03 0.  1.
</event>
<event>
 4    1  0.3141404E-002  0.3284460E+03  0.7818608E-02  0.1071827E+00
         -2   -1    0    0    0  501 -0.00000000000E+00  0.00000000000E+00  0.78602477986E+02  0.78602477986E+02  0.00000000000E+00 0.  1.
          2   -1    0    0  502    0  0.00000000000E+00 -0.00000000000E+00 -0.20864460824E+04  0.20864460824E+04  0.00000000000E+00 0. -1.
          6    1    1    2  502    0  0.48468163320E+02  0.27557863228E+03 -0.16371886006E+04  0.16698093482E+04  0.17200000000E+03 0. -1.
         -6    1    1    2    0  501 -0.48468163320E+02 -0.27557863228E+03 -0.37065500381E+03  0.49523921218E+03  0.17200000000E+03 0.  1.
</event>
<event>
 4    1  0.3141404E-002  0.2123686E+03  0.7818608E-02  0.1139704E+00
          3   -1    0    0  502    0  0.00000000000E+00  0.00000000000E+00  0.35095621491E+03  0.35095621491E+03  0.00000000000E+00 0. -1.
         -3   -1    0    0    0  501 -0.00000000000E+00 -0.00000000000E+00 -0.12860699618E+03  0.12860699618E+03  0.00000000000E+00 0.  1.
          6    1    1    2  502    0 -0.47446555897E+02  0.11517476082E+03  0.10449522852E+03  0.23668471429E+03  0.17200000000E+03 0. -1.
         -6    1    1    2    0  501  0.47446555897E+02 -0.11517476082E+03  0.11785399021E+03  0.24287849679E+03  0.17200000000E+03 0. -1.
</event>
<event>
 4    1  0.3141404E-002  0.3227575E+03  0.7818608E-02  0.1074387E+00
          2   -1    0    0  502    0  0.00000000000E+00  0.00000000000E+00  0.56489990974E+03  0.56489990974E+03  0.00000000000E+00 0. -1.
         -2   -1    0    0    0  501 -0.00000000000E+00 -0.00000000000E+00 -0.18666118178E+03  0.18666118178E+03  0.00000000000E+00 0.  1.
          6    1    1    2  502    0  0.25130058407E+03 -0.10694105008E+03  0.14783813221E+03  0.35500490853E+03  0.17200000000E+03 0. -1.
         -6    1    1    2    0  501 -0.25130058407E+03  0.10694105008E+03  0.23040059574E+03  0.39655618298E+03  0.17200000000E+03 0.  1.
</event>
<event>
 4    1  0.3141404E-002  0.1794905E+03  0.7818608E-02  0.1168297E+00
         -2   -1    0    0    0  501 -0.00000000000E+00  0.00000000000E+00  0.33277122213E+02  0.33277122213E+02  0.00000000000E+00 0.  1.
          2   -1    0    0  502    0  0.00000000000E+00 -0.00000000000E+00 -0.30141543624E+04  0.30141543624E+04  0.00000000000E+00 0. -1.
          6    1    1    2  502    0 -0.36696622541E+02 -0.35863446669E+02 -0.27458203881E+04  0.27516806560E+04  0.17200000000E+03 0. -1.
         -6    1    1    2    0  501  0.36696622541E+02  0.35863446669E+02 -0.23505685211E+03  0.29575082863E+03  0.17200000000E+03 0.  1.
</event>
<event>
 4    1  0.3141404E-002  0.7290836E+03  0.7818608E-02  0.9668749E-01
          2   -1    0    0  502    0  0.00000000000E+00  0.00000000000E+00  0.94617015116E+03  0.94617015116E+03  0.00000000000E+00 0. -1.
         -2   -1    0    0    0  501 -0.00000000000E+00 -0.00000000000E+00 -0.94243180631E+03  0.94243180631E+03  0.00000000000E+00 0.  1.
          6    1    1    2  502    0 -0.55939323401E+03  0.43480810599E+03  0.60198530820E+03  0.94548886327E+03  0.17200000000E+03 0. -1.
         -6    1    1    2    0  501  0.55939323401E+03 -0.43480810599E+03 -0.59824696335E+03  0.94311309420E+03  0.17200000000E+03 0.  1.
</event>
<event>
 4    1  0.3141404E-002  0.2417439E+03  0.7818608E-02  0.1118637E+00
          2   -1    0    0  502    0  0.00000000000E+00  0.00000000000E+00  0.27396465133E+04  0.27396465133E+04  0.00000000000E+00 0. -1.
         -2   -1    0    0    0  501 -0.00000000000E+00 -0.00000000000E+00 -0.21347759842E+02  0.21347759842E+02  0.00000000000E+00 0.  1.
          6    1    1    2  502    0 -0.42899952403E+02  0.16436458133E+03  0.13975248683E+04  0.14182791964E+04  0.17200000000E+03 0. -1.
         -6    1    1    2    0  501  0.42899952403E+02 -0.16436458133E+03  0.13207738852E+04  0.13427150768E+04  0.17200000000E+03 0.  1.
</event>
<event>
 4    1  0.3141404E-002  0.6183122E+03  0.7818608E-02  0.9868126E-01
         -2   -1    0    0    0  501 -0.00000000000E+00  0.00000000000E+00  0.30516945740E+03  0.30516945740E+03  0.00000000000E+00 0.  1.
          2   -1    0    0  502    0  0.00000000000E+00 -0.00000000000E+00 -0.18809799966E+04  0.18809799966E+04  0.00000000000E+00 0. -1.
          6    1    1    2  502    0 -0.62599865034E+02 -0.59059905281E+03 -0.14195995806E+04  0.15484098145E+04  0.17200000000E+03 0. -1.
         -6    1    1    2    0  501  0.62599865034E+02  0.59059905281E+03 -0.15621095864E+03  0.63773963958E+03  0.17200000000E+03 0.  1.
</event>
<event>
 4    1  0.3141404E-002  0.2927366E+03  0.7818608E-02  0.1088929E+00
          1   -1    0    0  502    0  0.00000000000E+00  0.00000000000E+00  0.71251594362E+03  0.71251594362E+03  0.00000000000E+00 0. -1.
         -1   -1    0    0    0  501 -0.00000000000E+00 -0.00000000000E+00 -0.21724788227E+03  0.21724788227E+03  0.00000000000E+00 0.  1.
          6    1    1    2  502    0  0.21192284713E+03  0.10582725994E+03  0.55823294597E+03  0.63033223307E+03  0.17200000000E+03 0. -1.
         -6    1    1    2    0  501 -0.21192284713E+03 -0.10582725994E+03 -0.62964884620E+02  0.29943159282E+03  0.17200000000E+03 0.  1.
</event>
<event>
 4    1  0.3141404E-002  0.1723356E+03  0.7818608E-02  0.1175434E+00
         -1   -1    0    0    0  501 -0.00000000000E+00  0.00000000000E+00  0.22372203864E+02  0.22372203864E+02  0.00000000000E+00 0.  1.
          1   -1    0    0  502    0  0.00000000000E+00 -0.00000000000E+00 -0.13624618338E+04  0.13624618338E+04  0.00000000000E+00 0. -1.
          6    1    1    2  502    0  0.24084093873E+01  0.10475827732E+02 -0.78093157788E+03  0.79972099680E+03  0.17200000000E+03 0. -1.
         -6    1    1    2    0  501 -0.24084093873E+01 -0.10475827732E+02 -0.55915805207E+03  0.58511304087E+03  0.17200000000E+03 0.  1.
</event>
<event>
 4    1  0.3141404E-002  0.2176942E+03  0.7818608E-02  0.1135614E+00
          1   -1    0    0  502    0  0.00000000000E+00  0.00000000000E+00  0.11030280411E+04  0.11030280411E+04  0.00000000000E+00 0. -1.
         -1   -1    0    0    0  501 -0.00000000000E+00 -0.00000000000E+00 -0.42993609153E+02  0.42993609153E+02  0.00000000000E+00 0.  1.
          6    1    1    2  502    0 -0.42017304928E+01  0.13337585571E+03  0.54499082593E+03  0.58686094926E+03  0.17200000000E+03 0.  1.
         -6    1    1    2    0  501  0.42017304928E+01 -0.13337585571E+03  0.51504360599E+03  0.55916070096E+03  0.17200000000E+03 0. -1.
</event>
<event>
 4    1  0.3141404E-002  0.2395394E+03  0.7818608E-02  0.1120100E+00
          1   -1    0    0  502    0  0.00000000000E+00  0.00000000000E+00  0.80257565297E+03  0.80257565297E+03  0.00000000000E+00 0. -1.
         -1   -1    0    0    0  501 -0.00000000000E+00 -0.00000000000E+00 -0.96092608541E+02  0.96092608541E+02  0.00000000000E+00 0.  1.
          6    1    1    2  502    0  0.16168427936E+03  0.40661183206E+02  0.58058471249E+03  0.62805871253E+03  0.17200000000E+03 0. -1.
         -6    1    1    2    0  501 -0.16168427936E+03 -0.40661183206E+02  0.12589833194E+03  0.27060954898E+03  0.17200000000E+03 0.  1.
</event>
<event>
 4    1  0.3141404E-002  0.1807098E+03  0.7818608E-02  0.1167118E+00
          1   -1    0    0  502    0  0.00000000000E+00  0.00000000000E+00  0.15080441851E+03  0.15080441851E+03  0.00000000000E+00 0. -1.
         -1   -1    0    0    0  501 -0.00000000000E+00 -0.00000000000E+00 -0.26179697129E+03  0.26179697129E+03  0.00000000000E+00 0.  1.
          6    1    1    2  502    0  0.44808062237E+02  0.32623283257E+02  0.30273446531E+02  0.18322806176E+03  0.17200000000E+03 0. -1.
         -6    1    1    2    0  501 -0.44808062237E+02 -0.32623283257E+02 -0.14126599931E+03  0.22937332803E+03  0.17200000000E+03 0.  1.
</event>
<event>
 4    1  0.3141404E-002  0.2042554E+03  0.7818608E-02  0.1146198E+00
         -2   -1    0    0    0  501 -0.00000000000E+00  0.00000000000E+00  0.47554162048E+02  0.47554162048E+02  0.00000000000E+00 0.  1.
          2   -1    0    0  502    0  0.00000000000E+00 -0.00000000000E+00 -0.88642682529E+03  0.88642682529E+03  0.00000000000E+00 0. -1.
          6    1    1    2  502    0  0.82302059088E+02 -0.73230040787E+02 -0.46676724076E+03  0.50950164362E+03  0.17200000000E+03 0. -1.
         -6    1    1    2    0  501 -0.82302059088E+02  0.73230040787E+02 -0.37210542248E+03  0.42447934372E+03  0.17200000000E+03 0. -1.
</event>
<event>
 4    1  0.3141404E-002  0.2943291E+03  0.7818608E-02  0.1088110E+00
         -1   -1    0    0    0  501 -0.00000000000E+00  0.00000000000E+00  0.99204027198E+02  0.99204027198E+02  0.00000000000E+00 0.  1.
          1   -1    0    0  502    0  0.00000000000E+00 -0.00000000000E+00 -0.88906421041E+03  0.88906421041E+03  0.00000000000E+00 0. -1.
          6    1    1    2  502    0 -0.16469894732E+03 -0.17297361720E+03 -0.46083894069E+03  0.54681088573E+03  0.17200000000E+03 0. -1.
         -6    1    1    2    0  501  0.16469894732E+03  0.17297361720E+03 -0.32902124252E+03  0.44145735187E+03  0.17200000000E+03 0.  1.
</event>
<event>
 4    1  0.3141404E-002  0.1753342E+03  0.7818608E-02  0.1172397E+00
         -1   -1    0    0    0  501 -0.00000000000E+00  0.00000000000E+00  0.38146729224E+03  0.38146729224E+03  0.00000000000E+00 0.  1.
          1   -1    0    0  502    0  0.00000000000E+00 -0.00000000000E+00 -0.93868219131E+02  0.93868219131E+02  0.00000000000E+00 0. -1.
          6    1    1    2  502    0 -0.14896648825E+02  0.30597050836E+02  0.23319105189E+03  0.29175358840E+03  0.17200000000E+03 0.  1.
         -6    1    1    2    0  501  0.14896648825E+02 -0.30597050836E+02  0.54408021218E+02  0.18358192296E+03  0.17200000000E+03 0. -1.
</event>
<event>
 4    1  0.3141404E-002  0.1813015E+03  0.7818608E-02  0.1166549E+00
          1   -1    0    0  502    0  0.00000000000E+00  0.00000000000E+00  0.10625432232E+04  0.10625432232E+04  0.00000000000E+00 0. -1.
         -1   -1    0    0    0  501 -0.00000000000E+00 -0.00000000000E+00 -0.67722120803E+02  0.67722120803E+02  0.00000000000E+00 0.  1.
          6    1    1    2  502    0 -0.52731310745E+02 -0.22486522002E+02  0.91392539502E+03  0.93173486705E+03  0.17200000000E+03 0. -1.
         -6    1    1    2    0  501  0.52731310745E+02  0.22486522002E+02  0.80895707358E+02  0.19853047694E+03  0.17200000000E+03 0.  1.
</event>
<event>
 4    1  0.3141404E-002  0.4112091E+03  0.7818608E-02  0.1039966E+00
          1   -1    0    0  502    0  0.00000000000E+00  0.00000000000E+00  0.60382499098E+03  0.60382499098E+03  0.00000000000E+00 0. -1.
         -1   -1    0    0    0  501 -0.00000000000E+00 -0.00000000000E+00 -0.30292570553E+03  0.30292570553E+03  0.00000000000E+00 0.  1.
          6    1    1    2  502    0 -0.15466083420E+03 -0.33998370889E+03  0.25823998845E+02  0.41201914381E+03  0.17200000000E+03 0. -1.
         -6    1    1    2    0  501  0.15466083420E+03  0.33998370889E+03  0.27507528660E+03  0.49473155271E+03  0.17200000000E+03 0.  1.
</event>
<event>
 4    1  0.3141404E-002  0.2210613E+03  0.7818608E-02  0.1133094E+00
         -2   -1    0    0    0  501 -0.00000000000E+00  0.00000000000E+00  0.67965048049E+02  0.67965048049E+02  0.00000000000E+00 0.  1.
          2   -1    0    0  502    0  0.00000000000E+00 -0.00000000000E+00 -0.94279333120E+03  0.94279333120E+03  0.00000000000E+00 0. -1.
          6    1    1    2  502    0 -0.32618312161E+02 -0.13498193927E+03 -0.68362965764E+03  0.71848283697E+03  0.17200000000E+03 0. -1.
         -6    1    1    2    0  501  0.32618312161E+02  0.13498193927E+03 -0.19119862551E+03  0.29227554228E+03  0.17200000000E+03 0.  1.
</event>
<event>
 4    1  0.3141404E-002  0.4255685E+03  0.7818608E-02  0.1035269E+00
          4   -1    0    0  502    0  0.00000000000E+00  0.00000000000E+00  0.16083026377E+03  0.16083026377E+03  0.00000000000E+00 0. -1.
         -4   -1    0    0    0  501 -0.00000000000E+00 -0.00000000000E+00 -0.11306748308E+04  0.11306748308E+04  0.00000000000E+00 0.  1.
          6    1    1    2  502    0 -0.10746209015E+03 -0.37413424570E+03 -0.52606561126E+03  0.67664877298E+03  0.17200000000E+03 0. -1.
         -6    1    1    2    0  501  0.10746209015E+03  0.37413424570E+03 -0.44377895581E+03  0.61485632163E+03  0.17200000000E+03 0.  1.
</event>
<event>
 4    1  0.3141404E-002  0.2270114E+03  0.7818608E-02  0.1128761E+00
         -1   -1    0    0    0  501 -0.00000000000E+00  0.00000000000E+00  0.11914730683E+04  0.11914730683E+04  0.00000000000E+00 0.  1.
          1   -1    0    0  502    0  0.00000000000E+00 -0.00000000000E+00 -0.48063719742E+02  0.48063719742E+02  0.00000000000E+00 0. -1.
          6    1    1    2  502    0  0.30533061114E+00 -0.14815567370E+03  0.76779132543E+03  0.80064830999E+03  0.17200000000E+03 0. -1.
         -6    1    1    2    0  501 -0.30533061114E+00  0.14815567370E+03  0.37561802315E+03  0.43888847808E+03  0.17200000000E+03 0.  1.
</event>
<event>
 4    1  0.3141404E-002  0.2155379E+03  0.7818608E-02  0.1137254E+00
         -2   -1    0    0    0  501 -0.00000000000E+00  0.00000000000E+00  0.25619113334E+02  0.25619113334E+02  0.00000000000E+00 0.  1.
          2   -1    0    0  502    0  0.00000000000E+00 -0.00000000000E+00 -0.24233414275E+04  0.24233414275E+04  0.00000000000E+00 0. -1.
          6    1    1    2  502    0  0.10832066316E+03  0.71688278950E+02 -0.18131946359E+04  0.18259603947E+04  0.17200000000E+03 0. -1.
         -6    1    1    2    0  501 -0.10832066316E+03 -0.71688278950E+02 -0.58452767824E+03  0.62300014610E+03  0.17200000000E+03 0.  1.
</event>
<event>
 4    1  0.3141404E-002  0.2426022E+03  0.7818608E-02  0.1118071E+00
          1   -1    0    0  502    0  0.00000000000E+00  0.00000000000E+00  0.15229915626E+03  0.15229915626E+03  0.00000000000E+00 0. -1.
         -1   -1    0    0    0  501 -0.00000000000E+00 -0.00000000000E+00 -0.49076214281E+03  0.49076214281E+03  0.00000000000E+00 0.  1.
          6    1    1    2  502    0 -0.66420319600E+01 -0.17096118203E+03 -0.20994512359E+02  0.24350895651E+03  0.17200000000E+03 0. -1.
         -6    1    1    2    0  501  0.66420319600E+01  0.17096118203E+03 -0.31746847419E+03  0.39955234257E+03  0.17200000000E+03 0.  1.
</event>
<event>
 4    1  0.3141404E-002  0.2168611E+03  0.7818608E-02  0.1136245E+00
         -1   -1    0    0    0  501 -0.00000000000E+00  0.00000000000E+00  0.37279043573E+03  0.37279043573E+03  0.00000000000E+00 0.  1.
          1   -1    0    0  502    0  0.00000000000E+00 -0.00000000000E+00 -0.57546102102E+03  0.57546102102E+03  0.00000000000E+00 0. -1.
          6    1    1    2  502    0  0.11006477729E+03  0.73010046069E+02 -0.52028079836E+03  0.56366730540E+03  0.17200000000E+03 0. -1.
         -6    1    1    2    0  501 -0.11006477729E+03 -0.73010046069E+02  0.31761021307E+03  0.38458415136E+03  0.17200000000E+03 0.  1.
</event>
<event>
 4    1  0.3141404E-002  0.5593679E+03  0.7818608E-02  0.9993486E-01
          2   -1    0    0  502    0  0.00000000000E+00  0.00000000000E+00  0.73770516882E+03  0.73770516882E+03  0.00000000000E+00 0. -1.
         -2   -1    0    0    0  501 -0.00000000000E+00 -0.00000000000E+00 -0.49605941630E+03  0.49605941630E+03  0.00000000000E+00 0.  1.
          6    1    1    2  502    0  0.50267156618E+03  0.17501360605E+03  0.35570477356E+03  0.66288637916E+03  0.17200000000E+03 0. -1.
         -6    1    1    2    0  501 -0.50267156618E+03 -0.17501360605E+03 -0.11405902103E+03  0.57087820595E+03  0.17200000000E+03 0.  1.
</event>
<event>
 4    1  0.3141404E-002  0.1723571E+03  0.7818608E-02  0.1175412E+00
          1   -1    0    0  502    0  0.00000000000E+00  0.00000000000E+00  0.11533567148E+03  0.11533567148E+03  0.00000000000E+00 0. -1.
         -1   -1    0    0    0  501 -0.00000000000E+00 -0.00000000000E+00 -0.32517792979E+03  0.32517792979E+03  0.00000000000E+00 0.  1.
          6    1    1    2  502    0  0.10890113531E+01  0.11035646194E+02 -0.20535233056E+03  0.26809802517E+03  0.17200000000E+03 0.  1.
         -6    1    1    2    0  501 -0.10890113531E+01 -0.11035646194E+02 -0.44899277558E+01  0.17241557611E+03  0.17200000000E+03 0. -1.
</event>
<event>
 4    1  0.3141404E-002  0.2127893E+03  0.7818608E-02  0.1139376E+00
          2   -1    0    0  502    0  0.00000000000E+00  0.00000000000E+00  0.57482389023E+03  0.57482389023E+03  0.00000000000E+00 0. -1.
         -2   -1    0    0    0  501 -0.00000000000E+00 -0.00000000000E+00 -0.16674504661E+03  0.16674504661E+03  0.00000000000E+00 0.  1.
          6    1    1    2  502    0 -0.21103043521E+02  0.12349060038E+03  0.47336223714E+03  0.51899043766E+03  0.17200000000E+03 0. -1.
         -6    1    1    2    0  501  0.21103043521E+02 -0.12349060038E+03 -0.65283393522E+02  0.22257849918E+03  0.17200000000E+03 0.  1.
</event>
<event>
 4    1  0.3141404E-002  0.3352413E+03  0.7818608E-02  0.1068841E+00
          1   -1    0    0  502    0  0.00000000000E+00  0.00000000000E+00  0.45132343769E+03  0.45132343769E+03  0.00000000000E+00 0. -1.
         -1   -1    0    0    0  501 -0.00000000000E+00 -0.00000000000E+00 -0.25489751641E+03  0.25489751641E+03  0.00000000000E+00 0.  1.
          6    1    1    2  502    0 -0.45354793494E+02  0.28415782375E+03  0.44574661305E+02  0.33819170085E+03  0.17200000000E+03 0. -1.
         -6    1    1    2    0  501  0.45354793494E+02 -0.28415782375E+03  0.15185125997E+03  0.36802925325E+03  0.17200000000E+03 0.  1.
</event>
<event>
 4    1  0.3141404E-002  0.2251926E+03  0.7818608E-02  0.1130070E+00
          2   -1    0    0  502    0  0.00000000000E+00  0.00000000000E+00  0.36596406758E+03  0.36596406758E+03  0.00000000000E+00 0. -1.
         -2   -1    0    0    0  501 -0.00000000000E+00 -0.00000000000E+00 -0.58066321864E+03  0.58066321864E+03  0.00000000000E+00 0.  1.
          6    1    1    2  502    0 -0.11708415305E+03  0.86133781413E+02  0.30564436073E+03  0.37964483724E+03  0.17200000000E+03 0. -1.
         -6    1    1    2    0  501  0.11708415305E+03 -0.86133781413E+02 -0.52034351179E+03  0.56698244898E+03  0.17200000000E+03 0.  1.
</event>
<event>
 4    1  0.3141404E-002  0.1994632E+03  0.7818608E-02  0.1150193E+00
          2   -1    0    0  502    0  0.00000000000E+00  0.00000000000E+00  0.19629130704E+04  0.19629130704E+04  0.00000000000E+00 0. -1.
         -2   -1    0    0    0  501 -0.00000000000E+00 -0.00000000000E+00 -0.37579265098E+02  0.37579265098E+02  0.00000000000E+00 0.  1.
          6    1    1    2  502    0  0.70743762611E+02 -0.72089338692E+02  0.16415410874E+04  0.16536150381E+04  0.17200000000E+03 0. -1.
         -6    1    1    2    0  501 -0.70743762611E+02  0.72089338692E+02  0.28379271794E+03  0.34687729741E+03  0.17200000000E+03 0.  1.
</event>
<event>
 4    1  0.3141404E-002  0.2658451E+03  0.7818608E-02  0.1103681E+00
         -2   -1    0    0    0  501 -0.00000000000E+00  0.00000000000E+00  0.88063058090E+02  0.88063058090E+02  0.00000000000E+00 0.  1.
          2   -1    0    0  502    0  0.00000000000E+00 -0.00000000000E+00 -0.97229234910E+03  0.97229234910E+03  0.00000000000E+00 0. -1.
          6    1    1    2  502    0 -0.48434231633E+02  0.19683429574E+03 -0.66364760901E+03  0.71491381559E+03  0.17200000000E+03 0. -1.
         -6    1    1    2    0  501  0.48434231633E+02 -0.19683429574E+03 -0.22058168199E+03  0.34544159159E+03  0.17200000000E+03 0.  1.
</event>
<event>
 4    1  0.3141404E-002  0.3276277E+03  0.7818608E-02  0.1072191E+00
          2   -1    0    0  502    0  0.00000000000E+00  0.00000000000E+00  0.44543345693E+04  0.44543345693E+04  0.00000000000E+00 0. -1.
         -2   -1    0    0    0  501 -0.00000000000E+00 -0.00000000000E+00 -0.29293157675E+02  0.29293157675E+02  0.00000000000E+00 0.  1.
          6    1    1    2  502    0  0.27558256635E+03  0.42545693921E+02  0.31566295934E+04  0.31735863431E+04  0.17200000000E+03 0. -1.
         -6    1    1    2    0  501 -0.27558256635E+03 -0.42545693921E+02  0.12684118182E+04  0.13100413839E+04  0.17200000000E+03 0. -1.
</event>
<event>
 4    1  0.3141404E-002  0.2278809E+03  0.7818608E-02  0.1128140E+00
          1   -1    0    0  502    0  0.00000000000E+00  0.00000000000E+00  0.15061573370E+03  0.15061573370E+03  0.00000000000E+00 0. -1.
         -1   -1    0    0    0  501 -0.00000000000E+00 -0.00000000000E+00 -0.47692875180E+03  0.47692875180E+03  0.00000000000E+00 0.  1.
          6    1    1    2  502    0 -0.14890226831E+03 -0.13183341642E+02 -0.32832036403E+03  0.39965478533E+03  0.17200000000E+03 0.  1.
         -6    1    1    2    0  501  0.14890226831E+03  0.13183341642E+02  0.20073459241E+01  0.22788970017E+03  0.17200000000E+03 0. -1.
</event>
<event>
 4    1  0.3141404E-002  0.2117626E+03  0.7818608E-02  0.1140178E+00
         -1   -1    0    0    0  501 -0.00000000000E+00  0.00000000000E+00  0.12767376371E+03  0.12767376371E+03  0.00000000000E+00 0.  1.
          1   -1    0    0  502    0  0.00000000000E+00 -0.00000000000E+00 -0.13718643966E+04  0.13718643966E+04  0.00000000000E+00 0. -1.
          6    1    1    2  502    0  0.11817194973E+03  0.35983326461E+02 -0.12688001574E+04  0.12863503601E+04  0.17200000000E+03 0. -1.
         -6    1    1    2    0  501 -0.11817194973E+03 -0.35983326461E+02  0.24609524466E+02  0.21318780026E+03  0.17200000000E+03 0.  1.
</event>
<event>
 4    1  0.3141404E-002  0.1929295E+03  0.7818608E-02  0.1155845E+00
         -3   -1    0    0    0  501 -0.00000000000E+00  0.00000000000E+00  0.23696703942E+02  0.23696703942E+02  0.00000000000E+00 0.  1.
          3   -1    0    0  502    0  0.00000000000E+00 -0.00000000000E+00 -0.25754964701E+04  0.25754964701E+04  0.00000000000E+00 0. -1.
          6    1    1    2  502    0  0.40930440226E+02  0.77217292279E+02 -0.20876163950E+04  0.20965123477E+04  0.17200000000E+03 0. -1.
         -6    1    1    2    0  501 -0.40930440226E+02 -0.77217292279E+02 -0.46418337114E+03  0.50268082637E+03  0.17200000000E+03 0.  1.
</event>
<event>
 4    1  0.3141404E-002  0.2458487E+03  0.7818608E-02  0.1115957E+00
         -2   -1    0    0    0  501 -0.00000000000E+00  0.00000000000E+00  0.90676119802E+03  0.90676119802E+03  0.00000000000E+00 0.  1.
          2   -1    0    0  502    0  0.00000000000E+00 -0.00000000000E+00 -0.76392765468E+02  0.76392765468E+02  0.00000000000E+00 0. -1.
          6    1    1    2  502    0  0.16032914051E+03 -0.71778421163E+02  0.23969094722E+03  0.34335597449E+03  0.17200000000E+03 0. -1.
         -6    1    1    2    0  501 -0.16032914051E+03  0.71778421163E+02  0.59067748533E+03  0.63979798899E+03  0.17200000000E+03 0. -1.
</event>
<event>
 4    1  0.3141404E-002  0.4574167E+03  0.7818608E-02  0.1025533E+00
         -2   -1    0    0    0  501 -0.00000000000E+00  0.00000000000E+00  0.98283873911E+02  0.98283873911E+02  0.00000000000E+00 0.  1.
          2   -1    0    0  502    0  0.00000000000E+00 -0.00000000000E+00 -0.22112674761E+04  0.22112674761E+04  0.00000000000E+00 0. -1.
          6    1    1    2  502    0 -0.42255522805E+03  0.33062491066E+02 -0.12794527915E+04  0.13587602786E+04  0.17200000000E+03 0. -1.
         -6    1    1    2    0  501  0.42255522805E+03 -0.33062491066E+02 -0.83353081066E+03  0.95079107137E+03  0.17200000000E+03 0.  1.
</event>
<event>
 4    1  0.3141404E-002  0.1893702E+03  0.7818608E-02  0.1159031E+00
         -3   -1    0    0    0  501 -0.00000000000E+00  0.00000000000E+00  0.10129975752E+04  0.10129975752E+04  0.00000000000E+00 0.  1.
          3   -1    0    0  502    0  0.00000000000E+00 -0.00000000000E+00 -0.70775928777E+02  0.70775928777E+02  0.00000000000E+00 0. -1.
          6    1    1    2  502    0 -0.73672043543E+02  0.29146088171E+02  0.88009270693E+02  0.20882216401E+03  0.17200000000E+03 0. -1.
         -6    1    1    2    0  501  0.73672043543E+02 -0.29146088171E+02  0.85421237575E+03  0.87495133998E+03  0.17200000000E+03 0.  1.
</event>
<event>
 4    1  0.3141404E-002  0.2217367E+03  0.7818608E-02  0.1132595E+00
          2   -1    0    0  502    0  0.00000000000E+00  0.00000000000E+00  0.10411762899E+04  0.10411762899E+04  0.00000000000E+00 0. -1.
         -2   -1    0    0    0  501 -0.00000000000E+00 -0.00000000000E+00 -0.73166951002E+02  0.73166951002E+02  0.00000000000E+00 0.  1.
          6    1    1    2  502    0 -0.12593104110E+03  0.61029133747E+02  0.81578593757E+03  0.84538386442E+03  0.17200000000E+03 0. -1.
         -6    1    1    2    0  501  0.12593104110E+03 -0.61029133747E+02  0.15222340129E+03  0.26895937645E+03  0.17200000000E+03 0.  1.
</event>
<event>
 4    1  0.3141404E-002  0.1921866E+03  0.7818608E-02  0.1156504E+00
          2   -1    0    0  502    0  0.00000000000E+00  0.00000000000E+00  0.30933046767E+03  0.30933046767E+03  0.00000000000E+00 0. -1.
         -2   -1    0    0    0  501 -0.00000000000E+00 -0.00000000000E+00 -0.13836015632E+03  0.13836015632E+03  0.00000000000E+00 0.  1.
          6    1    1    2  502    0 -0.68830064802E+02  0.51128301233E+02  0.16833721982E+03  0.25548600859E+03  0.17200000000E+03 0. -1.
         -6    1    1    2    0  501  0.68830064802E+02 -0.51128301233E+02  0.26330915261E+01  0.19220461539E+03  0.17200000000E+03 0.  1.
</event>
<event>
 4    1  0.3141404E-002  0.1857845E+03  0.7818608E-02  0.1162319E+00
          2   -1    0    0  502    0  0.00000000000E+00  0.00000000000E+00  0.89361630920E+03  0.89361630920E+03  0.00000000000E+00 0. -1.
         -2   -1    0    0    0  501 -0.00000000000E+00 -0.00000000000E+00 -0.14921550743E+03  0.14921550743E+03  0.00000000000E+00 0.  1.
          6    1    1    2  502    0  0.50561051192E+02  0.48738578058E+02  0.82108670689E+03  0.84184276984E+03  0.17200000000E+03 0. -1.
         -6    1    1    2    0  501 -0.50561051192E+02 -0.48738578058E+02 -0.76685905116E+02  0.20098904680E+03  0.17200000000E+03 0.  1.
</event>
<event>
 4    1  0.3141404E-002  0.3473066E+03  0.7818608E-02  0.1063726E+00
         -4   -1    0    0    0  501 -0.00000000000E+00  0.00000000000E+00  0.78794592482E+03  0.78794592482E+03  0.00000000000E+00 0.  1.
          4   -1    0    0  502    0  0.00000000000E+00 -0.00000000000E+00 -0.16509373695E+03  0.16509373695E+03  0.00000000000E+00 0. -1.
          6    1    1    2  502    0 -0.11792146162E+03 -0.27772723538E+03  0.18290245471E+03  0.39252413470E+03  0.17200000000E+03 0. -1.
         -6    1    1    2    0  501  0.11792146162E+03  0.27772723538E+03  0.43994973316E+03  0.56051552707E+03  0.17200000000E+03 0.  1.
</event>
<event>
 4    1  0.3141404E-002  0.1948639E+03  0.7818608E-02  0.1154146E+00
          2   -1    0    0  502    0  0.00000000000E+00  0.00000000000E+00  0.89453442130E+02  0.89453442130E+02  0.00000000000E+00 0. -1.
         -2   -1    0    0    0  501 -0.00000000000E+00 -0.00000000000E+00 -0.95091009401E+03  0.95091009401E+03  0.00000000000E+00 0.  1.
          6    1    1    2  502    0 -0.82858237960E+02 -0.39018507385E+02 -0.43691432333E+02  0.19970195987E+03  0.17200000000E+03 0. -1.
         -6    1    1    2    0  501  0.82858237960E+02  0.39018507385E+02 -0.81776521954E+03  0.84066157627E+03  0.17200000000E+03 0.  1.
</event>
<event>
 4    1  0.3141404E-002  0.1801718E+03  0.7818608E-02  0.1167637E+00
         -1   -1    0    0    0  501 -0.00000000000E+00  0.00000000000E+00  0.44145761386E+03  0.44145761386E+03  0.00000000000E+00 0.  1.
          1   -1    0    0  502    0  0.00000000000E+00 -0.00000000000E+00 -0.75037429920E+02  0.75037429920E+02  0.00000000000E+00 0. -1.
          6    1    1    2  502    0  0.52738743010E+02  0.98236399807E+01  0.14664846177E+03  0.23230938478E+03  0.17200000000E+03 0. -1.
         -6    1    1    2    0  501 -0.52738743010E+02 -0.98236399807E+01  0.21977172217E+03  0.28418565900E+03  0.17200000000E+03 0.  1.
</event>
<event>
 4    1  0.3141404E-002  0.3034040E+03  0.7818608E-02  0.1083551E+00
         -2   -1    0    0    0  501 -0.00000000000E+00  0.00000000000E+00  0.12168452523E+03  0.12168452523E+03  0.00000000000E+00 0.  1.
          2   -1    0    0  502    0  0.00000000000E+00 -0.00000000000E+00 -0.11742643640E+04  0.11742643640E+04  0.00000000000E+00 0. -1.
          6    1    1    2  502    0 -0.22420656612E+03 -0.11046000523E+03 -0.91278334629E+03  0.96188743329E+03  0.17200000000E+03 0. -1.
         -6    1    1    2    0  501  0.22420656612E+03  0.11046000523E+03 -0.13979649249E+03  0.33406145596E+03  0.17200000000E+03 0.  1.
</event>
<event>
 4    1  0.3141404E-002  0.2994253E+03  0.7818608E-02  0.1085528E+00
         -2   -1    0    0    0  501 -0.00000000000E+00  0.00000000000E+00  0.19561588770E+03  0.19561588770E+03  0.00000000000E+00 0.  1.
          2   -1    0    0  502    0  0.00000000000E+00 -0.00000000000E+00 -0.12470473077E+04  0.12470473077E+04  0.00000000000E+00 0. -1.
          6    1    1    2  502    0  0.58292731473E+02  0.23806189566E+03 -0.10993772779E+04  0.11394234981E+04  0.17200000000E+03 0. -1.
         -6    1    1    2    0  501 -0.58292731473E+02 -0.23806189566E+03  0.47945857990E+02  0.30323969728E+03  0.17200000000E+03 0.  1.
</event>
<event>
 4    1  0.3141404E-002  0.2920678E+03  0.7818608E-02  0.1089274E+00
          1   -1    0    0  502    0  0.00000000000E+00  0.00000000000E+00  0.16094464421E+03  0.16094464421E+03  0.00000000000E+00 0. -1.
         -1   -1    0    0    0  501 -0.00000000000E+00 -0.00000000000E+00 -0.53315866077E+03  0.53315866077E+03  0.00000000000E+00 0.  1.
          6    1    1    2  502    0  0.21011797815E+01  0.23604064410E+03 -0.21274234998E+03  0.36133489743E+03  0.17200000000E+03 0. -1.
         -6    1    1    2    0  501 -0.21011797815E+01 -0.23604064410E+03 -0.15947166658E+03  0.33276840755E+03  0.17200000000E+03 0. -1.
</event>
<event>
 4    1  0.3141404E-002  0.1835113E+03  0.7818608E-02  0.1164447E+00
          1   -1    0    0  502    0  0.00000000000E+00  0.00000000000E+00  0.15313762324E+03  0.15313762324E+03  0.00000000000E+00 0. -1.
         -1   -1    0    0    0  501 -0.00000000000E+00 -0.00000000000E+00 -0.24237097267E+03  0.24237097267E+03  0.00000000000E+00 0.  1.
          6    1    1    2  502    0  0.59246488921E+02 -0.24129829564E+02  0.15584670530E+02  0.18417186832E+03  0.17200000000E+03 0. -1.
         -6    1    1    2    0  501 -0.59246488921E+02  0.24129829564E+02 -0.10481801996E+03  0.21133672760E+03  0.17200000000E+03 0. -1.
</event>
<event>
 4    1  0.3141404E-002  0.1722545E+03  0.7818608E-02  0.1175517E+00
         -2   -1    0    0    0  501 -0.00000000000E+00  0.00000000000E+00  0.29479460486E+02  0.29479460486E+02  0.00000000000E+00 0.  1.
          2   -1    0    0  502    0  0.00000000000E+00 -0.00000000000E+00 -0.10080839601E+04  0.10080839601E+04  0.00000000000E+00 0. -1.
          6    1    1    2  502    0  0.93075011547E+01  0.99888351460E+00 -0.50974473944E+03  0.53806256768E+03  0.17200000000E+03 0.  1.
         -6    1    1    2    0  501 -0.93075011547E+01 -0.99888351460E+00 -0.46885976013E+03  0.49950085286E+03  0.17200000000E+03 0.  1.
</event>
<event>
 4    1  0.3141404E-002  0.2292014E+03  0.7818608E-02  0.1127203E+00
          2   -1    0    0  502    0  0.00000000000E+00  0.00000000000E+00  0.45784731719E+03  0.45784731719E+03  0.00000000000E+00 0. -1.
         -2   -1    0    0    0  501 -0.00000000000E+00 -0.00000000000E+00 -0.11481918848E+03  0.11481918848E+03  0.00000000000E+00 0.  1.
          6    1    1    2  502    0 -0.64671127084E+02 -0.13699241381E+03  0.16398149320E+03  0.28182123098E+03  0.17200000000E+03 0. -1.
         -6    1    1    2    0  501  0.64671127084E+02  0.13699241381E+03  0.17904663552E+03  0.29084527469E+03  0.17200000000E+03 0.  1.
</event>
<event>
 4    1  0.3141404E-002  0.2186215E+03  0.7818608E-02  0.1134915E+00
         -1   -1    0    0    0  501 -0.00000000000E+00  0.00000000000E+00  0.58517040117E+02  0.58517040117E+02  0.00000000000E+00 0.  1.
          1   -1    0    0  502    0  0.00000000000E+00 -0.00000000000E+00 -0.10401796504E+04  0.10401796504E+04  0.00000000000E+00 0. -1.
          6    1    1    2  502    0  0.37016141475E+02 -0.12977354538E+03 -0.74541927747E+03  0.77681739620E+03  0.17200000000E+03 0. -1.
         -6    1    1    2    0  501 -0.37016141475E+02  0.12977354538E+03 -0.23624333280E+03  0.32187929431E+03  0.17200000000E+03 0.  1.
</event>
<event>
 4    1  0.3141404E-002  0.5578291E+03  0.7818608E-02  0.9996979E-01
          2   -1    0    0  502    0  0.00000000000E+00  0.00000000000E+00  0.17591613175E+04  0.17591613175E+04  0.00000000000E+00 0. -1.
         -2   -1    0    0    0  501 -0.00000000000E+00 -0.00000000000E+00 -0.17697093579E+03  0.17697093579E+03  0.00000000000E+00 0.  1.
          6    1    1    2  502    0 -0.19905108377E+03 -0.49190237515E+03  0.81214132846E+03  0.98526484664E+03  0.17200000000E+03 0. -1.
         -6    1    1    2    0  501  0.19905108377E+03  0.49190237515E+03  0.77004905321E+03  0.95086740662E+03  0.17200000000E+03 0.  1.
</event>
<event>
 4    1  0.3141404E-002  0.1902912E+03  0.7818608E-02  0.1158199E+00
         -4   -1    0    0    0  501 -0.00000000000E+00  0.00000000000E+00  0.83556571496E+02  0.83556571496E+02  0.00000000000E+00 0.  1.
          4   -1    0    0  502    0  0.00000000000E+00 -0.00000000000E+00 -0.43383584436E+03  0.43383584436E+03  0.00000000000E+00 0. -1.
          6    1    1    2  502    0 -0.11241723020E+02 -0.80624751989E+02 -0.16664246931E+03  0.25294355012E+03  0.17200000000E+03 0. -1.
         -6    1    1    2    0  501  0.11241723020E+02  0.80624751989E+02 -0.18363680355E+03  0.26444886573E+03  0.17200000000E+03 0.  1.
</event>
<event>
 4    1  0.3141404E-002  0.1728747E+03  0.7818608E-02  0.1174883E+00
          2   -1    0    0  502    0  0.00000000000E+00  0.00000000000E+00  0.16003574061E+04  0.16003574061E+04  0.00000000000E+00 0. -1.
         -2   -1    0    0    0  501 -0.00000000000E+00 -0.00000000000E+00 -0.31920845664E+02  0.31920845664E+02  0.00000000000E+00 0.  1.
          6    1    1    2  502    0  0.17035327604E+02 -0.33834158396E+01  0.25847062344E+03  0.31095451929E+03  0.17200000000E+03 0.  1.
         -6    1    1    2    0  501 -0.17035327604E+02  0.33834158396E+01  0.13099659370E+04  0.13213237325E+04  0.17200000000E+03 0. -1.
</event>
<event>
 4    1  0.3141404E-002  0.3347238E+03  0.7818608E-02  0.1069066E+00
          2   -1    0    0  502    0  0.00000000000E+00  0.00000000000E+00  0.22520457863E+04  0.22520457863E+04  0.00000000000E+00 0. -1.
         -2   -1    0    0    0  501 -0.00000000000E+00 -0.00000000000E+00 -0.20962960974E+03  0.20962960974E+03  0.00000000000E+00 0.  1.
          6    1    1    2  502    0  0.25333681650E+02 -0.28603182374E+03  0.20961143204E+04  0.21226717231E+04  0.17200000000E+03 0. -1.
         -6    1    1    2    0  501 -0.25333681650E+02  0.28603182374E+03 -0.53698143882E+02  0.33900367295E+03  0.17200000000E+03 0.  1.
</event>
<event>
 4    1  0.3141404E-002  0.1833198E+03  0.7818608E-02  0.1164628E+00
          2   -1    0    0  502    0  0.00000000000E+00  0.00000000000E+00  0.18696818978E+04  0.18696818978E+04  0.00000000000E+00 0. -1.
         -2   -1    0    0    0  501 -0.00000000000E+00 -0.00000000000E+00 -0.18822372296E+02  0.18822372296E+02  0.00000000000E+00 0.  1.
          6    1    1    2  502    0  0.39628630076E+02  0.49514977194E+02  0.11258657646E+04  0.11406927199E+04  0.17200000000E+03 0. -1.
         -6    1    1    2    0  501 -0.39628630076E+02 -0.49514977194E+02  0.72499376094E+03  0.74781155025E+03  0.17200000000E+03 0. -1.
</event>
<event>
 4    1  0.3141404E-002  0.4065822E+03  0.7818608E-02  0.1041524E+00
          2   -1    0    0  502    0  0.00000000000E+00  0.00000000000E+00  0.23234747832E+04  0.23234747832E+04  0.00000000000E+00 0. -1.
         -2   -1    0    0    0  501 -0.00000000000E+00 -0.00000000000E+00 -0.13155774107E+03  0.13155774107E+03  0.00000000000E+00 0.  1.
          6    1    1    2  502    0 -0.35288484528E+03  0.10581754680E+03  0.19277699515E+04  0.19701791931E+04  0.17200000000E+03 0. -1.
         -6    1    1    2    0  501  0.35288484528E+03 -0.10581754680E+03  0.26414709070E+03  0.48485333119E+03  0.17200000000E+03 0.  1.
</event>
<event>
 4    1  0.3141404E-002  0.2595224E+03  0.7818608E-02  0.1107431E+00
          2   -1    0    0  502    0  0.00000000000E+00  0.00000000000E+00  0.24841946503E+03  0.24841946503E+03  0.00000000000E+00 0. -1.
         -2   -1    0    0    0  501 -0.00000000000E+00 -0.00000000000E+00 -0.29509219817E+03  0.29509219817E+03  0.00000000000E+00 0.  1.
          6    1    1    2  502    0  0.45691844284E+02 -0.18889180033E+03  0.54117016387E+02  0.26510471201E+03  0.17200000000E+03 0. -1.
         -6    1    1    2    0  501 -0.45691844284E+02  0.18889180033E+03 -0.10078974952E+03  0.27840695120E+03  0.17200000000E+03 0.  1.
</event>
<event>
 4    1  0.3141404E-002  0.4671372E+03  0.7818608E-02  0.1022731E+00
          2   -1    0    0  502    0  0.00000000000E+00  0.00000000000E+00  0.27872167295E+04  0.27872167295E+04  0.00000000000E+00 0. -1.
         -2   -1    0    0    0  501 -0.00000000000E+00 -0.00000000000E+00 -0.78502096773E+02  0.78502096773E+02  0.00000000000E+00 0.  1.
          6    1    1    2  502    0 -0.18844861818E+03  0.39130584991E+03  0.12802548697E+04  0.13628168187E+04  0.17200000000E+03 0.  1.
         -6    1    1    2    0  501  0.18844861818E+03 -0.39130584991E+03  0.14284597630E+04  0.15029020076E+04  0.17200000000E+03 0.  1.
</event>
<event>
 4    1  0.3141404E-002  0.3016257E+03  0.7818608E-02  0.1084431E+00
          1   -1    0    0  502    0  0.00000000000E+00  0.00000000000E+00  0.57809291396E+03  0.57809291396E+03  0.00000000000E+00 0. -1.
         -1   -1    0    0    0  501 -0.00000000000E+00 -0.00000000000E+00 -0.15816957392E+03  0.15816957392E+03  0.00000000000E+00 0.  1.
          6    1    1    2  502    0  0.14459803988E+03 -0.20120997597E+03  0.23603454448E+03  0.38300176730E+03  0.17200000000E+03 0. -1.
         -6    1    1    2    0  501 -0.14459803988E+03  0.20120997597E+03  0.18388879556E+03  0.35326072058E+03  0.17200000000E+03 0.  1.
</event>
<event>
 4    1  0.3141404E-002  0.2685815E+03  0.7818608E-02  0.1102094E+00
          1   -1    0    0  502    0  0.00000000000E+00  0.00000000000E+00  0.37008998687E+03  0.37008998687E+03  0.00000000000E+00 0. -1.
         -1   -1    0    0    0  501 -0.00000000000E+00 -0.00000000000E+00 -0.25085442021E+03  0.25085442021E+03  0.00000000000E+00 0.  1.
          6    1    1    2  502    0  0.12624463541E+03 -0.16313888761E+03  0.20623052623E+03  0.33862521254E+03  0.17200000000E+03 0. -1.
         -6    1    1    2    0  501 -0.12624463541E+03  0.16313888761E+03 -0.86994959570E+02  0.28231919455E+03  0.17200000000E+03 0.  1.
</event>
<event>
 4    1  0.3141404E-002  0.2443903E+03  0.7818608E-02  0.1116902E+00
         -1   -1    0    0    0  501 -0.00000000000E+00  0.00000000000E+00  0.60574559291E+02  0.60574559291E+02  0.00000000000E+00 0.  1.
          1   -1    0    0  502    0  0.00000000000E+00 -0.00000000000E+00 -0.98723707697E+03  0.98723707697E+03  0.00000000000E+00 0. -1.
          6    1    1    2  502    0 -0.15895562338E+03 -0.69826431215E+02 -0.48186383021E+03  0.54029563349E+03  0.17200000000E+03 0. -1.
         -6    1    1    2    0  501  0.15895562338E+03  0.69826431215E+02 -0.44479868747E+03  0.50751600278E+03  0.17200000000E+03 0.  1.
</event>
<event>
 4    1  0.3141404E-002  0.2169136E+03  0.7818608E-02  0.1136205E+00
          2   -1    0    0  502    0  0.00000000000E+00  0.00000000000E+00  0.16920868625E+04  0.16920868625E+04  0.00000000000E+00 0. -1.
         -2   -1    0    0    0  501 -0.00000000000E+00 -0.00000000000E+00 -0.30717444056E+02  0.30717444056E+02  0.00000000000E+00 0.  1.
          6    1    1    2  502    0  0.33853683087E+01 -0.13212130795E+03  0.56552419259E+03  0.60569721242E+03  0.17200000000E+03 0.  1.
         -6    1    1    2    0  501 -0.33853683087E+01  0.13212130795E+03  0.10958452258E+04  0.11171070941E+04  0.17200000000E+03 0. -1.
</event>
<event>
 4    1  0.3141404E-002  0.2142998E+03  0.7818608E-02  0.1138206E+00
         -3   -1    0    0    0  501 -0.00000000000E+00  0.00000000000E+00  0.10981815404E+03  0.10981815404E+03  0.00000000000E+00 0.  1.
          3   -1    0    0  502    0  0.00000000000E+00 -0.00000000000E+00 -0.61837373034E+03  0.61837373034E+03  0.00000000000E+00 0. -1.
          6    1    1    2  502    0 -0.12273796722E+03  0.35718455366E+02 -0.46143928015E+03  0.50877364900E+03  0.17200000000E+03 0. -1.
         -6    1    1    2    0  501  0.12273796722E+03 -0.35718455366E+02 -0.47116296150E+02  0.21941823537E+03  0.17200000000E+03 0.  1.
</event>
<event>
 4    1  0.3141404E-002  0.3788205E+03  0.7818608E-02  0.1051371E+00
          2   -1    0    0  502    0  0.00000000000E+00  0.00000000000E+00  0.28964586095E+04  0.28964586095E+04  0.00000000000E+00 0. -1.
         -2   -1    0    0    0  501 -0.00000000000E+00 -0.00000000000E+00 -0.51328520301E+02  0.51328520301E+02  0.00000000000E+00 0.  1.
          6    1    1    2  502    0  0.23960653467E+03  0.23771768174E+03  0.11478211472E+04  0.12087176567E+04  0.17200000000E+03 0. -1.
         -6    1    1    2    0  501 -0.23960653467E+03 -0.23771768174E+03  0.16973089420E+04  0.17390694731E+04  0.17200000000E+03 0.  1.
</event>
<event>
 4    1  0.3141404E-002  0.1793572E+03  0.7818608E-02  0.1168427E+00
          2   -1    0    0  502    0  0.00000000000E+00  0.00000000000E+00  0.14159250237E+04  0.14159250237E+04  0.00000000000E+00 0. -1.
         -2   -1    0    0    0  501 -0.00000000000E+00 -0.00000000000E+00 -0.30642419756E+02  0.30642419756E+02  0.00000000000E+00 0.  1.
          6    1    1    2  502    0 -0.12539611936E+02  0.49272180682E+02  0.32485792788E+03  0.37108174701E+03  0.17200000000E+03 0.  1.
         -6    1    1    2    0  501  0.12539611936E+02 -0.49272180682E+02  0.10604246761E+04  0.10754856965E+04  0.17200000000E+03 0. -1.
</event>
<event>
 4    1  0.3141404E-002  0.2107199E+03  0.7818608E-02  0.1140997E+00
          2   -1    0    0  502    0  0.00000000000E+00  0.00000000000E+00  0.19031483534E+03  0.19031483534E+03  0.00000000000E+00 0. -1.
         -2   -1    0    0    0  501 -0.00000000000E+00 -0.00000000000E+00 -0.40748667012E+03  0.40748667012E+03  0.00000000000E+00 0.  1.
          6    1    1    2  502    0 -0.96650956113E+02 -0.74010054291E+02  0.86830817141E+02  0.22790894291E+03  0.17200000000E+03 0. -1.
         -6    1    1    2    0  501  0.96650956113E+02  0.74010054291E+02 -0.30400265192E+03  0.36989256255E+03  0.17200000000E+03 0.  1.
</event>
<event>
 4    1  0.3141404E-002  0.3496951E+03  0.7818608E-02  0.1062740E+00
         -1   -1    0    0    0  501 -0.00000000000E+00  0.00000000000E+00  0.49592154320E+03  0.49592154320E+03  0.00000000000E+00 0.  1.
          1   -1    0    0  502    0  0.00000000000E+00 -0.00000000000E+00 -0.42125567704E+03  0.42125567704E+03  0.00000000000E+00 0. -1.
          6    1    1    2  502    0  0.28882803891E+03 -0.96337915125E+02 -0.25796529649E+03  0.43454887428E+03  0.17200000000E+03 0. -1.
         -6    1    1    2    0  501 -0.28882803891E+03  0.96337915125E+02  0.33263116265E+03  0.48262834595E+03  0.17200000000E+03 0.  1.
</event>
<event>
 4    1  0.3141404E-002  0.2009376E+03  0.7818608E-02  0.1148950E+00
          2   -1    0    0  502    0  0.00000000000E+00  0.00000000000E+00  0.32385959881E+04  0.32385959881E+04  0.00000000000E+00 0. -1.
         -2   -1    0    0    0  501 -0.00000000000E+00 -0.00000000000E+00 -0.12566705844E+02  0.12566705844E+02  0.00000000000E+00 0.  1.
          6    1    1    2  502    0 -0.10278551582E+03  0.15068642614E+02  0.14682965761E+04  0.14819820382E+04  0.17200000000E+03 0. -1.
         -6    1    1    2    0  501  0.10278551582E+03 -0.15068642614E+02  0.17577327062E+04  0.17691806557E+04  0.17200000000E+03 0.  1.
</event>
<event>
 4    1  0.3141404E-002  0.3607241E+03  0.7818608E-02  0.1058298E+00
         -1   -1    0    0    0  501 -0.00000000000E+00  0.00000000000E+00  0.81883318549E+02  0.81883318549E+02  0.00000000000E+00 0.  1.
          1   -1    0    0  502    0  0.00000000000E+00 -0.00000000000E+00 -0.15933176472E+04  0.15933176472E+04  0.00000000000E+00 0. -1.
          6    1    1    2  502    0 -0.19018062357E+03  0.25371086064E+03 -0.79874357578E+03  0.87642065827E+03  0.17200000000E+03 0. -1.
         -6    1    1    2    0  501  0.19018062357E+03 -0.25371086064E+03 -0.71269075288E+03  0.79878030749E+03  0.17200000000E+03 0.  1.
</event>
<event>
 4    1  0.3141404E-002  0.1729293E+03  0.7818608E-02  0.1174827E+00
          2   -1    0    0  502    0  0.00000000000E+00  0.00000000000E+00  0.12511094154E+03  0.12511094154E+03  0.00000000000E+00 0. -1.
         -2   -1    0    0    0  501 -0.00000000000E+00 -0.00000000000E+00 -0.25685151566E+03  0.25685151566E+03  0.00000000000E+00 0.  1.
          6    1    1    2  502    0 -0.16109337164E+02  0.78121001033E+01 -0.15555818292E+02  0.17362754141E+03  0.17200000000E+03 0. -1.
         -6    1    1    2    0  501  0.16109337164E+02 -0.78121001033E+01 -0.11618475582E+03  0.20833491579E+03  0.17200000000E+03 0.  1.
</event>
<event>
 4    1  0.3141404E-002  0.2312366E+03  0.7818608E-02  0.1125772E+00
          2   -1    0    0  502    0  0.00000000000E+00  0.00000000000E+00  0.14502673261E+03  0.14502673261E+03  0.00000000000E+00 0. -1.
         -2   -1    0    0    0  501 -0.00000000000E+00 -0.00000000000E+00 -0.36870282456E+03  0.36870282456E+03  0.00000000000E+00 0.  1.
          6    1    1    2  502    0 -0.81209367943E+02 -0.13149677880E+03 -0.11315316760E+03  0.25743737805E+03  0.17200000000E+03 0. -1.
         -6    1    1    2    0  501  0.81209367943E+02  0.13149677880E+03 -0.11052292435E+03  0.25629217913E+03  0.17200000000E+03 0.  1.
</event>
<event>
 4    1  0.3141404E-002  0.1764517E+03  0.7818608E-02  0.1171282E+00
          2   -1    0    0  502    0  0.00000000000E+00  0.00000000000E+00  0.35698448004E+03  0.35698448004E+03  0.00000000000E+00 0. -1.
         -2   -1    0    0    0  501 -0.00000000000E+00 -0.00000000000E+00 -0.88498020141E+02  0.88498020141E+02  0.00000000000E+00 0.  1.
          6    1    1    2  502    0  0.26156137082E+02 -0.29445980558E+02  0.10744739646E+03  0.20659175270E+03  0.17200000000E+03 0. -1.
         -6    1    1    2    0  501 -0.26156137082E+02  0.29445980558E+02  0.16103906344E+03  0.23889074748E+03  0.17200000000E+03 0. -1.
</event>
<event>
 4    1  0.3141404E-002  0.1898731E+03  0.7818608E-02  0.1158576E+00
          1   -1    0    0  502    0  0.00000000000E+00  0.00000000000E+00  0.29242598519E+03  0.29242598519E+03  0.00000000000E+00 0. -1.
         -1   -1    0    0    0  501 -0.00000000000E+00 -0.00000000000E+00 -0.12346171153E+03  0.12346171153E+03  0.00000000000E+00 0.  1.
          6    1    1    2  502    0  0.75753778846E+02 -0.27002945726E+02  0.92344893128E+02  0.21113828022E+03  0.17200000000E+03 0. -1.
         -6    1    1    2    0  501 -0.75753778846E+02  0.27002945726E+02  0.76619380534E+02  0.20474941651E+03  0.17200000000E+03 0. -1.
</event>
<event>
 4    1  0.3141404E-002  0.2203132E+03  0.7818608E-02  0.1133650E+00
         -1   -1    0    0    0  501 -0.00000000000E+00  0.00000000000E+00  0.20778062677E+03  0.20778062677E+03  0.00000000000E+00 0.  1.
          1   -1    0    0  502    0  0.00000000000E+00 -0.00000000000E+00 -0.23615936326E+03  0.23615936326E+03  0.00000000000E+00 0. -1.
          6    1    1    2  502    0 -0.11807067776E+03  0.70804026947E+02 -0.37289713026E+02  0.22344667793E+03  0.17200000000E+03 0. -1.
         -6    1    1    2    0  501  0.11807067776E+03 -0.70804026947E+02  0.89109765402E+01  0.22049331210E+03  0.17200000000E+03 0.  1.
</event>
<event>
 4    1  0.3141404E-002  0.2163083E+03  0.7818608E-02  0.1136666E+00
         -2   -1    0    0    0  501 -0.00000000000E+00  0.00000000000E+00  0.32609687485E+02  0.32609687485E+02  0.00000000000E+00 0.  1.
          2   -1    0    0  502    0  0.00000000000E+00 -0.00000000000E+00 -0.15193680339E+04  0.15193680339E+04  0.00000000000E+00 0. -1.
          6    1    1    2  502    0  0.11935729230E+03 -0.54397853692E+02 -0.56033519896E+03  0.60063701593E+03  0.17200000000E+03 0.  1.
         -6    1    1    2    0  501 -0.11935729230E+03  0.54397853692E+02 -0.92642314740E+03  0.95134070540E+03  0.17200000000E+03 0. -1.
</event>
<event>
 4    1  0.3141404E-002  0.1953738E+03  0.7818608E-02  0.1153702E+00
         -4   -1    0    0    0  501 -0.00000000000E+00  0.00000000000E+00  0.16685296320E+04  0.16685296320E+04  0.00000000000E+00 0.  1.
          4   -1    0    0  502    0  0.00000000000E+00 -0.00000000000E+00 -0.63334847618E+02  0.63334847618E+02  0.00000000000E+00 0. -1.
          6    1    1    2  502    0  0.84895325657E+02  0.37144554193E+02  0.11050513607E+03  0.22446006175E+03  0.17200000000E+03 0. -1.
         -6    1    1    2    0  501 -0.84895325657E+02 -0.37144554193E+02  0.14946896484E+04  0.15074044179E+04  0.17200000000E+03 0.  1.
</event>
<event>
 4    1  0.3141404E-002  0.2876101E+03  0.7818608E-02  0.1091604E+00
         -1   -1    0    0    0  501 -0.00000000000E+00  0.00000000000E+00  0.41389605048E+02  0.41389605048E+02  0.00000000000E+00 0.  1.
          1   -1    0    0  502    0  0.00000000000E+00 -0.00000000000E+00 -0.21392412725E+04  0.21392412725E+04  0.00000000000E+00 0. -1.
          6    1    1    2  502    0  0.18578986419E+03  0.13644678184E+03 -0.76932347084E+03  0.82132709726E+03  0.17200000000E+03 0. -1.
         -6    1    1    2    0  501 -0.18578986419E+03 -0.13644678184E+03 -0.13285281967E+04  0.13593037803E+04  0.17200000000E+03 0. -1.
</event>
<event>
 4    1  0.3141404E-002  0.3250063E+03  0.7818608E-02  0.1073368E+00
          2   -1    0    0  502    0  0.00000000000E+00  0.00000000000E+00  0.14105489447E+04  0.14105489447E+04  0.00000000000E+00 0. -1.
         -2   -1    0    0    0  501 -0.00000000000E+00 -0.00000000000E+00 -0.10025332048E+03  0.10025332048E+03  0.00000000000E+00 0.  1.
          6    1    1    2  502    0  0.87348982092E+01 -0.27562432108E+03  0.10351389399E+04  0.10849616075E+04  0.17200000000E+03 0. -1.
         -6    1    1    2    0  501 -0.87348982092E+01  0.27562432108E+03  0.27515668434E+03  0.42584065770E+03  0.17200000000E+03 0.  1.
</event>
<event>
 4    1  0.3141404E-002  0.5277918E+03  0.7818608E-02  0.1006769E+00
         -1   -1    0    0    0  501 -0.00000000000E+00  0.00000000000E+00  0.40669295746E+03  0.40669295746E+03  0.00000000000E+00 0.  1.
          1   -1    0    0  502    0  0.00000000000E+00 -0.00000000000E+00 -0.21782745461E+04  0.21782745461E+04  0.00000000000E+00 0. -1.
          6    1    1    2  502    0 -0.18892674464E+03 -0.46182994778E+03 -0.19559439357E+04  0.20259024890E+04  0.17200000000E+03 0. -1.
         -6    1    1    2    0  501  0.18892674464E+03  0.46182994778E+03  0.18436234701E+03  0.55906501456E+03  0.17200000000E+03 0.  1.
</event>
<event>
 4    1  0.3141404E-002  0.2747932E+03  0.7818608E-02  0.1098567E+00
          1   -1    0    0  502    0  0.00000000000E+00  0.00000000000E+00  0.62611114404E+03  0.62611114404E+03  0.00000000000E+00 0. -1.
         -1   -1    0    0    0  501 -0.00000000000E+00 -0.00000000000E+00 -0.15129319353E+03  0.15129319353E+03  0.00000000000E+00 0.  1.
          6    1    1    2  502    0 -0.18452589429E+03 -0.10898380627E+03  0.41247530894E+03  0.49562804217E+03  0.17200000000E+03 0. -1.
         -6    1    1    2    0  501  0.18452589429E+03  0.10898380627E+03  0.62342641561E+02  0.28177629540E+03  0.17200000000E+03 0.  1.
</event>
<event>
 4    1  0.3141404E-002  0.1757144E+03  0.7818608E-02  0.1172016E+00
         -2   -1    0    0    0  501 -0.00000000000E+00  0.00000000000E+00  0.21871236004E+03  0.21871236004E+03  0.00000000000E+00 0.  1.
          2   -1    0    0  502    0  0.00000000000E+00 -0.00000000000E+00 -0.18142968669E+03  0.18142968669E+03  0.00000000000E+00 0. -1.
          6    1    1    2  502    0 -0.35656556820E+02  0.44902465458E+01 -0.75605542270E+02  0.19128970276E+03  0.17200000000E+03 0. -1.
         -6    1    1    2    0  501  0.35656556820E+02 -0.44902465458E+01  0.11288821562E+03  0.20885234398E+03  0.17200000000E+03 0.  1.
</event>
<event>
 4    1  0.3141404E-002  0.2311587E+03  0.7818608E-02  0.1125827E+00
          2   -1    0    0  502    0  0.00000000000E+00  0.00000000000E+00  0.14297269094E+04  0.14297269094E+04  0.00000000000E+00 0. -1.
         -2   -1    0    0    0  501 -0.00000000000E+00 -0.00000000000E+00 -0.13897158648E+03  0.13897158648E+03  0.00000000000E+00 0.  1.
          6    1    1    2  502    0  0.12345423147E+03  0.92786812069E+02 -0.25260992635E+02  0.23253485225E+03  0.17200000000E+03 0. -1.
         -6    1    1    2    0  501 -0.12345423147E+03 -0.92786812069E+02  0.13160163155E+04  0.13361636436E+04  0.17200000000E+03 0. -1.
</event>
<event>
 4    1  0.3141404E-002  0.1868842E+03  0.7818608E-02  0.1161302E+00
         -2   -1    0    0    0  501 -0.00000000000E+00  0.00000000000E+00  0.15718962293E+02  0.15718962293E+02  0.00000000000E+00 0.  1.
          2   -1    0    0  502    0  0.00000000000E+00 -0.00000000000E+00 -0.28943309276E+04  0.28943309276E+04  0.00000000000E+00 0. -1.
          6    1    1    2  502    0 -0.71739943938E+02  0.13967233267E+02 -0.73797098671E+03  0.76126662898E+03  0.17200000000E+03 0.  1.
         -6    1    1    2    0  501  0.71739943938E+02 -0.13967233267E+02 -0.21406409786E+04  0.21487832610E+04  0.17200000000E+03 0. -1.
</event>
<event>
 4    1  0.3141404E-002  0.3537768E+03  0.7818608E-02  0.1061075E+00
          1   -1    0    0  502    0  0.00000000000E+00  0.00000000000E+00  0.21291311951E+03  0.21291311951E+03  0.00000000000E+00 0. -1.
         -1   -1    0    0    0  501 -0.00000000000E+00 -0.00000000000E+00 -0.73543571215E+03  0.73543571215E+03  0.00000000000E+00 0.  1.
          6    1    1    2  502    0 -0.22364701557E+03 -0.21343858441E+03 -0.48834952250E+02  0.35713144562E+03  0.17200000000E+03 0. -1.
         -6    1    1    2    0  501  0.22364701557E+03  0.21343858441E+03 -0.47368764040E+03  0.59121738604E+03  0.17200000000E+03 0.  1.
</event>
<event>
 4    1  0.3141404E-002  0.2413529E+03  0.7818608E-02  0.1118895E+00
          1   -1    0    0  502    0  0.00000000000E+00  0.00000000000E+00  0.65016822125E+03  0.65016822125E+03  0.00000000000E+00 0. -1.
         -1   -1    0    0    0  501 -0.00000000000E+00 -0.00000000000E+00 -0.14830193755E+03  0.14830193755E+03  0.00000000000E+00 0.  1.
          6    1    1    2  502    0  0.67999825187E+02 -0.15505888311E+03  0.50212371776E+03  0.55711709846E+03  0.17200000000E+03 0. -1.
         -6    1    1    2    0  501 -0.67999825187E+02  0.15505888311E+03 -0.25743406416E+00  0.24135306033E+03  0.17200000000E+03 0.  1.
</event>
<event>
 4    1  0.3141404E-002  0.1789115E+03  0.7818608E-02  0.1168861E+00
         -1   -1    0    0    0  501 -0.00000000000E+00  0.00000000000E+00  0.85009020671E+02  0.85009020671E+02  0.00000000000E+00 0.  1.
          1   -1    0    0  502    0  0.00000000000E+00 -0.00000000000E+00 -0.10180739634E+04  0.10180739634E+04  0.00000000000E+00 0. -1.
          6    1    1    2  502    0  0.10529552666E+02 -0.48108613930E+02 -0.90435519349E+03  0.92188265316E+03  0.17200000000E+03 0. -1.
         -6    1    1    2    0  501 -0.10529552666E+02  0.48108613930E+02 -0.28709749220E+02  0.18120033089E+03  0.17200000000E+03 0.  1.
</event>
<event>
 4    1  0.3141404E-002  0.2283184E+03  0.7818608E-02  0.1127829E+00
          1   -1    0    0  502    0  0.00000000000E+00  0.00000000000E+00  0.22807277224E+04  0.22807277224E+04  0.00000000000E+00 0. -1.
         -1   -1    0    0    0  501 -0.00000000000E+00 -0.00000000000E+00 -0.26785832935E+02  0.26785832935E+02  0.00000000000E+00 0.  1.
          6    1    1    2  502    0  0.14589189757E+03 -0.35508225814E+02  0.68506962262E+03  0.72211471922E+03  0.17200000000E+03 0.  1.
         -6    1    1    2    0  501 -0.14589189757E+03  0.35508225814E+02  0.15688722668E+04  0.15853988361E+04  0.17200000000E+03 0. -1.
</event>
<event>
 4    1  0.3141404E-002  0.2102980E+03  0.7818608E-02  0.1141330E+00
          2   -1    0    0  502    0  0.00000000000E+00  0.00000000000E+00  0.22251567840E+04  0.22251567840E+04  0.00000000000E+00 0. -1.
         -2   -1    0    0    0  501 -0.00000000000E+00 -0.00000000000E+00 -0.20091941501E+02  0.20091941501E+02  0.00000000000E+00 0.  1.
          6    1    1    2  502    0 -0.97239696792E+02  0.72011864522E+02  0.98591308672E+03  0.10080921991E+04  0.17200000000E+03 0. -1.
         -6    1    1    2    0  501  0.97239696792E+02 -0.72011864522E+02  0.12191517557E+04  0.12371565264E+04  0.17200000000E+03 0.  1.
</event>
<event>
 4    1  0.3141404E-002  0.1864242E+03  0.7818608E-02  0.1161727E+00
         -2   -1    0    0    0  501 -0.00000000000E+00  0.00000000000E+00  0.22190448953E+03  0.22190448953E+03  0.00000000000E+00 0.  1.
          2   -1    0    0  502    0  0.00000000000E+00 -0.00000000000E+00 -0.15700484967E+03  0.15700484967E+03  0.00000000000E+00 0. -1.
          6    1    1    2  502    0 -0.59219017894E+02 -0.40780831560E+02  0.41868702447E+02  0.19106793700E+03  0.17200000000E+03 0. -1.
         -6    1    1    2    0  501  0.59219017894E+02  0.40780831560E+02  0.23030937408E+02  0.18784140220E+03  0.17200000000E+03 0.  1.
</event>
<event>
 4    1  0.3141404E-002  0.1826767E+03  0.7818608E-02  0.1165237E+00
          2   -1    0    0  502    0  0.00000000000E+00  0.00000000000E+00  0.29872800624E+04  0.29872800624E+04  0.00000000000E+00 0. -1.
         -2   -1    0    0    0  501 -0.00000000000E+00 -0.00000000000E+00 -0.11305399829E+02  0.11305399829E+02  0.00000000000E+00 0.  1.
          6    1    1    2  502    0  0.22864448886E+01  0.61494398293E+02  0.13244917753E+04  0.13370300115E+04  0.17200000000E+03 0. -1.
         -6    1    1    2    0  501 -0.22864448886E+01 -0.61494398293E+02  0.16514828873E+04  0.16615554508E+04  0.17200000000E+03 0. -1.
</event>
<event>
 4    1  0.3141404E-002  0.2152625E+03  0.7818608E-02  0.1137465E+00
         -2   -1    0    0    0  501 -0.00000000000E+00  0.00000000000E+00  0.42392295764E+02  0.42392295764E+02  0.00000000000E+00 0.  1.
          2   -1    0    0  502    0  0.00000000000E+00 -0.00000000000E+00 -0.11077987308E+04  0.11077987308E+04  0.00000000000E+00 0. -1.
          6    1    1    2  502    0  0.57876532801E+02 -0.11577667144E+03 -0.59900546050E+03  0.63651038672E+03  0.17200000000E+03 0. -1.
         -6    1    1    2    0  501 -0.57876532801E+02  0.11577667144E+03 -0.46640097452E+03  0.51368063983E+03  0.17200000000E+03 0.  1.
</event>
<event>
 4    1  0.3141404E-002  0.2343534E+03  0.7818608E-02  0.1123613E+00
         -2   -1    0    0    0  501 -0.00000000000E+00  0.00000000000E+00  0.61530716348E+02  0.61530716348E+02  0.00000000000E+00 0.  1.
          2   -1    0    0  502    0  0.00000000000E+00 -0.00000000000E+00 -0.97711360072E+03  0.97711360072E+03  0.00000000000E+00 0. -1.
          6    1    1    2  502    0  0.76353918757E+02  0.13966954842E+03 -0.61053454356E+03  0.65396783754E+03  0.17200000000E+03 0. -1.
         -6    1    1    2    0  501 -0.76353918757E+02 -0.13966954842E+03 -0.30504834082E+03  0.38467647953E+03  0.17200000000E+03 0. -1.
</event>
<event>
 4    1  0.3141404E-002  0.4230835E+03  0.7818608E-02  0.1036067E+00
          2   -1    0    0  502    0  0.00000000000E+00  0.00000000000E+00  0.29876162630E+03  0.29876162630E+03  0.00000000000E+00 0. -1.
         -2   -1    0    0    0  501 -0.00000000000E+00 -0.00000000000E+00 -0.63607025516E+03  0.63607025516E+03  0.00000000000E+00 0.  1.
          6    1    1    2  502    0 -0.52271283822E+02  0.38299260350E+03 -0.56025274288E+02  0.42677681850E+03  0.17200000000E+03 0. -1.
         -6    1    1    2    0  501  0.52271283822E+02 -0.38299260350E+03 -0.28128335457E+03  0.50805506297E+03  0.17200000000E+03 0. -1.
</event>
<event>
 4    1  0.3141404E-002  0.1955828E+03  0.7818608E-02  0.1153520E+00
         -2   -1    0    0    0  501 -0.00000000000E+00  0.00000000000E+00  0.28040290825E+02  0.28040290825E+02  0.00000000000E+00 0.  1.
          2   -1    0    0  502    0  0.00000000000E+00 -0.00000000000E+00 -0.18864409165E+04  0.18864409165E+04  0.00000000000E+00 0. -1.
          6    1    1    2  502    0 -0.58708989696E+02 -0.72262699458E+02 -0.14328560579E+04  0.14461428442E+04  0.17200000000E+03 0. -1.
         -6    1    1    2    0  501  0.58708989696E+02  0.72262699458E+02 -0.42554456781E+03  0.46833836314E+03  0.17200000000E+03 0.  1.
</event>
<event>
 4    1  0.3141404E-002  0.1909477E+03  0.7818608E-02  0.1157609E+00
          2   -1    0    0  502    0  0.00000000000E+00  0.00000000000E+00  0.13407450905E+04  0.13407450905E+04  0.00000000000E+00 0. -1.
         -2   -1    0    0    0  501 -0.00000000000E+00 -0.00000000000E+00 -0.27380537417E+02  0.27380537417E+02  0.00000000000E+00 0.  1.
          6    1    1    2  502    0 -0.53648441852E+02  0.63236727308E+02  0.60031235136E+03  0.62994917112E+03  0.17200000000E+03 0.  1.
         -6    1    1    2    0  501  0.53648441852E+02 -0.63236727308E+02  0.71305220171E+03  0.73817645679E+03  0.17200000000E+03 0. -1.
</event>
<event>
 4    1  0.3141404E-002  0.2039400E+03  0.7818608E-02  0.1146457E+00
         -2   -1    0    0    0  501 -0.00000000000E+00  0.00000000000E+00  0.14383397862E+03  0.14383397862E+03  0.00000000000E+00 0.  1.
          2   -1    0    0  502    0  0.00000000000E+00 -0.00000000000E+00 -0.13423155986E+04  0.13423155986E+04  0.00000000000E+00 0. -1.
          6    1    1    2  502    0  0.77390286807E+02  0.77577555354E+02 -0.12574300244E+04  0.12738609813E+04  0.17200000000E+03 0. -1.
         -6    1    1    2    0  501 -0.77390286807E+02 -0.77577555354E+02  0.58948404349E+02  0.21228859593E+03  0.17200000000E+03 0.  1.
</event>
<event>
 4    1  0.3141404E-002  0.2746269E+03  0.7818608E-02  0.1098660E+00
         -2   -1    0    0    0  501 -0.00000000000E+00  0.00000000000E+00  0.40902184751E+02  0.40902184751E+02  0.00000000000E+00 0.  1.
          2   -1    0    0  502    0  0.00000000000E+00 -0.00000000000E+00 -0.18459161313E+04  0.18459161313E+04  0.00000000000E+00 0. -1.
          6    1    1    2  502    0 -0.17897873427E+03 -0.11748417432E+03 -0.93361341799E+03  0.97316696039E+03  0.17200000000E+03 0.  1.
         -6    1    1    2    0  501  0.17897873427E+03  0.11748417432E+03 -0.87140052857E+03  0.91365135568E+03  0.17200000000E+03 0.  1.
</event>
<event>
 4    1  0.3141404E-002  0.5684537E+03  0.7818608E-02  0.9973106E-01
         -1   -1    0    0    0  501 -0.00000000000E+00  0.00000000000E+00  0.15154636193E+04  0.15154636193E+04  0.00000000000E+00 0.  1.
          1   -1    0    0  502    0  0.00000000000E+00 -0.00000000000E+00 -0.27397067469E+03  0.27397067469E+03  0.00000000000E+00 0. -1.
          6    1    1    2  502    0 -0.33423426402E+03 -0.42643064024E+03  0.19945775029E+03  0.60243093242E+03  0.17200000000E+03 0. -1.
         -6    1    1    2    0  501  0.33423426402E+03  0.42643064024E+03  0.10420351943E+04  0.11870033616E+04  0.17200000000E+03 0.  1.
</event>
<event>
 4    1  0.3141404E-002  0.1962342E+03  0.7818608E-02  0.1152956E+00
          2   -1    0    0  502    0  0.00000000000E+00  0.00000000000E+00  0.38515236320E+03  0.38515236320E+03  0.00000000000E+00 0. -1.
         -2   -1    0    0    0  501 -0.00000000000E+00 -0.00000000000E+00 -0.10557982985E+03  0.10557982985E+03  0.00000000000E+00 0.  1.
          6    1    1    2  502    0 -0.83683268568E+02  0.43828884539E+02  0.83282352118E+02  0.21317553971E+03  0.17200000000E+03 0.  1.
         -6    1    1    2    0  501  0.83683268568E+02 -0.43828884539E+02  0.19629018123E+03  0.27755665333E+03  0.17200000000E+03 0. -1.
</event>
<event>
 4    1  0.3141404E-002  0.1766818E+03  0.7818608E-02  0.1171054E+00
         -2   -1    0    0    0  501 -0.00000000000E+00  0.00000000000E+00  0.11892267566E+03  0.11892267566E+03  0.00000000000E+00 0.  1.
          2   -1    0    0  502    0  0.00000000000E+00 -0.00000000000E+00 -0.26623810596E+03  0.26623810596E+03  0.00000000000E+00 0. -1.
          6    1    1    2  502    0  0.27038495791E+02  0.30022679678E+02 -0.96496556901E+02  0.20131573968E+03  0.17200000000E+03 0. -1.
         -6    1    1    2    0  501 -0.27038495791E+02 -0.30022679678E+02 -0.50818873398E+02  0.18384504193E+03  0.17200000000E+03 0.  1.
</event>
<event>
 4    1  0.3141404E-002  0.2039346E+03  0.7818608E-02  0.1146461E+00
         -2   -1    0    0    0  501 -0.00000000000E+00  0.00000000000E+00  0.21734726214E+02  0.21734726214E+02  0.00000000000E+00 0.  1.
          2   -1    0    0  502    0  0.00000000000E+00 -0.00000000000E+00 -0.19250685803E+04  0.19250685803E+04  0.00000000000E+00 0. -1.
          6    1    1    2  502    0  0.87065019507E+02  0.66520568867E+02 -0.10271398128E+04  0.10471893328E+04  0.17200000000E+03 0. -1.
         -6    1    1    2    0  501 -0.87065019507E+02 -0.66520568867E+02 -0.87619404124E+03  0.89961397366E+03  0.17200000000E+03 0.  1.
</event>
<event>
 4    1  0.3141404E-002  0.5756967E+03  0.7818608E-02  0.9957151E-01
          2   -1    0    0  502    0  0.00000000000E+00  0.00000000000E+00  0.22291005254E+04  0.22291005254E+04  0.00000000000E+00 0. -1.
         -2   -1    0    0    0  501 -0.00000000000E+00 -0.00000000000E+00 -0.14881939874E+03  0.14881939874E+03  0.00000000000E+00 0.  1.
          6    1    1    2  502    0  0.10807451230E+03 -0.53866737970E+03  0.10762954982E+04  0.12205894664E+04  0.17200000000E+03 0. -1.
         -6    1    1    2    0  501 -0.10807451230E+03  0.53866737970E+03  0.10039856285E+04  0.11573304577E+04  0.17200000000E+03 0.  1.
</event>
<event>
 4    1  0.3141404E-002  0.2315294E+03  0.7818608E-02  0.1125568E+00
          2   -1    0    0  502    0  0.00000000000E+00  0.00000000000E+00  0.48195967006E+03  0.48195967006E+03  0.00000000000E+00 0. -1.
         -2   -1    0    0    0  501 -0.00000000000E+00 -0.00000000000E+00 -0.12026853255E+03  0.12026853255E+03  0.00000000000E+00 0.  1.
          6    1    1    2  502    0 -0.94528523317E+02  0.12282598507E+03  0.26341686869E+03  0.35070544769E+03  0.17200000000E+03 0. -1.
         -6    1    1    2    0  501  0.94528523317E+02 -0.12282598507E+03  0.98274268821E+02  0.25152275492E+03  0.17200000000E+03 0.  1.
</event>
<event>
 4    1  0.3141404E-002  0.1864841E+03  0.7818608E-02  0.1161671E+00
         -2   -1    0    0    0  501 -0.00000000000E+00  0.00000000000E+00  0.21257578406E+02  0.21257578406E+02  0.00000000000E+00 0.  1.
          2   -1    0    0  502    0  0.00000000000E+00 -0.00000000000E+00 -0.17636800970E+04  0.17636800970E+04  0.00000000000E+00 0. -1.
          6    1    1    2  502    0 -0.39449860179E+02 -0.60299503854E+02 -0.63103455827E+03  0.65801286869E+03  0.17200000000E+03 0. -1.
         -6    1    1    2    0  501  0.39449860179E+02  0.60299503854E+02 -0.11113879603E+04  0.11269248067E+04  0.17200000000E+03 0.  1.
</event>
<event>
 4    1  0.3141404E-002  0.6669432E+03  0.7818608E-02  0.9775496E-01
          2   -1    0    0  502    0  0.00000000000E+00  0.00000000000E+00  0.15412668314E+04  0.15412668314E+04  0.00000000000E+00 0. -1.
         -2   -1    0    0    0  501 -0.00000000000E+00 -0.00000000000E+00 -0.51681422580E+03  0.51681422580E+03  0.00000000000E+00 0.  1.
          6    1    1    2  502    0  0.20503771009E+03  0.61089183105E+03  0.11960345460E+04  0.13694202887E+04  0.17200000000E+03 0. -1.
         -6    1    1    2    0  501 -0.20503771009E+03 -0.61089183105E+03 -0.17158194042E+03  0.68866076851E+03  0.17200000000E+03 0.  1.
</event>
<event>
 4    1  0.3141404E-002  0.1933597E+03  0.7818608E-02  0.1155466E+00
         -4   -1    0    0    0  501 -0.00000000000E+00  0.00000000000E+00  0.14676391305E+03  0.14676391305E+03  0.00000000000E+00 0.  1.
          4   -1    0    0  502    0  0.00000000000E+00 -0.00000000000E+00 -0.25899896815E+03  0.25899896815E+03  0.00000000000E+00 0. -1.
          6    1    1    2  502    0  0.36965494015E+02  0.80234291540E+02 -0.30129341030E+02  0.19569304146E+03  0.17200000000E+03 0.  1.
         -6    1    1    2    0  501 -0.36965494015E+02 -0.80234291540E+02 -0.82105714068E+02  0.21006983974E+03  0.17200000000E+03 0. -1.
</event>
<event>
 4    1  0.3141404E-002  0.1808493E+03  0.7818608E-02  0.1166984E+00
         -2   -1    0    0    0  501 -0.00000000000E+00  0.00000000000E+00  0.20423414473E+02  0.20423414473E+02  0.00000000000E+00 0.  1.
          2   -1    0    0  502    0  0.00000000000E+00 -0.00000000000E+00 -0.26586878128E+04  0.26586878128E+04  0.00000000000E+00 0. -1.
          6    1    1    2  502    0 -0.52336045750E+02  0.19580840290E+02 -0.21638653061E+04  0.21714095731E+04  0.17200000000E+03 0. -1.
         -6    1    1    2    0  501  0.52336045750E+02 -0.19580840290E+02 -0.47439909218E+03  0.50770165417E+03  0.17200000000E+03 0.  1.
</event>
<event>
 4    1  0.3141404E-002  0.2097254E+03  0.7818608E-02  0.1141784E+00
          3   -1    0    0  502    0  0.00000000000E+00  0.00000000000E+00  0.20217854175E+03  0.20217854175E+03  0.00000000000E+00 0. -1.
         -3   -1    0    0    0  501 -0.00000000000E+00 -0.00000000000E+00 -0.25946659285E+03  0.25946659285E+03  0.00000000000E+00 0.  1.
          6    1    1    2  502    0 -0.82379696935E+02  0.87260197297E+02 -0.12141447324E+03  0.24233495582E+03  0.17200000000E+03 0. -1.
         -6    1    1    2    0  501  0.82379696935E+02 -0.87260197297E+02  0.64126422137E+02  0.21931017878E+03  0.17200000000E+03 0.  1.
</event>
<event>
 4    1  0.3141404E-002  0.4502294E+03  0.7818608E-02  0.1027654E+00
          1   -1    0    0  502    0  0.00000000000E+00  0.00000000000E+00  0.54826377925E+03  0.54826377925E+03  0.00000000000E+00 0. -1.
         -1   -1    0    0    0  501 -0.00000000000E+00 -0.00000000000E+00 -0.37265790044E+03  0.37265790044E+03  0.00000000000E+00 0.  1.
          6    1    1    2  502    0  0.37913632207E+03  0.17140048890E+03  0.12865680105E+03  0.46825105527E+03  0.17200000000E+03 0. -1.
         -6    1    1    2    0  501 -0.37913632207E+03 -0.17140048890E+03  0.46949077762E+02  0.45267062441E+03  0.17200000000E+03 0.  1.
</event>
<event>
 4    1  0.3141404E-002  0.3782008E+03  0.7818608E-02  0.1051601E+00
         -1   -1    0    0    0  501 -0.00000000000E+00  0.00000000000E+00  0.11975043348E+04  0.11975043348E+04  0.00000000000E+00 0.  1.
          1   -1    0    0  502    0  0.00000000000E+00 -0.00000000000E+00 -0.14330917849E+03  0.14330917849E+03  0.00000000000E+00 0. -1.
          6    1    1    2  502    0  0.27639673905E+03 -0.19250110549E+03  0.25352335596E+03  0.45531299672E+03  0.17200000000E+03 0. -1.
         -6    1    1    2    0  501 -0.27639673905E+03  0.19250110549E+03  0.80067180040E+03  0.88550051662E+03  0.17200000000E+03 0.  1.
</event>
<event>
 4    1  0.3141404E-002  0.2115053E+03  0.7818608E-02  0.1140379E+00
          2   -1    0    0  502    0  0.00000000000E+00  0.00000000000E+00  0.49822409104E+02  0.49822409104E+02  0.00000000000E+00 0. -1.
         -2   -1    0    0    0  501 -0.00000000000E+00 -0.00000000000E+00 -0.11553661136E+04  0.11553661136E+04  0.00000000000E+00 0.  1.
          6    1    1    2  502    0  0.94753089017E+02 -0.78564231571E+02 -0.26829752962E+03  0.34164023586E+03  0.17200000000E+03 0.  1.
         -6    1    1    2    0  501 -0.94753089017E+02  0.78564231571E+02 -0.83724617487E+03  0.86354828683E+03  0.17200000000E+03 0.  1.
</event>
<event>
 4    1  0.3141404E-002  0.3117570E+03  0.7818608E-02  0.1079507E+00
         -1   -1    0    0    0  501 -0.00000000000E+00  0.00000000000E+00  0.23115575382E+03  0.23115575382E+03  0.00000000000E+00 0.  1.
          1   -1    0    0  502    0  0.00000000000E+00 -0.00000000000E+00 -0.54672010618E+03  0.54672010618E+03  0.00000000000E+00 0. -1.
          6    1    1    2  502    0  0.23771937621E+03 -0.10534679364E+03 -0.34468920715E+03  0.46476133475E+03  0.17200000000E+03 0. -1.
         -6    1    1    2    0  501 -0.23771937621E+03  0.10534679364E+03  0.29124854789E+02  0.31311452525E+03  0.17200000000E+03 0.  1.
</event>
<event>
 4    1  0.3141404E-002  0.1360094E+04  0.7818608E-02  0.8983222E-01
          1   -1    0    0  502    0  0.00000000000E+00  0.00000000000E+00  0.20092573467E+04  0.20092573467E+04  0.00000000000E+00 0. -1.
         -1   -1    0    0    0  501 -0.00000000000E+00 -0.00000000000E+00 -0.13394505429E+04  0.13394505429E+04  0.00000000000E+00 0.  1.
          6    1    1    2  502    0  0.66257906756E+03 -0.11752703358E+04  0.12711260262E+04  0.18616167053E+04  0.17200000000E+03 0. -1.
         -6    1    1    2    0  501 -0.66257906756E+03  0.11752703358E+04 -0.60131922242E+03  0.14870911843E+04  0.17200000000E+03 0.  1.
</event>
<event>
 4    1  0.3141404E-002  0.2159104E+03  0.7818608E-02  0.1136969E+00
          2   -1    0    0  502    0  0.00000000000E+00  0.00000000000E+00  0.22964689729E+03  0.22964689729E+03  0.00000000000E+00 0. -1.
         -2   -1    0    0    0  501 -0.00000000000E+00 -0.00000000000E+00 -0.21026504317E+03  0.21026504317E+03  0.00000000000E+00 0.  1.
          6    1    1    2  502    0 -0.12487143238E+03  0.37953035461E+02 -0.31207167273E+02  0.21815406211E+03  0.17200000000E+03 0. -1.
         -6    1    1    2    0  501  0.12487143238E+03 -0.37953035461E+02  0.50589021389E+02  0.22175787835E+03  0.17200000000E+03 0.  1.
</event>
<event>
 4    1  0.3141404E-002  0.1775269E+03  0.7818608E-02  0.1170218E+00
         -2   -1    0    0    0  501 -0.00000000000E+00  0.00000000000E+00  0.87280571371E+02  0.87280571371E+02  0.00000000000E+00 0.  1.
          2   -1    0    0  502    0  0.00000000000E+00 -0.00000000000E+00 -0.68914599378E+03  0.68914599378E+03  0.00000000000E+00 0. -1.
          6    1    1    2  502    0  0.16753983780E+02 -0.40633687733E+02 -0.56878256127E+03  0.59584343125E+03  0.17200000000E+03 0. -1.
         -6    1    1    2    0  501 -0.16753983780E+02  0.40633687733E+02 -0.33082861142E+02  0.18058313391E+03  0.17200000000E+03 0.  1.
</event>
<event>
 4    1  0.3141404E-002  0.2984794E+03  0.7818608E-02  0.1086003E+00
          1   -1    0    0  502    0  0.00000000000E+00  0.00000000000E+00  0.94579271735E+02  0.94579271735E+02  0.00000000000E+00 0. -1.
         -1   -1    0    0    0  501 -0.00000000000E+00 -0.00000000000E+00 -0.99804299186E+03  0.99804299186E+03  0.00000000000E+00 0.  1.
          6    1    1    2  502    0 -0.27532815060E+02 -0.24237967953E+03 -0.32222941247E+03  0.43922859563E+03  0.17200000000E+03 0. -1.
         -6    1    1    2    0  501  0.27532815060E+02  0.24237967953E+03 -0.58123430765E+03  0.65339366797E+03  0.17200000000E+03 0.  1.
</event>
<event>
 4    1  0.3141404E-002  0.2180567E+03  0.7818608E-02  0.1135340E+00
          2   -1    0    0  502    0  0.00000000000E+00  0.00000000000E+00  0.18318560551E+04  0.18318560551E+04  0.00000000000E+00 0. -1.
         -2   -1    0    0    0  501 -0.00000000000E+00 -0.00000000000E+00 -0.64562610237E+02  0.64562610237E+02  0.00000000000E+00 0.  1.
          6    1    1    2  502    0 -0.11955140081E+03 -0.60598526169E+02  0.16168784632E+04  0.16315160691E+04  0.17200000000E+03 0. -1.
         -6    1    1    2    0  501  0.11955140081E+03  0.60598526169E+02  0.15041498166E+03  0.26490259629E+03  0.17200000000E+03 0.  1.
</event>
<event>
 4    1  0.3141404E-002  0.1826188E+03  0.7818608E-02  0.1165292E+00
          2   -1    0    0  502    0  0.00000000000E+00  0.00000000000E+00  0.24320827252E+04  0.24320827252E+04  0.00000000000E+00 0. -1.
         -2   -1    0    0    0  501 -0.00000000000E+00 -0.00000000000E+00 -0.17327510460E+02  0.17327510460E+02  0.00000000000E+00 0.  1.
          6    1    1    2  502    0 -0.39137343846E+02  0.47264282331E+02  0.17667813876E+04  0.17761942787E+04  0.17200000000E+03 0. -1.
         -6    1    1    2    0  501  0.39137343846E+02 -0.47264282331E+02  0.64797382718E+03  0.67321595701E+03  0.17200000000E+03 0.  1.
</event>
<event>
 4    1  0.3141404E-002  0.2034655E+03  0.7818608E-02  0.1146848E+00
          1   -1    0    0  502    0  0.00000000000E+00  0.00000000000E+00  0.69755922943E+03  0.69755922943E+03  0.00000000000E+00 0. -1.
         -1   -1    0    0    0  501 -0.00000000000E+00 -0.00000000000E+00 -0.59412610754E+02  0.59412610754E+02  0.00000000000E+00 0.  1.
          6    1    1    2  502    0  0.12684306196E+02 -0.10795049069E+03  0.30651667375E+03  0.36790035519E+03  0.17200000000E+03 0. -1.
         -6    1    1    2    0  501 -0.12684306196E+02  0.10795049069E+03  0.33162994493E+03  0.38907148499E+03  0.17200000000E+03 0. -1.
</event>
<event>
 4    1  0.3141404E-002  0.2893509E+03  0.7818608E-02  0.1090689E+00
         -1   -1    0    0    0  501 -0.00000000000E+00  0.00000000000E+00  0.52534017193E+03  0.52534017193E+03  0.00000000000E+00 0.  1.
          1   -1    0    0  502    0  0.00000000000E+00 -0.00000000000E+00 -0.24938109436E+03  0.24938109436E+03  0.00000000000E+00 0. -1.
          6    1    1    2  502    0  0.22346047701E+03  0.64848711249E+02 -0.94738232737E+02  0.30446555286E+03  0.17200000000E+03 0. -1.
         -6    1    1    2    0  501 -0.22346047701E+03 -0.64848711249E+02  0.37069731031E+03  0.47025571342E+03  0.17200000000E+03 0.  1.
</event>
<event>
 4    1  0.3141404E-002  0.4587748E+03  0.7818608E-02  0.1025137E+00
         -1   -1    0    0    0  501 -0.00000000000E+00  0.00000000000E+00  0.28231859958E+03  0.28231859958E+03  0.00000000000E+00 0.  1.
          1   -1    0    0  502    0  0.00000000000E+00 -0.00000000000E+00 -0.79573049836E+03  0.79573049836E+03  0.00000000000E+00 0. -1.
          6    1    1    2  502    0 -0.16794961690E+03  0.39074698430E+03 -0.39210668181E+03  0.60350801940E+03  0.17200000000E+03 0. -1.
         -6    1    1    2    0  501  0.16794961690E+03 -0.39074698430E+03 -0.12130521698E+03  0.47454107854E+03  0.17200000000E+03 0.  1.
</event>
<event>
 4    1  0.3141404E-002  0.4159629E+03  0.7818608E-02  0.1038388E+00
         -1   -1    0    0    0  501 -0.00000000000E+00  0.00000000000E+00  0.30172175935E+03  0.30172175935E+03  0.00000000000E+00 0.  1.
          1   -1    0    0  502    0  0.00000000000E+00 -0.00000000000E+00 -0.69841289727E+03  0.69841289727E+03  0.00000000000E+00 0. -1.
          6    1    1    2  502    0 -0.73598413503E+01 -0.37866471423E+03  0.13172186202E+02  0.41617140646E+03  0.17200000000E+03 0. -1.
         -6    1    1    2    0  501  0.73598413503E+01  0.37866471423E+03 -0.40986332412E+03  0.58396325015E+03  0.17200000000E+03 0.  1.
</event>
<event>
 4    1  0.3141404E-002  0.1890831E+03  0.7818608E-02  0.1159291E+00
         -2   -1    0    0    0  501 -0.00000000000E+00  0.00000000000E+00  0.14032390071E+03  0.14032390071E+03  0.00000000000E+00 0.  1.
          2   -1    0    0  502    0  0.00000000000E+00 -0.00000000000E+00 -0.28763150128E+03  0.28763150128E+03  0.00000000000E+00 0. -1.
          6    1    1    2  502    0  0.84307068505E+01 -0.78085598502E+02 -0.14596311802E+03  0.23886747232E+03  0.17200000000E+03 0. -1.
         -6    1    1    2    0  501 -0.84307068505E+01  0.78085598502E+02 -0.13444825451E+01  0.18908792966E+03  0.17200000000E+03 0.  1.
</event>
<event>
 4    1  0.3141404E-002  0.2147345E+03  0.7818608E-02  0.1137871E+00
          2   -1    0    0  502    0  0.00000000000E+00  0.00000000000E+00  0.42412980333E+03  0.42412980333E+03  0.00000000000E+00 0. -1.
         -2   -1    0    0    0  501 -0.00000000000E+00 -0.00000000000E+00 -0.11170961214E+03  0.11170961214E+03  0.00000000000E+00 0.  1.
          6    1    1    2  502    0  0.51806925001E+02  0.11765613678E+03  0.11237247414E+03  0.24236026272E+03  0.17200000000E+03 0. -1.
         -6    1    1    2    0  501 -0.51806925001E+02 -0.11765613678E+03  0.20004771706E+03  0.29347915275E+03  0.17200000000E+03 0.  1.
</event>
<event>
 4    1  0.3141404E-002  0.2194863E+03  0.7818608E-02  0.1134267E+00
          3   -1    0    0  502    0  0.00000000000E+00  0.00000000000E+00  0.34677123594E+03  0.34677123594E+03  0.00000000000E+00 0. -1.
         -3   -1    0    0    0  501 -0.00000000000E+00 -0.00000000000E+00 -0.23158711979E+03  0.23158711979E+03  0.00000000000E+00 0.  1.
          6    1    1    2  502    0 -0.12886253930E+03 -0.44549626576E+02 -0.12533059564E+03  0.25274885057E+03  0.17200000000E+03 0. -1.
         -6    1    1    2    0  501  0.12886253930E+03  0.44549626576E+02  0.24051471179E+03  0.32560950516E+03  0.17200000000E+03 0.  1.
</event>
<event>
 4    1  0.3141404E-002  0.2704467E+03  0.7818608E-02  0.1101024E+00
          2   -1    0    0  502    0  0.00000000000E+00  0.00000000000E+00  0.21484671835E+03  0.21484671835E+03  0.00000000000E+00 0. -1.
         -2   -1    0    0    0  501 -0.00000000000E+00 -0.00000000000E+00 -0.39489825888E+03  0.39489825888E+03  0.00000000000E+00 0.  1.
          6    1    1    2  502    0  0.20535950509E+03  0.37214211335E+02  0.23194954317E+02  0.27143955084E+03  0.17200000000E+03 0. -1.
         -6    1    1    2    0  501 -0.20535950509E+03 -0.37214211335E+02 -0.20324649485E+03  0.33830542639E+03  0.17200000000E+03 0.  1.
</event>
<event>
 4    1  0.3141404E-002  0.2386427E+03  0.7818608E-02  0.1120700E+00
          2   -1    0    0  502    0  0.00000000000E+00  0.00000000000E+00  0.92365285469E+03  0.92365285469E+03  0.00000000000E+00 0. -1.
         -2   -1    0    0    0  501 -0.00000000000E+00 -0.00000000000E+00 -0.76539533387E+02  0.76539533387E+02  0.00000000000E+00 0.  1.
          6    1    1    2  502    0  0.12749553679E+03  0.10540970993E+03  0.64407196356E+03  0.68686171323E+03  0.17200000000E+03 0. -1.
         -6    1    1    2    0  501 -0.12749553679E+03 -0.10540970993E+03  0.20304135774E+03  0.31333067485E+03  0.17200000000E+03 0.  1.
</event>
<event>
 4    1  0.3141404E-002  0.1738557E+03  0.7818608E-02  0.1173886E+00
          3   -1    0    0  502    0  0.00000000000E+00  0.00000000000E+00  0.20464303712E+03  0.20464303712E+03  0.00000000000E+00 0. -1.
         -3   -1    0    0    0  501 -0.00000000000E+00 -0.00000000000E+00 -0.18111144266E+03  0.18111144266E+03  0.00000000000E+00 0.  1.
          6    1    1    2  502    0  0.81294393453E+00 -0.25321094492E+02  0.94608510398E+02  0.19793076806E+03  0.17200000000E+03 0. -1.
         -6    1    1    2    0  501 -0.81294393453E+00  0.25321094492E+02 -0.71076915946E+02  0.18782371172E+03  0.17200000000E+03 0.  1.
</event>
<event>
 4    1  0.3141404E-002  0.2622082E+03  0.7818608E-02  0.1105824E+00
         -2   -1    0    0    0  501 -0.00000000000E+00  0.00000000000E+00  0.98951684751E+02  0.98951684751E+02  0.00000000000E+00 0.  1.
          2   -1    0    0  502    0  0.00000000000E+00 -0.00000000000E+00 -0.71391951588E+03  0.71391951588E+03  0.00000000000E+00 0. -1.
          6    1    1    2  502    0  0.19012154703E+03  0.54981041483E+02 -0.37397062200E+03  0.45673531031E+03  0.17200000000E+03 0. -1.
         -6    1    1    2    0  501 -0.19012154703E+03 -0.54981041483E+02 -0.24099720913E+03  0.35613589032E+03  0.17200000000E+03 0.  1.
</event>
<event>
 4    1  0.3141404E-002  0.5790997E+03  0.7818608E-02  0.9949742E-01
         -1   -1    0    0    0  501 -0.00000000000E+00  0.00000000000E+00  0.98187129841E+03  0.98187129841E+03  0.00000000000E+00 0.  1.
          1   -1    0    0  502    0  0.00000000000E+00 -0.00000000000E+00 -0.46223637277E+03  0.46223637277E+03  0.00000000000E+00 0. -1.
          6    1    1    2  502    0  0.38574096811E+03 -0.39620242020E+03  0.62876934891E+03  0.85481421746E+03  0.17200000000E+03 0.  1.
         -6    1    1    2    0  501 -0.38574096811E+03  0.39620242020E+03 -0.10913442327E+03  0.58929345372E+03  0.17200000000E+03 0. -1.
</event>
<event>
 4    1  0.3141404E-002  0.1963326E+03  0.7818608E-02  0.1152871E+00
         -1   -1    0    0    0  501 -0.00000000000E+00  0.00000000000E+00  0.40481682696E+02  0.40481682696E+02  0.00000000000E+00 0.  1.
          1   -1    0    0  502    0  0.00000000000E+00 -0.00000000000E+00 -0.10388158502E+04  0.10388158502E+04  0.00000000000E+00 0. -1.
          6    1    1    2  502    0  0.89399512858E+02 -0.31148002298E+02 -0.34333668164E+03  0.39550796188E+03  0.17200000000E+03 0.  1.
         -6    1    1    2    0  501 -0.89399512858E+02  0.31148002298E+02 -0.65499748581E+03  0.68378957097E+03  0.17200000000E+03 0. -1.
</event>
<event>
 4    1  0.3141404E-002  0.2085742E+03  0.7818608E-02  0.1142700E+00
         -1   -1    0    0    0  501 -0.00000000000E+00  0.00000000000E+00  0.31825925612E+02  0.31825925612E+02  0.00000000000E+00 0.  1.
          1   -1    0    0  502    0  0.00000000000E+00 -0.00000000000E+00 -0.14120352022E+04  0.14120352022E+04  0.00000000000E+00 0. -1.
          6    1    1    2  502    0 -0.11389572801E+03 -0.30772498828E+02 -0.56104777565E+03  0.59856310453E+03  0.17200000000E+03 0. -1.
         -6    1    1    2    0  501  0.11389572801E+03  0.30772498828E+02 -0.81916150091E+03  0.84529802325E+03  0.17200000000E+03 0.  1.
</event>
<event>
 4    1  0.3141404E-002  0.2977554E+03  0.7818608E-02  0.1086368E+00
         -2   -1    0    0    0  501 -0.00000000000E+00  0.00000000000E+00  0.15573887650E+03  0.15573887650E+03  0.00000000000E+00 0.  1.
          2   -1    0    0  502    0  0.00000000000E+00 -0.00000000000E+00 -0.57308048446E+03  0.57308048446E+03  0.00000000000E+00 0. -1.
          6    1    1    2  502    0 -0.36406470088E+02  0.24030992774E+03 -0.17897663819E+03  0.34740600089E+03  0.17200000000E+03 0. -1.
         -6    1    1    2    0  501  0.36406470088E+02 -0.24030992774E+03 -0.23836496976E+03  0.38141336007E+03  0.17200000000E+03 0.  1.
</event>
<event>
 4    1  0.3141404E-002  0.2044157E+03  0.7818608E-02  0.1146066E+00
          2   -1    0    0  502    0  0.00000000000E+00  0.00000000000E+00  0.31569823673E+03  0.31569823673E+03  0.00000000000E+00 0. -1.
         -2   -1    0    0    0  501 -0.00000000000E+00 -0.00000000000E+00 -0.24165547469E+03  0.24165547469E+03  0.00000000000E+00 0.  1.
          6    1    1    2  502    0  0.78240965203E+02  0.77975287050E+02  0.22443615676E+03  0.30357434425E+03  0.17200000000E+03 0. -1.
         -6    1    1    2    0  501 -0.78240965203E+02 -0.77975287050E+02 -0.15039339472E+03  0.25377936717E+03  0.17200000000E+03 0.  1.
</event>
<event>
 4    1  0.3141404E-002  0.2662112E+03  0.7818608E-02  0.1103468E+00
          2   -1    0    0  502    0  0.00000000000E+00  0.00000000000E+00  0.72838523239E+03  0.72838523239E+03  0.00000000000E+00 0. -1.
         -2   -1    0    0    0  501 -0.00000000000E+00 -0.00000000000E+00 -0.11232038636E+03  0.11232038636E+03  0.00000000000E+00 0.  1.
          6    1    1    2  502    0 -0.20276565255E+03 -0.13057927640E+02  0.15428991924E+03  0.30769107641E+03  0.17200000000E+03 0.  1.
         -6    1    1    2    0  501  0.20276565255E+03  0.13057927640E+02  0.46177492680E+03  0.53301454234E+03  0.17200000000E+03 0. -1.
</event>
<event>
 4    1  0.3141404E-002  0.3682762E+03  0.7818608E-02  0.1055354E+00
         -2   -1    0    0    0  501 -0.00000000000E+00  0.00000000000E+00  0.11496521386E+03  0.11496521386E+03  0.00000000000E+00 0.  1.
          2   -1    0    0  502    0  0.00000000000E+00 -0.00000000000E+00 -0.22838344199E+04  0.22838344199E+04  0.00000000000E+00 0. -1.
          6    1    1    2  502    0 -0.32343507050E+03 -0.37856627064E+02 -0.19183801113E+04  0.19534097421E+04  0.17200000000E+03 0. -1.
         -6    1    1    2    0  501  0.32343507050E+03  0.37856627064E+02 -0.25048909480E+03  0.44538989173E+03  0.17200000000E+03 0.  1.
</event>
<event>
 4    1  0.3141404E-002  0.1954968E+03  0.7818608E-02  0.1153595E+00
         -2   -1    0    0    0  501 -0.00000000000E+00  0.00000000000E+00  0.39843266182E+02  0.39843266182E+02  0.00000000000E+00 0.  1.
          2   -1    0    0  502    0  0.00000000000E+00 -0.00000000000E+00 -0.10090393017E+04  0.10090393017E+04  0.00000000000E+00 0. -1.
          6    1    1    2  502    0  0.26178675794E+02 -0.89161008908E+02 -0.60111289628E+03  0.63210420236E+03  0.17200000000E+03 0. -1.
         -6    1    1    2    0  501 -0.26178675794E+02  0.89161008908E+02 -0.36808313929E+03  0.41677836557E+03  0.17200000000E+03 0. -1.
</event>
<event>
 4    1  0.3141404E-002  0.2676155E+03  0.7818608E-02  0.1102652E+00
          1   -1    0    0  502    0  0.00000000000E+00  0.00000000000E+00  0.63959476539E+03  0.63959476539E+03  0.00000000000E+00 0. -1.
         -1   -1    0    0    0  501 -0.00000000000E+00 -0.00000000000E+00 -0.11318532054E+03  0.11318532054E+03  0.00000000000E+00 0.  1.
          6    1    1    2  502    0  0.12063931985E+03 -0.16577151255E+03  0.22426821188E+03  0.34916224127E+03  0.17200000000E+03 0. -1.
         -6    1    1    2    0  501 -0.12063931985E+03  0.16577151255E+03  0.30214123297E+03  0.40361784466E+03  0.17200000000E+03 0.  1.
</event>
<event>
 4    1  0.3141404E-002  0.1967492E+03  0.7818608E-02  0.1152511E+00
          1   -1    0    0  502    0  0.00000000000E+00  0.00000000000E+00  0.16166411060E+03  0.16166411060E+03  0.00000000000E+00 0. -1.
         -1   -1    0    0    0  501 -0.00000000000E+00 -0.00000000000E+00 -0.27371625207E+03  0.27371625207E+03  0.00000000000E+00 0.  1.
          6    1    1    2  502    0  0.60126586525E+02 -0.74236486088E+02  0.20998634363E+02  0.19786663417E+03  0.17200000000E+03 0. -1.
         -6    1    1    2    0  501 -0.60126586525E+02  0.74236486088E+02 -0.13305077583E+03  0.23751372850E+03  0.17200000000E+03 0.  1.
</event>
<event>
 4    1  0.3141404E-002  0.2088172E+03  0.7818608E-02  0.1142506E+00
         -1   -1    0    0    0  501 -0.00000000000E+00  0.00000000000E+00  0.17891855882E+03  0.17891855882E+03  0.00000000000E+00 0.  1.
          1   -1    0    0  502    0  0.00000000000E+00 -0.00000000000E+00 -0.24781643071E+03  0.24781643071E+03  0.00000000000E+00 0. -1.
          6    1    1    2  502    0  0.11022354433E+01  0.11840356740E+03 -0.69899944121E+01  0.20893415163E+03  0.17200000000E+03 0.  1.
         -6    1    1    2    0  501 -0.11022354433E+01 -0.11840356740E+03 -0.61907877485E+02  0.21780083790E+03  0.17200000000E+03 0.  1.
</event>
<event>
 4    1  0.3141404E-002  0.1776645E+03  0.7818608E-02  0.1170083E+00
         -2   -1    0    0    0  501 -0.00000000000E+00  0.00000000000E+00  0.28642971800E+02  0.28642971800E+02  0.00000000000E+00 0.  1.
          2   -1    0    0  502    0  0.00000000000E+00 -0.00000000000E+00 -0.11232871620E+04  0.11232871620E+04  0.00000000000E+00 0. -1.
          6    1    1    2  502    0 -0.34629985182E+02  0.27954065060E+02 -0.46804089792E+03  0.50062655518E+03  0.17200000000E+03 0.  1.
         -6    1    1    2    0  501  0.34629985182E+02 -0.27954065060E+02 -0.62660329230E+03  0.65130357864E+03  0.17200000000E+03 0. -1.
</event>
<event>
 4    1  0.3141404E-002  0.2857589E+03  0.7818608E-02  0.1092584E+00
         -2   -1    0    0    0  501 -0.00000000000E+00  0.00000000000E+00  0.33929152067E+02  0.33929152067E+02  0.00000000000E+00 0.  1.
          2   -1    0    0  502    0  0.00000000000E+00 -0.00000000000E+00 -0.29526572052E+04  0.29526572052E+04  0.00000000000E+00 0. -1.
          6    1    1    2  502    0  0.13363214364E+03 -0.18497729734E+03 -0.21014715893E+04  0.21208113992E+04  0.17200000000E+03 0. -1.
         -6    1    1    2    0  501 -0.13363214364E+03  0.18497729734E+03 -0.81725646388E+03  0.86577495812E+03  0.17200000000E+03 0.  1.
</event>
<event>
 4    1  0.3141404E-002  0.2136045E+03  0.7818608E-02  0.1138743E+00
         -1   -1    0    0    0  501 -0.00000000000E+00  0.00000000000E+00  0.71214292720E+03  0.71214292720E+03  0.00000000000E+00 0.  1.
          1   -1    0    0  502    0  0.00000000000E+00 -0.00000000000E+00 -0.12450658008E+03  0.12450658008E+03  0.00000000000E+00 0. -1.
          6    1    1    2  502    0 -0.96932833662E+02 -0.81528527466E+02  0.23655497098E+01  0.21361758087E+03  0.17200000000E+03 0. -1.
         -6    1    1    2    0  501  0.96932833662E+02  0.81528527466E+02  0.58527079741E+03  0.62303192641E+03  0.17200000000E+03 0.  1.
</event>
<event>
 4    1  0.3141404E-002  0.2120934E+03  0.7818608E-02  0.1139919E+00
         -2   -1    0    0    0  501 -0.00000000000E+00  0.00000000000E+00  0.10859697543E+03  0.10859697543E+03  0.00000000000E+00 0.  1.
          2   -1    0    0  502    0  0.00000000000E+00 -0.00000000000E+00 -0.45624941727E+03  0.45624941727E+03  0.00000000000E+00 0. -1.
          6    1    1    2  502    0  0.11234553723E+03  0.52707479305E+02 -0.25953973351E+03  0.33517826806E+03  0.17200000000E+03 0. -1.
         -6    1    1    2    0  501 -0.11234553723E+03 -0.52707479305E+02 -0.88112708333E+02  0.22966812465E+03  0.17200000000E+03 0.  1.
</event>
<event>
 4    1  0.3141404E-002  0.2382522E+03  0.7818608E-02  0.1120963E+00
          1   -1    0    0  502    0  0.00000000000E+00  0.00000000000E+00  0.11352476529E+04  0.11352476529E+04  0.00000000000E+00 0. -1.
         -1   -1    0    0    0  501 -0.00000000000E+00 -0.00000000000E+00 -0.51106001242E+02  0.51106001242E+02  0.00000000000E+00 0.  1.
          6    1    1    2  502    0 -0.95879412651E+02 -0.13411647301E+03  0.45486800455E+03  0.51348709007E+03  0.17200000000E+03 0. -1.
         -6    1    1    2    0  501  0.95879412651E+02  0.13411647301E+03  0.62927364709E+03  0.67286656406E+03  0.17200000000E+03 0. -1.
</event>
<event>
 4    1  0.3141404E-002  0.1897496E+03  0.7818608E-02  0.1158687E+00
         -1   -1    0    0    0  501 -0.00000000000E+00  0.00000000000E+00  0.80617843210E+02  0.80617843210E+02  0.00000000000E+00 0.  1.
          1   -1    0    0  502    0  0.00000000000E+00 -0.00000000000E+00 -0.50194164697E+03  0.50194164697E+03  0.00000000000E+00 0. -1.
          6    1    1    2  502    0  0.69829502480E+02 -0.39303302561E+02 -0.30736981148E+03  0.36122169095E+03  0.17200000000E+03 0. -1.
         -6    1    1    2    0  501 -0.69829502480E+02  0.39303302561E+02 -0.11395399229E+03  0.22133779923E+03  0.17200000000E+03 0.  1.
</event>
<event>
 4    1  0.3141404E-002  0.1816815E+03  0.7818608E-02  0.1166185E+00
          2   -1    0    0  502    0  0.00000000000E+00  0.00000000000E+00  0.13698451445E+04  0.13698451445E+04  0.00000000000E+00 0. -1.
         -2   -1    0    0    0  501 -0.00000000000E+00 -0.00000000000E+00 -0.33468215846E+02  0.33468215846E+02  0.00000000000E+00 0.  1.
          6    1    1    2  502    0  0.31666091632E+02 -0.49208136646E+02  0.10394866863E+04  0.10552444044E+04  0.17200000000E+03 0. -1.
         -6    1    1    2    0  501 -0.31666091632E+02  0.49208136646E+02  0.29689024235E+03  0.34806895592E+03  0.17200000000E+03 0.  1.
</event>
<event>
 4    1  0.3141404E-002  0.2017817E+03  0.7818608E-02  0.1148244E+00
         -4   -1    0    0    0  501 -0.00000000000E+00  0.00000000000E+00  0.24212531601E+03  0.24212531601E+03  0.00000000000E+00 0.  1.
          4   -1    0    0  502    0  0.00000000000E+00 -0.00000000000E+00 -0.22592051670E+03  0.22592051670E+03  0.00000000000E+00 0. -1.
          6    1    1    2  502    0  0.98373249589E+02 -0.38138730951E+02  0.12643245360E+03  0.23811976893E+03  0.17200000000E+03 0. -1.
         -6    1    1    2    0  501 -0.98373249589E+02  0.38138730951E+02 -0.11022765429E+03  0.22992606378E+03  0.17200000000E+03 0.  1.
</event>
<event>
 4    1  0.3141404E-002  0.1949865E+03  0.7818608E-02  0.1154039E+00
         -1   -1    0    0    0  501 -0.00000000000E+00  0.00000000000E+00  0.58764319802E+02  0.58764319802E+02  0.00000000000E+00 0.  1.
          1   -1    0    0  502    0  0.00000000000E+00 -0.00000000000E+00 -0.64875223939E+03  0.64875223939E+03  0.00000000000E+00 0. -1.
          6    1    1    2  502    0 -0.91212489795E+02  0.10771203874E+02 -0.27653964309E+03  0.33836948936E+03  0.17200000000E+03 0.  1.
         -6    1    1    2    0  501  0.91212489795E+02 -0.10771203874E+02 -0.31344827649E+03  0.36914706983E+03  0.17200000000E+03 0.  1.
</event>
<event>
 4    1  0.3141404E-002  0.2826417E+03  0.7818608E-02  0.1094255E+00
         -2   -1    0    0    0  501 -0.00000000000E+00  0.00000000000E+00  0.12352989794E+03  0.12352989794E+03  0.00000000000E+00 0.  1.
          2   -1    0    0  502    0  0.00000000000E+00 -0.00000000000E+00 -0.69367846130E+03  0.69367846130E+03  0.00000000000E+00 0. -1.
          6    1    1    2  502    0  0.10733411436E+03  0.19693070153E+03 -0.39141283383E+03  0.48279428311E+03  0.17200000000E+03 0. -1.
         -6    1    1    2    0  501 -0.10733411436E+03 -0.19693070153E+03 -0.17873572953E+03  0.33441407614E+03  0.17200000000E+03 0.  1.
</event>
<event>
 4    1  0.3141404E-002  0.1737974E+03  0.7818608E-02  0.1173945E+00
         -2   -1    0    0    0  501 -0.00000000000E+00  0.00000000000E+00  0.33187082056E+02  0.33187082056E+02  0.00000000000E+00 0.  1.
          2   -1    0    0  502    0  0.00000000000E+00 -0.00000000000E+00 -0.10532965664E+04  0.10532965664E+04  0.00000000000E+00 0. -1.
          6    1    1    2  502    0 -0.24091430177E+02 -0.64129768095E+01 -0.71031491842E+03  0.73126794447E+03  0.17200000000E+03 0. -1.
         -6    1    1    2    0  501  0.24091430177E+02  0.64129768095E+01 -0.30979456589E+03  0.35521570395E+03  0.17200000000E+03 0.  1.
</event>
<event>
 4    1  0.3141404E-002  0.3250330E+03  0.7818608E-02  0.1073356E+00
         -2   -1    0    0    0  501 -0.00000000000E+00  0.00000000000E+00  0.15534490904E+03  0.15534490904E+03  0.00000000000E+00 0.  1.
          2   -1    0    0  502    0  0.00000000000E+00 -0.00000000000E+00 -0.15443606176E+04  0.15443606176E+04  0.00000000000E+00 0. -1.
          6    1    1    2  502    0  0.21484186581E+03  0.17293183962E+03 -0.13302742298E+04  0.13694071619E+04  0.17200000000E+03 0. -1.
         -6    1    1    2    0  501 -0.21484186581E+03 -0.17293183962E+03 -0.58741478755E+02  0.33029836479E+03  0.17200000000E+03 0.  1.
</event>
<event>
 4    1  0.3141404E-002  0.1735676E+03  0.7818608E-02  0.1174178E+00
         -1   -1    0    0    0  501 -0.00000000000E+00  0.00000000000E+00  0.20764250962E+02  0.20764250962E+02  0.00000000000E+00 0.  1.
          1   -1    0    0  502    0  0.00000000000E+00 -0.00000000000E+00 -0.16338905265E+04  0.16338905265E+04  0.00000000000E+00 0. -1.
          6    1    1    2  502    0  0.12617288339E+02  0.19557880230E+02 -0.10834776128E+04  0.10972918682E+04  0.17200000000E+03 0. -1.
         -6    1    1    2    0  501 -0.12617288339E+02 -0.19557880230E+02 -0.52964866269E+03  0.55736290918E+03  0.17200000000E+03 0.  1.
</event>
<event>
 4    1  0.3141404E-002  0.5241414E+03  0.7818608E-02  0.1007663E+00
          1   -1    0    0  502    0  0.00000000000E+00  0.00000000000E+00  0.98472574943E+03  0.98472574943E+03  0.00000000000E+00 0. -1.
         -1   -1    0    0    0  501 -0.00000000000E+00 -0.00000000000E+00 -0.32798398391E+03  0.32798398391E+03  0.00000000000E+00 0.  1.
          6    1    1    2  502    0  0.49511614948E+03  0.40304682061E+00  0.58206120494E+03  0.78327479866E+03  0.17200000000E+03 0. -1.
         -6    1    1    2    0  501 -0.49511614948E+03 -0.40304682061E+00  0.74680560578E+02  0.52943493467E+03  0.17200000000E+03 0.  1.
</event>
<event>
 4    1  0.3141404E-002  0.2652886E+03  0.7818608E-02  0.1104007E+00
         -1   -1    0    0    0  501 -0.00000000000E+00  0.00000000000E+00  0.45622292013E+03  0.45622292013E+03  0.00000000000E+00 0.  1.
          1   -1    0    0  502    0  0.00000000000E+00 -0.00000000000E+00 -0.56930940807E+03  0.56930940807E+03  0.00000000000E+00 0. -1.
          6    1    1    2  502    0  0.19558308547E+03 -0.50411114541E+02 -0.49436147773E+03  0.56104482392E+03  0.17200000000E+03 0. -1.
         -6    1    1    2    0  501 -0.19558308547E+03  0.50411114541E+02  0.38127498979E+03  0.46448750428E+03  0.17200000000E+03 0.  1.
</event>
<event>
 4    1  0.3141404E-002  0.2258253E+03  0.7818608E-02  0.1129613E+00
         -1   -1    0    0    0  501 -0.00000000000E+00  0.00000000000E+00  0.11206158094E+04  0.11206158094E+04  0.00000000000E+00 0.  1.
          1   -1    0    0  502    0  0.00000000000E+00 -0.00000000000E+00 -0.79548082226E+02  0.79548082226E+02  0.00000000000E+00 0. -1.
          6    1    1    2  502    0 -0.10902388774E+03 -0.97605560521E+02  0.12798781549E+03  0.25957259958E+03  0.17200000000E+03 0. -1.
         -6    1    1    2    0  501  0.10902388774E+03  0.97605560521E+02  0.91307991172E+03  0.94059129208E+03  0.17200000000E+03 0.  1.
</event>
<event>
 4    1  0.3141404E-002  0.2274717E+03  0.7818608E-02  0.1128432E+00
          2   -1    0    0  502    0  0.00000000000E+00  0.00000000000E+00  0.25906709058E+03  0.25906709058E+03  0.00000000000E+00 0. -1.
         -2   -1    0    0    0  501 -0.00000000000E+00 -0.00000000000E+00 -0.20511174055E+03  0.20511174055E+03  0.00000000000E+00 0.  1.
          6    1    1    2  502    0 -0.12792552186E+03  0.76121260089E+02  0.64573068321E+02  0.23645943951E+03  0.17200000000E+03 0. -1.
         -6    1    1    2    0  501  0.12792552186E+03 -0.76121260089E+02 -0.10617718296E+02  0.22771939162E+03  0.17200000000E+03 0.  1.
</event>
<event>
 4    1  0.3141404E-002  0.2628520E+03  0.7818608E-02  0.1105442E+00
          2   -1    0    0  502    0  0.00000000000E+00  0.00000000000E+00  0.21859160736E+04  0.21859160736E+04  0.00000000000E+00 0. -1.
         -2   -1    0    0    0  501 -0.00000000000E+00 -0.00000000000E+00 -0.32745108445E+02  0.32745108445E+02  0.00000000000E+00 0.  1.
          6    1    1    2  502    0 -0.13277185961E+02 -0.19832020606E+03  0.12833603102E+04  0.13100018601E+04  0.17200000000E+03 0. -1.
         -6    1    1    2    0  501  0.13277185961E+02  0.19832020606E+03  0.86981065500E+03  0.90865932194E+03  0.17200000000E+03 0. -1.
</event>
<event>
 4    1  0.3141404E-002  0.2253015E+03  0.7818608E-02  0.1129991E+00
          1   -1    0    0  502    0  0.00000000000E+00  0.00000000000E+00  0.47449232471E+03  0.47449232471E+03  0.00000000000E+00 0. -1.
         -1   -1    0    0    0  501 -0.00000000000E+00 -0.00000000000E+00 -0.10698557567E+03  0.10698557567E+03  0.00000000000E+00 0.  1.
          6    1    1    2  502    0 -0.65906340817E+02  0.12974244269E+03  0.18602071476E+03  0.29217195881E+03  0.17200000000E+03 0. -1.
         -6    1    1    2    0  501  0.65906340817E+02 -0.12974244269E+03  0.18148603428E+03  0.28930594158E+03  0.17200000000E+03 0. -1.
</event>
<event>
 4    1  0.3141404E-002  0.1771256E+03  0.7818608E-02  0.1170614E+00
          2   -1    0    0  502    0  0.00000000000E+00  0.00000000000E+00  0.43929214857E+03  0.43929214857E+03  0.00000000000E+00 0. -1.
         -2   -1    0    0    0  501 -0.00000000000E+00 -0.00000000000E+00 -0.12141578650E+03  0.12141578650E+03  0.00000000000E+00 0.  1.
          6    1    1    2  502    0  0.39642583251E+02 -0.14763003488E+02  0.33884324560E+03  0.38234568883E+03  0.17200000000E+03 0. -1.
         -6    1    1    2    0  501 -0.39642583251E+02  0.14763003488E+02 -0.20966883530E+02  0.17836224624E+03  0.17200000000E+03 0.  1.
</event>
<event>
 4    1  0.3141404E-002  0.2214501E+03  0.7818608E-02  0.1132807E+00
          1   -1    0    0  502    0  0.00000000000E+00  0.00000000000E+00  0.34825962085E+03  0.34825962085E+03  0.00000000000E+00 0. -1.
         -1   -1    0    0    0  501 -0.00000000000E+00 -0.00000000000E+00 -0.14515211376E+03  0.14515211376E+03  0.00000000000E+00 0.  1.
          6    1    1    2  502    0 -0.13622312288E+03  0.29990166011E+02  0.58908332455E+02  0.22915134933E+03  0.17200000000E+03 0.  1.
         -6    1    1    2    0  501  0.13622312288E+03 -0.29990166011E+02  0.14419917464E+03  0.26426038529E+03  0.17200000000E+03 0. -1.
</event>
<event>
 4    1  0.3141404E-002  0.2157030E+03  0.7818608E-02  0.1137128E+00
         -2   -1    0    0    0  501 -0.00000000000E+00  0.00000000000E+00  0.32426440302E+03  0.32426440302E+03  0.00000000000E+00 0.  1.
          2   -1    0    0  502    0  0.00000000000E+00 -0.00000000000E+00 -0.21757506369E+03  0.21757506369E+03  0.00000000000E+00 0. -1.
          6    1    1    2  502    0  0.23895725815E+02  0.12795609335E+03 -0.10474730724E+03  0.23979108805E+03  0.17200000000E+03 0.  1.
         -6    1    1    2    0  501 -0.23895725815E+02 -0.12795609335E+03  0.21143664657E+03  0.30204837866E+03  0.17200000000E+03 0.  1.
</event>
<event>
 4    1  0.3141404E-002  0.6198990E+03  0.7818608E-02  0.9864961E-01
          1   -1    0    0  502    0  0.00000000000E+00  0.00000000000E+00  0.10920671663E+04  0.10920671663E+04  0.00000000000E+00 0. -1.
         -1   -1    0    0    0  501 -0.00000000000E+00 -0.00000000000E+00 -0.42450091322E+03  0.42450091322E+03  0.00000000000E+00 0.  1.
          6    1    1    2  502    0  0.15252379353E+03  0.57569718774E+03  0.64742098356E+03  0.89634183742E+03  0.17200000000E+03 0. -1.
         -6    1    1    2    0  501 -0.15252379353E+03 -0.57569718774E+03  0.20145269568E+02  0.62022624215E+03  0.17200000000E+03 0.  1.
</event>
<event>
 4    1  0.3141404E-002  0.2309874E+03  0.7818608E-02  0.1125947E+00
          2   -1    0    0  502    0  0.00000000000E+00  0.00000000000E+00  0.28070561072E+04  0.28070561072E+04  0.00000000000E+00 0. -1.
         -2   -1    0    0    0  501 -0.00000000000E+00 -0.00000000000E+00 -0.19035444553E+02  0.19035444553E+02  0.00000000000E+00 0.  1.
          6    1    1    2  502    0 -0.11000767733E+03  0.10802542905E+03  0.14481290648E+04  0.14664354642E+04  0.17200000000E+03 0. -1.
         -6    1    1    2    0  501  0.11000767733E+03 -0.10802542905E+03  0.13398915978E+04  0.13596560875E+04  0.17200000000E+03 0. -1.
</event>
<event>
 4    1  0.3141404E-002  0.2008649E+03  0.7818608E-02  0.1149011E+00
         -2   -1    0    0    0  501 -0.00000000000E+00  0.00000000000E+00  0.66199788633E+03  0.66199788633E+03  0.00000000000E+00 0.  1.
          2   -1    0    0  502    0  0.00000000000E+00 -0.00000000000E+00 -0.12942755076E+03  0.12942755076E+03  0.00000000000E+00 0. -1.
          6    1    1    2  502    0  0.95609674567E+02  0.40267859548E+02 -0.21554485711E+02  0.20201808394E+03  0.17200000000E+03 0. -1.
         -6    1    1    2    0  501 -0.95609674567E+02 -0.40267859548E+02  0.55412482128E+03  0.58940735315E+03  0.17200000000E+03 0.  1.
</event>
<event>
 4    1  0.3141404E-002  0.1925884E+03  0.7818608E-02  0.1156147E+00
         -3   -1    0    0    0  501 -0.00000000000E+00  0.00000000000E+00  0.30518463719E+03  0.30518463719E+03  0.00000000000E+00 0.  1.
          3   -1    0    0  502    0  0.00000000000E+00 -0.00000000000E+00 -0.16553470950E+03  0.16553470950E+03  0.00000000000E+00 0. -1.
          6    1    1    2  502    0 -0.86574321831E+02 -0.33409974332E+01 -0.51518925345E+02  0.19936016436E+03  0.17200000000E+03 0. -1.
         -6    1    1    2    0  501  0.86574321831E+02  0.33409974332E+01  0.19116885303E+03  0.27135918233E+03  0.17200000000E+03 0.  1.
</event>
<event>
 4    1  0.3141404E-002  0.1773433E+03  0.7818608E-02  0.1170399E+00
          2   -1    0    0  502    0  0.00000000000E+00  0.00000000000E+00  0.20505345409E+04  0.20505345409E+04  0.00000000000E+00 0. -1.
         -2   -1    0    0    0  501 -0.00000000000E+00 -0.00000000000E+00 -0.29711480572E+02  0.29711480572E+02  0.00000000000E+00 0.  1.
          6    1    1    2  502    0  0.33740811903E+02  0.26985137562E+02  0.17338588473E+04  0.17429048002E+04  0.17200000000E+03 0. -1.
         -6    1    1    2    0  501 -0.33740811903E+02 -0.26985137562E+02  0.28696421298E+03  0.33734122127E+03  0.17200000000E+03 0.  1.
</event>
<event>
 4    1  0.3141404E-002  0.3903390E+03  0.7818608E-02  0.1047177E+00
         -1   -1    0    0    0  501 -0.00000000000E+00  0.00000000000E+00  0.27113759937E+03  0.27113759937E+03  0.00000000000E+00 0.  1.
          1   -1    0    0  502    0  0.00000000000E+00 -0.00000000000E+00 -0.64574798642E+03  0.64574798642E+03  0.00000000000E+00 0. -1.
          6    1    1    2  502    0  0.34779160387E+03  0.42679482920E+02 -0.22153807424E+02  0.39096717147E+03  0.17200000000E+03 0. -1.
         -6    1    1    2    0  501 -0.34779160387E+03 -0.42679482920E+02 -0.35245657963E+03  0.52591841431E+03  0.17200000000E+03 0.  1.
</event>
<event>
 4    1  0.3141404E-002  0.3937847E+03  0.7818608E-02  0.1045953E+00
          2   -1    0    0  502    0  0.00000000000E+00  0.00000000000E+00  0.37731910139E+04  0.37731910139E+04  0.00000000000E+00 0. -1.
         -2   -1    0    0    0  501 -0.00000000000E+00 -0.00000000000E+00 -0.76367521356E+02  0.76367521356E+02  0.00000000000E+00 0.  1.
          6    1    1    2  502    0  0.34495033592E+03  0.80571047014E+02  0.31564883628E+04  0.31809566505E+04  0.17200000000E+03 0. -1.
         -6    1    1    2    0  501 -0.34495033592E+03 -0.80571047014E+02  0.54033512974E+03  0.66860188476E+03  0.17200000000E+03 0.  1.
</event>
<event>
 4    1  0.3141404E-002  0.2223540E+03  0.7818608E-02  0.1132140E+00
          1   -1    0    0  502    0  0.00000000000E+00  0.00000000000E+00  0.34295793437E+03  0.34295793437E+03  0.00000000000E+00 0. -1.
         -1   -1    0    0    0  501 -0.00000000000E+00 -0.00000000000E+00 -0.38930867169E+03  0.38930867169E+03  0.00000000000E+00 0.  1.
          6    1    1    2  502    0 -0.56703314814E+02  0.12900408322E+03  0.26736445350E+03  0.34774282220E+03  0.17200000000E+03 0. -1.
         -6    1    1    2    0  501  0.56703314814E+02 -0.12900408322E+03 -0.31371519082E+03  0.38452378386E+03  0.17200000000E+03 0.  1.
</event>
<event>
 4    1  0.3141404E-002  0.1910688E+03  0.7818608E-02  0.1157501E+00
          2   -1    0    0  502    0  0.00000000000E+00  0.00000000000E+00  0.15120711226E+04  0.15120711226E+04  0.00000000000E+00 0. -1.
         -2   -1    0    0    0  501 -0.00000000000E+00 -0.00000000000E+00 -0.56512288096E+02  0.56512288096E+02  0.00000000000E+00 0.  1.
          6    1    1    2  502    0 -0.37848908991E+02 -0.74099479486E+02  0.13213423973E+04  0.13350853919E+04  0.17200000000E+03 0. -1.
         -6    1    1    2    0  501  0.37848908991E+02  0.74099479486E+02  0.13421643724E+03  0.23349801883E+03  0.17200000000E+03 0.  1.
</event>
<event>
 4    1  0.3141404E-002  0.2116284E+03  0.7818608E-02  0.1140283E+00
         -1   -1    0    0    0  501 -0.00000000000E+00  0.00000000000E+00  0.76577323513E+02  0.76577323513E+02  0.00000000000E+00 0.  1.
          1   -1    0    0  502    0  0.00000000000E+00 -0.00000000000E+00 -0.10080765218E+04  0.10080765218E+04  0.00000000000E+00 0. -1.
          6    1    1    2  502    0  0.12263700102E+03 -0.12757064945E+02 -0.81714708289E+03  0.84410658794E+03  0.17200000000E+03 0. -1.
         -6    1    1    2    0  501 -0.12263700102E+03  0.12757064945E+02 -0.11435211535E+03  0.24054725733E+03  0.17200000000E+03 0.  1.
</event>
<event>
 4    1  0.3141404E-002  0.2057885E+03  0.7818608E-02  0.1144945E+00
         -1   -1    0    0    0  501 -0.00000000000E+00  0.00000000000E+00  0.35979693630E+02  0.35979693630E+02  0.00000000000E+00 0.  1.
          1   -1    0    0  502    0  0.00000000000E+00 -0.00000000000E+00 -0.17762702235E+04  0.17762702235E+04  0.00000000000E+00 0. -1.
          6    1    1    2  502    0 -0.97954157766E+02  0.56301835108E+02 -0.13964493296E+04  0.14115309574E+04  0.17200000000E+03 0. -1.
         -6    1    1    2    0  501  0.97954157766E+02 -0.56301835108E+02 -0.34384120032E+03  0.40071895974E+03  0.17200000000E+03 0.  1.
</event>
<event>
 4    1  0.3141404E-002  0.2250702E+03  0.7818608E-02  0.1130158E+00
         -3   -1    0    0    0  501 -0.00000000000E+00  0.00000000000E+00  0.36473129561E+04  0.36473129561E+04  0.00000000000E+00 0.  1.
          3   -1    0    0  502    0  0.00000000000E+00 -0.00000000000E+00 -0.14654589521E+02  0.14654589521E+02  0.00000000000E+00 0. -1.
          6    1    1    2  502    0 -0.14481500591E+03  0.10060542996E+02  0.13977593718E+04  0.14157640559E+04  0.17200000000E+03 0. -1.
         -6    1    1    2    0  501  0.14481500591E+03 -0.10060542996E+02  0.22348989948E+04  0.22462034897E+04  0.17200000000E+03 0.  1.
</event>
<event>
 4    1  0.3141404E-002  0.2589673E+03  0.7818608E-02  0.1107765E+00
         -2   -1    0    0    0  501 -0.00000000000E+00  0.00000000000E+00  0.16929463574E+03  0.16929463574E+03  0.00000000000E+00 0.  1.
          2   -1    0    0  502    0  0.00000000000E+00 -0.00000000000E+00 -0.39687220531E+03  0.39687220531E+03  0.00000000000E+00 0. -1.
          6    1    1    2  502    0 -0.23417911527E+02 -0.19217611551E+03 -0.10161393221E+03  0.27818959214E+03  0.17200000000E+03 0.  1.
         -6    1    1    2    0  501  0.23417911527E+02  0.19217611551E+03 -0.12596363736E+03  0.28797724891E+03  0.17200000000E+03 0. -1.
</event>
<event>
 4    1  0.3141404E-002  0.9614627E+03  0.7818608E-02  0.9351852E-01
          2   -1    0    0  502    0  0.00000000000E+00  0.00000000000E+00  0.12917471345E+04  0.12917471345E+04  0.00000000000E+00 0. -1.
         -2   -1    0    0    0  501 -0.00000000000E+00 -0.00000000000E+00 -0.77925566032E+03  0.77925566032E+03  0.00000000000E+00 0.  1.
          6    1    1    2  502    0  0.76187473369E+03  0.56069012544E+03 -0.39646381590E+02  0.96227977333E+03  0.17200000000E+03 0. -1.
         -6    1    1    2    0  501 -0.76187473369E+03 -0.56069012544E+03  0.55213785576E+03  0.11087230215E+04  0.17200000000E+03 0.  1.
</event>
<event>
 4    1  0.3141404E-002  0.2029155E+03  0.7818608E-02  0.1147302E+00
         -2   -1    0    0    0  501 -0.00000000000E+00  0.00000000000E+00  0.10645686374E+03  0.10645686374E+03  0.00000000000E+00 0.  1.
          2   -1    0    0  502    0  0.00000000000E+00 -0.00000000000E+00 -0.57882816145E+03  0.57882816145E+03  0.00000000000E+00 0. -1.
          6    1    1    2  502    0  0.70872975814E+02 -0.81041387952E+02 -0.43355464703E+03  0.47869021008E+03  0.17200000000E+03 0. -1.
         -6    1    1    2    0  501 -0.70872975814E+02  0.81041387952E+02 -0.38816650677E+02  0.20659481511E+03  0.17200000000E+03 0.  1.
</event>
<event>
 4    1  0.3141404E-002  0.2110689E+03  0.7818608E-02  0.1140722E+00
         -2   -1    0    0    0  501 -0.00000000000E+00  0.00000000000E+00  0.61818011523E+02  0.61818011523E+02  0.00000000000E+00 0.  1.
          2   -1    0    0  502    0  0.00000000000E+00 -0.00000000000E+00 -0.15311485307E+04  0.15311485307E+04  0.00000000000E+00 0. -1.
          6    1    1    2  502    0  0.16833562015E+02  0.12117224970E+03 -0.13141474197E+04  0.13309896782E+04  0.17200000000E+03 0. -1.
         -6    1    1    2    0  501 -0.16833562015E+02 -0.12117224970E+03 -0.15518309954E+03  0.26197686404E+03  0.17200000000E+03 0.  1.
</event>
<event>
 4    1  0.3141404E-002  0.1780698E+03  0.7818608E-02  0.1169684E+00
         -2   -1    0    0    0  501 -0.00000000000E+00  0.00000000000E+00  0.13198834519E+02  0.13198834519E+02  0.00000000000E+00 0.  1.
          2   -1    0    0  502    0  0.00000000000E+00 -0.00000000000E+00 -0.34711307270E+04  0.34711307270E+04  0.00000000000E+00 0. -1.
          6    1    1    2  502    0 -0.44221964393E+02  0.13011101453E+02 -0.26956577441E+04  0.27015328138E+04  0.17200000000E+03 0. -1.
         -6    1    1    2    0  501  0.44221964393E+02 -0.13011101453E+02 -0.76227414833E+03  0.78279674764E+03  0.17200000000E+03 0.  1.
</event>
<event>
 4    1  0.3141404E-002  0.3259227E+03  0.7818608E-02  0.1072955E+00
         -2   -1    0    0    0  501 -0.00000000000E+00  0.00000000000E+00  0.60456655649E+03  0.60456655649E+03  0.00000000000E+00 0.  1.
          2   -1    0    0  502    0  0.00000000000E+00 -0.00000000000E+00 -0.74462825665E+03  0.74462825665E+03  0.00000000000E+00 0. -1.
          6    1    1    2  502    0 -0.24376332840E+03 -0.13122896730E+03 -0.65969076591E+03  0.73581078326E+03  0.17200000000E+03 0. -1.
         -6    1    1    2    0  501  0.24376332840E+03  0.13122896730E+03  0.51962906576E+03  0.61338402988E+03  0.17200000000E+03 0.  1.
</event>
<event>
 4    1  0.3141404E-002  0.2312618E+03  0.7818608E-02  0.1125755E+00
         -1   -1    0    0    0  501 -0.00000000000E+00  0.00000000000E+00  0.51441920557E+02  0.51441920557E+02  0.00000000000E+00 0.  1.
          1   -1    0    0  502    0  0.00000000000E+00 -0.00000000000E+00 -0.11232883294E+04  0.11232883294E+04  0.00000000000E+00 0. -1.
          6    1    1    2  502    0 -0.11228715952E+03 -0.10625259871E+03 -0.69619001517E+03  0.73359563667E+03  0.17200000000E+03 0. -1.
         -6    1    1    2    0  501  0.11228715952E+03  0.10625259871E+03 -0.37565639363E+03  0.44113461324E+03  0.17200000000E+03 0.  1.
</event>
<event>
 4    1  0.3141404E-002  0.1780988E+03  0.7818608E-02  0.1169656E+00
          1   -1    0    0  502    0  0.00000000000E+00  0.00000000000E+00  0.52042459539E+03  0.52042459539E+03  0.00000000000E+00 0. -1.
         -1   -1    0    0    0  501 -0.00000000000E+00 -0.00000000000E+00 -0.61029714167E+02  0.61029714167E+02  0.00000000000E+00 0.  1.
          6    1    1    2  502    0 -0.46152985705E+02 -0.22537544916E+01  0.21910187044E+03  0.28235581653E+03  0.17200000000E+03 0.  1.
         -6    1    1    2    0  501  0.46152985705E+02  0.22537544916E+01  0.24029301079E+03  0.29909849303E+03  0.17200000000E+03 0. -1.
</event>
<event>
 4    1  0.3141404E-002  0.3315090E+03  0.7818608E-02  0.1070471E+00
          2   -1    0    0  502    0  0.00000000000E+00  0.00000000000E+00  0.12308497847E+03  0.12308497847E+03  0.00000000000E+00 0. -1.
         -2   -1    0    0    0  501 -0.00000000000E+00 -0.00000000000E+00 -0.96227397571E+03  0.96227397571E+03  0.00000000000E+00 0.  1.
          6    1    1    2  502    0  0.17754065001E+03  0.22089251843E+03 -0.27384605208E+03  0.42998819443E+03  0.17200000000E+03 0. -1.
         -6    1    1    2    0  501 -0.17754065001E+03 -0.22089251843E+03 -0.56534294516E+03  0.65537075976E+03  0.17200000000E+03 0.  1.
</event>
<event>
 4    1  0.3141404E-002  0.3492823E+03  0.7818608E-02  0.1062910E+00
          1   -1    0    0  502    0  0.00000000000E+00  0.00000000000E+00  0.10413975791E+04  0.10413975791E+04  0.00000000000E+00 0. -1.
         -1   -1    0    0    0  501 -0.00000000000E+00 -0.00000000000E+00 -0.16630233262E+03  0.16630233262E+03  0.00000000000E+00 0.  1.
          6    1    1    2  502    0 -0.30284214543E+03 -0.26471779341E+02  0.76583845096E+03  0.84172837253E+03  0.17200000000E+03 0. -1.
         -6    1    1    2    0  501  0.30284214543E+03  0.26471779341E+02  0.10925679556E+03  0.36597153923E+03  0.17200000000E+03 0.  1.
</event>
<event>
 4    1  0.3141404E-002  0.3187857E+03  0.7818608E-02  0.1076210E+00
         -2   -1    0    0    0  501 -0.00000000000E+00  0.00000000000E+00  0.46156179066E+02  0.46156179066E+02  0.00000000000E+00 0.  1.
          2   -1    0    0  502    0  0.00000000000E+00 -0.00000000000E+00 -0.22097917492E+04  0.22097917492E+04  0.00000000000E+00 0. -1.
          6    1    1    2  502    0  0.26792996761E+03  0.15932626329E+02 -0.11498678547E+04  0.11932394560E+04  0.17200000000E+03 0. -1.
         -6    1    1    2    0  501 -0.26792996761E+03 -0.15932626329E+02 -0.10137677154E+04  0.10627084722E+04  0.17200000000E+03 0. -1.
</event>
<event>
 4    1  0.3141404E-002  0.3055741E+03  0.7818608E-02  0.1082487E+00
         -3   -1    0    0    0  501 -0.00000000000E+00  0.00000000000E+00  0.67909978000E+03  0.67909978000E+03  0.00000000000E+00 0.  1.
          3   -1    0    0  502    0  0.00000000000E+00 -0.00000000000E+00 -0.20593639980E+03  0.20593639980E+03  0.00000000000E+00 0. -1.
          6    1    1    2  502    0 -0.44501616785E+02  0.24861850534E+03 -0.18518718329E+02  0.30613477101E+03  0.17200000000E+03 0. -1.
         -6    1    1    2    0  501  0.44501616785E+02 -0.24861850534E+03  0.49168209853E+03  0.57890140880E+03  0.17200000000E+03 0.  1.
</event>
<event>
 4    1  0.3141404E-002  0.3137826E+03  0.7818608E-02  0.1078547E+00
          1   -1    0    0  502    0  0.00000000000E+00  0.00000000000E+00  0.79947224575E+02  0.79947224575E+02  0.00000000000E+00 0. -1.
         -1   -1    0    0    0  501 -0.00000000000E+00 -0.00000000000E+00 -0.12577354190E+04  0.12577354190E+04  0.00000000000E+00 0.  1.
          6    1    1    2  502    0 -0.76544897936E+01  0.26232983444E+03 -0.49239942086E+03  0.58388074375E+03  0.17200000000E+03 0. -1.
         -6    1    1    2    0  501  0.76544897936E+01 -0.26232983444E+03 -0.68538877352E+03  0.75380189978E+03  0.17200000000E+03 0.  1.
</event>
<event>
 4    1  0.3141404E-002  0.3230862E+03  0.7818608E-02  0.1074238E+00
         -2   -1    0    0    0  501 -0.00000000000E+00  0.00000000000E+00  0.61737495007E+03  0.61737495007E+03  0.00000000000E+00 0.  1.
          2   -1    0    0  502    0  0.00000000000E+00 -0.00000000000E+00 -0.50922266257E+03  0.50922266257E+03  0.00000000000E+00 0. -1.
          6    1    1    2  502    0  0.17458515973E+03  0.21052480446E+03 -0.40630406441E+03  0.51910274903E+03  0.17200000000E+03 0. -1.
         -6    1    1    2    0  501 -0.17458515973E+03 -0.21052480446E+03  0.51445635192E+03  0.60749486362E+03  0.17200000000E+03 0.  1.
</event>
<event>
 4    1  0.3141404E-002  0.5306526E+03  0.7818608E-02  0.1006074E+00
          2   -1    0    0  502    0  0.00000000000E+00  0.00000000000E+00  0.18610383973E+04  0.18610383973E+04  0.00000000000E+00 0. -1.
         -2   -1    0    0    0  501 -0.00000000000E+00 -0.00000000000E+00 -0.17981136229E+03  0.17981136229E+03  0.00000000000E+00 0.  1.
          6    1    1    2  502    0 -0.12291748761E+03 -0.48672322908E+03  0.12468804376E+04  0.13551025925E+04  0.17200000000E+03 0. -1.
         -6    1    1    2    0  501  0.12291748761E+03  0.48672322908E+03  0.43434659738E+03  0.68574716707E+03  0.17200000000E+03 0.  1.
</event>
<event>
 4    1  0.3141404E-002  0.2141748E+03  0.7818608E-02  0.1138302E+00
         -2   -1    0    0    0  501 -0.00000000000E+00  0.00000000000E+00  0.13713473087E+03  0.13713473087E+03  0.00000000000E+00 0.  1.
          2   -1    0    0  502    0  0.00000000000E+00 -0.00000000000E+00 -0.37890816116E+03  0.37890816116E+03  0.00000000000E+00 0. -1.
          6    1    1    2  502    0 -0.47751834952E+02  0.11834957712E+03 -0.32549146859E+02  0.21663403959E+03  0.17200000000E+03 0. -1.
         -6    1    1    2    0  501  0.47751834952E+02 -0.11834957712E+03 -0.20922428343E+03  0.29940885245E+03  0.17200000000E+03 0.  1.
</event>
<event>
 4    1  0.3141404E-002  0.1867197E+03  0.7818608E-02  0.1161454E+00
         -1   -1    0    0    0  501 -0.00000000000E+00  0.00000000000E+00  0.25592557393E+02  0.25592557393E+02  0.00000000000E+00 0.  1.
          1   -1    0    0  502    0  0.00000000000E+00 -0.00000000000E+00 -0.14419545632E+04  0.14419545632E+04  0.00000000000E+00 0. -1.
          6    1    1    2  502    0  0.57405050738E+02 -0.44552475148E+02 -0.53569950447E+03  0.56730787230E+03  0.17200000000E+03 0.  1.
         -6    1    1    2    0  501 -0.57405050738E+02  0.44552475148E+02 -0.88066250131E+03  0.90023924826E+03  0.17200000000E+03 0. -1.
</event>
<event>
 4    1  0.3141404E-002  0.2769099E+03  0.7818608E-02  0.1097389E+00
         -1   -1    0    0    0  501 -0.00000000000E+00  0.00000000000E+00  0.44684859785E+02  0.44684859785E+02  0.00000000000E+00 0.  1.
          1   -1    0    0  502    0  0.00000000000E+00 -0.00000000000E+00 -0.21855871101E+04  0.21855871101E+04  0.00000000000E+00 0. -1.
          6    1    1    2  502    0 -0.13446491000E+03 -0.17033581983E+03 -0.15873469840E+04  0.16113191959E+04  0.17200000000E+03 0.  1.
         -6    1    1    2    0  501  0.13446491000E+03  0.17033581983E+03 -0.55355526637E+03  0.61895277402E+03  0.17200000000E+03 0.  1.
</event>
<event>
 4    1  0.3141404E-002  0.1778158E+03  0.7818608E-02  0.1169934E+00
         -2   -1    0    0    0  501 -0.00000000000E+00  0.00000000000E+00  0.17264403870E+03  0.17264403870E+03  0.00000000000E+00 0.  1.
          2   -1    0    0  502    0  0.00000000000E+00 -0.00000000000E+00 -0.18401278687E+03  0.18401278687E+03  0.00000000000E+00 0. -1.
          6    1    1    2  502    0  0.36366077212E+02 -0.26682403386E+02 -0.17949010810E+02  0.17871935880E+03  0.17200000000E+03 0.  1.
         -6    1    1    2    0  501 -0.36366077212E+02  0.26682403386E+02  0.65802626371E+01  0.17793746676E+03  0.17200000000E+03 0. -1.
</event>
<event>
 4    1  0.3141404E-002  0.2448313E+03  0.7818608E-02  0.1116616E+00
         -2   -1    0    0    0  501 -0.00000000000E+00  0.00000000000E+00  0.86524001104E+02  0.86524001104E+02  0.00000000000E+00 0.  1.
          2   -1    0    0  502    0  0.00000000000E+00 -0.00000000000E+00 -0.10094462991E+04  0.10094462991E+04  0.00000000000E+00 0. -1.
          6    1    1    2  502    0 -0.78116619859E+02 -0.15574395689E+03 -0.76838158969E+03  0.80644445176E+03  0.17200000000E+03 0. -1.
         -6    1    1    2    0  501  0.78116619859E+02  0.15574395689E+03 -0.15454070836E+03  0.28952584849E+03  0.17200000000E+03 0.  1.
</event>
<event>
 4    1  0.3141404E-002  0.2474317E+03  0.7818608E-02  0.1114939E+00
          1   -1    0    0  502    0  0.00000000000E+00  0.00000000000E+00  0.35312027577E+04  0.35312027577E+04  0.00000000000E+00 0. -1.
         -1   -1    0    0    0  501 -0.00000000000E+00 -0.00000000000E+00 -0.20980516905E+02  0.20980516905E+02  0.00000000000E+00 0.  1.
          6    1    1    2  502    0 -0.17590105729E+03 -0.26405389304E+02  0.24952010865E+04  0.25074391097E+04  0.17200000000E+03 0. -1.
         -6    1    1    2    0  501  0.17590105729E+03  0.26405389304E+02  0.10150211543E+04  0.10447441650E+04  0.17200000000E+03 0.  1.
</event>
<event>
 4    1  0.3141404E-002  0.1817507E+03  0.7818608E-02  0.1166119E+00
         -1   -1    0    0    0  501 -0.00000000000E+00  0.00000000000E+00  0.84405679573E+02  0.84405679573E+02  0.00000000000E+00 0.  1.
          1   -1    0    0  502    0  0.00000000000E+00 -0.00000000000E+00 -0.39706737072E+03  0.39706737072E+03  0.00000000000E+00 0. -1.
          6    1    1    2  502    0 -0.58724221056E+02  0.87657820690E+00 -0.18518408413E+03  0.25947340431E+03  0.17200000000E+03 0. -1.
         -6    1    1    2    0  501  0.58724221056E+02 -0.87657820690E+00 -0.12747760702E+03  0.22199964599E+03  0.17200000000E+03 0.  1.
</event>
<event>
 4    1  0.3141404E-002  0.3520658E+03  0.7818608E-02  0.1061770E+00
          2   -1    0    0  502    0  0.00000000000E+00  0.00000000000E+00  0.44104201191E+03  0.44104201191E+03  0.00000000000E+00 0. -1.
         -2   -1    0    0    0  501 -0.00000000000E+00 -0.00000000000E+00 -0.40111799254E+03  0.40111799254E+03  0.00000000000E+00 0.  1.
          6    1    1    2  502    0  0.18843160170E+02  0.30661251315E+03  0.25035054610E+03  0.43200196045E+03  0.17200000000E+03 0. -1.
         -6    1    1    2    0  501 -0.18843160170E+02 -0.30661251315E+03 -0.21042652673E+03  0.41015804400E+03  0.17200000000E+03 0.  1.
</event>
<event>
 4    1  0.3141404E-002  0.4240833E+03  0.7818608E-02  0.1035745E+00
          2   -1    0    0  502    0  0.00000000000E+00  0.00000000000E+00  0.23972313147E+04  0.23972313147E+04  0.00000000000E+00 0. -1.
         -2   -1    0    0    0  501 -0.00000000000E+00 -0.00000000000E+00 -0.81465287752E+02  0.81465287752E+02  0.00000000000E+00 0.  1.
          6    1    1    2  502    0  0.28086191565E+02 -0.38661847111E+03  0.15064116811E+04  0.15649673573E+04  0.17200000000E+03 0. -1.
         -6    1    1    2    0  501 -0.28086191565E+02  0.38661847111E+03  0.80935434584E+03  0.91372924518E+03  0.17200000000E+03 0.  1.
</event>
<event>
 4    1  0.3141404E-002  0.2859440E+03  0.7818608E-02  0.1092486E+00
         -1   -1    0    0    0  501 -0.00000000000E+00  0.00000000000E+00  0.27059171124E+03  0.27059171124E+03  0.00000000000E+00 0.  1.
          1   -1    0    0  502    0  0.00000000000E+00 -0.00000000000E+00 -0.45776511608E+03  0.45776511608E+03  0.00000000000E+00 0. -1.
          6    1    1    2  502    0 -0.77110148693E+02  0.21502093097E+03 -0.30590848650E+03  0.41874094367E+03  0.17200000000E+03 0. -1.
         -6    1    1    2    0  501  0.77110148693E+02 -0.21502093097E+03  0.11873508167E+03  0.30961588365E+03  0.17200000000E+03 0. -1.
</event>
<event>
 4    1  0.3141404E-002  0.3034273E+03  0.7818608E-02  0.1083540E+00
         -1   -1    0    0    0  501 -0.00000000000E+00  0.00000000000E+00  0.64717624761E+02  0.64717624761E+02  0.00000000000E+00 0.  1.
          1   -1    0    0  502    0  0.00000000000E+00 -0.00000000000E+00 -0.27097701538E+04  0.27097701538E+04  0.00000000000E+00 0. -1.
          6    1    1    2  502    0  0.11229040198E+03 -0.22332702954E+03 -0.22786244169E+04  0.22987382038E+04  0.17200000000E+03 0. -1.
         -6    1    1    2    0  501 -0.11229040198E+03  0.22332702954E+03 -0.36642811222E+03  0.47574957481E+03  0.17200000000E+03 0.  1.
</event>
<event>
 4    1  0.3141404E-002  0.1783494E+03  0.7818608E-02  0.1169410E+00
         -1   -1    0    0    0  501 -0.00000000000E+00  0.00000000000E+00  0.10196616990E+03  0.10196616990E+03  0.00000000000E+00 0.  1.
          1   -1    0    0  502    0  0.00000000000E+00 -0.00000000000E+00 -0.31244849174E+03  0.31244849174E+03  0.00000000000E+00 0. -1.
          6    1    1    2  502    0  0.46835563809E+02 -0.55625750516E+01 -0.11350413439E+03  0.21140411728E+03  0.17200000000E+03 0. -1.
         -6    1    1    2    0  501 -0.46835563809E+02  0.55625750516E+01 -0.96978187446E+02  0.20301054435E+03  0.17200000000E+03 0.  1.
</event>
<event>
 4    1  0.3141404E-002  0.2208274E+03  0.7818608E-02  0.1133268E+00
         -2   -1    0    0    0  501 -0.00000000000E+00  0.00000000000E+00  0.32597877522E+03  0.32597877522E+03  0.00000000000E+00 0.  1.
          2   -1    0    0  502    0  0.00000000000E+00 -0.00000000000E+00 -0.24859011808E+03  0.24859011808E+03  0.00000000000E+00 0. -1.
          6    1    1    2  502    0  0.52106596145E+02  0.12831859795E+03 -0.14259711539E+03  0.26286631062E+03  0.17200000000E+03 0. -1.
         -6    1    1    2    0  501 -0.52106596145E+02 -0.12831859795E+03  0.21998577253E+03  0.31170258269E+03  0.17200000000E+03 0.  1.
</event>
<event>
 4    1  0.3141404E-002  0.3242885E+03  0.7818608E-02  0.1073692E+00
          1   -1    0    0  502    0  0.00000000000E+00  0.00000000000E+00  0.18567764558E+04  0.18567764558E+04  0.00000000000E+00 0. -1.
         -1   -1    0    0    0  501 -0.00000000000E+00 -0.00000000000E+00 -0.56709817166E+02  0.56709817166E+02  0.00000000000E+00 0.  1.
          6    1    1    2  502    0 -0.66586298241E+02 -0.26673074111E+03  0.93421823016E+03  0.98890177719E+03  0.17200000000E+03 0. -1.
         -6    1    1    2    0  501  0.66586298241E+02  0.26673074111E+03  0.86584840843E+03  0.92458449573E+03  0.17200000000E+03 0.  1.
</event>
<event>
 4    1  0.3141404E-002  0.2561888E+03  0.7818608E-02  0.1109455E+00
          2   -1    0    0  502    0  0.00000000000E+00  0.00000000000E+00  0.15784253850E+04  0.15784253850E+04  0.00000000000E+00 0. -1.
         -2   -1    0    0    0  501 -0.00000000000E+00 -0.00000000000E+00 -0.71002212787E+02  0.71002212787E+02  0.00000000000E+00 0.  1.
          6    1    1    2  502    0  0.62932213205E+02 -0.17913196869E+03  0.12845918464E+04  0.13098889027E+04  0.17200000000E+03 0. -1.
         -6    1    1    2    0  501 -0.62932213205E+02  0.17913196869E+03  0.22283132577E+03  0.33953869501E+03  0.17200000000E+03 0.  1.
</event>
<event>
 4    1  0.3141404E-002  0.1839323E+03  0.7818608E-02  0.1164051E+00
          2   -1    0    0  502    0  0.00000000000E+00  0.00000000000E+00  0.11155197675E+03  0.11155197675E+03  0.00000000000E+00 0. -1.
         -2   -1    0    0    0  501 -0.00000000000E+00 -0.00000000000E+00 -0.35572043146E+03  0.35572043146E+03  0.00000000000E+00 0.  1.
          6    1    1    2  502    0 -0.46977930098E+02  0.45168376784E+02 -0.32375892292E+02  0.18676002404E+03  0.17200000000E+03 0. -1.
         -6    1    1    2    0  501  0.46977930098E+02 -0.45168376784E+02 -0.21179256241E+03  0.28051238417E+03  0.17200000000E+03 0.  1.
</event>
<event>
 4    1  0.3141404E-002  0.2354723E+03  0.7818608E-02  0.1122846E+00
         -2   -1    0    0    0  501 -0.00000000000E+00  0.00000000000E+00  0.66655003295E+02  0.66655003295E+02  0.00000000000E+00 0.  1.
          2   -1    0    0  502    0  0.00000000000E+00 -0.00000000000E+00 -0.10996717119E+04  0.10996717119E+04  0.00000000000E+00 0. -1.
          6    1    1    2  502    0  0.12550572919E+03  0.10055603032E+03 -0.80430033436E+03  0.83806099488E+03  0.17200000000E+03 0. -1.
         -6    1    1    2    0  501 -0.12550572919E+03 -0.10055603032E+03 -0.22871637430E+03  0.32826572036E+03  0.17200000000E+03 0.  1.
</event>
<event>
 4    1  0.3141404E-002  0.4656012E+03  0.7818608E-02  0.1023169E+00
         -1   -1    0    0    0  501 -0.00000000000E+00  0.00000000000E+00  0.78222173679E+02  0.78222173679E+02  0.00000000000E+00 0.  1.
          1   -1    0    0  502    0  0.00000000000E+00 -0.00000000000E+00 -0.29620577726E+04  0.29620577726E+04  0.00000000000E+00 0. -1.
          6    1    1    2  502    0 -0.29057087803E+03  0.32057616034E+03 -0.10562439217E+04  0.11543118001E+04  0.17200000000E+03 0. -1.
         -6    1    1    2    0  501  0.29057087803E+03 -0.32057616034E+03 -0.18275916772E+04  0.18859681461E+04  0.17200000000E+03 0.  1.
</event>
<event>
 4    1  0.3141404E-002  0.2006431E+03  0.7818608E-02  0.1149198E+00
          2   -1    0    0  502    0  0.00000000000E+00  0.00000000000E+00  0.17037945858E+03  0.17037945858E+03  0.00000000000E+00 0. -1.
         -2   -1    0    0    0  501 -0.00000000000E+00 -0.00000000000E+00 -0.11002897541E+04  0.11002897541E+04  0.00000000000E+00 0.  1.
          6    1    1    2  502    0 -0.10289487843E+03 -0.92904168018E+01  0.98043946524E+02  0.22331655402E+03  0.17200000000E+03 0. -1.
         -6    1    1    2    0  501  0.10289487843E+03  0.92904168018E+01 -0.10279542421E+04  0.10473526587E+04  0.17200000000E+03 0.  1.
</event>
<event>
 4    1  0.3141404E-002  0.2413662E+03  0.7818608E-02  0.1118886E+00
          1   -1    0    0  502    0  0.00000000000E+00  0.00000000000E+00  0.21120987715E+03  0.21120987715E+03  0.00000000000E+00 0. -1.
         -1   -1    0    0    0  501 -0.00000000000E+00 -0.00000000000E+00 -0.36688904279E+03  0.36688904279E+03  0.00000000000E+00 0.  1.
          6    1    1    2  502    0 -0.12267264824E+03 -0.11672635687E+03  0.66163185559E+02  0.25027023023E+03  0.17200000000E+03 0. -1.
         -6    1    1    2    0  501  0.12267264824E+03  0.11672635687E+03 -0.22184235119E+03  0.32782868971E+03  0.17200000000E+03 0.  1.
</event>
<event>
 4    1  0.3141404E-002  0.2442665E+03  0.7818608E-02  0.1116983E+00
          2   -1    0    0  502    0  0.00000000000E+00  0.00000000000E+00  0.70038197182E+03  0.70038197182E+03  0.00000000000E+00 0. -1.
         -2   -1    0    0    0  501 -0.00000000000E+00 -0.00000000000E+00 -0.85217643322E+02  0.85217643322E+02  0.00000000000E+00 0.  1.
          6    1    1    2  502    0  0.23461347630E+02 -0.17184782836E+03  0.30061262961E+03  0.38734230859E+03  0.17200000000E+03 0.  1.
         -6    1    1    2    0  501 -0.23461347630E+02  0.17184782836E+03  0.31455169889E+03  0.39825730655E+03  0.17200000000E+03 0.  1.
</event>
<event>
 4    1  0.3141404E-002  0.2457093E+03  0.7818608E-02  0.1116047E+00
          1   -1    0    0  502    0  0.00000000000E+00  0.00000000000E+00  0.20676868392E+04  0.20676868392E+04  0.00000000000E+00 0. -1.
         -1   -1    0    0    0  501 -0.00000000000E+00 -0.00000000000E+00 -0.14397761295E+03  0.14397761295E+03  0.00000000000E+00 0.  1.
          6    1    1    2  502    0  0.16083249665E+03  0.70156810965E+02  0.19492098851E+04  0.19646353978E+04  0.17200000000E+03 0. -1.
         -6    1    1    2    0  501 -0.16083249665E+03 -0.70156810965E+02 -0.25500658841E+02  0.24702905437E+03  0.17200000000E+03 0.  1.
</event>
<event>
 4    1  0.3141404E-002  0.1770125E+03  0.7818608E-02  0.1170726E+00
          1   -1    0    0  502    0  0.00000000000E+00  0.00000000000E+00  0.42079996325E+03  0.42079996325E+03  0.00000000000E+00 0. -1.
         -1   -1    0    0    0  501 -0.00000000000E+00 -0.00000000000E+00 -0.83835737881E+02  0.83835737881E+02  0.00000000000E+00 0.  1.
          6    1    1    2  502    0  0.41096440440E+02 -0.77785651279E+01  0.25285441069E+03  0.30865640524E+03  0.17200000000E+03 0.  1.
         -6    1    1    2    0  501 -0.41096440440E+02  0.77785651279E+01  0.84109814683E+02  0.19597929589E+03  0.17200000000E+03 0.  1.
</event>
<event>
 4    1  0.3141404E-002  0.7534701E+03  0.7818608E-02  0.9629922E-01
         -2   -1    0    0    0  501 -0.00000000000E+00  0.00000000000E+00  0.79032976599E+03  0.79032976599E+03  0.00000000000E+00 0.  1.
          2   -1    0    0  502    0  0.00000000000E+00 -0.00000000000E+00 -0.75133155728E+03  0.75133155728E+03  0.00000000000E+00 0. -1.
          6    1    1    2  502    0  0.13748429006E+03  0.72057703369E+03  0.18105158251E+03  0.77491732916E+03  0.17200000000E+03 0. -1.
         -6    1    1    2    0  501 -0.13748429006E+03 -0.72057703369E+03 -0.14205337380E+03  0.76674399411E+03  0.17200000000E+03 0.  1.
</event>
<event>
 4    1  0.3141404E-002  0.2091084E+03  0.7818608E-02  0.1142274E+00
          1   -1    0    0  502    0  0.00000000000E+00  0.00000000000E+00  0.23786931910E+03  0.23786931910E+03  0.00000000000E+00 0. -1.
         -1   -1    0    0    0  501 -0.00000000000E+00 -0.00000000000E+00 -0.35065402650E+03  0.35065402650E+03  0.00000000000E+00 0.  1.
          6    1    1    2  502    0  0.90600533688E+02 -0.77031504135E+02  0.14657687064E+03  0.25536461842E+03  0.17200000000E+03 0. -1.
         -6    1    1    2    0  501 -0.90600533688E+02  0.77031504135E+02 -0.25936157803E+03  0.33315872718E+03  0.17200000000E+03 0.  1.
</event>
<event>
 4    1  0.3141404E-002  0.2671312E+03  0.7818608E-02  0.1102933E+00
          2   -1    0    0  502    0  0.00000000000E+00  0.00000000000E+00  0.23308311039E+04  0.23308311039E+04  0.00000000000E+00 0. -1.
         -2   -1    0    0    0  501 -0.00000000000E+00 -0.00000000000E+00 -0.52027241711E+02  0.52027241711E+02  0.00000000000E+00 0.  1.
          6    1    1    2  502    0 -0.88039295237E+02  0.18445641174E+03  0.19037319041E+04  0.19223824406E+04  0.17200000000E+03 0. -1.
         -6    1    1    2    0  501  0.88039295237E+02 -0.18445641174E+03  0.37507195816E+03  0.46047590505E+03  0.17200000000E+03 0.  1.
</event>
<event>
 4    1  0.3141404E-002  0.3437122E+03  0.7818608E-02  0.1065226E+00
          1   -1    0    0  502    0  0.00000000000E+00  0.00000000000E+00  0.98000767566E+03  0.98000767566E+03  0.00000000000E+00 0. -1.
         -1   -1    0    0    0  501 -0.00000000000E+00 -0.00000000000E+00 -0.23287318411E+03  0.23287318411E+03  0.00000000000E+00 0.  1.
          6    1    1    2  502    0  0.95288003488E+01  0.29742781679E+03  0.79474623857E+03  0.86588664845E+03  0.17200000000E+03 0. -1.
         -6    1    1    2    0  501 -0.95288003488E+01 -0.29742781679E+03 -0.47611747016E+02  0.34699421132E+03  0.17200000000E+03 0.  1.
</event>
<event>
 4    1  0.3141404E-002  0.2040845E+03  0.7818608E-02  0.1146338E+00
          1   -1    0    0  502    0  0.00000000000E+00  0.00000000000E+00  0.15967426670E+03  0.15967426670E+03  0.00000000000E+00 0. -1.
         -1   -1    0    0    0  501 -0.00000000000E+00 -0.00000000000E+00 -0.29859245263E+03  0.29859245263E+03  0.00000000000E+00 0.  1.
          6    1    1    2  502    0  0.10872401740E+03  0.15671167779E+02  0.12008192551E+02  0.20443750671E+03  0.17200000000E+03 0. -1.
         -6    1    1    2    0  501 -0.10872401740E+03 -0.15671167779E+02 -0.15092637848E+03  0.25382921262E+03  0.17200000000E+03 0. -1.
</event>
<event>
 4    1  0.3141404E-002  0.1907175E+03  0.7818608E-02  0.1157816E+00
          2   -1    0    0  502    0  0.00000000000E+00  0.00000000000E+00  0.12442777677E+03  0.12442777677E+03  0.00000000000E+00 0. -1.
         -2   -1    0    0    0  501 -0.00000000000E+00 -0.00000000000E+00 -0.30893673210E+03  0.30893673210E+03  0.00000000000E+00 0.  1.
          6    1    1    2  502    0 -0.23556780190E+02 -0.78957123439E+02 -0.42006671536E+02  0.19528878536E+03  0.17200000000E+03 0. -1.
         -6    1    1    2    0  501  0.23556780190E+02  0.78957123439E+02 -0.14250228379E+03  0.23807572350E+03  0.17200000000E+03 0. -1.
</event>
<event>
 4    1  0.3141404E-002  0.4667017E+03  0.7818608E-02  0.1022855E+00
          1   -1    0    0  502    0  0.00000000000E+00  0.00000000000E+00  0.24552925865E+04  0.24552925865E+04  0.00000000000E+00 0. -1.
         -1   -1    0    0    0  501 -0.00000000000E+00 -0.00000000000E+00 -0.19012130579E+03  0.19012130579E+03  0.00000000000E+00 0.  1.
          6    1    1    2  502    0  0.34887050166E+03 -0.25790671867E+03  0.20986145463E+04  0.21498822099E+04  0.17200000000E+03 0. -1.
         -6    1    1    2    0  501 -0.34887050166E+03  0.25790671867E+03  0.16655673439E+03  0.49553168237E+03  0.17200000000E+03 0.  1.
</event>
<event>
 4    1  0.3141404E-002  0.2606485E+03  0.7818608E-02  0.1106754E+00
          1   -1    0    0  502    0  0.00000000000E+00  0.00000000000E+00  0.39434151826E+03  0.39434151826E+03  0.00000000000E+00 0. -1.
         -1   -1    0    0    0  501 -0.00000000000E+00 -0.00000000000E+00 -0.18542759672E+03  0.18542759672E+03  0.00000000000E+00 0.  1.
          6    1    1    2  502    0 -0.65137018855E+02  0.18469106546E+03  0.27270408322E+02  0.26207116602E+03  0.17200000000E+03 0.  1.
         -6    1    1    2    0  501  0.65137018855E+02 -0.18469106546E+03  0.18164351322E+03  0.31769794897E+03  0.17200000000E+03 0.  1.
</event>
<event>
 4    1  0.3141404E-002  0.2754675E+03  0.7818608E-02  0.1098191E+00
         -2   -1    0    0    0  501 -0.00000000000E+00  0.00000000000E+00  0.30345630137E+02  0.30345630137E+02  0.00000000000E+00 0.  1.
          2   -1    0    0  502    0  0.00000000000E+00 -0.00000000000E+00 -0.28604653069E+04  0.28604653069E+04  0.00000000000E+00 0. -1.
          6    1    1    2  502    0  0.12962172660E+03  0.17174558490E+03 -0.90238707765E+03  0.94349603912E+03  0.17200000000E+03 0. -1.
         -6    1    1    2    0  501 -0.12962172660E+03 -0.17174558490E+03 -0.19277325991E+04  0.19473148979E+04  0.17200000000E+03 0.  1.
</event>
<event>
 4    1  0.3141404E-002  0.2554168E+03  0.7818608E-02  0.1109929E+00
          2   -1    0    0  502    0  0.00000000000E+00  0.00000000000E+00  0.25316538338E+04  0.25316538338E+04  0.00000000000E+00 0. -1.
         -2   -1    0    0    0  501 -0.00000000000E+00 -0.00000000000E+00 -0.74505855131E+02  0.74505855131E+02  0.00000000000E+00 0.  1.
          6    1    1    2  502    0  0.80315365120E+02  0.17088943083E+03  0.22824883859E+04  0.22967348535E+04  0.17200000000E+03 0. -1.
         -6    1    1    2    0  501 -0.80315365120E+02 -0.17088943083E+03  0.17465959277E+03  0.30942483545E+03  0.17200000000E+03 0.  1.
</event>
<event>
 4    1  0.3141404E-002  0.2073823E+03  0.7818608E-02  0.1143656E+00
         -2   -1    0    0    0  501 -0.00000000000E+00  0.00000000000E+00  0.29319754243E+02  0.29319754243E+02  0.00000000000E+00 0.  1.
          2   -1    0    0  502    0  0.00000000000E+00 -0.00000000000E+00 -0.15976699010E+04  0.15976699010E+04  0.00000000000E+00 0. -1.
          6    1    1    2  502    0  0.11024462409E+03  0.35630603002E+02 -0.10169644467E+04  0.10378940711E+04  0.17200000000E+03 0.  1.
         -6    1    1    2    0  501 -0.11024462409E+03 -0.35630603002E+02 -0.55138570008E+03  0.58909558415E+03  0.17200000000E+03 0.  1.
</event>
<event>
 4    1  0.3141404E-002  0.3216673E+03  0.7818608E-02  0.1074885E+00
         -2   -1    0    0    0  501 -0.00000000000E+00  0.00000000000E+00  0.95523256479E+02  0.95523256479E+02  0.00000000000E+00 0.  1.
          2   -1    0    0  502    0  0.00000000000E+00 -0.00000000000E+00 -0.12141563826E+04  0.12141563826E+04  0.00000000000E+00 0. -1.
          6    1    1    2  502    0  0.26970426075E+03 -0.33844241145E+02 -0.77438562821E+03  0.83853617818E+03  0.17200000000E+03 0. -1.
         -6    1    1    2    0  501 -0.26970426075E+03  0.33844241145E+02 -0.34424749787E+03  0.47114346086E+03  0.17200000000E+03 0.  1.
</event>
<event>
 4    1  0.3141404E-002  0.1741695E+03  0.7818608E-02  0.1173568E+00
         -2   -1    0    0    0  501 -0.00000000000E+00  0.00000000000E+00  0.43960646226E+02  0.43960646226E+02  0.00000000000E+00 0.  1.
          2   -1    0    0  502    0  0.00000000000E+00 -0.00000000000E+00 -0.27126420483E+04  0.27126420483E+04  0.00000000000E+00 0. -1.
          6    1    1    2  502    0  0.17689084607E+02 -0.20930998463E+02 -0.25244919743E+04  0.25304929834E+04  0.17200000000E+03 0. -1.
         -6    1    1    2    0  501 -0.17689084607E+02  0.20930998463E+02 -0.14418942776E+03  0.22610971118E+03  0.17200000000E+03 0.  1.
</event>
<event>
 4    1  0.3141404E-002  0.1755405E+03  0.7818608E-02  0.1172190E+00
         -1   -1    0    0    0  501 -0.00000000000E+00  0.00000000000E+00  0.47473833558E+02  0.47473833558E+02  0.00000000000E+00 0.  1.
          1   -1    0    0  502    0  0.00000000000E+00 -0.00000000000E+00 -0.11664199227E+04  0.11664199227E+04  0.00000000000E+00 0. -1.
          6    1    1    2  502    0  0.93479148565E+00 -0.35065442346E+02 -0.96368573883E+03  0.97954308854E+03  0.17200000000E+03 0. -1.
         -6    1    1    2    0  501 -0.93479148565E+00  0.35065442346E+02 -0.15526035032E+03  0.23435066772E+03  0.17200000000E+03 0.  1.
</event>
<event>
 4    1  0.3141404E-002  0.1979108E+03  0.7818608E-02  0.1151514E+00
         -2   -1    0    0    0  501 -0.00000000000E+00  0.00000000000E+00  0.77021284045E+03  0.77021284045E+03  0.00000000000E+00 0.  1.
          2   -1    0    0  502    0  0.00000000000E+00 -0.00000000000E+00 -0.52490557965E+02  0.52490557965E+02  0.00000000000E+00 0. -1.
          6    1    1    2  502    0  0.55058205429E+02  0.80952409445E+02  0.43148638567E+03  0.47470959501E+03  0.17200000000E+03 0. -1.
         -6    1    1    2    0  501 -0.55058205429E+02 -0.80952409445E+02  0.28623589681E+03  0.34799380340E+03  0.17200000000E+03 0.  1.
</event>
<event>
 4    1  0.3141404E-002  0.2824883E+03  0.7818608E-02  0.1094338E+00
          2   -1    0    0  502    0  0.00000000000E+00  0.00000000000E+00  0.12635406899E+04  0.12635406899E+04  0.00000000000E+00 0. -1.
         -2   -1    0    0    0  501 -0.00000000000E+00 -0.00000000000E+00 -0.11860716492E+03  0.11860716492E+03  0.00000000000E+00 0.  1.
          6    1    1    2  502    0  0.16957763453E+03  0.14648922628E+03  0.10449930326E+04  0.10825017810E+04  0.17200000000E+03 0. -1.
         -6    1    1    2    0  501 -0.16957763453E+03 -0.14648922628E+03  0.99940492311E+02  0.29964607381E+03  0.17200000000E+03 0.  1.
</event>
<event>
 4    1  0.3141404E-002  0.3550537E+03  0.7818608E-02  0.1060560E+00
         -1   -1    0    0    0  501 -0.00000000000E+00  0.00000000000E+00  0.42764671558E+02  0.42764671558E+02  0.00000000000E+00 0.  1.
          1   -1    0    0  502    0  0.00000000000E+00 -0.00000000000E+00 -0.30661524283E+04  0.30661524283E+04  0.00000000000E+00 0. -1.
          6    1    1    2  502    0  0.12336064584E+03  0.28506359363E+03 -0.18170528468E+04  0.18514167952E+04  0.17200000000E+03 0. -1.
         -6    1    1    2    0  501 -0.12336064584E+03 -0.28506359363E+03 -0.12063349099E+04  0.12575003046E+04  0.17200000000E+03 0.  1.
</event>
<event>
 4    1  0.3141404E-002  0.2661369E+03  0.7818608E-02  0.1103511E+00
         -2   -1    0    0    0  501 -0.00000000000E+00  0.00000000000E+00  0.95762657845E+02  0.95762657845E+02  0.00000000000E+00 0.  1.
          2   -1    0    0  502    0  0.00000000000E+00 -0.00000000000E+00 -0.87193803921E+03  0.87193803921E+03  0.00000000000E+00 0. -1.
          6    1    1    2  502    0  0.15232726210E+03  0.13431768702E+03 -0.57656672837E+03  0.63502600584E+03  0.17200000000E+03 0. -1.
         -6    1    1    2    0  501 -0.15232726210E+03 -0.13431768702E+03 -0.19960865299E+03  0.33267469122E+03  0.17200000000E+03 0.  1.
</event>
<event>
 4    1  0.3141404E-002  0.2752858E+03  0.7818608E-02  0.1098292E+00
          3   -1    0    0  502    0  0.00000000000E+00  0.00000000000E+00  0.33851043556E+03  0.33851043556E+03  0.00000000000E+00 0. -1.
         -3   -1    0    0    0  501 -0.00000000000E+00 -0.00000000000E+00 -0.50988587257E+03  0.50988587257E+03  0.00000000000E+00 0.  1.
          6    1    1    2  502    0  0.37488414115E+02 -0.21164324973E+03  0.23201983671E+03  0.36002145905E+03  0.17200000000E+03 0. -1.
         -6    1    1    2    0  501 -0.37488414115E+02  0.21164324973E+03 -0.40339527372E+03  0.48837484908E+03  0.17200000000E+03 0.  1.
</event>
<event>
 4    1  0.3141404E-002  0.1977238E+03  0.7818608E-02  0.1151674E+00
          2   -1    0    0  502    0  0.00000000000E+00  0.00000000000E+00  0.34408865598E+03  0.34408865598E+03  0.00000000000E+00 0. -1.
         -2   -1    0    0    0  501 -0.00000000000E+00 -0.00000000000E+00 -0.13286715549E+03  0.13286715549E+03  0.00000000000E+00 0.  1.
          6    1    1    2  502    0 -0.63034225133E+02  0.74413602435E+02  0.14840382743E+02  0.19827994030E+03  0.17200000000E+03 0.  1.
         -6    1    1    2    0  501  0.63034225133E+02 -0.74413602435E+02  0.19638111774E+03  0.27867587117E+03  0.17200000000E+03 0.  1.
</event>
<event>
 4    1  0.3141404E-002  0.3622172E+03  0.7818608E-02  0.1057709E+00
         -1   -1    0    0    0  501 -0.00000000000E+00  0.00000000000E+00  0.81009868400E+03  0.81009868400E+03  0.00000000000E+00 0.  1.
          1   -1    0    0  502    0  0.00000000000E+00 -0.00000000000E+00 -0.16690816156E+03  0.16690816156E+03  0.00000000000E+00 0. -1.
          6    1    1    2  502    0 -0.76702345041E+02 -0.30940920066E+03  0.23746074173E+03  0.43311535074E+03  0.17200000000E+03 0. -1.
         -6    1    1    2    0  501  0.76702345041E+02  0.30940920066E+03  0.40572978071E+03  0.54389149482E+03  0.17200000000E+03 0.  1.
</event>
<event>
 4    1  0.3141404E-002  0.5502816E+03  0.7818608E-02  0.1001429E+00
         -4   -1    0    0    0  501 -0.00000000000E+00  0.00000000000E+00  0.36445978839E+03  0.36445978839E+03  0.00000000000E+00 0.  1.
          4   -1    0    0  502    0  0.00000000000E+00 -0.00000000000E+00 -0.85644179675E+03  0.85644179675E+03  0.00000000000E+00 0. -1.
          6    1    1    2  502    0 -0.46704656946E+03  0.23471962123E+03 -0.35152436181E+03  0.65297716314E+03  0.17200000000E+03 0. -1.
         -6    1    1    2    0  501  0.46704656946E+03 -0.23471962123E+03 -0.14045764655E+03  0.56792442200E+03  0.17200000000E+03 0.  1.
</event>
<event>
 4    1  0.3141404E-002  0.1721144E+03  0.7818608E-02  0.1175661E+00
          1   -1    0    0  502    0  0.00000000000E+00  0.00000000000E+00  0.19107080223E+04  0.19107080223E+04  0.00000000000E+00 0. -1.
         -1   -1    0    0    0  501 -0.00000000000E+00 -0.00000000000E+00 -0.31040498731E+02  0.31040498731E+02  0.00000000000E+00 0.  1.
          6    1    1    2  502    0  0.57237730032E+01  0.25705095353E+01  0.16267076926E+04  0.16357876654E+04  0.17200000000E+03 0. -1.
         -6    1    1    2    0  501 -0.57237730032E+01 -0.25705095353E+01  0.25295983096E+03  0.30596085562E+03  0.17200000000E+03 0.  1.
</event>
<event>
 4    1  0.3141404E-002  0.2859128E+03  0.7818608E-02  0.1092503E+00
         -1   -1    0    0    0  501 -0.00000000000E+00  0.00000000000E+00  0.75582181269E+03  0.75582181269E+03  0.00000000000E+00 0.  1.
          1   -1    0    0  502    0  0.00000000000E+00 -0.00000000000E+00 -0.39613226846E+03  0.39613226846E+03  0.00000000000E+00 0. -1.
          6    1    1    2  502    0  0.72397925355E+02  0.21661182353E+03 -0.31124844139E+03  0.42263664531E+03  0.17200000000E+03 0. -1.
         -6    1    1    2    0  501 -0.72397925355E+02 -0.21661182353E+03  0.67093798561E+03  0.72931743585E+03  0.17200000000E+03 0.  1.
</event>
<event>
 4    1  0.3141404E-002  0.1861001E+03  0.7818608E-02  0.1162027E+00
          2   -1    0    0  502    0  0.00000000000E+00  0.00000000000E+00  0.67120700873E+02  0.67120700873E+02  0.00000000000E+00 0. -1.
         -2   -1    0    0    0  501 -0.00000000000E+00 -0.00000000000E+00 -0.51606386680E+03  0.51606386680E+03  0.00000000000E+00 0.  1.
          6    1    1    2  502    0  0.66098164080E+00 -0.71055100834E+02 -0.22086326045E+03  0.28881454961E+03  0.17200000000E+03 0. -1.
         -6    1    1    2    0  501 -0.66098164080E+00  0.71055100834E+02 -0.22807990548E+03  0.29437001807E+03  0.17200000000E+03 0. -1.
</event>
<event>
 4    1  0.3141404E-002  0.2097029E+03  0.7818608E-02  0.1141801E+00
         -2   -1    0    0    0  501 -0.00000000000E+00  0.00000000000E+00  0.89784235452E+02  0.89784235452E+02  0.00000000000E+00 0.  1.
          2   -1    0    0  502    0  0.00000000000E+00 -0.00000000000E+00 -0.70712400203E+03  0.70712400203E+03  0.00000000000E+00 0. -1.
          6    1    1    2  502    0  0.42028599159E+02 -0.11236055879E+03 -0.52956989114E+03  0.56957841244E+03  0.17200000000E+03 0. -1.
         -6    1    1    2    0  501 -0.42028599159E+02  0.11236055879E+03 -0.87769875443E+02  0.22732982504E+03  0.17200000000E+03 0.  1.
</event>
<event>
 4    1  0.3141404E-002  0.1823239E+03  0.7818608E-02  0.1165573E+00
         -2   -1    0    0    0  501 -0.00000000000E+00  0.00000000000E+00  0.47036731663E+02  0.47036731663E+02  0.00000000000E+00 0.  1.
          2   -1    0    0  502    0  0.00000000000E+00 -0.00000000000E+00 -0.73604505477E+03  0.73604505477E+03  0.00000000000E+00 0. -1.
          6    1    1    2  502    0  0.32318858390E+02  0.51122475210E+02 -0.26635754724E+03  0.32278221613E+03  0.17200000000E+03 0.  1.
         -6    1    1    2    0  501 -0.32318858390E+02 -0.51122475210E+02 -0.42265077587E+03  0.46029957030E+03  0.17200000000E+03 0.  1.
</event>
<event>
 4    1  0.3141404E-002  0.1881109E+03  0.7818608E-02  0.1160176E+00
         -1   -1    0    0    0  501 -0.00000000000E+00  0.00000000000E+00  0.51401403045E+02  0.51401403045E+02  0.00000000000E+00 0.  1.
          1   -1    0    0  502    0  0.00000000000E+00 -0.00000000000E+00 -0.72067135463E+03  0.72067135463E+03  0.00000000000E+00 0. -1.
          6    1    1    2  502    0  0.22762346171E+02 -0.72688187767E+02 -0.41630092772E+03  0.45682836981E+03  0.17200000000E+03 0. -1.
         -6    1    1    2    0  501 -0.22762346171E+02  0.72688187767E+02 -0.25296902386E+03  0.31524438786E+03  0.17200000000E+03 0.  1.
</event>
<event>
 4    1  0.3141404E-002  0.2209836E+03  0.7818608E-02  0.1133152E+00
          1   -1    0    0  502    0  0.00000000000E+00  0.00000000000E+00  0.19528783944E+04  0.19528783944E+04  0.00000000000E+00 0. -1.
         -1   -1    0    0    0  501 -0.00000000000E+00 -0.00000000000E+00 -0.25315422196E+02  0.25315422196E+02  0.00000000000E+00 0.  1.
          6    1    1    2  502    0  0.33508789026E+02 -0.13463616368E+03  0.85443596257E+03  0.88255002671E+03  0.17200000000E+03 0. -1.
         -6    1    1    2    0  501 -0.33508789026E+02  0.13463616368E+03  0.10731270096E+04  0.10956437899E+04  0.17200000000E+03 0.  1.
</event>
<event>
 4    1  0.3141404E-002  0.4247409E+03  0.7818608E-02  0.1035534E+00
          2   -1    0    0  502    0  0.00000000000E+00  0.00000000000E+00  0.95249511494E+03  0.95249511494E+03  0.00000000000E+00 0. -1.
         -2   -1    0    0    0  501 -0.00000000000E+00 -0.00000000000E+00 -0.19728048350E+03  0.19728048350E+03  0.00000000000E+00 0.  1.
          6    1    1    2  502    0  0.37375871526E+03  0.10547625938E+03  0.49248946234E+03  0.65034659147E+03  0.17200000000E+03 0. -1.
         -6    1    1    2    0  501 -0.37375871526E+03 -0.10547625938E+03  0.26272516910E+03  0.49942900697E+03  0.17200000000E+03 0.  1.
</event>
<event>
 4    1  0.3141404E-002  0.2214195E+03  0.7818608E-02  0.1132829E+00
          2   -1    0    0  502    0  0.00000000000E+00  0.00000000000E+00  0.18490407008E+04  0.18490407008E+04  0.00000000000E+00 0. -1.
         -2   -1    0    0    0  501 -0.00000000000E+00 -0.00000000000E+00 -0.33793759321E+02  0.33793759321E+02  0.00000000000E+00 0.  1.
          6    1    1    2  502    0  0.12788728511E+03 -0.55564588298E+02  0.13445459560E+04  0.13626556457E+04  0.17200000000E+03 0. -1.
         -6    1    1    2    0  501 -0.12788728511E+03  0.55564588298E+02  0.47070098548E+03  0.52017881435E+03  0.17200000000E+03 0.  1.
</event>
<event>
 4    1  0.3141404E-002  0.2223512E+03  0.7818608E-02  0.1132142E+00
         -2   -1    0    0    0  501 -0.00000000000E+00  0.00000000000E+00  0.25021384497E+02  0.25021384497E+02  0.00000000000E+00 0.  1.
          2   -1    0    0  502    0  0.00000000000E+00 -0.00000000000E+00 -0.21230962351E+04  0.21230962351E+04  0.00000000000E+00 0. -1.
          6    1    1    2  502    0 -0.14089511077E+03  0.21532335351E+01 -0.76624159718E+03  0.79785102237E+03  0.17200000000E+03 0. -1.
         -6    1    1    2    0  501  0.14089511077E+03 -0.21532335351E+01 -0.13318332534E+04  0.13502665972E+04  0.17200000000E+03 0.  1.
</event>
<event>
 4    1  0.3141404E-002  0.3508738E+03  0.7818608E-02  0.1062257E+00
          2   -1    0    0  502    0  0.00000000000E+00  0.00000000000E+00  0.10973544182E+04  0.10973544182E+04  0.00000000000E+00 0. -1.
         -2   -1    0    0    0  501 -0.00000000000E+00 -0.00000000000E+00 -0.11537427928E+03  0.11537427928E+03  0.00000000000E+00 0.  1.
          6    1    1    2  502    0  0.19804228743E+03 -0.23304004882E+03  0.59172290883E+03  0.68793052905E+03  0.17200000000E+03 0. -1.
         -6    1    1    2    0  501 -0.19804228743E+03  0.23304004882E+03  0.39025723014E+03  0.52479816848E+03  0.17200000000E+03 0.  1.
</event>
<event>
 4    1  0.3141404E-002  0.4244199E+03  0.7818608E-02  0.1035637E+00
         -1   -1    0    0    0  501 -0.00000000000E+00  0.00000000000E+00  0.24825409555E+03  0.24825409555E+03  0.00000000000E+00 0.  1.
          1   -1    0    0  502    0  0.00000000000E+00 -0.00000000000E+00 -0.74293962270E+03  0.74293962270E+03  0.00000000000E+00 0. -1.
          6    1    1    2  502    0 -0.18578067100E+03 -0.34063728506E+03 -0.32306435413E+03  0.53338803380E+03  0.17200000000E+03 0. -1.
         -6    1    1    2    0  501  0.18578067100E+03  0.34063728506E+03 -0.17162117301E+03  0.45780568445E+03  0.17200000000E+03 0.  1.
</event>
<event>
 4    1  0.3141404E-002  0.3031446E+03  0.7818608E-02  0.1083679E+00
          1   -1    0    0  502    0  0.00000000000E+00  0.00000000000E+00  0.17534191828E+04  0.17534191828E+04  0.00000000000E+00 0. -1.
         -1   -1    0    0    0  501 -0.00000000000E+00 -0.00000000000E+00 -0.12481494941E+03  0.12481494941E+03  0.00000000000E+00 0.  1.
          6    1    1    2  502    0 -0.90755480522E+02  0.23254267761E+03  0.15295731456E+04  0.15593237835E+04  0.17200000000E+03 0. -1.
         -6    1    1    2    0  501  0.90755480522E+02 -0.23254267761E+03  0.99031087805E+02  0.31891034870E+03  0.17200000000E+03 0.  1.
</event>
<event>
 4    1  0.3141404E-002  0.1803404E+03  0.7818608E-02  0.1167474E+00
          2   -1    0    0  502    0  0.00000000000E+00  0.00000000000E+00  0.44580791672E+02  0.44580791672E+02  0.00000000000E+00 0. -1.
         -2   -1    0    0    0  501 -0.00000000000E+00 -0.00000000000E+00 -0.10767054691E+04  0.10767054691E+04  0.00000000000E+00 0.  1.
          6    1    1    2  502    0 -0.52090585213E+02  0.15007618725E+02 -0.83442176518E+03  0.85368749545E+03  0.17200000000E+03 0.  1.
         -6    1    1    2    0  501  0.52090585213E+02 -0.15007618725E+02 -0.19770291224E+03  0.26759876531E+03  0.17200000000E+03 0. -1.
</event>
<event>
 4    1  0.3141404E-002  0.9985814E+03  0.7818608E-02  0.9310102E-01
         -2   -1    0    0    0  501 -0.00000000000E+00  0.00000000000E+00  0.53892949850E+03  0.53892949850E+03  0.00000000000E+00 0.  1.
          2   -1    0    0  502    0  0.00000000000E+00 -0.00000000000E+00 -0.24113145990E+04  0.24113145990E+04  0.00000000000E+00 0. -1.
          6    1    1    2  502    0  0.91572274827E+03  0.35921128694E+03 -0.16477334047E+04  0.19267045112E+04  0.17200000000E+03 0. -1.
         -6    1    1    2    0  501 -0.91572274827E+03 -0.35921128694E+03 -0.22465169579E+03  0.10235395863E+04  0.17200000000E+03 0.  1.
</event>
<event>
 4    1  0.3141404E-002  0.2557045E+03  0.7818608E-02  0.1109752E+00
          2   -1    0    0  502    0  0.00000000000E+00  0.00000000000E+00  0.47575728456E+03  0.47575728456E+03  0.00000000000E+00 0. -1.
         -2   -1    0    0    0  501 -0.00000000000E+00 -0.00000000000E+00 -0.14844362829E+03  0.14844362829E+03  0.00000000000E+00 0.  1.
          6    1    1    2  502    0 -0.18761087706E+03  0.24554676077E+02  0.78656863587E+02  0.26752883115E+03  0.17200000000E+03 0. -1.
         -6    1    1    2    0  501  0.18761087706E+03 -0.24554676077E+02  0.24865679269E+03  0.35667208169E+03  0.17200000000E+03 0. -1.
</event>
<event>
 4    1  0.3141404E-002  0.3371205E+03  0.7818608E-02  0.1068029E+00
          2   -1    0    0  502    0  0.00000000000E+00  0.00000000000E+00  0.80256508563E+03  0.80256508563E+03  0.00000000000E+00 0. -1.
         -2   -1    0    0    0  501 -0.00000000000E+00 -0.00000000000E+00 -0.14185878221E+03  0.14185878221E+03  0.00000000000E+00 0.  1.
          6    1    1    2  502    0  0.20439968281E+03 -0.20563805902E+03  0.31052859486E+03  0.45834293916E+03  0.17200000000E+03 0. -1.
         -6    1    1    2    0  501 -0.20439968281E+03  0.20563805902E+03  0.35017770857E+03  0.48608092868E+03  0.17200000000E+03 0.  1.
</event>
<event>
 4    1  0.3141404E-002  0.4108554E+03  0.7818608E-02  0.1040084E+00
          2   -1    0    0  502    0  0.00000000000E+00  0.00000000000E+00  0.12244866955E+04  0.12244866955E+04  0.00000000000E+00 0. -1.
         -2   -1    0    0    0  501 -0.00000000000E+00 -0.00000000000E+00 -0.15795706229E+03  0.15795706229E+03  0.00000000000E+00 0.  1.
          6    1    1    2  502    0 -0.32986722560E+03  0.17437241195E+03  0.28668146578E+03  0.50098741241E+03  0.17200000000E+03 0. -1.
         -6    1    1    2    0  501  0.32986722560E+03 -0.17437241195E+03  0.77984816743E+03  0.88145634539E+03  0.17200000000E+03 0.  1.
</event>
<event>
 4    1  0.3141404E-002  0.2533994E+03  0.7818608E-02  0.1111175E+00
         -2   -1    0    0    0  501 -0.00000000000E+00  0.00000000000E+00  0.52491138584E+03  0.52491138584E+03  0.00000000000E+00 0.  1.
          2   -1    0    0  502    0  0.00000000000E+00 -0.00000000000E+00 -0.39459020337E+03  0.39459020337E+03  0.00000000000E+00 0. -1.
          6    1    1    2  502    0  0.14543303912E+03  0.11608830654E+03  0.44705487937E+03  0.51387676436E+03  0.17200000000E+03 0.  1.
         -6    1    1    2    0  501 -0.14543303912E+03 -0.11608830654E+03 -0.31673369690E+03  0.40562482485E+03  0.17200000000E+03 0. -1.
</event>
<event>
 4    1  0.3141404E-002  0.2602602E+03  0.7818608E-02  0.1106987E+00
          2   -1    0    0  502    0  0.00000000000E+00  0.00000000000E+00  0.21655920011E+04  0.21655920011E+04  0.00000000000E+00 0. -1.
         -2   -1    0    0    0  501 -0.00000000000E+00 -0.00000000000E+00 -0.72992782728E+02  0.72992782728E+02  0.00000000000E+00 0.  1.
          6    1    1    2  502    0  0.10112157409E+03 -0.16711006596E+03  0.18924521831E+04  0.19102645398E+04  0.17200000000E+03 0. -1.
         -6    1    1    2    0  501 -0.10112157409E+03  0.16711006596E+03  0.20014703533E+03  0.32832024404E+03  0.17200000000E+03 0.  1.
</event>
<event>
 4    1  0.3141404E-002  0.1802476E+03  0.7818608E-02  0.1167564E+00
          2   -1    0    0  502    0  0.00000000000E+00  0.00000000000E+00  0.99025844092E+02  0.99025844092E+02  0.00000000000E+00 0. -1.
         -2   -1    0    0    0  501 -0.00000000000E+00 -0.00000000000E+00 -0.38405941421E+03  0.38405941421E+03  0.00000000000E+00 0.  1.
          6    1    1    2  502    0 -0.49046211693E+02  0.22353387607E+02 -0.50306962630E+02  0.18713630142E+03  0.17200000000E+03 0. -1.
         -6    1    1    2    0  501  0.49046211693E+02 -0.22353387607E+02 -0.23472660748E+03  0.29594895688E+03  0.17200000000E+03 0.  1.
</event>
<event>
 4    1  0.3141404E-002  0.2357745E+03  0.7818608E-02  0.1122640E+00
          1   -1    0    0  502    0  0.00000000000E+00  0.00000000000E+00  0.14786526839E+03  0.14786526839E+03  0.00000000000E+00 0. -1.
         -1   -1    0    0    0  501 -0.00000000000E+00 -0.00000000000E+00 -0.51199461276E+03  0.51199461276E+03  0.00000000000E+00 0.  1.
          6    1    1    2  502    0 -0.10007266323E+03  0.12645583883E+03 -0.11992493295E+02  0.23607930234E+03  0.17200000000E+03 0. -1.
         -6    1    1    2    0  501  0.10007266323E+03 -0.12645583883E+03 -0.35213685107E+03  0.42378057882E+03  0.17200000000E+03 0.  1.
</event>
<event>
 4    1  0.3141404E-002  0.3548314E+03  0.7818608E-02  0.1060649E+00
         -2   -1    0    0    0  501 -0.00000000000E+00  0.00000000000E+00  0.29720210588E+03  0.29720210588E+03  0.00000000000E+00 0.  1.
          2   -1    0    0  502    0  0.00000000000E+00 -0.00000000000E+00 -0.58403961099E+03  0.58403961099E+03  0.00000000000E+00 0. -1.
          6    1    1    2  502    0  0.30973043372E+03 -0.19707750416E+02 -0.37433355053E+03  0.51578187643E+03  0.17200000000E+03 0. -1.
         -6    1    1    2    0  501 -0.30973043372E+03  0.19707750416E+02  0.87496045423E+02  0.36545984043E+03  0.17200000000E+03 0.  1.
</event>
<event>
 4    1  0.3141404E-002  0.1866571E+03  0.7818608E-02  0.1161511E+00
          2   -1    0    0  502    0  0.00000000000E+00  0.00000000000E+00  0.71328121477E+03  0.71328121477E+03  0.00000000000E+00 0. -1.
         -2   -1    0    0    0  501 -0.00000000000E+00 -0.00000000000E+00 -0.49575026062E+02  0.49575026062E+02  0.00000000000E+00 0.  1.
          6    1    1    2  502    0  0.31528665786E+01  0.72435802940E+02  0.28559658624E+03  0.34118366928E+03  0.17200000000E+03 0.  1.
         -6    1    1    2    0  501 -0.31528665786E+01 -0.72435802940E+02  0.37810960247E+03  0.42167257155E+03  0.17200000000E+03 0.  1.
</event>
<event>
 4    1  0.3141404E-002  0.2378375E+03  0.7818608E-02  0.1121242E+00
          2   -1    0    0  502    0  0.00000000000E+00  0.00000000000E+00  0.20495190207E+04  0.20495190207E+04  0.00000000000E+00 0. -1.
         -2   -1    0    0    0  501 -0.00000000000E+00 -0.00000000000E+00 -0.80293981167E+02  0.80293981167E+02  0.00000000000E+00 0.  1.
          6    1    1    2  502    0  0.15019849731E+03  0.66506335852E+02  0.18472942012E+04  0.18625419585E+04  0.17200000000E+03 0. -1.
         -6    1    1    2    0  501 -0.15019849731E+03 -0.66506335852E+02  0.12193083835E+03  0.26727104341E+03  0.17200000000E+03 0.  1.
</event>
<event>
 4    1  0.3141404E-002  0.1825836E+03  0.7818608E-02  0.1165326E+00
         -1   -1    0    0    0  501 -0.00000000000E+00  0.00000000000E+00  0.43098604269E+02  0.43098604269E+02  0.00000000000E+00 0.  1.
          1   -1    0    0  502    0  0.00000000000E+00 -0.00000000000E+00 -0.83758373669E+03  0.83758373669E+03  0.00000000000E+00 0. -1.
          6    1    1    2  502    0 -0.32671289645E+02  0.51820608470E+02 -0.51904266907E+03  0.55022002958E+03  0.17200000000E+03 0. -1.
         -6    1    1    2    0  501  0.32671289645E+02 -0.51820608470E+02 -0.27544246335E+03  0.33046231138E+03  0.17200000000E+03 0.  1.
</event>
<event>
 4    1  0.3141404E-002  0.1784967E+03  0.7818608E-02  0.1169266E+00
         -2   -1    0    0    0  501 -0.00000000000E+00  0.00000000000E+00  0.56584000440E+02  0.56584000440E+02  0.00000000000E+00 0.  1.
          2   -1    0    0  502    0  0.00000000000E+00 -0.00000000000E+00 -0.59281421841E+03  0.59281421841E+03  0.00000000000E+00 0. -1.
          6    1    1    2  502    0  0.20971725981E+02 -0.42863218152E+02 -0.34083987716E+03  0.38475042641E+03  0.17200000000E+03 0. -1.
         -6    1    1    2    0  501 -0.20971725981E+02  0.42863218152E+02 -0.19539034081E+03  0.26464779244E+03  0.17200000000E+03 0.  1.
</event>
<event>
 4    1  0.3141404E-002  0.1879845E+03  0.7818608E-02  0.1160292E+00
          2   -1    0    0  502    0  0.00000000000E+00  0.00000000000E+00  0.18560699474E+04  0.18560699474E+04  0.00000000000E+00 0. -1.
         -2   -1    0    0    0  501 -0.00000000000E+00 -0.00000000000E+00 -0.19054551446E+02  0.19054551446E+02  0.00000000000E+00 0.  1.
          6    1    1    2  502    0  0.50778128535E+02 -0.56353694835E+02  0.89192868571E+03  0.91152341585E+03  0.17200000000E+03 0.  1.
         -6    1    1    2    0  501 -0.50778128535E+02  0.56353694835E+02  0.94508671020E+03  0.96360108294E+03  0.17200000000E+03 0.  1.
</event>
<event>
 4    1  0.3141404E-002  0.1900694E+03  0.7818608E-02  0.1158399E+00
         -2   -1    0    0    0  501 -0.00000000000E+00  0.00000000000E+00  0.34003220394E+02  0.34003220394E+02  0.00000000000E+00 0.  1.
          2   -1    0    0  502    0  0.00000000000E+00 -0.00000000000E+00 -0.11555338293E+04  0.11555338293E+04  0.00000000000E+00 0. -1.
          6    1    1    2  502    0  0.35077197083E+02 -0.72883168476E+02 -0.39194753638E+03  0.43560215481E+03  0.17200000000E+03 0.  1.
         -6    1    1    2    0  501 -0.35077197083E+02  0.72883168476E+02 -0.72958307248E+03  0.75393489484E+03  0.17200000000E+03 0.  1.
</event>
<event>
 4    1  0.3141404E-002  0.1765660E+03  0.7818608E-02  0.1171169E+00
          2   -1    0    0  502    0  0.00000000000E+00  0.00000000000E+00  0.33720104453E+03  0.33720104453E+03  0.00000000000E+00 0. -1.
         -2   -1    0    0    0  501 -0.00000000000E+00 -0.00000000000E+00 -0.98960995009E+02  0.98960995009E+02  0.00000000000E+00 0.  1.
          6    1    1    2  502    0 -0.23219305117E+02 -0.32440783691E+02  0.63198305804E+02  0.18753550713E+03  0.17200000000E+03 0.  1.
         -6    1    1    2    0  501  0.23219305117E+02  0.32440783691E+02  0.17504174372E+03  0.24862653242E+03  0.17200000000E+03 0. -1.
</event>
<event>
 4    1  0.3141404E-002  0.1870654E+03  0.7818608E-02  0.1161135E+00
         -1   -1    0    0    0  501 -0.00000000000E+00  0.00000000000E+00  0.67095266932E+02  0.67095266932E+02  0.00000000000E+00 0.  1.
          1   -1    0    0  502    0  0.00000000000E+00 -0.00000000000E+00 -0.55122248327E+03  0.55122248327E+03  0.00000000000E+00 0. -1.
          6    1    1    2  502    0 -0.54665051171E+02 -0.49205506548E+02 -0.31379424192E+03  0.36532215366E+03  0.17200000000E+03 0. -1.
         -6    1    1    2    0  501  0.54665051171E+02  0.49205506548E+02 -0.17033297442E+03  0.25299559654E+03  0.17200000000E+03 0.  1.
</event>
<event>
 4    1  0.3141404E-002  0.1796489E+03  0.7818608E-02  0.1168143E+00
         -1   -1    0    0    0  501 -0.00000000000E+00  0.00000000000E+00  0.49277434439E+02  0.49277434439E+02  0.00000000000E+00 0.  1.
          1   -1    0    0  502    0  0.00000000000E+00 -0.00000000000E+00 -0.17487491603E+04  0.17487491603E+04  0.00000000000E+00 0. -1.
          6    1    1    2  502    0 -0.44550084938E+02 -0.26552339287E+02 -0.15607418198E+04  0.15710470282E+04  0.17200000000E+03 0. -1.
         -6    1    1    2    0  501  0.44550084938E+02  0.26552339287E+02 -0.13872990610E+03  0.22697956656E+03  0.17200000000E+03 0.  1.
</event>
<event>
 4    1  0.3141404E-002  0.3713241E+03  0.7818608E-02  0.1054188E+00
          2   -1    0    0  502    0  0.00000000000E+00  0.00000000000E+00  0.33701142783E+03  0.33701142783E+03  0.00000000000E+00 0. -1.
         -2   -1    0    0    0  501 -0.00000000000E+00 -0.00000000000E+00 -0.44063551011E+03  0.44063551011E+03  0.00000000000E+00 0.  1.
          6    1    1    2  502    0 -0.31028608451E+03  0.10963642726E+03  0.52156902373E+02  0.37496925592E+03  0.17200000000E+03 0. -1.
         -6    1    1    2    0  501  0.31028608451E+03 -0.10963642726E+03 -0.15578098466E+03  0.40267768202E+03  0.17200000000E+03 0.  1.
</event>
<event>
 4    1  0.3141404E-002  0.3070054E+03  0.7818608E-02  0.1081790E+00
          2   -1    0    0  502    0  0.00000000000E+00  0.00000000000E+00  0.48990579786E+03  0.48990579786E+03  0.00000000000E+00 0. -1.
         -2   -1    0    0    0  501 -0.00000000000E+00 -0.00000000000E+00 -0.30124476519E+03  0.30124476519E+03  0.00000000000E+00 0.  1.
          6    1    1    2  502    0  0.22253534165E+03 -0.12307055191E+03 -0.14346064592E+03  0.33887061831E+03  0.17200000000E+03 0.  1.
         -6    1    1    2    0  501 -0.22253534165E+03  0.12307055191E+03  0.33212167858E+03  0.45227994474E+03  0.17200000000E+03 0. -1.
</event>
<event>
 4    1  0.3141404E-002  0.1724300E+03  0.7818608E-02  0.1175337E+00
          2   -1    0    0  502    0  0.00000000000E+00  0.00000000000E+00  0.18444730914E+03  0.18444730914E+03  0.00000000000E+00 0. -1.
         -2   -1    0    0    0  501 -0.00000000000E+00 -0.00000000000E+00 -0.16605296024E+03  0.16605296024E+03  0.00000000000E+00 0.  1.
          6    1    1    2  502    0 -0.12080399260E+02 -0.14778428233E+01  0.39170094121E+02  0.17682312162E+03  0.17200000000E+03 0. -1.
         -6    1    1    2    0  501  0.12080399260E+02  0.14778428233E+01 -0.20775745226E+02  0.17367714776E+03  0.17200000000E+03 0.  1.
</event>
<event>
 4    1  0.3141404E-002  0.4339973E+03  0.7818608E-02  0.1032605E+00
         -1   -1    0    0    0  501 -0.00000000000E+00  0.00000000000E+00  0.38209398893E+03  0.38209398893E+03  0.00000000000E+00 0.  1.
          1   -1    0    0  502    0  0.00000000000E+00 -0.00000000000E+00 -0.66232205395E+03  0.66232205395E+03  0.00000000000E+00 0. -1.
          6    1    1    2  502    0  0.53923316940E+02 -0.39479357129E+03  0.12396156842E+03  0.45135369555E+03  0.17200000000E+03 0. -1.
         -6    1    1    2    0  501 -0.53923316940E+02  0.39479357129E+03 -0.40418963344E+03  0.59306234733E+03  0.17200000000E+03 0.  1.
</event>
<event>
 4    1  0.3141404E-002  0.2262692E+03  0.7818608E-02  0.1129294E+00
          2   -1    0    0  502    0  0.00000000000E+00  0.00000000000E+00  0.32588489685E+03  0.32588489685E+03  0.00000000000E+00 0. -1.
         -2   -1    0    0    0  501 -0.00000000000E+00 -0.00000000000E+00 -0.16992073123E+03  0.16992073123E+03  0.00000000000E+00 0.  1.
          6    1    1    2  502    0  0.18903934063E+02 -0.14579567513E+03  0.98971147917E+01  0.22648551938E+03  0.17200000000E+03 0. -1.
         -6    1    1    2    0  501 -0.18903934063E+02  0.14579567513E+03  0.14606705083E+03  0.26932010870E+03  0.17200000000E+03 0. -1.
</event>
<event>
 4    1  0.3141404E-002  0.1831898E+03  0.7818608E-02  0.1164751E+00
         -1   -1    0    0    0  501 -0.00000000000E+00  0.00000000000E+00  0.46648884671E+02  0.46648884671E+02  0.00000000000E+00 0.  1.
          1   -1    0    0  502    0  0.00000000000E+00 -0.00000000000E+00 -0.11718698880E+04  0.11718698880E+04  0.00000000000E+00 0. -1.
          6    1    1    2  502    0  0.60161781718E+02  0.18843484192E+02 -0.18402456380E+03  0.25966046476E+03  0.17200000000E+03 0. -1.
         -6    1    1    2    0  501 -0.60161781718E+02 -0.18843484192E+02 -0.94119643953E+03  0.95885830791E+03  0.17200000000E+03 0. -1.
</event>
<event>
 4    1  0.3141404E-002  0.2770719E+03  0.7818608E-02  0.1097299E+00
          1   -1    0    0  502    0  0.00000000000E+00  0.00000000000E+00  0.32648297139E+02  0.32648297139E+02  0.00000000000E+00 0. -1.
         -1   -1    0    0    0  501 -0.00000000000E+00 -0.00000000000E+00 -0.27385101261E+04  0.27385101261E+04  0.00000000000E+00 0.  1.
          6    1    1    2  502    0  0.21698338753E+03 -0.10150917160E+02 -0.83197870986E+03  0.87690216401E+03  0.17200000000E+03 0. -1.
         -6    1    1    2    0  501 -0.21698338753E+03  0.10150917160E+02 -0.18738831191E+04  0.18942562593E+04  0.17200000000E+03 0.  1.
</event>
<event>
 4    1  0.3141404E-002  0.1940505E+03  0.7818608E-02  0.1154858E+00
         -2   -1    0    0    0  501 -0.00000000000E+00  0.00000000000E+00  0.13930608250E+03  0.13930608250E+03  0.00000000000E+00 0.  1.
          2   -1    0    0  502    0  0.00000000000E+00 -0.00000000000E+00 -0.36328586300E+03  0.36328586300E+03  0.00000000000E+00 0. -1.
          6    1    1    2  502    0  0.83803332198E+02 -0.32382181070E+02 -0.23912049937E+03  0.30795164776E+03  0.17200000000E+03 0. -1.
         -6    1    1    2    0  501 -0.83803332198E+02  0.32382181070E+02  0.15140718858E+02  0.19464029774E+03  0.17200000000E+03 0.  1.
</event>
<event>
 4    1  0.3141404E-002  0.3749362E+03  0.7818608E-02  0.1052821E+00
         -2   -1    0    0    0  501 -0.00000000000E+00  0.00000000000E+00  0.76690041418E+02  0.76690041418E+02  0.00000000000E+00 0.  1.
          2   -1    0    0  502    0  0.00000000000E+00 -0.00000000000E+00 -0.19876374916E+04  0.19876374916E+04  0.00000000000E+00 0. -1.
          6    1    1    2  502    0 -0.19662478185E+03  0.26894585475E+03 -0.12433183256E+04  0.12986214369E+04  0.17200000000E+03 0. -1.
         -6    1    1    2    0  501  0.19662478185E+03 -0.26894585475E+03 -0.66762912457E+03  0.76570609610E+03  0.17200000000E+03 0.  1.
</event>
<event>
 4    1  0.3141404E-002  0.2284754E+03  0.7818608E-02  0.1127717E+00
          2   -1    0    0  502    0  0.00000000000E+00  0.00000000000E+00  0.16479357944E+04  0.16479357944E+04  0.00000000000E+00 0. -1.
         -2   -1    0    0    0  501 -0.00000000000E+00 -0.00000000000E+00 -0.32607840213E+02  0.32607840213E+02  0.00000000000E+00 0.  1.
          6    1    1    2  502    0  0.14814171422E+03 -0.25904538613E+02  0.94966395570E+03  0.97676130215E+03  0.17200000000E+03 0. -1.
         -6    1    1    2    0  501 -0.14814171422E+03  0.25904538613E+02  0.66566399850E+03  0.70378233248E+03  0.17200000000E+03 0.  1.
</event>
<event>
 4    1  0.3141404E-002  0.2104722E+03  0.7818608E-02  0.1141193E+00
         -1   -1    0    0    0  501 -0.00000000000E+00  0.00000000000E+00  0.13149617432E+03  0.13149617432E+03  0.00000000000E+00 0.  1.
          1   -1    0    0  502    0  0.00000000000E+00 -0.00000000000E+00 -0.95194713407E+03  0.95194713407E+03  0.00000000000E+00 0. -1.
          6    1    1    2  502    0 -0.44036181048E+02  0.11302811301E+03  0.25216955502E+02  0.21197743846E+03  0.17200000000E+03 0. -1.
         -6    1    1    2    0  501  0.44036181048E+02 -0.11302811301E+03 -0.84566791525E+03  0.87146586993E+03  0.17200000000E+03 0. -1.
</event>
<event>
 4    1  0.3141404E-002  0.3449167E+03  0.7818608E-02  0.1064721E+00
          2   -1    0    0  502    0  0.00000000000E+00  0.00000000000E+00  0.13397022860E+04  0.13397022860E+04  0.00000000000E+00 0. -1.
         -2   -1    0    0    0  501 -0.00000000000E+00 -0.00000000000E+00 -0.98635138526E+02  0.98635138526E+02  0.00000000000E+00 0.  1.
          6    1    1    2  502    0 -0.24062488848E+03 -0.17743497715E+03  0.84761056870E+03  0.91510173437E+03  0.17200000000E+03 0. -1.
         -6    1    1    2    0  501  0.24062488848E+03  0.17743497715E+03  0.39345657876E+03  0.52323569015E+03  0.17200000000E+03 0.  1.
</event>
<event>
 4    1  0.3141404E-002  0.1813014E+03  0.7818608E-02  0.1166549E+00
          2   -1    0    0  502    0  0.00000000000E+00  0.00000000000E+00  0.19709931647E+03  0.19709931647E+03  0.00000000000E+00 0. -1.
         -2   -1    0    0    0  501 -0.00000000000E+00 -0.00000000000E+00 -0.29061622870E+03  0.29061622870E+03  0.00000000000E+00 0.  1.
          6    1    1    2  502    0 -0.38512490886E+02  0.42461411184E+02  0.11243260721E+03  0.21333371641E+03  0.17200000000E+03 0. -1.
         -6    1    1    2    0  501  0.38512490886E+02 -0.42461411184E+02 -0.20594951945E+03  0.27438182876E+03  0.17200000000E+03 0.  1.
</event>
<event>
 4    1  0.3141404E-002  0.1906231E+03  0.7818608E-02  0.1157901E+00
          2   -1    0    0  502    0  0.00000000000E+00  0.00000000000E+00  0.10025722967E+04  0.10025722967E+04  0.00000000000E+00 0. -1.
         -2   -1    0    0    0  501 -0.00000000000E+00 -0.00000000000E+00 -0.45323637612E+02  0.45323637612E+02  0.00000000000E+00 0.  1.
          6    1    1    2  502    0 -0.46878934609E+01  0.82043858221E+02  0.71313437599E+03  0.73817193744E+03  0.17200000000E+03 0. -1.
         -6    1    1    2    0  501  0.46878934609E+01 -0.82043858221E+02  0.24411428307E+03  0.30972399683E+03  0.17200000000E+03 0.  1.
</event>
<event>
 4    1  0.3141404E-002  0.2835189E+03  0.7818608E-02  0.1093782E+00
         -1   -1    0    0    0  501 -0.00000000000E+00  0.00000000000E+00  0.78042507856E+02  0.78042507856E+02  0.00000000000E+00 0.  1.
          1   -1    0    0  502    0  0.00000000000E+00 -0.00000000000E+00 -0.11853448944E+04  0.11853448944E+04  0.00000000000E+00 0. -1.
          6    1    1    2  502    0 -0.76960541068E+02 -0.21183960479E+03 -0.78234147928E+03  0.83213047849E+03  0.17200000000E+03 0.  1.
         -6    1    1    2    0  501  0.76960541068E+02  0.21183960479E+03 -0.32496090725E+03  0.43125692375E+03  0.17200000000E+03 0.  1.
</event>
<event>
 4    1  0.3141404E-002  0.3695490E+03  0.7818608E-02  0.1054866E+00
         -2   -1    0    0    0  501 -0.00000000000E+00  0.00000000000E+00  0.88250442443E+02  0.88250442443E+02  0.00000000000E+00 0.  1.
          2   -1    0    0  502    0  0.00000000000E+00 -0.00000000000E+00 -0.15483112183E+04  0.15483112183E+04  0.00000000000E+00 0. -1.
          6    1    1    2  502    0 -0.32535673528E+03  0.33547649390E+02 -0.74890518371E+03  0.83512000584E+03  0.17200000000E+03 0. -1.
         -6    1    1    2    0  501  0.32535673528E+03 -0.33547649390E+02 -0.71115559217E+03  0.80144165493E+03  0.17200000000E+03 0.  1.
</event>
<event>
 4    1  0.3141404E-002  0.2101255E+03  0.7818608E-02  0.1141467E+00
         -2   -1    0    0    0  501 -0.00000000000E+00  0.00000000000E+00  0.16717387084E+02  0.16717387084E+02  0.00000000000E+00 0.  1.
          2   -1    0    0  502    0  0.00000000000E+00 -0.00000000000E+00 -0.28388210286E+04  0.28388210286E+04  0.00000000000E+00 0. -1.
          6    1    1    2  502    0 -0.51307511201E+02  0.10925314520E+03 -0.10342717875E+04  0.10554007963E+04  0.17200000000E+03 0.  1.
         -6    1    1    2    0  501  0.51307511201E+02 -0.10925314520E+03 -0.17878318540E+04  0.18001376194E+04  0.17200000000E+03 0. -1.
</event>
<event>
 4    1  0.3141404E-002  0.1832691E+03  0.7818608E-02  0.1164676E+00
          3   -1    0    0  502    0  0.00000000000E+00  0.00000000000E+00  0.15825968450E+03  0.15825968450E+03  0.00000000000E+00 0. -1.
         -3   -1    0    0    0  501 -0.00000000000E+00 -0.00000000000E+00 -0.44630249511E+03  0.44630249511E+03  0.00000000000E+00 0.  1.
          6    1    1    2  502    0  0.61574062389E+02  0.14566424184E+02  0.74891300433E+02  0.19798043528E+03  0.17200000000E+03 0. -1.
         -6    1    1    2    0  501 -0.61574062389E+02 -0.14566424184E+02 -0.36293411104E+03  0.40658174434E+03  0.17200000000E+03 0.  1.
</event>
<event>
 4    1  0.3141404E-002  0.2202919E+03  0.7818608E-02  0.1133666E+00
         -1   -1    0    0    0  501 -0.00000000000E+00  0.00000000000E+00  0.17637759552E+02  0.17637759552E+02  0.00000000000E+00 0.  1.
          1   -1    0    0  502    0  0.00000000000E+00 -0.00000000000E+00 -0.27534219225E+04  0.27534219225E+04  0.00000000000E+00 0. -1.
          6    1    1    2  502    0 -0.81348987691E+02 -0.11102648885E+03 -0.13303501397E+04  0.13484658072E+04  0.17200000000E+03 0. -1.
         -6    1    1    2    0  501  0.81348987691E+02  0.11102648885E+03 -0.14054340232E+04  0.14225938748E+04  0.17200000000E+03 0. -1.
</event>
<event>
 4    1  0.3141404E-002  0.1979996E+03  0.7818608E-02  0.1151438E+00
          3   -1    0    0  502    0  0.00000000000E+00  0.00000000000E+00  0.22627213224E+03  0.22627213224E+03  0.00000000000E+00 0. -1.
         -3   -1    0    0    0  501 -0.00000000000E+00 -0.00000000000E+00 -0.17376193538E+03  0.17376193538E+03  0.00000000000E+00 0.  1.
          6    1    1    2  502    0 -0.13118011849E+02 -0.97199672867E+02  0.37007637627E+02  0.20142845847E+03  0.17200000000E+03 0. -1.
         -6    1    1    2    0  501  0.13118011849E+02  0.97199672867E+02  0.15502559236E+02  0.19860560914E+03  0.17200000000E+03 0.  1.
</event>
<event>
 4    1  0.3141404E-002  0.4365465E+03  0.7818608E-02  0.1031812E+00
         -3   -1    0    0    0  501 -0.00000000000E+00  0.00000000000E+00  0.72562814217E+03  0.72562814217E+03  0.00000000000E+00 0.  1.
          3   -1    0    0  502    0  0.00000000000E+00 -0.00000000000E+00 -0.37492975682E+03  0.37492975682E+03  0.00000000000E+00 0. -1.
          6    1    1    2  502    0  0.39447927433E+03 -0.73314182679E+02 -0.12580872972E+03  0.45431344216E+03  0.17200000000E+03 0. -1.
         -6    1    1    2    0  501 -0.39447927433E+03  0.73314182679E+02  0.47650711507E+03  0.64624445682E+03  0.17200000000E+03 0.  1.
</event>
<event>
 4    1  0.3141404E-002  0.2084446E+03  0.7818608E-02  0.1142804E+00
          2   -1    0    0  502    0  0.00000000000E+00  0.00000000000E+00  0.32935361048E+04  0.32935361048E+04  0.00000000000E+00 0. -1.
         -2   -1    0    0    0  501 -0.00000000000E+00 -0.00000000000E+00 -0.13201069467E+02  0.13201069467E+02  0.00000000000E+00 0.  1.
          6    1    1    2  502    0  0.35432831984E+02  0.11229268906E+03  0.16829160712E+04  0.16957758213E+04  0.17200000000E+03 0. -1.
         -6    1    1    2    0  501 -0.35432831984E+02 -0.11229268906E+03  0.15974189641E+04  0.16109613529E+04  0.17200000000E+03 0.  1.
</event>
<event>
 4    1  0.3141404E-002  0.1721117E+03  0.7818608E-02  0.1175663E+00
          1   -1    0    0  502    0  0.00000000000E+00  0.00000000000E+00  0.14143506497E+04  0.14143506497E+04  0.00000000000E+00 0. -1.
         -1   -1    0    0    0  501 -0.00000000000E+00 -0.00000000000E+00 -0.28040021178E+02  0.28040021178E+02  0.00000000000E+00 0.  1.
          6    1    1    2  502    0  0.47254117277E+01 -0.40119912313E+01  0.10559537832E+04  0.10698882268E+04  0.17200000000E+03 0. -1.
         -6    1    1    2    0  501 -0.47254117277E+01  0.40119912313E+01  0.33035684528E+03  0.37250244403E+03  0.17200000000E+03 0.  1.
</event>
<event>
 4    1  0.3141404E-002  0.8111782E+03  0.7818608E-02  0.9543977E-01
          2   -1    0    0  502    0  0.00000000000E+00  0.00000000000E+00  0.16242932030E+04  0.16242932030E+04  0.00000000000E+00 0. -1.
         -2   -1    0    0    0  501 -0.00000000000E+00 -0.00000000000E+00 -0.11674828620E+04  0.11674828620E+04  0.00000000000E+00 0.  1.
          6    1    1    2  502    0  0.72145454738E+03 -0.32852622439E+03  0.13564083320E+04  0.15804599669E+04  0.17200000000E+03 0. -1.
         -6    1    1    2    0  501 -0.72145454738E+03  0.32852622439E+03 -0.89959799095E+03  0.12113160980E+04  0.17200000000E+03 0.  1.
</event>
<event>
 4    1  0.3141404E-002  0.1915290E+03  0.7818608E-02  0.1157089E+00
         -1   -1    0    0    0  501 -0.00000000000E+00  0.00000000000E+00  0.40987063340E+02  0.40987063340E+02  0.00000000000E+00 0.  1.
          1   -1    0    0  502    0  0.00000000000E+00 -0.00000000000E+00 -0.95642224307E+03  0.95642224307E+03  0.00000000000E+00 0. -1.
          6    1    1    2  502    0 -0.70990033435E+02 -0.45384770279E+02 -0.33133520331E+03  0.38270926194E+03  0.17200000000E+03 0. -1.
         -6    1    1    2    0  501  0.70990033435E+02  0.45384770279E+02 -0.58409997642E+03  0.61470004447E+03  0.17200000000E+03 0. -1.
</event>
<event>
 4    1  0.3141404E-002  0.9764794E+03  0.7818608E-02  0.9334725E-01
          2   -1    0    0  502    0  0.00000000000E+00  0.00000000000E+00  0.23226307851E+04  0.23226307851E+04  0.00000000000E+00 0. -1.
         -2   -1    0    0    0  501 -0.00000000000E+00 -0.00000000000E+00 -0.41069189902E+03  0.41069189902E+03  0.00000000000E+00 0.  1.
          6    1    1    2  502    0  0.80037988063E+03  0.53227826523E+03  0.92892469096E+03  0.13477437392E+04  0.17200000000E+03 0. -1.
         -6    1    1    2    0  501 -0.80037988063E+03 -0.53227826523E+03  0.98301419515E+03  0.13855789450E+04  0.17200000000E+03 0.  1.
</event>
<event>
 4    1  0.3141404E-002  0.1877263E+03  0.7818608E-02  0.1160528E+00
          2   -1    0    0  502    0  0.00000000000E+00  0.00000000000E+00  0.32064746693E+03  0.32064746693E+03  0.00000000000E+00 0. -1.
         -2   -1    0    0    0  501 -0.00000000000E+00 -0.00000000000E+00 -0.11357779406E+03  0.11357779406E+03  0.00000000000E+00 0.  1.
          6    1    1    2  502    0 -0.53172017821E+02 -0.53196845986E+02  0.64499186812E+02  0.19849763979E+03  0.17200000000E+03 0. -1.
         -6    1    1    2    0  501  0.53172017821E+02  0.53196845986E+02  0.14257048606E+03  0.23572762120E+03  0.17200000000E+03 0. -1.
</event>
<event>
 4    1  0.3141404E-002  0.1881132E+03  0.7818608E-02  0.1160174E+00
         -1   -1    0    0    0  501 -0.00000000000E+00  0.00000000000E+00  0.78903048252E+03  0.78903048252E+03  0.00000000000E+00 0.  1.
          1   -1    0    0  502    0  0.00000000000E+00 -0.00000000000E+00 -0.47924805439E+02  0.47924805439E+02  0.00000000000E+00 0. -1.
          6    1    1    2  502    0 -0.48033643465E+02 -0.59121407266E+02  0.47658319887E+03  0.51236521852E+03  0.17200000000E+03 0.  1.
         -6    1    1    2    0  501  0.48033643465E+02  0.59121407266E+02  0.26452247821E+03  0.32459006944E+03  0.17200000000E+03 0. -1.
</event>
<event>
 4    1  0.3141404E-002  0.2581260E+03  0.7818608E-02  0.1108274E+00
          2   -1    0    0  502    0  0.00000000000E+00  0.00000000000E+00  0.28863172025E+04  0.28863172025E+04  0.00000000000E+00 0. -1.
         -2   -1    0    0    0  501 -0.00000000000E+00 -0.00000000000E+00 -0.27851688933E+02  0.27851688933E+02  0.00000000000E+00 0.  1.
          6    1    1    2  502    0  0.12080299970E+03  0.14983882871E+03  0.20320594929E+04  0.20483883475E+04  0.17200000000E+03 0. -1.
         -6    1    1    2    0  501 -0.12080299970E+03 -0.14983882871E+03  0.82640602065E+03  0.86578054396E+03  0.17200000000E+03 0.  1.
</event>
<event>
 4    1  0.3141404E-002  0.1986725E+03  0.7818608E-02  0.1150864E+00
         -2   -1    0    0    0  501 -0.00000000000E+00  0.00000000000E+00  0.21782467203E+03  0.21782467203E+03  0.00000000000E+00 0.  1.
          2   -1    0    0  502    0  0.00000000000E+00 -0.00000000000E+00 -0.34828896395E+03  0.34828896395E+03  0.00000000000E+00 0. -1.
          6    1    1    2  502    0 -0.69863872193E+00 -0.99429739143E+02 -0.26128451503E+03  0.32823826547E+03  0.17200000000E+03 0. -1.
         -6    1    1    2    0  501  0.69863872193E+00  0.99429739143E+02  0.13082022312E+03  0.23787537052E+03  0.17200000000E+03 0.  1.
</event>
<event>
 4    1  0.3141404E-002  0.2199536E+03  0.7818608E-02  0.1133918E+00
          1   -1    0    0  502    0  0.00000000000E+00  0.00000000000E+00  0.93818423371E+02  0.93818423371E+02  0.00000000000E+00 0. -1.
         -1   -1    0    0    0  501 -0.00000000000E+00 -0.00000000000E+00 -0.80844401812E+03  0.80844401812E+03  0.00000000000E+00 0.  1.
          6    1    1    2  502    0  0.24695604717E+02 -0.13485436465E+03 -0.62879563895E+03  0.66615578367E+03  0.17200000000E+03 0.  1.
         -6    1    1    2    0  501 -0.24695604717E+02  0.13485436465E+03 -0.85829955805E+02  0.23610665783E+03  0.17200000000E+03 0. -1.
</event>
<event>
 4    1  0.3141404E-002  0.1888338E+03  0.7818608E-02  0.1159517E+00
          1   -1    0    0  502    0  0.00000000000E+00  0.00000000000E+00  0.13398901939E+04  0.13398901939E+04  0.00000000000E+00 0. -1.
         -1   -1    0    0    0  501 -0.00000000000E+00 -0.00000000000E+00 -0.29182951583E+02  0.29182951583E+02  0.00000000000E+00 0.  1.
          6    1    1    2  502    0  0.17329801689E+02  0.75986171290E+02  0.85850137120E+03  0.87902379069E+03  0.17200000000E+03 0. -1.
         -6    1    1    2    0  501 -0.17329801689E+02 -0.75986171290E+02  0.45220587110E+03  0.49004935477E+03  0.17200000000E+03 0.  1.
</event>
<event>
 4    1  0.3141404E-002  0.2026582E+03  0.7818608E-02  0.1147515E+00
          2   -1    0    0  502    0  0.00000000000E+00  0.00000000000E+00  0.82740778637E+03  0.82740778637E+03  0.00000000000E+00 0. -1.
         -2   -1    0    0    0  501 -0.00000000000E+00 -0.00000000000E+00 -0.62660553722E+02  0.62660553722E+02  0.00000000000E+00 0.  1.
          6    1    1    2  502    0  0.64186213855E+02 -0.85828097238E+02  0.17948620007E+03  0.27071318464E+03  0.17200000000E+03 0.  1.
         -6    1    1    2    0  501 -0.64186213855E+02  0.85828097238E+02  0.58526103258E+03  0.61935515545E+03  0.17200000000E+03 0. -1.
</event>
<event>
 4    1  0.3141404E-002  0.7277158E+03  0.7818608E-02  0.9670974E-01
          1   -1    0    0  502    0  0.00000000000E+00  0.00000000000E+00  0.96485930370E+03  0.96485930370E+03  0.00000000000E+00 0. -1.
         -1   -1    0    0    0  501 -0.00000000000E+00 -0.00000000000E+00 -0.75066326586E+03  0.75066326586E+03  0.00000000000E+00 0.  1.
          6    1    1    2  502    0  0.29876497271E+03 -0.64087891079E+03  0.55184255287E+03  0.91329102174E+03  0.17200000000E+03 0. -1.
         -6    1    1    2    0  501 -0.29876497271E+03  0.64087891079E+03 -0.33764651503E+03  0.80223154783E+03  0.17200000000E+03 0.  1.
</event>
<event>
 4    1  0.3141404E-002  0.3358524E+03  0.7818608E-02  0.1068576E+00
          2   -1    0    0  502    0  0.00000000000E+00  0.00000000000E+00  0.18446744690E+04  0.18446744690E+04  0.00000000000E+00 0. -1.
         -2   -1    0    0    0  501 -0.00000000000E+00 -0.00000000000E+00 -0.61376696783E+02  0.61376696783E+02  0.00000000000E+00 0.  1.
          6    1    1    2  502    0 -0.22812286264E+03 -0.17655817181E+03  0.94991475838E+03  0.10075390199E+04  0.17200000000E+03 0. -1.
         -6    1    1    2    0  501  0.22812286264E+03  0.17655817181E+03  0.83338301382E+03  0.89851214583E+03  0.17200000000E+03 0.  1.
</event>
<event>
 4    1  0.3141404E-002  0.1755002E+03  0.7818608E-02  0.1172230E+00
         -2   -1    0    0    0  501 -0.00000000000E+00  0.00000000000E+00  0.34968796215E+03  0.34968796215E+03  0.00000000000E+00 0.  1.
          2   -1    0    0  502    0  0.00000000000E+00 -0.00000000000E+00 -0.91591262945E+02  0.91591262945E+02  0.00000000000E+00 0. -1.
          6    1    1    2  502    0 -0.33752218611E+02  0.87814669610E+01  0.17225211624E+03  0.24590875945E+03  0.17200000000E+03 0. -1.
         -6    1    1    2    0  501  0.33752218611E+02 -0.87814669610E+01  0.85844582965E+02  0.19537046565E+03  0.17200000000E+03 0. -1.
</event>
<event>
 4    1  0.3141404E-002  0.1893537E+03  0.7818608E-02  0.1159046E+00
          2   -1    0    0  502    0  0.00000000000E+00  0.00000000000E+00  0.23149116194E+03  0.23149116194E+03  0.00000000000E+00 0. -1.
         -2   -1    0    0    0  501 -0.00000000000E+00 -0.00000000000E+00 -0.15596378655E+03  0.15596378655E+03  0.00000000000E+00 0.  1.
          6    1    1    2  502    0  0.68175614214E+02 -0.40285321072E+02  0.21661870572E+02  0.19058871452E+03  0.17200000000E+03 0. -1.
         -6    1    1    2    0  501 -0.68175614214E+02  0.40285321072E+02  0.53865504809E+02  0.19686623397E+03  0.17200000000E+03 0.  1.
</event>
<event>
 4    1  0.3141404E-002  0.2810114E+03  0.7818608E-02  0.1095138E+00
          2   -1    0    0  502    0  0.00000000000E+00  0.00000000000E+00  0.76921092911E+03  0.76921092911E+03  0.00000000000E+00 0. -1.
         -2   -1    0    0    0  501 -0.00000000000E+00 -0.00000000000E+00 -0.10266134294E+03  0.10266134294E+03  0.00000000000E+00 0.  1.
          6    1    1    2  502    0  0.22007611622E+03  0.30820823617E+02  0.33188130924E+03  0.43487081245E+03  0.17200000000E+03 0.  1.
         -6    1    1    2    0  501 -0.22007611622E+03 -0.30820823617E+02  0.33466827694E+03  0.43700145959E+03  0.17200000000E+03 0.  1.
</event>
<event>
 4    1  0.3141404E-002  0.1744228E+03  0.7818608E-02  0.1173313E+00
         -1   -1    0    0    0  501 -0.00000000000E+00  0.00000000000E+00  0.83093369731E+02  0.83093369731E+02  0.00000000000E+00 0.  1.
          1   -1    0    0  502    0  0.00000000000E+00 -0.00000000000E+00 -0.39784424708E+03  0.39784424708E+03  0.00000000000E+00 0. -1.
          6    1    1    2  502    0 -0.11945985478E+02  0.26393286397E+02 -0.22526479147E+03  0.28489917236E+03  0.17200000000E+03 0.  1.
         -6    1    1    2    0  501  0.11945985478E+02 -0.26393286397E+02 -0.89486085878E+02  0.19603844445E+03  0.17200000000E+03 0.  1.
</event>
<event>
 4    1  0.3141404E-002  0.2176251E+03  0.7818608E-02  0.1135666E+00
          2   -1    0    0  502    0  0.00000000000E+00  0.00000000000E+00  0.39153352688E+03  0.39153352688E+03  0.00000000000E+00 0. -1.
         -2   -1    0    0    0  501 -0.00000000000E+00 -0.00000000000E+00 -0.19123161950E+03  0.19123161950E+03  0.00000000000E+00 0.  1.
          6    1    1    2  502    0 -0.11781389587E+03  0.62422620148E+02  0.27678213481E+03  0.35209238520E+03  0.17200000000E+03 0. -1.
         -6    1    1    2    0  501  0.11781389587E+03 -0.62422620148E+02 -0.76480227421E+02  0.23067276118E+03  0.17200000000E+03 0.  1.
</event>
<event>
 4    1  0.3141404E-002  0.2542737E+03  0.7818608E-02  0.1110633E+00
         -2   -1    0    0    0  501 -0.00000000000E+00  0.00000000000E+00  0.20988878473E+03  0.20988878473E+03  0.00000000000E+00 0.  1.
          2   -1    0    0  502    0  0.00000000000E+00 -0.00000000000E+00 -0.77504563490E+03  0.77504563490E+03  0.00000000000E+00 0. -1.
          6    1    1    2  502    0  0.80831312059E+02  0.16893020205E+03 -0.66485051128E+03  0.71181550736E+03  0.17200000000E+03 0. -1.
         -6    1    1    2    0  501 -0.80831312059E+02 -0.16893020205E+03  0.99693661102E+02  0.27311891227E+03  0.17200000000E+03 0.  1.
</event>
<event>
 4    1  0.3141404E-002  0.2149679E+03  0.7818608E-02  0.1137691E+00
          3   -1    0    0  502    0  0.00000000000E+00  0.00000000000E+00  0.40263704397E+03  0.40263704397E+03  0.00000000000E+00 0. -1.
         -3   -1    0    0    0  501 -0.00000000000E+00 -0.00000000000E+00 -0.12292475897E+03  0.12292475897E+03  0.00000000000E+00 0.  1.
          6    1    1    2  502    0 -0.85429532918E+02 -0.96586751403E+02  0.20753346424E+03  0.29879984006E+03  0.17200000000E+03 0. -1.
         -6    1    1    2    0  501  0.85429532918E+02  0.96586751403E+02  0.72178820765E+02  0.22676196288E+03  0.17200000000E+03 0.  1.
</event>
<event>
 4    1  0.3141404E-002  0.2823696E+03  0.7818608E-02  0.1094402E+00
         -1   -1    0    0    0  501 -0.00000000000E+00  0.00000000000E+00  0.53406268174E+02  0.53406268174E+02  0.00000000000E+00 0.  1.
          1   -1    0    0  502    0  0.00000000000E+00 -0.00000000000E+00 -0.16331175071E+04  0.16331175071E+04  0.00000000000E+00 0. -1.
          6    1    1    2  502    0  0.18543653606E+03 -0.12554638224E+03 -0.10369060977E+04  0.10746659287E+04  0.17200000000E+03 0.  1.
         -6    1    1    2    0  501 -0.18543653606E+03  0.12554638224E+03 -0.54280514126E+03  0.61185784655E+03  0.17200000000E+03 0.  1.
</event>
<event>
 4    1  0.3141404E-002  0.3551085E+03  0.7818608E-02  0.1060538E+00
          3   -1    0    0  502    0  0.00000000000E+00  0.00000000000E+00  0.14302851590E+04  0.14302851590E+04  0.00000000000E+00 0. -1.
         -3   -1    0    0    0  501 -0.00000000000E+00 -0.00000000000E+00 -0.92711812869E+02  0.92711812869E+02  0.00000000000E+00 0.  1.
          6    1    1    2  502    0  0.25119271908E+03 -0.18281207392E+03  0.83741226084E+03  0.90959404742E+03  0.17200000000E+03 0. -1.
         -6    1    1    2    0  501 -0.25119271908E+03  0.18281207392E+03  0.50016108529E+03  0.61340292445E+03  0.17200000000E+03 0.  1.
</event>
<event>
 4    1  0.3141404E-002  0.2073436E+03  0.7818608E-02  0.1143687E+00
         -2   -1    0    0    0  501 -0.00000000000E+00  0.00000000000E+00  0.29430539136E+02  0.29430539136E+02  0.00000000000E+00 0.  1.
          2   -1    0    0  502    0  0.00000000000E+00 -0.00000000000E+00 -0.14914703776E+04  0.14914703776E+04  0.00000000000E+00 0. -1.
          6    1    1    2  502    0 -0.35720795502E+02  0.11014264495E+03 -0.84011483422E+03  0.86532324142E+03  0.17200000000E+03 0. -1.
         -6    1    1    2    0  501  0.35720795502E+02 -0.11014264495E+03 -0.62192500426E+03  0.65557767533E+03  0.17200000000E+03 0. -1.
</event>
<event>
 4    1  0.3141404E-002  0.1737755E+03  0.7818608E-02  0.1173967E+00
         -2   -1    0    0    0  501 -0.00000000000E+00  0.00000000000E+00  0.69958621089E+03  0.69958621089E+03  0.00000000000E+00 0.  1.
          2   -1    0    0  502    0  0.00000000000E+00 -0.00000000000E+00 -0.44613806111E+02  0.44613806111E+02  0.00000000000E+00 0. -1.
          6    1    1    2  502    0 -0.90053626764E+01  0.23082845096E+02  0.39453193565E+03  0.43110713580E+03  0.17200000000E+03 0.  1.
         -6    1    1    2    0  501  0.90053626764E+01 -0.23082845096E+02  0.26044046913E+03  0.31309288119E+03  0.17200000000E+03 0.  1.
</event>
<event>
 4    1  0.3141404E-002  0.2553427E+03  0.7818608E-02  0.1109974E+00
         -2   -1    0    0    0  501 -0.00000000000E+00  0.00000000000E+00  0.80967059339E+02  0.80967059339E+02  0.00000000000E+00 0.  1.
          2   -1    0    0  502    0  0.00000000000E+00 -0.00000000000E+00 -0.17484585782E+04  0.17484585782E+04  0.00000000000E+00 0. -1.
          6    1    1    2  502    0  0.18846080616E+03 -0.99201016433E+01 -0.15055730875E+04  0.15270724297E+04  0.17200000000E+03 0. -1.
         -6    1    1    2    0  501 -0.18846080616E+03  0.99201016433E+01 -0.16191843145E+03  0.30235320788E+03  0.17200000000E+03 0.  1.
</event>
<event>
 4    1  0.3141404E-002  0.8449832E+03  0.7818608E-02  0.9497095E-01
          2   -1    0    0  502    0  0.00000000000E+00  0.00000000000E+00  0.65399300905E+03  0.65399300905E+03  0.00000000000E+00 0. -1.
         -2   -1    0    0    0  501 -0.00000000000E+00 -0.00000000000E+00 -0.21375267858E+04  0.21375267858E+04  0.00000000000E+00 0.  1.
          6    1    1    2  502    0  0.63628167063E+03 -0.52873268875E+03  0.23451337652E+03  0.87692254179E+03  0.17200000000E+03 0. -1.
         -6    1    1    2    0  501 -0.63628167063E+03  0.52873268875E+03 -0.17180471533E+04  0.19145972530E+04  0.17200000000E+03 0.  1.
</event>
<event>
 4    1  0.3141404E-002  0.2180257E+03  0.7818608E-02  0.1135364E+00
         -2   -1    0    0    0  501 -0.00000000000E+00  0.00000000000E+00  0.20477357774E+02  0.20477357774E+02  0.00000000000E+00 0.  1.
          2   -1    0    0  502    0  0.00000000000E+00 -0.00000000000E+00 -0.27496850224E+04  0.27496850224E+04  0.00000000000E+00 0. -1.
          6    1    1    2  502    0 -0.91114591929E+02 -0.98230984846E+02 -0.19112717037E+04  0.19236669983E+04  0.17200000000E+03 0. -1.
         -6    1    1    2    0  501  0.91114591929E+02  0.98230984846E+02 -0.81793596099E+03  0.84649538187E+03  0.17200000000E+03 0.  1.
</event>
<event>
 4    1  0.3141404E-002  0.1835998E+03  0.7818608E-02  0.1164364E+00
         -4   -1    0    0    0  501 -0.00000000000E+00  0.00000000000E+00  0.49379381404E+03  0.49379381404E+03  0.00000000000E+00 0.  1.
          4   -1    0    0  502    0  0.00000000000E+00 -0.00000000000E+00 -0.70421669032E+02  0.70421669032E+02  0.00000000000E+00 0. -1.
          6    1    1    2  502    0  0.54935232622E+02 -0.33271921226E+02  0.26105346387E+03  0.31915170612E+03  0.17200000000E+03 0.  1.
         -6    1    1    2    0  501 -0.54935232622E+02  0.33271921226E+02  0.16231868114E+03  0.24506377695E+03  0.17200000000E+03 0. -1.
</event>
<event>
 4    1  0.3141404E-002  0.1722449E+03  0.7818608E-02  0.1175527E+00
         -1   -1    0    0    0  501 -0.00000000000E+00  0.00000000000E+00  0.15499862645E+02  0.15499862645E+02  0.00000000000E+00 0.  1.
          1   -1    0    0  502    0  0.00000000000E+00 -0.00000000000E+00 -0.19356110877E+04  0.19356110877E+04  0.00000000000E+00 0. -1.
          6    1    1    2  502    0 -0.44803139514E+01 -0.80143938008E+01 -0.85721532711E+03  0.87434914122E+03  0.17200000000E+03 0.  1.
         -6    1    1    2    0  501  0.44803139514E+01  0.80143938008E+01 -0.10628958980E+04  0.10767618091E+04  0.17200000000E+03 0. -1.
</event>
<event>
 4    1  0.3141404E-002  0.1991099E+03  0.7818608E-02  0.1150492E+00
          2   -1    0    0  502    0  0.00000000000E+00  0.00000000000E+00  0.60676504836E+03  0.60676504836E+03  0.00000000000E+00 0. -1.
         -2   -1    0    0    0  501 -0.00000000000E+00 -0.00000000000E+00 -0.67398825966E+02  0.67398825966E+02  0.00000000000E+00 0.  1.
          6    1    1    2  502    0  0.52581479738E+02  0.85416391112E+02  0.21073940835E+03  0.28992390400E+03  0.17200000000E+03 0. -1.
         -6    1    1    2    0  501 -0.52581479738E+02 -0.85416391112E+02  0.32862681404E+03  0.38423997032E+03  0.17200000000E+03 0. -1.
</event>
<event>
 4    1  0.3141404E-002  0.2797141E+03  0.7818608E-02  0.1095845E+00
          2   -1    0    0  502    0  0.00000000000E+00  0.00000000000E+00  0.15080689473E+04  0.15080689473E+04  0.00000000000E+00 0. -1.
         -2   -1    0    0    0  501 -0.00000000000E+00 -0.00000000000E+00 -0.15753989778E+03  0.15753989778E+03  0.00000000000E+00 0.  1.
          6    1    1    2  502    0 -0.73308205977E+02 -0.20804300106E+03  0.13572905925E+04  0.13858130234E+04  0.17200000000E+03 0. -1.
         -6    1    1    2    0  501  0.73308205977E+02  0.20804300106E+03 -0.67615430028E+01  0.27979582166E+03  0.17200000000E+03 0.  1.
</event>
<event>
 4    1  0.3141404E-002  0.3329364E+03  0.7818608E-02  0.1069845E+00
         -1   -1    0    0    0  501 -0.00000000000E+00  0.00000000000E+00  0.15223101286E+03  0.15223101286E+03  0.00000000000E+00 0.  1.
          1   -1    0    0  502    0  0.00000000000E+00 -0.00000000000E+00 -0.75827792672E+03  0.75827792672E+03  0.00000000000E+00 0. -1.
          6    1    1    2  502    0 -0.80269567711E+02  0.27353140563E+03 -0.39377260596E+03  0.51565831572E+03  0.17200000000E+03 0. -1.
         -6    1    1    2    0  501  0.80269567711E+02 -0.27353140563E+03 -0.21227430790E+03  0.39485062386E+03  0.17200000000E+03 0.  1.
</event>
<event>
 4    1  0.3141404E-002  0.1779840E+03  0.7818608E-02  0.1169768E+00
         -3   -1    0    0    0  501 -0.00000000000E+00  0.00000000000E+00  0.69796752912E+03  0.69796752912E+03  0.00000000000E+00 0.  1.
          3   -1    0    0  502    0  0.00000000000E+00 -0.00000000000E+00 -0.52303090117E+02  0.52303090117E+02  0.00000000000E+00 0. -1.
          6    1    1    2  502    0  0.44464234454E+02  0.10828071761E+02  0.18641482545E+03  0.25773785603E+03  0.17200000000E+03 0. -1.
         -6    1    1    2    0  501 -0.44464234454E+02 -0.10828071761E+02  0.45924961355E+03  0.49253276321E+03  0.17200000000E+03 0.  1.
</event>
<event>
 4    1  0.3141404E-002  0.1799208E+03  0.7818608E-02  0.1167880E+00
          2   -1    0    0  502    0  0.00000000000E+00  0.00000000000E+00  0.59950659107E+03  0.59950659107E+03  0.00000000000E+00 0. -1.
         -2   -1    0    0    0  501 -0.00000000000E+00 -0.00000000000E+00 -0.74882275252E+02  0.74882275252E+02  0.00000000000E+00 0.  1.
          6    1    1    2  502    0 -0.18965469544E+02  0.49272751526E+02  0.44039090746E+03  0.47572643867E+03  0.17200000000E+03 0. -1.
         -6    1    1    2    0  501  0.18965469544E+02 -0.49272751526E+02  0.84233408366E+02  0.19866242766E+03  0.17200000000E+03 0.  1.
</event>
<event>
 4    1  0.3141404E-002  0.1836916E+03  0.7818608E-02  0.1164277E+00
         -3   -1    0    0    0  501 -0.00000000000E+00  0.00000000000E+00  0.17121752934E+03  0.17121752934E+03  0.00000000000E+00 0.  1.
          3   -1    0    0  502    0  0.00000000000E+00 -0.00000000000E+00 -0.22743230090E+03  0.22743230090E+03  0.00000000000E+00 0. -1.
          6    1    1    2  502    0  0.81176828600E+01  0.63974230434E+02 -0.10093080888E+03  0.20959395773E+03  0.17200000000E+03 0. -1.
         -6    1    1    2    0  501 -0.81176828600E+01 -0.63974230434E+02  0.44716037324E+02  0.18905587250E+03  0.17200000000E+03 0.  1.
</event>
<event>
 4    1  0.3141404E-002  0.7624743E+03  0.7818608E-02  0.9615981E-01
         -2   -1    0    0    0  501 -0.00000000000E+00  0.00000000000E+00  0.79424754311E+03  0.79424754311E+03  0.00000000000E+00 0.  1.
          2   -1    0    0  502    0  0.00000000000E+00 -0.00000000000E+00 -0.73338445437E+03  0.73338445437E+03  0.00000000000E+00 0. -1.
          6    1    1    2  502    0 -0.41577462871E+02 -0.74165655546E+03 -0.30864009440E+01  0.76248059487E+03  0.17200000000E+03 0. -1.
         -6    1    1    2    0  501  0.41577462871E+02  0.74165655546E+03  0.63949489686E+02  0.76515140261E+03  0.17200000000E+03 0.  1.
</event>
<event>
 4    1  0.3141404E-002  0.3017830E+03  0.7818608E-02  0.1084353E+00
         -2   -1    0    0    0  501 -0.00000000000E+00  0.00000000000E+00  0.30111190229E+03  0.30111190229E+03  0.00000000000E+00 0.  1.
          2   -1    0    0  502    0  0.00000000000E+00 -0.00000000000E+00 -0.79460967811E+03  0.79460967811E+03  0.00000000000E+00 0. -1.
          6    1    1    2  502    0 -0.24718684568E+03 -0.19688256457E+02 -0.67791424902E+03  0.74205167822E+03  0.17200000000E+03 0. -1.
         -6    1    1    2    0  501  0.24718684568E+03  0.19688256457E+02  0.18441647320E+03  0.35366990218E+03  0.17200000000E+03 0.  1.
</event>
<event>
 4    1  0.3141404E-002  0.1880746E+03  0.7818608E-02  0.1160209E+00
          2   -1    0    0  502    0  0.00000000000E+00  0.00000000000E+00  0.42892938352E+03  0.42892938352E+03  0.00000000000E+00 0. -1.
         -2   -1    0    0    0  501 -0.00000000000E+00 -0.00000000000E+00 -0.96257812764E+02  0.96257812764E+02  0.00000000000E+00 0.  1.
          6    1    1    2  502    0  0.36200679506E+02  0.66914529027E+02  0.26573399148E+03  0.32555582873E+03  0.17200000000E+03 0. -1.
         -6    1    1    2    0  501 -0.36200679506E+02 -0.66914529027E+02  0.66937579275E+02  0.19963136755E+03  0.17200000000E+03 0.  1.
</event>
<event>
 4    1  0.3141404E-002  0.2025081E+03  0.7818608E-02  0.1147640E+00
          1   -1    0    0  502    0  0.00000000000E+00  0.00000000000E+00  0.11463743712E+04  0.11463743712E+04  0.00000000000E+00 0. -1.
         -1   -1    0    0    0  501 -0.00000000000E+00 -0.00000000000E+00 -0.45067532939E+02  0.45067532939E+02  0.00000000000E+00 0.  1.
          6    1    1    2  502    0 -0.37064576453E+02 -0.10025840834E+03  0.82118566845E+03  0.84578687229E+03  0.17200000000E+03 0. -1.
         -6    1    1    2    0  501  0.37064576453E+02  0.10025840834E+03  0.28012116985E+03  0.34565503189E+03  0.17200000000E+03 0.  1.
</event>
<event>
 4    1  0.3141404E-002  0.1986796E+03  0.7818608E-02  0.1150858E+00
         -2   -1    0    0    0  501 -0.00000000000E+00  0.00000000000E+00  0.55345187718E+02  0.55345187718E+02  0.00000000000E+00 0.  1.
          2   -1    0    0  502    0  0.00000000000E+00 -0.00000000000E+00 -0.76135720237E+03  0.76135720237E+03  0.00000000000E+00 0. -1.
          6    1    1    2  502    0 -0.23104918638E+02 -0.96725175930E+02 -0.45567880500E+03  0.49710840895E+03  0.17200000000E+03 0.  1.
         -6    1    1    2    0  501  0.23104918638E+02  0.96725175930E+02 -0.25033320965E+03  0.31959398114E+03  0.17200000000E+03 0. -1.
</event>
<event>
 4    1  0.3141404E-002  0.1775491E+03  0.7818608E-02  0.1170196E+00
          3   -1    0    0  502    0  0.00000000000E+00  0.00000000000E+00  0.65507915908E+03  0.65507915908E+03  0.00000000000E+00 0. -1.
         -3   -1    0    0    0  501 -0.00000000000E+00 -0.00000000000E+00 -0.48141202024E+02  0.48141202024E+02  0.00000000000E+00 0.  1.
          6    1    1    2  502    0 -0.34603774426E+02 -0.27244309750E+02  0.29643398775E+03  0.34553839543E+03  0.17200000000E+03 0. -1.
         -6    1    1    2    0  501  0.34603774426E+02  0.27244309750E+02  0.31050396930E+03  0.35768196568E+03  0.17200000000E+03 0.  1.
</event>
<event>
 4    1  0.3141404E-002  0.3738570E+03  0.7818608E-02  0.1053228E+00
         -2   -1    0    0    0  501 -0.00000000000E+00  0.00000000000E+00  0.96460330219E+02  0.96460330219E+02  0.00000000000E+00 0.  1.
          2   -1    0    0  502    0  0.00000000000E+00 -0.00000000000E+00 -0.14881659287E+04  0.14881659287E+04  0.00000000000E+00 0. -1.
          6    1    1    2  502    0  0.24200888386E+03  0.22719319429E+03 -0.82442250568E+03  0.90523008968E+03  0.17200000000E+03 0. -1.
         -6    1    1    2    0  501 -0.24200888386E+03 -0.22719319429E+03 -0.56728309284E+03  0.67939616927E+03  0.17200000000E+03 0.  1.
</event>
<event>
 4    1  0.3141404E-002  0.4010827E+03  0.7818608E-02  0.1043405E+00
         -2   -1    0    0    0  501 -0.00000000000E+00  0.00000000000E+00  0.65971338371E+02  0.65971338371E+02  0.00000000000E+00 0.  1.
          2   -1    0    0  502    0  0.00000000000E+00 -0.00000000000E+00 -0.24689663431E+04  0.24689663431E+04  0.00000000000E+00 0. -1.
          6    1    1    2  502    0  0.63238062920E+02  0.35676925876E+03 -0.10605702918E+04  0.11338768453E+04  0.17200000000E+03 0. -1.
         -6    1    1    2    0  501 -0.63238062920E+02 -0.35676925876E+03 -0.13424247130E+04  0.14010608362E+04  0.17200000000E+03 0.  1.
</event>
<event>
 4    1  0.3141404E-002  0.3603631E+03  0.7818608E-02  0.1058440E+00
          4   -1    0    0  502    0  0.00000000000E+00  0.00000000000E+00  0.17002400396E+03  0.17002400396E+03  0.00000000000E+00 0. -1.
         -4   -1    0    0    0  501 -0.00000000000E+00 -0.00000000000E+00 -0.77968594558E+03  0.77968594558E+03  0.00000000000E+00 0.  1.
          6    1    1    2  502    0 -0.13825156787E+03 -0.28489302101E+03 -0.23701483356E+03  0.43132071683E+03  0.17200000000E+03 0. -1.
         -6    1    1    2    0  501  0.13825156787E+03  0.28489302101E+03 -0.37264710806E+03  0.51838923270E+03  0.17200000000E+03 0.  1.
</event>
<event>
 4    1  0.3141404E-002  0.2577813E+03  0.7818608E-02  0.1108484E+00
         -1   -1    0    0    0  501 -0.00000000000E+00  0.00000000000E+00  0.72510481462E+03  0.72510481462E+03  0.00000000000E+00 0.  1.
          1   -1    0    0  502    0  0.00000000000E+00 -0.00000000000E+00 -0.12032521828E+03  0.12032521828E+03  0.00000000000E+00 0. -1.
          6    1    1    2  502    0  0.14220319526E+03  0.12901727909E+03  0.96008061924E+02  0.27507954304E+03  0.17200000000E+03 0. -1.
         -6    1    1    2    0  501 -0.14220319526E+03 -0.12901727909E+03  0.50877153442E+03  0.57035048985E+03  0.17200000000E+03 0.  1.
</event>
<event>
 4    1  0.3141404E-002  0.1762372E+03  0.7818608E-02  0.1171495E+00
          2   -1    0    0  502    0  0.00000000000E+00  0.00000000000E+00  0.12997378983E+04  0.12997378983E+04  0.00000000000E+00 0. -1.
         -2   -1    0    0    0  501 -0.00000000000E+00 -0.00000000000E+00 -0.24762018938E+02  0.24762018938E+02  0.00000000000E+00 0.  1.
          6    1    1    2  502    0 -0.36502275443E+02 -0.11963229583E+02  0.51369383545E+03  0.54308460810E+03  0.17200000000E+03 0.  1.
         -6    1    1    2    0  501  0.36502275443E+02  0.11963229583E+02  0.76128204392E+03  0.78141530915E+03  0.17200000000E+03 0.  1.
</event>
<event>
 4    1  0.3141404E-002  0.1740902E+03  0.7818608E-02  0.1173648E+00
         -3   -1    0    0    0  501 -0.00000000000E+00  0.00000000000E+00  0.10677563331E+04  0.10677563331E+04  0.00000000000E+00 0.  1.
          3   -1    0    0  502    0  0.00000000000E+00 -0.00000000000E+00 -0.56846627302E+02  0.56846627302E+02  0.00000000000E+00 0. -1.
          6    1    1    2  502    0 -0.42719752643E+01  0.26554759290E+02  0.10757415318E+03  0.20464506700E+03  0.17200000000E+03 0. -1.
         -6    1    1    2    0  501  0.42719752643E+01 -0.26554759290E+02  0.90333555257E+03  0.91995789336E+03  0.17200000000E+03 0.  1.
</event>
<event>
 4    1  0.3141404E-002  0.3051283E+03  0.7818608E-02  0.1082705E+00
          1   -1    0    0  502    0  0.00000000000E+00  0.00000000000E+00  0.12582306641E+04  0.12582306641E+04  0.00000000000E+00 0. -1.
         -1   -1    0    0    0  501 -0.00000000000E+00 -0.00000000000E+00 -0.88764959073E+02  0.88764959073E+02  0.00000000000E+00 0.  1.
          6    1    1    2  502    0  0.19096214668E+03  0.16447717960E+03  0.85945846019E+03  0.91201542140E+03  0.17200000000E+03 0. -1.
         -6    1    1    2    0  501 -0.19096214668E+03 -0.16447717960E+03  0.31000724479E+03  0.43498020173E+03  0.17200000000E+03 0.  1.
</event>
<event>
 4    1  0.3141404E-002  0.5145063E+03  0.7818608E-02  0.1010060E+00
          2   -1    0    0  502    0  0.00000000000E+00  0.00000000000E+00  0.64000772744E+03  0.64000772744E+03  0.00000000000E+00 0. -1.
         -2   -1    0    0    0  501 -0.00000000000E+00 -0.00000000000E+00 -0.41372537011E+03  0.41372537011E+03  0.00000000000E+00 0.  1.
          6    1    1    2  502    0  0.17318897881E+03  0.45292199964E+03  0.12174875864E+03  0.52871497082E+03  0.17200000000E+03 0. -1.
         -6    1    1    2    0  501 -0.17318897881E+03 -0.45292199964E+03  0.10453359869E+03  0.52501812673E+03  0.17200000000E+03 0.  1.
</event>
<event>
 4    1  0.3141404E-002  0.2809514E+03  0.7818608E-02  0.1095170E+00
         -2   -1    0    0    0  501 -0.00000000000E+00  0.00000000000E+00  0.20725708617E+02  0.20725708617E+02  0.00000000000E+00 0.  1.
          2   -1    0    0  502    0  0.00000000000E+00 -0.00000000000E+00 -0.38821419816E+04  0.38821419816E+04  0.00000000000E+00 0. -1.
          6    1    1    2  502    0  0.14414659454E+03 -0.16903091489E+03 -0.21994931777E+04  0.22173641852E+04  0.17200000000E+03 0. -1.
         -6    1    1    2    0  501 -0.14414659454E+03  0.16903091489E+03 -0.16619230952E+04  0.16855035050E+04  0.17200000000E+03 0.  1.
</event>
<event>
 4    1  0.3141404E-002  0.1853423E+03  0.7818608E-02  0.1162731E+00
         -2   -1    0    0    0  501 -0.00000000000E+00  0.00000000000E+00  0.92202665869E+02  0.92202665869E+02  0.00000000000E+00 0.  1.
          2   -1    0    0  502    0  0.00000000000E+00 -0.00000000000E+00 -0.64731006368E+03  0.64731006368E+03  0.00000000000E+00 0. -1.
          6    1    1    2  502    0  0.68551465828E+02 -0.82738318936E+01 -0.51844553572E+03  0.55057927065E+03  0.17200000000E+03 0. -1.
         -6    1    1    2    0  501 -0.68551465828E+02  0.82738318936E+01 -0.36661862097E+02  0.18893345890E+03  0.17200000000E+03 0.  1.
</event>
<event>
 4    1  0.3141404E-002  0.2084532E+03  0.7818608E-02  0.1142797E+00
          1   -1    0    0  502    0  0.00000000000E+00  0.00000000000E+00  0.18673716793E+04  0.18673716793E+04  0.00000000000E+00 0. -1.
         -1   -1    0    0    0  501 -0.00000000000E+00 -0.00000000000E+00 -0.23342377302E+02  0.23342377302E+02  0.00000000000E+00 0.  1.
          6    1    1    2  502    0  0.11013661209E+03 -0.41697177109E+02  0.86917707198E+03  0.89382409363E+03  0.17200000000E+03 0. -1.
         -6    1    1    2    0  501 -0.11013661209E+03  0.41697177109E+02  0.97485223006E+03  0.99688996301E+03  0.17200000000E+03 0.  1.
</event>
<event>
 4    1  0.3141404E-002  0.2501980E+03  0.7818608E-02  0.1113180E+00
          4   -1    0    0  502    0  0.00000000000E+00  0.00000000000E+00  0.34831453899E+03  0.34831453899E+03  0.00000000000E+00 0. -1.
         -4   -1    0    0    0  501 -0.00000000000E+00 -0.00000000000E+00 -0.18418431580E+03  0.18418431580E+03  0.00000000000E+00 0.  1.
          6    1    1    2  502    0 -0.17502055804E+03  0.48814488058E+02  0.40613133927E+02  0.25347283213E+03  0.17200000000E+03 0. -1.
         -6    1    1    2    0  501  0.17502055804E+03 -0.48814488058E+02  0.12351708927E+03  0.27902602266E+03  0.17200000000E+03 0.  1.
</event>
<event>
 4    1  0.3141404E-002  0.2870052E+03  0.7818608E-02  0.1091923E+00
         -1   -1    0    0    0  501 -0.00000000000E+00  0.00000000000E+00  0.40071706447E+02  0.40071706447E+02  0.00000000000E+00 0.  1.
          1   -1    0    0  502    0  0.00000000000E+00 -0.00000000000E+00 -0.32839471632E+04  0.32839471632E+04  0.00000000000E+00 0. -1.
          6    1    1    2  502    0 -0.22629442037E+03 -0.39734081798E+02 -0.60547025048E+03  0.67004939084E+03  0.17200000000E+03 0. -1.
         -6    1    1    2    0  501  0.22629442037E+03  0.39734081798E+02 -0.26384052063E+04  0.26539694788E+04  0.17200000000E+03 0. -1.
</event>
<event>
 4    1  0.3141404E-002  0.2574702E+03  0.7818608E-02  0.1108673E+00
         -2   -1    0    0    0  501 -0.00000000000E+00  0.00000000000E+00  0.15138701728E+03  0.15138701728E+03  0.00000000000E+00 0.  1.
          2   -1    0    0  502    0  0.00000000000E+00 -0.00000000000E+00 -0.89346360983E+03  0.89346360983E+03  0.00000000000E+00 0. -1.
          6    1    1    2  502    0  0.89189339638E+01  0.19138273887E+03 -0.74408648341E+03  0.78737258964E+03  0.17200000000E+03 0. -1.
         -6    1    1    2    0  501 -0.89189339638E+01 -0.19138273887E+03  0.20098908575E+01  0.25747803747E+03  0.17200000000E+03 0.  1.
</event>
<event>
 4    1  0.3141404E-002  0.2414284E+03  0.7818608E-02  0.1118845E+00
         -1   -1    0    0    0  501 -0.00000000000E+00  0.00000000000E+00  0.17115432826E+03  0.17115432826E+03  0.00000000000E+00 0.  1.
          1   -1    0    0  502    0  0.00000000000E+00 -0.00000000000E+00 -0.35244207150E+03  0.35244207150E+03  0.00000000000E+00 0. -1.
          6    1    1    2  502    0 -0.65722486490E+02 -0.15615452047E+03 -0.42566907681E+02  0.24515224070E+03  0.17200000000E+03 0. -1.
         -6    1    1    2    0  501  0.65722486490E+02  0.15615452047E+03 -0.13872083555E+03  0.27844415905E+03  0.17200000000E+03 0. -1.
</event>
<event>
 4    1  0.3141404E-002  0.2340488E+03  0.7818608E-02  0.1123822E+00
         -1   -1    0    0    0  501 -0.00000000000E+00  0.00000000000E+00  0.33534728906E+03  0.33534728906E+03  0.00000000000E+00 0.  1.
          1   -1    0    0  502    0  0.00000000000E+00 -0.00000000000E+00 -0.80036344799E+03  0.80036344799E+03  0.00000000000E+00 0. -1.
          6    1    1    2  502    0  0.12875155591E+03  0.92832506623E+02 -0.73911201318E+03  0.77528408049E+03  0.17200000000E+03 0. -1.
         -6    1    1    2    0  501 -0.12875155591E+03 -0.92832506623E+02  0.27409585426E+03  0.36042665655E+03  0.17200000000E+03 0.  1.
</event>
<event>
 4    1  0.3141404E-002  0.3192832E+03  0.7818608E-02  0.1075980E+00
         -2   -1    0    0    0  501 -0.00000000000E+00  0.00000000000E+00  0.31842638444E+03  0.31842638444E+03  0.00000000000E+00 0.  1.
          2   -1    0    0  502    0  0.00000000000E+00 -0.00000000000E+00 -0.61207032897E+03  0.61207032897E+03  0.00000000000E+00 0. -1.
          6    1    1    2  502    0  0.20785307368E+03 -0.17074795699E+03 -0.46813035682E+03  0.56664609416E+03  0.17200000000E+03 0. -1.
         -6    1    1    2    0  501 -0.20785307368E+03  0.17074795699E+03  0.17448641229E+03  0.36385061925E+03  0.17200000000E+03 0.  1.
</event>
<event>
 4    1  0.3141404E-002  0.1832749E+03  0.7818608E-02  0.1164671E+00
          4   -1    0    0  502    0  0.00000000000E+00  0.00000000000E+00  0.76821831631E+02  0.76821831631E+02  0.00000000000E+00 0. -1.
         -4   -1    0    0    0  501 -0.00000000000E+00 -0.00000000000E+00 -0.44445530606E+03  0.44445530606E+03  0.00000000000E+00 0.  1.
          6    1    1    2  502    0 -0.59356748648E+02 -0.21965404243E+02 -0.15061176925E+03  0.23722058855E+03  0.17200000000E+03 0. -1.
         -6    1    1    2    0  501  0.59356748648E+02  0.21965404243E+02 -0.21702170518E+03  0.28405654914E+03  0.17200000000E+03 0.  1.
</event>
<event>
 4    1  0.3141404E-002  0.2092329E+03  0.7818608E-02  0.1142175E+00
         -2   -1    0    0    0  501 -0.00000000000E+00  0.00000000000E+00  0.22943726385E+02  0.22943726385E+02  0.00000000000E+00 0.  1.
          2   -1    0    0  502    0  0.00000000000E+00 -0.00000000000E+00 -0.22733745573E+04  0.22733745573E+04  0.00000000000E+00 0. -1.
          6    1    1    2  502    0 -0.50859457910E+02  0.10773919867E+03 -0.66497009198E+03  0.69711092562E+03  0.17200000000E+03 0.  1.
         -6    1    1    2    0  501  0.50859457910E+02 -0.10773919867E+03 -0.15854607390E+04  0.15992073581E+04  0.17200000000E+03 0. -1.
</event>
<event>
 4    1  0.3141404E-002  0.5157031E+03  0.7818608E-02  0.1009760E+00
          2   -1    0    0  502    0  0.00000000000E+00  0.00000000000E+00  0.19375535436E+04  0.19375535436E+04  0.00000000000E+00 0. -1.
         -2   -1    0    0    0  501 -0.00000000000E+00 -0.00000000000E+00 -0.15832794647E+03  0.15832794647E+03  0.00000000000E+00 0.  1.
          6    1    1    2  502    0  0.33167556780E+03 -0.35546730007E+03  0.12718766859E+04  0.13724503590E+04  0.17200000000E+03 0. -1.
         -6    1    1    2    0  501 -0.33167556780E+03  0.35546730007E+03  0.50734891119E+03  0.72343113106E+03  0.17200000000E+03 0.  1.
</event>
<event>
 4    1  0.3141404E-002  0.1912110E+03  0.7818608E-02  0.1157374E+00
         -1   -1    0    0    0  501 -0.00000000000E+00  0.00000000000E+00  0.19966817320E+03  0.19966817320E+03  0.00000000000E+00 0.  1.
          1   -1    0    0  502    0  0.00000000000E+00 -0.00000000000E+00 -0.18540651590E+03  0.18540651590E+03  0.00000000000E+00 0. -1.
          6    1    1    2  502    0 -0.43690834353E+02  0.71195259886E+02  0.28549408279E+02  0.19333060479E+03  0.17200000000E+03 0. -1.
         -6    1    1    2    0  501  0.43690834353E+02 -0.71195259886E+02 -0.14287750979E+02  0.19174408430E+03  0.17200000000E+03 0.  1.
</event>
<event>
 4    1  0.3141404E-002  0.2104858E+03  0.7818608E-02  0.1141182E+00
          2   -1    0    0  502    0  0.00000000000E+00  0.00000000000E+00  0.25274815313E+04  0.25274815313E+04  0.00000000000E+00 0. -1.
         -2   -1    0    0    0  501 -0.00000000000E+00 -0.00000000000E+00 -0.18098627442E+02  0.18098627442E+02  0.00000000000E+00 0.  1.
          6    1    1    2  502    0 -0.11770016789E+03 -0.29444230487E+02  0.10288939742E+04  0.10502033624E+04  0.17200000000E+03 0. -1.
         -6    1    1    2    0  501  0.11770016789E+03  0.29444230487E+02  0.14804889296E+04  0.14953767963E+04  0.17200000000E+03 0.  1.
</event>
<event>
 4    1  0.3141404E-002  0.1982535E+03  0.7818608E-02  0.1151221E+00
         -1   -1    0    0    0  501 -0.00000000000E+00  0.00000000000E+00  0.19841301645E+03  0.19841301645E+03  0.00000000000E+00 0.  1.
          1   -1    0    0  502    0  0.00000000000E+00 -0.00000000000E+00 -0.20113360055E+03  0.20113360055E+03  0.00000000000E+00 0. -1.
          6    1    1    2  502    0 -0.54916146704E+02  0.81882127937E+02  0.23197523683E+02  0.19960608996E+03  0.17200000000E+03 0. -1.
         -6    1    1    2    0  501  0.54916146704E+02 -0.81882127937E+02 -0.25918107781E+02  0.19994052705E+03  0.17200000000E+03 0.  1.
</event>
<event>
 4    1  0.3141404E-002  0.2377107E+03  0.7818608E-02  0.1121327E+00
          2   -1    0    0  502    0  0.00000000000E+00  0.00000000000E+00  0.30976164722E+03  0.30976164722E+03  0.00000000000E+00 0. -1.
         -2   -1    0    0    0  501 -0.00000000000E+00 -0.00000000000E+00 -0.27498623080E+03  0.27498623080E+03  0.00000000000E+00 0.  1.
          6    1    1    2  502    0 -0.42957814144E+02 -0.15835719988E+03  0.18702138416E+03  0.30246218720E+03  0.17200000000E+03 0. -1.
         -6    1    1    2    0  501  0.42957814144E+02  0.15835719988E+03 -0.15224596774E+03  0.28228569082E+03  0.17200000000E+03 0.  1.
</event>
<event>
 4    1  0.3141404E-002  0.2610883E+03  0.7818608E-02  0.1106491E+00
         -2   -1    0    0    0  501 -0.00000000000E+00  0.00000000000E+00  0.24020389029E+03  0.24020389029E+03  0.00000000000E+00 0.  1.
          2   -1    0    0  502    0  0.00000000000E+00 -0.00000000000E+00 -0.12766583137E+04  0.12766583137E+04  0.00000000000E+00 0. -1.
          6    1    1    2  502    0  0.17008203254E+03  0.98260902687E+02 -0.11870713850E+04  0.12154446001E+04  0.17200000000E+03 0. -1.
         -6    1    1    2    0  501 -0.17008203254E+03 -0.98260902687E+02  0.15061696163E+03  0.30141760387E+03  0.17200000000E+03 0.  1.
</event>
<event>
 4    1  0.3141404E-002  0.2720085E+03  0.7818608E-02  0.1100136E+00
         -2   -1    0    0    0  501 -0.00000000000E+00  0.00000000000E+00  0.42640268593E+03  0.42640268593E+03  0.00000000000E+00 0.  1.
          2   -1    0    0  502    0  0.00000000000E+00 -0.00000000000E+00 -0.19477005709E+03  0.19477005709E+03  0.00000000000E+00 0. -1.
          6    1    1    2  502    0 -0.19307502785E+03  0.84419525890E+02  0.13222817304E+02  0.27232970023E+03  0.17200000000E+03 0. -1.
         -6    1    1    2    0  501  0.19307502785E+03 -0.84419525890E+02  0.21840981154E+03  0.34884304280E+03  0.17200000000E+03 0.  1.
</event>
<event>
 4    1  0.3141404E-002  0.1990331E+03  0.7818608E-02  0.1150557E+00
         -3   -1    0    0    0  501 -0.00000000000E+00  0.00000000000E+00  0.30139789496E+03  0.30139789496E+03  0.00000000000E+00 0.  1.
          3   -1    0    0  502    0  0.00000000000E+00 -0.00000000000E+00 -0.13513552716E+03  0.13513552716E+03  0.00000000000E+00 0. -1.
          6    1    1    2  502    0  0.41818730870E+02  0.91002044644E+02  0.11925095873E+03  0.23202364004E+03  0.17200000000E+03 0.  1.
         -6    1    1    2    0  501 -0.41818730870E+02 -0.91002044644E+02  0.47011409075E+02  0.20450978207E+03  0.17200000000E+03 0.  1.
</event>
<event>
 4    1  0.3141404E-002  0.1951842E+03  0.7818608E-02  0.1153867E+00
          1   -1    0    0  502    0  0.00000000000E+00  0.00000000000E+00  0.15432303468E+04  0.15432303468E+04  0.00000000000E+00 0. -1.
         -1   -1    0    0    0  501 -0.00000000000E+00 -0.00000000000E+00 -0.31257972254E+02  0.31257972254E+02  0.00000000000E+00 0.  1.
          6    1    1    2  502    0  0.92081808344E+02  0.58145405921E+01  0.11169488342E+04  0.11338745815E+04  0.17200000000E+03 0. -1.
         -6    1    1    2    0  501 -0.92081808344E+02 -0.58145405921E+01  0.39502354036E+03  0.44061373758E+03  0.17200000000E+03 0.  1.
</event>
<event>
 4    1  0.3141404E-002  0.4365972E+03  0.7818608E-02  0.1031796E+00
          2   -1    0    0  502    0  0.00000000000E+00  0.00000000000E+00  0.97897024912E+03  0.97897024912E+03  0.00000000000E+00 0. -1.
         -2   -1    0    0    0  501 -0.00000000000E+00 -0.00000000000E+00 -0.29864341239E+03  0.29864341239E+03  0.00000000000E+00 0.  1.
          6    1    1    2  502    0 -0.36242993498E+03 -0.17227195040E+03  0.71701198215E+03  0.83947797184E+03  0.17200000000E+03 0. -1.
         -6    1    1    2    0  501  0.36242993498E+03  0.17227195040E+03 -0.36685145415E+02  0.43813568966E+03  0.17200000000E+03 0.  1.
</event>
<event>
 4    1  0.3141404E-002  0.2100350E+03  0.7818608E-02  0.1141538E+00
         -2   -1    0    0    0  501 -0.00000000000E+00  0.00000000000E+00  0.19172789725E+02  0.19172789725E+02  0.00000000000E+00 0.  1.
          2   -1    0    0  502    0  0.00000000000E+00 -0.00000000000E+00 -0.24835021625E+04  0.24835021625E+04  0.00000000000E+00 0. -1.
          6    1    1    2  502    0 -0.11700746985E+03  0.28981873104E+02 -0.89285709053E+03  0.91722869617E+03  0.17200000000E+03 0.  1.
         -6    1    1    2    0  501  0.11700746985E+03 -0.28981873104E+02 -0.15714722823E+04  0.15854462561E+04  0.17200000000E+03 0.  1.
</event>
<event>
 4    1  0.3141404E-002  0.2175760E+03  0.7818608E-02  0.1135703E+00
         -2   -1    0    0    0  501 -0.00000000000E+00  0.00000000000E+00  0.39137485525E+02  0.39137485525E+02  0.00000000000E+00 0.  1.
          2   -1    0    0  502    0  0.00000000000E+00 -0.00000000000E+00 -0.12779906427E+04  0.12779906427E+04  0.00000000000E+00 0. -1.
          6    1    1    2  502    0 -0.13319962777E+03 -0.36288390472E+01 -0.77181273991E+03  0.80189414189E+03  0.17200000000E+03 0. -1.
         -6    1    1    2    0  501  0.13319962777E+03  0.36288390472E+01 -0.46704041723E+03  0.51523398630E+03  0.17200000000E+03 0.  1.
</event>
<event>
 4    1  0.3141404E-002  0.2308940E+03  0.7818608E-02  0.1126012E+00
         -1   -1    0    0    0  501 -0.00000000000E+00  0.00000000000E+00  0.12935542928E+03  0.12935542928E+03  0.00000000000E+00 0.  1.
          1   -1    0    0  502    0  0.00000000000E+00 -0.00000000000E+00 -0.57027427775E+03  0.57027427775E+03  0.00000000000E+00 0. -1.
          6    1    1    2  502    0 -0.19750918507E+02 -0.15276759284E+03 -0.40467009441E+03  0.46590763195E+03  0.17200000000E+03 0. -1.
         -6    1    1    2    0  501  0.19750918507E+02  0.15276759284E+03 -0.36248754065E+02  0.23372207507E+03  0.17200000000E+03 0.  1.
</event>
<event>
 4    1  0.3141404E-002  0.2949457E+03  0.7818608E-02  0.1087795E+00
          1   -1    0    0  502    0  0.00000000000E+00  0.00000000000E+00  0.19035748999E+04  0.19035748999E+04  0.00000000000E+00 0. -1.
         -1   -1    0    0    0  501 -0.00000000000E+00 -0.00000000000E+00 -0.46223476428E+02  0.46223476428E+02  0.00000000000E+00 0.  1.
          6    1    1    2  502    0 -0.22933980228E+03 -0.69370374052E+02  0.82490863229E+03  0.87605207912E+03  0.17200000000E+03 0.  1.
         -6    1    1    2    0  501  0.22933980228E+03  0.69370374052E+02  0.10324427912E+04  0.10737462972E+04  0.17200000000E+03 0. -1.
</event>
<event>
 4    1  0.3141404E-002  0.2833308E+03  0.7818608E-02  0.1093884E+00
         -2   -1    0    0    0  501 -0.00000000000E+00  0.00000000000E+00  0.26279141719E+02  0.26279141719E+02  0.00000000000E+00 0.  1.
          2   -1    0    0  502    0  0.00000000000E+00 -0.00000000000E+00 -0.31162619878E+04  0.31162619878E+04  0.00000000000E+00 0. -1.
          6    1    1    2  502    0 -0.19648198989E+03  0.10994155378E+03 -0.17657406412E+04  0.17883278026E+04  0.17200000000E+03 0. -1.
         -6    1    1    2    0  501  0.19648198989E+03 -0.10994155378E+03 -0.13242422049E+04  0.13542133269E+04  0.17200000000E+03 0.  1.
</event>
<event>
 4    1  0.3141404E-002  0.2888380E+03  0.7818608E-02  0.1090957E+00
         -2   -1    0    0    0  501 -0.00000000000E+00  0.00000000000E+00  0.65768834020E+02  0.65768834020E+02  0.00000000000E+00 0.  1.
          2   -1    0    0  502    0  0.00000000000E+00 -0.00000000000E+00 -0.13672719058E+04  0.13672719058E+04  0.00000000000E+00 0. -1.
          6    1    1    2  502    0 -0.22927506356E+03  0.35725809157E+02 -0.84334007541E+03  0.89143136079E+03  0.17200000000E+03 0.  1.
         -6    1    1    2    0  501  0.22927506356E+03 -0.35725809157E+02 -0.45816299639E+03  0.54160937905E+03  0.17200000000E+03 0.  1.
</event>
<event>
 4    1  0.3141404E-002  0.4019908E+03  0.7818608E-02  0.1043093E+00
          2   -1    0    0  502    0  0.00000000000E+00  0.00000000000E+00  0.41254790030E+04  0.41254790030E+04  0.00000000000E+00 0. -1.
         -2   -1    0    0    0  501 -0.00000000000E+00 -0.00000000000E+00 -0.39171517642E+02  0.39171517642E+02  0.00000000000E+00 0.  1.
          6    1    1    2  502    0  0.30797906223E+03 -0.19277319796E+03  0.20319658470E+04  0.20713478250E+04  0.17200000000E+03 0. -1.
         -6    1    1    2    0  501 -0.30797906223E+03  0.19277319796E+03  0.20543416383E+04  0.20933026957E+04  0.17200000000E+03 0.  1.
</event>
<event>
 4    1  0.3141404E-002  0.2383705E+03  0.7818608E-02  0.1120883E+00
         -1   -1    0    0    0  501 -0.00000000000E+00  0.00000000000E+00  0.10234378527E+03  0.10234378527E+03  0.00000000000E+00 0.  1.
          1   -1    0    0  502    0  0.00000000000E+00 -0.00000000000E+00 -0.69100586578E+03  0.69100586578E+03  0.00000000000E+00 0. -1.
          6    1    1    2  502    0  0.13700049701E+03 -0.92018264289E+02 -0.47019024482E+03  0.52716161039E+03  0.17200000000E+03 0. -1.
         -6    1    1    2    0  501 -0.13700049701E+03  0.92018264289E+02 -0.11847183569E+03  0.26618804067E+03  0.17200000000E+03 0. -1.
</event>
<event>
 4    1  0.3141404E-002  0.2662013E+03  0.7818608E-02  0.1103474E+00
          2   -1    0    0  502    0  0.00000000000E+00  0.00000000000E+00  0.21032833351E+04  0.21032833351E+04  0.00000000000E+00 0. -1.
         -2   -1    0    0    0  501 -0.00000000000E+00 -0.00000000000E+00 -0.34922119763E+02  0.34922119763E+02  0.00000000000E+00 0.  1.
          6    1    1    2  502    0  0.67315958650E+01  0.20306117790E+03  0.12348581192E+04  0.12632251307E+04  0.17200000000E+03 0.  1.
         -6    1    1    2    0  501 -0.67315958650E+01 -0.20306117790E+03  0.83350309620E+03  0.87498032419E+03  0.17200000000E+03 0. -1.
</event>
<event>
 4    1  0.3141404E-002  0.2687738E+03  0.7818608E-02  0.1101983E+00
         -1   -1    0    0    0  501 -0.00000000000E+00  0.00000000000E+00  0.99726113017E+02  0.99726113017E+02  0.00000000000E+00 0.  1.
          1   -1    0    0  502    0  0.00000000000E+00 -0.00000000000E+00 -0.73921741664E+03  0.73921741664E+03  0.00000000000E+00 0. -1.
          6    1    1    2  502    0 -0.10683508604E+03 -0.17675305822E+03 -0.37917875969E+03  0.46477511874E+03  0.17200000000E+03 0.  1.
         -6    1    1    2    0  501  0.10683508604E+03  0.17675305822E+03 -0.26031254393E+03  0.37416841091E+03  0.17200000000E+03 0.  1.
</event>
<event>
 4    1  0.3141404E-002  0.1769480E+03  0.7818608E-02  0.1170790E+00
          2   -1    0    0  502    0  0.00000000000E+00  0.00000000000E+00  0.17930622230E+03  0.17930622230E+03  0.00000000000E+00 0. -1.
         -2   -1    0    0    0  501 -0.00000000000E+00 -0.00000000000E+00 -0.18525494612E+03  0.18525494612E+03  0.00000000000E+00 0.  1.
          6    1    1    2  502    0  0.38449953302E+02  0.15754213346E+02  0.40698034829E+02  0.18156796024E+03  0.17200000000E+03 0. -1.
         -6    1    1    2    0  501 -0.38449953302E+02 -0.15754213346E+02 -0.46646758650E+02  0.18299320818E+03  0.17200000000E+03 0.  1.
</event>
<event>
 4    1  0.3141404E-002  0.1824561E+03  0.7818608E-02  0.1165447E+00
         -1   -1    0    0    0  501 -0.00000000000E+00  0.00000000000E+00  0.52510623457E+02  0.52510623457E+02  0.00000000000E+00 0.  1.
          1   -1    0    0  502    0  0.00000000000E+00 -0.00000000000E+00 -0.63918753684E+03  0.63918753684E+03  0.00000000000E+00 0. -1.
          6    1    1    2  502    0  0.45187614023E+02 -0.40796050800E+02 -0.32458077084E+03  0.37234784143E+03  0.17200000000E+03 0. -1.
         -6    1    1    2    0  501 -0.45187614023E+02  0.40796050800E+02 -0.26209614255E+03  0.31935031887E+03  0.17200000000E+03 0.  1.
</event>
<event>
 4    1  0.3141404E-002  0.1723282E+03  0.7818608E-02  0.1175441E+00
         -2   -1    0    0    0  501 -0.00000000000E+00  0.00000000000E+00  0.90525696274E+01  0.90525696274E+01  0.00000000000E+00 0.  1.
          2   -1    0    0  502    0  0.00000000000E+00 -0.00000000000E+00 -0.32809803689E+04  0.32809803689E+04  0.00000000000E+00 0. -1.
          6    1    1    2  502    0 -0.23664388612E+01  0.10364486190E+02 -0.16162153011E+04  0.16253765478E+04  0.17200000000E+03 0.  1.
         -6    1    1    2    0  501  0.23664388612E+01 -0.10364486190E+02 -0.16557124982E+04  0.16646563908E+04  0.17200000000E+03 0.  1.
</event>
<event>
 4    1  0.3141404E-002  0.3551669E+03  0.7818608E-02  0.1060514E+00
          2   -1    0    0  502    0  0.00000000000E+00  0.00000000000E+00  0.45038810695E+03  0.45038810695E+03  0.00000000000E+00 0. -1.
         -2   -1    0    0    0  501 -0.00000000000E+00 -0.00000000000E+00 -0.29573288567E+03  0.29573288567E+03  0.00000000000E+00 0.  1.
          6    1    1    2  502    0 -0.26384295586E+03 -0.16415364506E+03  0.16316231055E+03  0.39085222800E+03  0.17200000000E+03 0.  1.
         -6    1    1    2    0  501  0.26384295586E+03  0.16415364506E+03 -0.85070892727E+01  0.35526876462E+03  0.17200000000E+03 0.  1.
</event>
<event>
 4    1  0.3141404E-002  0.1920963E+03  0.7818608E-02  0.1156584E+00
          1   -1    0    0  502    0  0.00000000000E+00  0.00000000000E+00  0.71015597104E+03  0.71015597104E+03  0.00000000000E+00 0. -1.
         -1   -1    0    0    0  501 -0.00000000000E+00 -0.00000000000E+00 -0.58326434222E+02  0.58326434222E+02  0.00000000000E+00 0.  1.
          6    1    1    2  502    0  0.78537435240E+02  0.33894980695E+02  0.45284269326E+03  0.49190192446E+03  0.17200000000E+03 0. -1.
         -6    1    1    2    0  501 -0.78537435240E+02 -0.33894980695E+02  0.19898684356E+03  0.27658048080E+03  0.17200000000E+03 0.  1.
</event>
<event>
 4    1  0.3141404E-002  0.1923866E+03  0.7818608E-02  0.1156326E+00
         -4   -1    0    0    0  501 -0.00000000000E+00  0.00000000000E+00  0.23494990620E+02  0.23494990620E+02  0.00000000000E+00 0.  1.
          4   -1    0    0  502    0  0.00000000000E+00 -0.00000000000E+00 -0.16190547171E+04  0.16190547171E+04  0.00000000000E+00 0. -1.
          6    1    1    2  502    0 -0.99458832730E+01  0.85613639478E+02 -0.93272832345E+03  0.95236271516E+03  0.17200000000E+03 0. -1.
         -6    1    1    2    0  501  0.99458832730E+01 -0.85613639478E+02 -0.66283140304E+03  0.69018699257E+03  0.17200000000E+03 0.  1.
</event>
<event>
 4    1  0.3141404E-002  0.2358302E+03  0.7818608E-02  0.1122602E+00
         -2   -1    0    0    0  501 -0.00000000000E+00  0.00000000000E+00  0.50558786515E+02  0.50558786515E+02  0.00000000000E+00 0.  1.
          2   -1    0    0  502    0  0.00000000000E+00 -0.00000000000E+00 -0.21737649669E+04  0.21737649669E+04  0.00000000000E+00 0. -1.
          6    1    1    2  502    0 -0.16065863305E+03  0.14855405868E+02 -0.27995464293E+03  0.36604710291E+03  0.17200000000E+03 0.  1.
         -6    1    1    2    0  501  0.16065863305E+03 -0.14855405868E+02 -0.18432515374E+04  0.18582766505E+04  0.17200000000E+03 0. -1.
</event>
<event>
 4    1  0.3141404E-002  0.1801887E+03  0.7818608E-02  0.1167621E+00
          2   -1    0    0  502    0  0.00000000000E+00  0.00000000000E+00  0.26486309608E+04  0.26486309608E+04  0.00000000000E+00 0. -1.
         -2   -1    0    0    0  501 -0.00000000000E+00 -0.00000000000E+00 -0.13963160293E+02  0.13963160293E+02  0.00000000000E+00 0.  1.
          6    1    1    2  502    0 -0.51417749566E+02 -0.15498075974E+02  0.17825073182E+04  0.17915915592E+04  0.17200000000E+03 0. -1.
         -6    1    1    2    0  501  0.51417749566E+02  0.15498075974E+02  0.85216048225E+03  0.87100256190E+03  0.17200000000E+03 0.  1.
</event>
<event>
 4    1  0.3141404E-002  0.2003069E+03  0.7818608E-02  0.1149480E+00
          1   -1    0    0  502    0  0.00000000000E+00  0.00000000000E+00  0.22345252640E+04  0.22345252640E+04  0.00000000000E+00 0. -1.
         -1   -1    0    0    0  501 -0.00000000000E+00 -0.00000000000E+00 -0.21383747872E+02  0.21383747872E+02  0.00000000000E+00 0.  1.
          6    1    1    2  502    0  0.10262100189E+03 -0.27892891547E+01  0.65496216278E+03  0.68490750093E+03  0.17200000000E+03 0.  1.
         -6    1    1    2    0  501 -0.10262100189E+03  0.27892891547E+01  0.15581793533E+04  0.15710015109E+04  0.17200000000E+03 0. -1.
</event>
<event>
 4    1  0.3141404E-002  0.2211859E+03  0.7818608E-02  0.1133002E+00
          2   -1    0    0  502    0  0.00000000000E+00  0.00000000000E+00  0.19577498467E+03  0.19577498467E+03  0.00000000000E+00 0. -1.
         -2   -1    0    0    0  501 -0.00000000000E+00 -0.00000000000E+00 -0.25874163682E+03  0.25874163682E+03  0.00000000000E+00 0.  1.
          6    1    1    2  502    0  0.69337120819E+02 -0.12054693993E+03  0.10538440104E+02  0.22143680762E+03  0.17200000000E+03 0. -1.
         -6    1    1    2    0  501 -0.69337120819E+02  0.12054693993E+03 -0.73505092252E+02  0.23307981388E+03  0.17200000000E+03 0. -1.
</event>
<event>
 4    1  0.3141404E-002  0.1909683E+03  0.7818608E-02  0.1157591E+00
         -2   -1    0    0    0  501 -0.00000000000E+00  0.00000000000E+00  0.16384039958E+02  0.16384039958E+02  0.00000000000E+00 0.  1.
          2   -1    0    0  502    0  0.00000000000E+00 -0.00000000000E+00 -0.24787346624E+04  0.24787346624E+04  0.00000000000E+00 0. -1.
          6    1    1    2  502    0 -0.61535751567E+02  0.55661740914E+02 -0.16296338934E+04  0.16407850269E+04  0.17200000000E+03 0. -1.
         -6    1    1    2    0  501  0.61535751567E+02 -0.55661740914E+02 -0.83271672908E+03  0.85433367545E+03  0.17200000000E+03 0.  1.
</event>
<event>
 4    1  0.3141404E-002  0.1900312E+03  0.7818608E-02  0.1158433E+00
         -2   -1    0    0    0  501 -0.00000000000E+00  0.00000000000E+00  0.12487844382E+03  0.12487844382E+03  0.00000000000E+00 0.  1.
          2   -1    0    0  502    0  0.00000000000E+00 -0.00000000000E+00 -0.30192268656E+03  0.30192268656E+03  0.00000000000E+00 0. -1.
          6    1    1    2  502    0 -0.13296624115E+02  0.79693461010E+02 -0.44674456304E+02  0.19521182082E+03  0.17200000000E+03 0. -1.
         -6    1    1    2    0  501  0.13296624115E+02 -0.79693461010E+02 -0.13236978644E+03  0.23158930956E+03  0.17200000000E+03 0. -1.
</event>
<event>
 4    1  0.3141404E-002  0.1951362E+03  0.7818608E-02  0.1153909E+00
         -1   -1    0    0    0  501 -0.00000000000E+00  0.00000000000E+00  0.10403571275E+03  0.10403571275E+03  0.00000000000E+00 0.  1.
          1   -1    0    0  502    0  0.00000000000E+00 -0.00000000000E+00 -0.78791267630E+03  0.78791267630E+03  0.00000000000E+00 0. -1.
          6    1    1    2  502    0  0.54860608614E+02 -0.74057199908E+02 -0.66828321516E+03  0.69619006809E+03  0.17200000000E+03 0. -1.
         -6    1    1    2    0  501 -0.54860608614E+02  0.74057199908E+02 -0.15593748393E+02  0.19575832096E+03  0.17200000000E+03 0.  1.
</event>
<event>
 4    1  0.3141404E-002  0.3209672E+03  0.7818608E-02  0.1075205E+00
          2   -1    0    0  502    0  0.00000000000E+00  0.00000000000E+00  0.14911637155E+04  0.14911637155E+04  0.00000000000E+00 0. -1.
         -2   -1    0    0    0  501 -0.00000000000E+00 -0.00000000000E+00 -0.87061607641E+02  0.87061607641E+02  0.00000000000E+00 0.  1.
          6    1    1    2  502    0  0.26985193002E+03 -0.24817174114E+02  0.10606061986E+04  0.11081089589E+04  0.17200000000E+03 0. -1.
         -6    1    1    2    0  501 -0.26985193002E+03  0.24817174114E+02  0.34349590930E+03  0.47011636429E+03  0.17200000000E+03 0.  1.
</event>
<event>
 4    1  0.3141404E-002  0.2771625E+03  0.7818608E-02  0.1097249E+00
         -2   -1    0    0    0  501 -0.00000000000E+00  0.00000000000E+00  0.14490761879E+03  0.14490761879E+03  0.00000000000E+00 0.  1.
          2   -1    0    0  502    0  0.00000000000E+00 -0.00000000000E+00 -0.87998596369E+03  0.87998596369E+03  0.00000000000E+00 0. -1.
          6    1    1    2  502    0 -0.11962725175E+03 -0.18145081579E+03 -0.69065554488E+03  0.74419363044E+03  0.17200000000E+03 0. -1.
         -6    1    1    2    0  501  0.11962725175E+03  0.18145081579E+03 -0.44422800013E+02  0.28069995204E+03  0.17200000000E+03 0.  1.
</event>
<event>
 4    1  0.3141404E-002  0.1761035E+03  0.7818608E-02  0.1171628E+00
          2   -1    0    0  502    0  0.00000000000E+00  0.00000000000E+00  0.78354779027E+03  0.78354779027E+03  0.00000000000E+00 0. -1.
         -2   -1    0    0    0  501 -0.00000000000E+00 -0.00000000000E+00 -0.10472666914E+03  0.10472666914E+03  0.00000000000E+00 0.  1.
          6    1    1    2  502    0 -0.35277155467E+02  0.13562985972E+02  0.68970746350E+03  0.71183482459E+03  0.17200000000E+03 0. -1.
         -6    1    1    2    0  501  0.35277155467E+02 -0.13562985972E+02 -0.10886342367E+02  0.17643963482E+03  0.17200000000E+03 0.  1.
</event>
<event>
 4    1  0.3141404E-002  0.1987100E+03  0.7818608E-02  0.1150832E+00
         -2   -1    0    0    0  501 -0.00000000000E+00  0.00000000000E+00  0.17034419811E+03  0.17034419811E+03  0.00000000000E+00 0.  1.
          2   -1    0    0  502    0  0.00000000000E+00 -0.00000000000E+00 -0.47452824794E+03  0.47452824794E+03  0.00000000000E+00 0. -1.
          6    1    1    2  502    0  0.68325072071E+01 -0.99272208664E+02  0.78515585830E+02  0.21365942943E+03  0.17200000000E+03 0.  1.
         -6    1    1    2    0  501 -0.68325072071E+01  0.99272208664E+02 -0.38269963565E+03  0.43121301661E+03  0.17200000000E+03 0. -1.
</event>
<event>
 4    1  0.3141404E-002  0.1741022E+03  0.7818608E-02  0.1173636E+00
         -2   -1    0    0    0  501 -0.00000000000E+00  0.00000000000E+00  0.13315699252E+02  0.13315699252E+02  0.00000000000E+00 0.  1.
          2   -1    0    0  502    0  0.00000000000E+00 -0.00000000000E+00 -0.22951334293E+04  0.22951334293E+04  0.00000000000E+00 0. -1.
          6    1    1    2  502    0 -0.18981394090E+02 -0.19164635062E+02 -0.12452461790E+04  0.12573581920E+04  0.17200000000E+03 0. -1.
         -6    1    1    2    0  501  0.18981394090E+02  0.19164635062E+02 -0.10365715510E+04  0.10510909366E+04  0.17200000000E+03 0.  1.
</event>
<event>
 4    1  0.3141404E-002  0.2497231E+03  0.7818608E-02  0.1113480E+00
         -1   -1    0    0    0  501 -0.00000000000E+00  0.00000000000E+00  0.11712771823E+03  0.11712771823E+03  0.00000000000E+00 0.  1.
          1   -1    0    0  502    0  0.00000000000E+00 -0.00000000000E+00 -0.58009378364E+03  0.58009378364E+03  0.00000000000E+00 0. -1.
          6    1    1    2  502    0 -0.14494590066E+03 -0.10848183210E+03 -0.13154915818E+03  0.28225308330E+03  0.17200000000E+03 0.  1.
         -6    1    1    2    0  501  0.14494590066E+03  0.10848183210E+03 -0.33141690722E+03  0.41496841856E+03  0.17200000000E+03 0.  1.
</event>
<event>
 4    1  0.3141404E-002  0.2938183E+03  0.7818608E-02  0.1088372E+00
          2   -1    0    0  502    0  0.00000000000E+00  0.00000000000E+00  0.39636871973E+02  0.39636871973E+02  0.00000000000E+00 0. -1.
         -2   -1    0    0    0  501 -0.00000000000E+00 -0.00000000000E+00 -0.57138611587E+04  0.57138611587E+04  0.00000000000E+00 0.  1.
          6    1    1    2  502    0 -0.46959365828E+02  0.23353802735E+03 -0.57411189645E+03  0.64492919139E+03  0.17200000000E+03 0. -1.
         -6    1    1    2    0  501  0.46959365828E+02 -0.23353802735E+03 -0.51001123903E+04  0.51085688393E+04  0.17200000000E+03 0.  1.
</event>
<event>
 4    1  0.3141404E-002  0.2268235E+03  0.7818608E-02  0.1128896E+00
         -2   -1    0    0    0  501 -0.00000000000E+00  0.00000000000E+00  0.19323661679E+03  0.19323661679E+03  0.00000000000E+00 0.  1.
          2   -1    0    0  502    0  0.00000000000E+00 -0.00000000000E+00 -0.52354536647E+03  0.52354536647E+03  0.00000000000E+00 0. -1.
          6    1    1    2  502    0 -0.11204145467E+03 -0.96496582580E+02  0.86090683534E+02  0.24261179651E+03  0.17200000000E+03 0.  1.
         -6    1    1    2    0  501  0.11204145467E+03  0.96496582580E+02 -0.41639943321E+03  0.47417018674E+03  0.17200000000E+03 0. -1.
</event>
<event>
 4    1  0.3141404E-002  0.1907797E+03  0.7818608E-02  0.1157760E+00
         -1   -1    0    0    0  501 -0.00000000000E+00  0.00000000000E+00  0.69969625653E+03  0.69969625653E+03  0.00000000000E+00 0.  1.
          1   -1    0    0  502    0  0.00000000000E+00 -0.00000000000E+00 -0.70553731290E+02  0.70553731290E+02  0.00000000000E+00 0. -1.
          6    1    1    2  502    0 -0.68928561421E+02 -0.45406285869E+02  0.11717211369E+03  0.22388877061E+03  0.17200000000E+03 0. -1.
         -6    1    1    2    0  501  0.68928561421E+02  0.45406285869E+02  0.51197041155E+03  0.54636121721E+03  0.17200000000E+03 0.  1.
</event>
<event>
 4    1  0.3141404E-002  0.2130372E+03  0.7818608E-02  0.1139183E+00
          1   -1    0    0  502    0  0.00000000000E+00  0.00000000000E+00  0.23095768520E+03  0.23095768520E+03  0.00000000000E+00 0. -1.
         -1   -1    0    0    0  501 -0.00000000000E+00 -0.00000000000E+00 -0.20585685311E+03  0.20585685311E+03  0.00000000000E+00 0.  1.
          6    1    1    2  502    0  0.10451427849E+03  0.69840060811E+02 -0.33995342777E+02  0.21573259335E+03  0.17200000000E+03 0.  1.
         -6    1    1    2    0  501 -0.10451427849E+03 -0.69840060811E+02  0.59096174863E+02  0.22108194496E+03  0.17200000000E+03 0. -1.
</event>
<event>
 4    1  0.3141404E-002  0.6733725E+03  0.7818608E-02  0.9763884E-01
         -1   -1    0    0    0  501 -0.00000000000E+00  0.00000000000E+00  0.44837443816E+03  0.44837443816E+03  0.00000000000E+00 0.  1.
          1   -1    0    0  502    0  0.00000000000E+00 -0.00000000000E+00 -0.11495068139E+04  0.11495068139E+04  0.00000000000E+00 0. -1.
          6    1    1    2  502    0  0.19469375042E+03 -0.62124139800E+03 -0.62761760939E+03  0.92050768311E+03  0.17200000000E+03 0. -1.
         -6    1    1    2    0  501 -0.19469375042E+03  0.62124139800E+03 -0.73514766357E+02  0.67737356896E+03  0.17200000000E+03 0.  1.
</event>
<event>
 4    1  0.3141404E-002  0.1732452E+03  0.7818608E-02  0.1174505E+00
         -2   -1    0    0    0  501 -0.00000000000E+00  0.00000000000E+00  0.18872887207E+03  0.18872887207E+03  0.00000000000E+00 0.  1.
          2   -1    0    0  502    0  0.00000000000E+00 -0.00000000000E+00 -0.32884303264E+03  0.32884303264E+03  0.00000000000E+00 0. -1.
          6    1    1    2  502    0  0.81427487074E+01 -0.19068389552E+02 -0.25602133635E+03  0.30912915182E+03  0.17200000000E+03 0. -1.
         -6    1    1    2    0  501 -0.81427487074E+01  0.19068389552E+02  0.11590717578E+03  0.20844275289E+03  0.17200000000E+03 0.  1.
</event>
<event>
 4    1  0.3141404E-002  0.1789736E+03  0.7818608E-02  0.1168800E+00
         -2   -1    0    0    0  501 -0.00000000000E+00  0.00000000000E+00  0.59336866630E+02  0.59336866630E+02  0.00000000000E+00 0.  1.
          2   -1    0    0  502    0  0.00000000000E+00 -0.00000000000E+00 -0.69993333167E+03  0.69993333167E+03  0.00000000000E+00 0. -1.
          6    1    1    2  502    0 -0.48063401794E+02  0.11724176823E+02 -0.13872807787E+03  0.22644431215E+03  0.17200000000E+03 0. -1.
         -6    1    1    2    0  501  0.48063401794E+02 -0.11724176823E+02 -0.50186838717E+03  0.53282588615E+03  0.17200000000E+03 0. -1.
</event>
<event>
 4    1  0.3141404E-002  0.6201879E+03  0.7818608E-02  0.9864386E-01
         -2   -1    0    0    0  501 -0.00000000000E+00  0.00000000000E+00  0.97670165900E+03  0.97670165900E+03  0.00000000000E+00 0.  1.
          2   -1    0    0  502    0  0.00000000000E+00 -0.00000000000E+00 -0.39446406917E+03  0.39446406917E+03  0.00000000000E+00 0. -1.
          6    1    1    2  502    0 -0.38888949996E+03 -0.45145764231E+03  0.31907580320E+03  0.69745423805E+03  0.17200000000E+03 0. -1.
         -6    1    1    2    0  501  0.38888949996E+03  0.45145764231E+03  0.26316178663E+03  0.67371149012E+03  0.17200000000E+03 0. -1.
</event>
<event>
 4    1  0.3141404E-002  0.5580427E+03  0.7818608E-02  0.9996493E-01
          2   -1    0    0  502    0  0.00000000000E+00  0.00000000000E+00  0.92882495169E+03  0.92882495169E+03  0.00000000000E+00 0. -1.
         -2   -1    0    0    0  501 -0.00000000000E+00 -0.00000000000E+00 -0.47568671810E+03  0.47568671810E+03  0.00000000000E+00 0.  1.
          6    1    1    2  502    0  0.33721114055E+03  0.41001990768E+03  0.60810615114E+03  0.82535130040E+03  0.17200000000E+03 0. -1.
         -6    1    1    2    0  501 -0.33721114055E+03 -0.41001990768E+03 -0.15496791756E+03  0.57916036940E+03  0.17200000000E+03 0.  1.
</event>
<event>
 4    1  0.3141404E-002  0.1902620E+03  0.7818608E-02  0.1158225E+00
         -2   -1    0    0    0  501 -0.00000000000E+00  0.00000000000E+00  0.10137250141E+04  0.10137250141E+04  0.00000000000E+00 0.  1.
          2   -1    0    0  502    0  0.00000000000E+00 -0.00000000000E+00 -0.37620690055E+02  0.37620690055E+02  0.00000000000E+00 0. -1.
          6    1    1    2  502    0 -0.36454371398E+02 -0.72709816241E+02  0.36957045949E+03  0.41567049823E+03  0.17200000000E+03 0. -1.
         -6    1    1    2    0  501  0.36454371398E+02  0.72709816241E+02  0.60653386451E+03  0.63567520587E+03  0.17200000000E+03 0.  1.
</event>
<event>
 4    1  0.3141404E-002  0.3898555E+03  0.7818608E-02  0.1047350E+00
         -2   -1    0    0    0  501 -0.00000000000E+00  0.00000000000E+00  0.19767023070E+03  0.19767023070E+03  0.00000000000E+00 0.  1.
          2   -1    0    0  502    0  0.00000000000E+00 -0.00000000000E+00 -0.89678889109E+03  0.89678889109E+03  0.00000000000E+00 0. -1.
          6    1    1    2  502    0  0.31592401904E+03 -0.15031736009E+03 -0.55621741990E+03  0.67923862725E+03  0.17200000000E+03 0. -1.
         -6    1    1    2    0  501 -0.31592401904E+03  0.15031736009E+03 -0.14290124050E+03  0.41522049454E+03  0.17200000000E+03 0.  1.
</event>
<event>
 4    1  0.3141404E-002  0.1740981E+03  0.7818608E-02  0.1173640E+00
          2   -1    0    0  502    0  0.00000000000E+00  0.00000000000E+00  0.14663631998E+04  0.14663631998E+04  0.00000000000E+00 0. -1.
         -2   -1    0    0    0  501 -0.00000000000E+00 -0.00000000000E+00 -0.27078216253E+02  0.27078216253E+02  0.00000000000E+00 0.  1.
          6    1    1    2  502    0 -0.71232195204E+01 -0.25988398076E+02  0.10828938775E+04  0.10967995656E+04  0.17200000000E+03 0. -1.
         -6    1    1    2    0  501  0.71232195204E+01  0.25988398076E+02  0.35639110605E+03  0.39664185049E+03  0.17200000000E+03 0.  1.
</event>
<event>
 4    1  0.3141404E-002  0.1828450E+03  0.7818608E-02  0.1165078E+00
          1   -1    0    0  502    0  0.00000000000E+00  0.00000000000E+00  0.42740963954E+02  0.42740963954E+02  0.00000000000E+00 0. -1.
         -1   -1    0    0    0  501 -0.00000000000E+00 -0.00000000000E+00 -0.80059875852E+03  0.80059875852E+03  0.00000000000E+00 0.  1.
          6    1    1    2  502    0  0.60452426505E+02  0.13920641545E+02 -0.44284010521E+03  0.47910295231E+03  0.17200000000E+03 0.  1.
         -6    1    1    2    0  501 -0.60452426505E+02 -0.13920641545E+02 -0.31501768936E+03  0.36423677017E+03  0.17200000000E+03 0. -1.
</event>
<event>
 4    1  0.3141404E-002  0.1808951E+03  0.7818608E-02  0.1166940E+00
         -1   -1    0    0    0  501 -0.00000000000E+00  0.00000000000E+00  0.25879379450E+03  0.25879379450E+03  0.00000000000E+00 0.  1.
          1   -1    0    0  502    0  0.00000000000E+00 -0.00000000000E+00 -0.14201043207E+03  0.14201043207E+03  0.00000000000E+00 0. -1.
          6    1    1    2  502    0  0.24542997081E+02 -0.50365442781E+02  0.12474009874E+03  0.21973422302E+03  0.17200000000E+03 0.  1.
         -6    1    1    2    0  501 -0.24542997081E+02  0.50365442781E+02 -0.79567363147E+01  0.18107000355E+03  0.17200000000E+03 0.  1.
</event>
<event>
 4    1  0.3141404E-002  0.4733973E+03  0.7818608E-02  0.1020966E+00
          1   -1    0    0  502    0  0.00000000000E+00  0.00000000000E+00  0.19091137059E+04  0.19091137059E+04  0.00000000000E+00 0. -1.
         -1   -1    0    0    0  501 -0.00000000000E+00 -0.00000000000E+00 -0.17344149595E+03  0.17344149595E+03  0.00000000000E+00 0.  1.
          6    1    1    2  502    0 -0.37720475217E+03  0.22855538283E+03  0.27587177802E+03  0.54791443309E+03  0.17200000000E+03 0. -1.
         -6    1    1    2    0  501  0.37720475217E+03 -0.22855538283E+03  0.14598004319E+04  0.15346407688E+04  0.17200000000E+03 0.  1.
</event>
<event>
 4    1  0.3141404E-002  0.3586318E+03  0.7818608E-02  0.1059127E+00
         -2   -1    0    0    0  501 -0.00000000000E+00  0.00000000000E+00  0.62764527418E+02  0.62764527418E+02  0.00000000000E+00 0.  1.
          2   -1    0    0  502    0  0.00000000000E+00 -0.00000000000E+00 -0.20918844223E+04  0.20918844223E+04  0.00000000000E+00 0. -1.
          6    1    1    2  502    0  0.11816163689E+03  0.29166865611E+03 -0.11684590438E+04  0.12222574665E+04  0.17200000000E+03 0. -1.
         -6    1    1    2    0  501 -0.11816163689E+03 -0.29166865611E+03 -0.86066085113E+03  0.93239148326E+03  0.17200000000E+03 0.  1.
</event>
<event>
 4    1  0.3141404E-002  0.1783317E+03  0.7818608E-02  0.1169427E+00
          1   -1    0    0  502    0  0.00000000000E+00  0.00000000000E+00  0.15495812114E+04  0.15495812114E+04  0.00000000000E+00 0. -1.
         -1   -1    0    0    0  501 -0.00000000000E+00 -0.00000000000E+00 -0.29974067970E+02  0.29974067970E+02  0.00000000000E+00 0.  1.
          6    1    1    2  502    0 -0.20458086074E+02  0.42422591203E+02  0.31632754806E+03  0.36313265784E+03  0.17200000000E+03 0.  1.
         -6    1    1    2    0  501  0.20458086074E+02 -0.42422591203E+02  0.12032795954E+04  0.12164226215E+04  0.17200000000E+03 0. -1.
</event>
<event>
 4    1  0.3141404E-002  0.1742495E+03  0.7818608E-02  0.1173487E+00
          2   -1    0    0  502    0  0.00000000000E+00  0.00000000000E+00  0.11843028508E+04  0.11843028508E+04  0.00000000000E+00 0. -1.
         -2   -1    0    0    0  501 -0.00000000000E+00 -0.00000000000E+00 -0.25658501265E+02  0.25658501265E+02  0.00000000000E+00 0.  1.
          6    1    1    2  502    0 -0.15473508772E+02 -0.23226476348E+02  0.56213083245E+03  0.58851845465E+03  0.17200000000E+03 0.  1.
         -6    1    1    2    0  501  0.15473508772E+02  0.23226476348E+02  0.59651351709E+03  0.62144289741E+03  0.17200000000E+03 0. -1.
</event>
<event>
 4    1  0.3141404E-002  0.1930058E+03  0.7818608E-02  0.1155778E+00
         -2   -1    0    0    0  501 -0.00000000000E+00  0.00000000000E+00  0.72682217979E+02  0.72682217979E+02  0.00000000000E+00 0.  1.
          2   -1    0    0  502    0  0.00000000000E+00 -0.00000000000E+00 -0.82303663466E+03  0.82303663466E+03  0.00000000000E+00 0. -1.
          6    1    1    2  502    0  0.45327129315E+01 -0.87445386884E+02 -0.10008827437E+03  0.21741412981E+03  0.17200000000E+03 0.  1.
         -6    1    1    2    0  501 -0.45327129315E+01  0.87445386884E+02 -0.65026614231E+03  0.67830472283E+03  0.17200000000E+03 0. -1.
</event>
<event>
 4    1  0.3141404E-002  0.3415557E+03  0.7818608E-02  0.1066135E+00
         -1   -1    0    0    0  501 -0.00000000000E+00  0.00000000000E+00  0.64481561871E+02  0.64481561871E+02  0.00000000000E+00 0.  1.
          1   -1    0    0  502    0  0.00000000000E+00 -0.00000000000E+00 -0.18201424706E+04  0.18201424706E+04  0.00000000000E+00 0. -1.
          6    1    1    2  502    0 -0.33604096862E+02 -0.29316731940E+03 -0.80478109835E+03  0.87426136181E+03  0.17200000000E+03 0.  1.
         -6    1    1    2    0  501  0.33604096862E+02  0.29316731940E+03 -0.95087981042E+03  0.10103626707E+04  0.17200000000E+03 0.  1.
</event>
<event>
 4    1  0.3141404E-002  0.2222905E+03  0.7818608E-02  0.1132187E+00
         -2   -1    0    0    0  501 -0.00000000000E+00  0.00000000000E+00  0.44341998275E+02  0.44341998275E+02  0.00000000000E+00 0.  1.
          2   -1    0    0  502    0  0.00000000000E+00 -0.00000000000E+00 -0.12368966906E+04  0.12368966906E+04  0.00000000000E+00 0. -1.
          6    1    1    2  502    0  0.14733784977E+02 -0.14004271649E+03 -0.79791076106E+03  0.82829622085E+03  0.17200000000E+03 0. -1.
         -6    1    1    2    0  501 -0.14733784977E+02  0.14004271649E+03 -0.39464393131E+03  0.45294246807E+03  0.17200000000E+03 0.  1.
</event>
<event>
 4    1  0.3141404E-002  0.2146793E+03  0.7818608E-02  0.1137913E+00
         -1   -1    0    0    0  501 -0.00000000000E+00  0.00000000000E+00  0.48395979986E+02  0.48395979986E+02  0.00000000000E+00 0.  1.
          1   -1    0    0  502    0  0.00000000000E+00 -0.00000000000E+00 -0.99063819432E+03  0.99063819432E+03  0.00000000000E+00 0. -1.
          6    1    1    2  502    0  0.12757671284E+03 -0.15079316767E+02 -0.57333074897E+03  0.61220531782E+03  0.17200000000E+03 0. -1.
         -6    1    1    2    0  501 -0.12757671284E+03  0.15079316767E+02 -0.36891146537E+03  0.42682885649E+03  0.17200000000E+03 0.  1.
</event>
<event>
 4    1  0.3141404E-002  0.1950472E+03  0.7818608E-02  0.1153986E+00
         -2   -1    0    0    0  501 -0.00000000000E+00  0.00000000000E+00  0.70571372716E+02  0.70571372716E+02  0.00000000000E+00 0.  1.
          2   -1    0    0  502    0  0.00000000000E+00 -0.00000000000E+00 -0.54302209537E+03  0.54302209537E+03  0.00000000000E+00 0. -1.
          6    1    1    2  502    0  0.49935056182E+02  0.77239307408E+02 -0.26237452614E+03  0.32693089853E+03  0.17200000000E+03 0. -1.
         -6    1    1    2    0  501 -0.49935056182E+02 -0.77239307408E+02 -0.21007619652E+03  0.28666256956E+03  0.17200000000E+03 0. -1.
</event>
<event>
 4    1  0.3141404E-002  0.2168368E+03  0.7818608E-02  0.1136264E+00
         -1   -1    0    0    0  501 -0.00000000000E+00  0.00000000000E+00  0.17887044159E+03  0.17887044159E+03  0.00000000000E+00 0.  1.
          1   -1    0    0  502    0  0.00000000000E+00 -0.00000000000E+00 -0.55525970140E+03  0.55525970140E+03  0.00000000000E+00 0. -1.
          6    1    1    2  502    0  0.54713898193E+02 -0.12016901607E+03 -0.45456267406E+03  0.50363223460E+03  0.17200000000E+03 0. -1.
         -6    1    1    2    0  501 -0.54713898193E+02  0.12016901607E+03  0.78173414246E+02  0.23049790840E+03  0.17200000000E+03 0.  1.
</event>
<event>
 4    1  0.3141404E-002  0.1788282E+03  0.7818608E-02  0.1168942E+00
         -2   -1    0    0    0  501 -0.00000000000E+00  0.00000000000E+00  0.88490922588E+03  0.88490922588E+03  0.00000000000E+00 0.  1.
          2   -1    0    0  502    0  0.00000000000E+00 -0.00000000000E+00 -0.36160391668E+02  0.36160391668E+02  0.00000000000E+00 0. -1.
          6    1    1    2  502    0  0.33259402375E+02  0.35907304967E+02  0.43563829545E+03  0.47091426699E+03  0.17200000000E+03 0.  1.
         -6    1    1    2    0  501 -0.33259402375E+02 -0.35907304967E+02  0.41311053876E+03  0.45015535055E+03  0.17200000000E+03 0. -1.
</event>
<event>
 4    1  0.3141404E-002  0.2805896E+03  0.7818608E-02  0.1095367E+00
         -2   -1    0    0    0  501 -0.00000000000E+00  0.00000000000E+00  0.10722101360E+03  0.10722101360E+03  0.00000000000E+00 0.  1.
          2   -1    0    0  502    0  0.00000000000E+00 -0.00000000000E+00 -0.10668400660E+04  0.10668400660E+04  0.00000000000E+00 0. -1.
          6    1    1    2  502    0  0.20703193271E+03 -0.79273641947E+02 -0.80756076839E+03  0.85491808152E+03  0.17200000000E+03 0. -1.
         -6    1    1    2    0  501 -0.20703193271E+03  0.79273641947E+02 -0.15205828397E+03  0.31914299803E+03  0.17200000000E+03 0.  1.
</event>
<event>
 4    1  0.3141404E-002  0.2424288E+03  0.7818608E-02  0.1118185E+00
          1   -1    0    0  502    0  0.00000000000E+00  0.00000000000E+00  0.22623488776E+04  0.22623488776E+04  0.00000000000E+00 0. -1.
         -1   -1    0    0    0  501 -0.00000000000E+00 -0.00000000000E+00 -0.32756983825E+02  0.32756983825E+02  0.00000000000E+00 0.  1.
          6    1    1    2  502    0 -0.14845309715E+03 -0.84554102535E+02  0.16368279607E+04  0.16546835019E+04  0.17200000000E+03 0. -1.
         -6    1    1    2    0  501  0.14845309715E+03  0.84554102535E+02  0.59276393306E+03  0.64042235958E+03  0.17200000000E+03 0.  1.
</event>
<event>
 4    1  0.3141404E-002  0.1828692E+03  0.7818608E-02  0.1165055E+00
          2   -1    0    0  502    0  0.00000000000E+00  0.00000000000E+00  0.78353219743E+02  0.78353219743E+02  0.00000000000E+00 0. -1.
         -2   -1    0    0    0  501 -0.00000000000E+00 -0.00000000000E+00 -0.42680539672E+03  0.42680539672E+03  0.00000000000E+00 0.  1.
          6    1    1    2  502    0 -0.58191956365E+02 -0.21698815429E+02 -0.17331548536E+03  0.25195118543E+03  0.17200000000E+03 0.  1.
         -6    1    1    2    0  501  0.58191956365E+02  0.21698815429E+02 -0.17513669162E+03  0.25320743103E+03  0.17200000000E+03 0. -1.
</event>
<event>
 4    1  0.3141404E-002  0.3102982E+03  0.7818608E-02  0.1080203E+00
         -2   -1    0    0    0  501 -0.00000000000E+00  0.00000000000E+00  0.11824299095E+04  0.11824299095E+04  0.00000000000E+00 0.  1.
          2   -1    0    0  502    0  0.00000000000E+00 -0.00000000000E+00 -0.15959869237E+03  0.15959869237E+03  0.00000000000E+00 0. -1.
          6    1    1    2  502    0 -0.23352313650E+03  0.11030823951E+03  0.41808945050E+02  0.31310214127E+03  0.17200000000E+03 0. -1.
         -6    1    1    2    0  501  0.23352313650E+03 -0.11030823951E+03  0.98102227205E+03  0.10289264606E+04  0.17200000000E+03 0.  1.
</event>
<event>
 4    1  0.3141404E-002  0.1986648E+03  0.7818608E-02  0.1150870E+00
          2   -1    0    0  502    0  0.00000000000E+00  0.00000000000E+00  0.26503847630E+04  0.26503847630E+04  0.00000000000E+00 0. -1.
         -2   -1    0    0    0  501 -0.00000000000E+00 -0.00000000000E+00 -0.18183110795E+02  0.18183110795E+02  0.00000000000E+00 0.  1.
          6    1    1    2  502    0  0.22441572740E+02 -0.96850838043E+02  0.18838163130E+04  0.18942628145E+04  0.17200000000E+03 0. -1.
         -6    1    1    2    0  501 -0.22441572740E+02  0.96850838043E+02  0.74838533919E+03  0.77430505934E+03  0.17200000000E+03 0.  1.
</event>
<event>
 4    1  0.3141404E-002  0.2855849E+03  0.7818608E-02  0.1092677E+00
          4   -1    0    0  502    0  0.00000000000E+00  0.00000000000E+00  0.15606378327E+03  0.15606378327E+03  0.00000000000E+00 0. -1.
         -4   -1    0    0    0  501 -0.00000000000E+00 -0.00000000000E+00 -0.63421839269E+03  0.63421839269E+03  0.00000000000E+00 0.  1.
          6    1    1    2  502    0 -0.15858739070E+03 -0.16378266876E+03 -0.73308320726E+02  0.29484374330E+03  0.17200000000E+03 0. -1.
         -6    1    1    2    0  501  0.15858739070E+03  0.16378266876E+03 -0.40484628870E+03  0.49543843265E+03  0.17200000000E+03 0.  1.
</event>
<event>
 4    1  0.3141404E-002  0.1181646E+04  0.7818608E-02  0.9129075E-01
          2   -1    0    0  502    0  0.00000000000E+00  0.00000000000E+00  0.33261272086E+04  0.33261272086E+04  0.00000000000E+00 0. -1.
         -2   -1    0    0    0  501 -0.00000000000E+00 -0.00000000000E+00 -0.42075055356E+03  0.42075055356E+03  0.00000000000E+00 0.  1.
          6    1    1    2  502    0  0.94180089511E+03 -0.69261456414E+03  0.15420205415E+04  0.19427082156E+04  0.17200000000E+03 0. -1.
         -6    1    1    2    0  501 -0.94180089511E+03  0.69261456414E+03  0.13633561135E+04  0.18041695465E+04  0.17200000000E+03 0.  1.
</event>
<event>
 4    1  0.3141404E-002  0.2213850E+03  0.7818608E-02  0.1132855E+00
          1   -1    0    0  502    0  0.00000000000E+00  0.00000000000E+00  0.37679619971E+03  0.37679619971E+03  0.00000000000E+00 0. -1.
         -1   -1    0    0    0  501 -0.00000000000E+00 -0.00000000000E+00 -0.16355215910E+03  0.16355215910E+03  0.00000000000E+00 0.  1.
          6    1    1    2  502    0 -0.12889821889E+03  0.53033647084E+02  0.22885761654E+03  0.31841345324E+03  0.17200000000E+03 0. -1.
         -6    1    1    2    0  501  0.12889821889E+03 -0.53033647084E+02 -0.15613575930E+02  0.22193490557E+03  0.17200000000E+03 0.  1.
</event>
<event>
 4    1  0.3141404E-002  0.9898047E+03  0.7818608E-02  0.9319798E-01
          1   -1    0    0  502    0  0.00000000000E+00  0.00000000000E+00  0.54447045959E+03  0.54447045959E+03  0.00000000000E+00 0. -1.
         -1   -1    0    0    0  501 -0.00000000000E+00 -0.00000000000E+00 -0.18041716833E+04  0.18041716833E+04  0.00000000000E+00 0.  1.
          6    1    1    2  502    0  0.93358547948E+03  0.28026318531E+03 -0.69032271114E+03  0.12067554624E+04  0.17200000000E+03 0. -1.
         -6    1    1    2    0  501 -0.93358547948E+03 -0.28026318531E+03 -0.56937851261E+03  0.11418866805E+04  0.17200000000E+03 0.  1.
</event>
<event>
 4    1  0.3141404E-002  0.1956664E+03  0.7818608E-02  0.1153448E+00
         -1   -1    0    0    0  501 -0.00000000000E+00  0.00000000000E+00  0.37302317465E+03  0.37302317465E+03  0.00000000000E+00 0.  1.
          1   -1    0    0  502    0  0.00000000000E+00 -0.00000000000E+00 -0.10578128459E+03  0.10578128459E+03  0.00000000000E+00 0. -1.
          6    1    1    2  502    0 -0.75313534820E+02 -0.55038251982E+02  0.92334879454E+02  0.21635865518E+03  0.17200000000E+03 0.  1.
         -6    1    1    2    0  501  0.75313534820E+02  0.55038251982E+02  0.17490701061E+03  0.26244580406E+03  0.17200000000E+03 0.  1.
</event>
<event>
 4    1  0.3141404E-002  0.1900364E+03  0.7818608E-02  0.1158428E+00
         -2   -1    0    0    0  501 -0.00000000000E+00  0.00000000000E+00  0.46960806605E+02  0.46960806605E+02  0.00000000000E+00 0.  1.
          2   -1    0    0  502    0  0.00000000000E+00 -0.00000000000E+00 -0.78183534433E+03  0.78183534433E+03  0.00000000000E+00 0. -1.
          6    1    1    2  502    0  0.72889067652E+01  0.80478039910E+02 -0.42049021384E+03  0.46143890495E+03  0.17200000000E+03 0.  1.
         -6    1    1    2    0  501 -0.72889067652E+01 -0.80478039910E+02 -0.31438432388E+03  0.36735724598E+03  0.17200000000E+03 0.  1.
</event>
<event>
 4    1  0.3141404E-002  0.2276864E+03  0.7818608E-02  0.1128279E+00
         -2   -1    0    0    0  501 -0.00000000000E+00  0.00000000000E+00  0.91886436991E+02  0.91886436991E+02  0.00000000000E+00 0.  1.
          2   -1    0    0  502    0  0.00000000000E+00 -0.00000000000E+00 -0.15840420095E+04  0.15840420095E+04  0.00000000000E+00 0. -1.
          6    1    1    2  502    0  0.14825563454E+03 -0.16653749512E+02 -0.14184526483E+04  0.14366102450E+04  0.17200000000E+03 0. -1.
         -6    1    1    2    0  501 -0.14825563454E+03  0.16653749512E+02 -0.73702924247E+02  0.23931820154E+03  0.17200000000E+03 0.  1.
</event>
<event>
 4    1  0.3141404E-002  0.1815248E+03  0.7818608E-02  0.1166335E+00
         -2   -1    0    0    0  501 -0.00000000000E+00  0.00000000000E+00  0.43113192529E+02  0.43113192529E+02  0.00000000000E+00 0.  1.
          2   -1    0    0  502    0  0.00000000000E+00 -0.00000000000E+00 -0.85142730432E+03  0.85142730432E+03  0.00000000000E+00 0. -1.
          6    1    1    2  502    0  0.50895912970E+02  0.27872244972E+02 -0.26107589952E+03  0.31798094488E+03  0.17200000000E+03 0.  1.
         -6    1    1    2    0  501 -0.50895912970E+02 -0.27872244972E+02 -0.54723821227E+03  0.57655955197E+03  0.17200000000E+03 0. -1.
</event>
<event>
 4    1  0.3141404E-002  0.2179667E+03  0.7818608E-02  0.1135408E+00
         -2   -1    0    0    0  501 -0.00000000000E+00  0.00000000000E+00  0.50730537132E+02  0.50730537132E+02  0.00000000000E+00 0.  1.
          2   -1    0    0  502    0  0.00000000000E+00 -0.00000000000E+00 -0.10644263241E+04  0.10644263241E+04  0.00000000000E+00 0. -1.
          6    1    1    2  502    0  0.34518610736E+02 -0.12935972000E+03 -0.70014141297E+03  0.73328539451E+03  0.17200000000E+03 0. -1.
         -6    1    1    2    0  501 -0.34518610736E+02  0.12935972000E+03 -0.31355437402E+03  0.38187146674E+03  0.17200000000E+03 0.  1.
</event>
<event>
 4    1  0.3141404E-002  0.2363837E+03  0.7818608E-02  0.1122226E+00
         -1   -1    0    0    0  501 -0.00000000000E+00  0.00000000000E+00  0.32006103007E+03  0.32006103007E+03  0.00000000000E+00 0.  1.
          1   -1    0    0  502    0  0.00000000000E+00 -0.00000000000E+00 -0.17568482352E+03  0.17568482352E+03  0.00000000000E+00 0. -1.
          6    1    1    2  502    0 -0.15876184565E+03 -0.32983799540E+02  0.52559316855E+02  0.24215642972E+03  0.17200000000E+03 0. -1.
         -6    1    1    2    0  501  0.15876184565E+03  0.32983799540E+02  0.91816889693E+02  0.25358942387E+03  0.17200000000E+03 0. -1.
</event>
<event>
 4    1  0.3141404E-002  0.1776774E+03  0.7818608E-02  0.1170070E+00
          1   -1    0    0  502    0  0.00000000000E+00  0.00000000000E+00  0.83266129594E+03  0.83266129594E+03  0.00000000000E+00 0. -1.
         -1   -1    0    0    0  501 -0.00000000000E+00 -0.00000000000E+00 -0.88948126495E+02  0.88948126495E+02  0.00000000000E+00 0.  1.
          6    1    1    2  502    0  0.40420209220E+02 -0.18747664946E+02  0.72090055446E+03  0.74247348618E+03  0.17200000000E+03 0. -1.
         -6    1    1    2    0  501 -0.40420209220E+02  0.18747664946E+02  0.22812614978E+02  0.17913593625E+03  0.17200000000E+03 0.  1.
</event>
<event>
 4    1  0.3141404E-002  0.2728259E+03  0.7818608E-02  0.1099673E+00
          3   -1    0    0  502    0  0.00000000000E+00  0.00000000000E+00  0.57229428901E+03  0.57229428901E+03  0.00000000000E+00 0. -1.
         -3   -1    0    0    0  501 -0.00000000000E+00 -0.00000000000E+00 -0.14108640054E+03  0.14108640054E+03  0.00000000000E+00 0.  1.
          6    1    1    2  502    0 -0.18443899247E+03  0.10407791365E+03  0.31530939358E+03  0.41695799277E+03  0.17200000000E+03 0. -1.
         -6    1    1    2    0  501  0.18443899247E+03 -0.10407791365E+03  0.11589849488E+03  0.29642269678E+03  0.17200000000E+03 0.  1.
</event>
<event>
 4    1  0.3141404E-002  0.2138391E+03  0.7818608E-02  0.1138561E+00
          2   -1    0    0  502    0  0.00000000000E+00  0.00000000000E+00  0.11734308478E+04  0.11734308478E+04  0.00000000000E+00 0. -1.
         -2   -1    0    0    0  501 -0.00000000000E+00 -0.00000000000E+00 -0.81172277836E+02  0.81172277836E+02  0.00000000000E+00 0.  1.
          6    1    1    2  502    0 -0.12451744263E+03  0.25269560681E+02  0.99845037012E+03  0.10210926921E+04  0.17200000000E+03 0. -1.
         -6    1    1    2    0  501  0.12451744263E+03 -0.25269560681E+02  0.93808199818E+02  0.23351043353E+03  0.17200000000E+03 0.  1.
</event>
<event>
 4    1  0.3141404E-002  0.3727237E+03  0.7818608E-02  0.1053656E+00
          2   -1    0    0  502    0  0.00000000000E+00  0.00000000000E+00  0.26553624958E+03  0.26553624958E+03  0.00000000000E+00 0. -1.
         -2   -1    0    0    0  501 -0.00000000000E+00 -0.00000000000E+00 -0.72060783160E+03  0.72060783160E+03  0.00000000000E+00 0.  1.
          6    1    1    2  502    0 -0.17718297172E+02 -0.33018933493E+03  0.30551370717E+02  0.37397369053E+03  0.17200000000E+03 0. -1.
         -6    1    1    2    0  501  0.17718297172E+02  0.33018933493E+03 -0.48562295274E+03  0.61217039065E+03  0.17200000000E+03 0.  1.
</event>
<event>
 4    1  0.3141404E-002  0.3212675E+03  0.7818608E-02  0.1075067E+00
         -2   -1    0    0    0  501 -0.00000000000E+00  0.00000000000E+00  0.44740099277E+03  0.44740099277E+03  0.00000000000E+00 0.  1.
          2   -1    0    0  502    0  0.00000000000E+00 -0.00000000000E+00 -0.44422564242E+03  0.44422564242E+03  0.00000000000E+00 0. -1.
          6    1    1    2  502    0 -0.24597594708E+03 -0.11456278040E+03 -0.30750035097E+03  0.44471256227E+03  0.17200000000E+03 0. -1.
         -6    1    1    2    0  501  0.24597594708E+03  0.11456278040E+03  0.31067570132E+03  0.44691407293E+03  0.17200000000E+03 0.  1.
</event>
<event>
 4    1  0.3141404E-002  0.2120244E+03  0.7818608E-02  0.1139973E+00
         -1   -1    0    0    0  501 -0.00000000000E+00  0.00000000000E+00  0.15881785255E+03  0.15881785255E+03  0.00000000000E+00 0.  1.
          1   -1    0    0  502    0  0.00000000000E+00 -0.00000000000E+00 -0.46196849058E+03  0.46196849058E+03  0.00000000000E+00 0. -1.
          6    1    1    2  502    0  0.49468506719E+02  0.11368038898E+03 -0.34473931225E+03  0.40472158011E+03  0.17200000000E+03 0. -1.
         -6    1    1    2    0  501 -0.49468506719E+02 -0.11368038898E+03  0.41588674216E+02  0.21606476302E+03  0.17200000000E+03 0.  1.
</event>
<event>
 4    1  0.3141404E-002  0.3181774E+03  0.7818608E-02  0.1076491E+00
          3   -1    0    0  502    0  0.00000000000E+00  0.00000000000E+00  0.17883038486E+03  0.17883038486E+03  0.00000000000E+00 0. -1.
         -3   -1    0    0    0  501 -0.00000000000E+00 -0.00000000000E+00 -0.61964075675E+03  0.61964075675E+03  0.00000000000E+00 0.  1.
          6    1    1    2  502    0 -0.17478821216E+03  0.20273615326E+03 -0.10305625732E+03  0.33445098164E+03  0.17200000000E+03 0. -1.
         -6    1    1    2    0  501  0.17478821216E+03 -0.20273615326E+03 -0.33775411457E+03  0.46402015996E+03  0.17200000000E+03 0.  1.
</event>
<event>
 4    1  0.3141404E-002  0.1923904E+03  0.7818608E-02  0.1156323E+00
         -2   -1    0    0    0  501 -0.00000000000E+00  0.00000000000E+00  0.24001451680E+03  0.24001451680E+03  0.00000000000E+00 0.  1.
          2   -1    0    0  502    0  0.00000000000E+00 -0.00000000000E+00 -0.48891493383E+03  0.48891493383E+03  0.00000000000E+00 0. -1.
          6    1    1    2  502    0  0.31081286668E+02 -0.80399198795E+02 -0.42600485018E+03  0.46743364227E+03  0.17200000000E+03 0. -1.
         -6    1    1    2    0  501 -0.31081286668E+02  0.80399198795E+02  0.17710443315E+03  0.26149580836E+03  0.17200000000E+03 0.  1.
</event>
<event>
 4    1  0.3141404E-002  0.4225102E+03  0.7818608E-02  0.1036252E+00
          2   -1    0    0  502    0  0.00000000000E+00  0.00000000000E+00  0.19468283749E+03  0.19468283749E+03  0.00000000000E+00 0. -1.
         -2   -1    0    0    0  501 -0.00000000000E+00 -0.00000000000E+00 -0.92128428499E+03  0.92128428499E+03  0.00000000000E+00 0.  1.
          6    1    1    2  502    0 -0.19471712091E+03  0.33319082763E+03 -0.32503889889E+03  0.53307144979E+03  0.17200000000E+03 0. -1.
         -6    1    1    2    0  501  0.19471712091E+03 -0.33319082763E+03 -0.40156254862E+03  0.58289567269E+03  0.17200000000E+03 0.  1.
</event>
<event>
 4    1  0.3141404E-002  0.1941769E+03  0.7818608E-02  0.1154747E+00
          1   -1    0    0  502    0  0.00000000000E+00  0.00000000000E+00  0.14056318057E+03  0.14056318057E+03  0.00000000000E+00 0. -1.
         -1   -1    0    0    0  501 -0.00000000000E+00 -0.00000000000E+00 -0.27292361548E+03  0.27292361548E+03  0.00000000000E+00 0.  1.
          6    1    1    2  502    0 -0.90004255667E+02  0.44628371943E+01 -0.39097226181E+02  0.19807391562E+03  0.17200000000E+03 0.  1.
         -6    1    1    2    0  501  0.90004255667E+02 -0.44628371943E+01 -0.93263208726E+02  0.21541288043E+03  0.17200000000E+03 0.  1.
</event>
<event>
 4    1  0.3141404E-002  0.1819292E+03  0.7818608E-02  0.1165949E+00
          2   -1    0    0  502    0  0.00000000000E+00  0.00000000000E+00  0.22783898662E+04  0.22783898662E+04  0.00000000000E+00 0. -1.
         -2   -1    0    0    0  501 -0.00000000000E+00 -0.00000000000E+00 -0.22631865779E+02  0.22631865779E+02  0.00000000000E+00 0.  1.
          6    1    1    2  502    0 -0.84464338067E+01 -0.58676112117E+02  0.18163771341E+04  0.18254654535E+04  0.17200000000E+03 0. -1.
         -6    1    1    2    0  501  0.84464338067E+01  0.58676112117E+02  0.43938086626E+03  0.47555627849E+03  0.17200000000E+03 0.  1.
</event>
<event>
 4    1  0.3141404E-002  0.1720592E+03  0.7818608E-02  0.1175717E+00
          2   -1    0    0  502    0  0.00000000000E+00  0.00000000000E+00  0.20102948653E+03  0.20102948653E+03  0.00000000000E+00 0. -1.
         -2   -1    0    0    0  501 -0.00000000000E+00 -0.00000000000E+00 -0.20001710496E+03  0.20001710496E+03  0.00000000000E+00 0.  1.
          6    1    1    2  502    0 -0.22022915084E+00  0.45063034806E+01  0.10348700558E+03  0.20078325527E+03  0.17200000000E+03 0. -1.
         -6    1    1    2    0  501  0.22022915084E+00 -0.45063034806E+01 -0.10247462400E+03  0.20026333623E+03  0.17200000000E+03 0.  1.
</event>
<event>
 4    1  0.3141404E-002  0.2545648E+03  0.7818608E-02  0.1110453E+00
         -2   -1    0    0    0  501 -0.00000000000E+00  0.00000000000E+00  0.25044573816E+03  0.25044573816E+03  0.00000000000E+00 0.  1.
          2   -1    0    0  502    0  0.00000000000E+00 -0.00000000000E+00 -0.27082373912E+03  0.27082373912E+03  0.00000000000E+00 0. -1.
          6    1    1    2  502    0  0.14955769400E+03  0.11336545210E+03 -0.65216714882E+02  0.26278593848E+03  0.17200000000E+03 0. -1.
         -6    1    1    2    0  501 -0.14955769400E+03 -0.11336545210E+03  0.44838713927E+02  0.25848353880E+03  0.17200000000E+03 0.  1.
</event>
<event>
 4    1  0.3141404E-002  0.3027670E+03  0.7818608E-02  0.1083866E+00
          2   -1    0    0  502    0  0.00000000000E+00  0.00000000000E+00  0.73972265165E+03  0.73972265165E+03  0.00000000000E+00 0. -1.
         -2   -1    0    0    0  501 -0.00000000000E+00 -0.00000000000E+00 -0.19094141984E+03  0.19094141984E+03  0.00000000000E+00 0.  1.
          6    1    1    2  502    0 -0.24515650167E+03  0.44521510017E+02  0.55007576088E+03  0.62789427285E+03  0.17200000000E+03 0. -1.
         -6    1    1    2    0  501  0.24515650167E+03 -0.44521510017E+02 -0.12945290617E+01  0.30276979864E+03  0.17200000000E+03 0.  1.
</event>
<event>
 4    1  0.3141404E-002  0.1747660E+03  0.7818608E-02  0.1172967E+00
          2   -1    0    0  502    0  0.00000000000E+00  0.00000000000E+00  0.43837326798E+03  0.43837326798E+03  0.00000000000E+00 0. -1.
         -2   -1    0    0    0  501 -0.00000000000E+00 -0.00000000000E+00 -0.71403759142E+02  0.71403759142E+02  0.00000000000E+00 0.  1.
          6    1    1    2  502    0  0.15890364148E+02  0.26582634944E+02  0.22315867710E+03  0.28344829391E+03  0.17200000000E+03 0.  1.
         -6    1    1    2    0  501 -0.15890364148E+02 -0.26582634944E+02  0.14381083173E+03  0.22632873321E+03  0.17200000000E+03 0.  1.
</event>
<event>
 4    1  0.3141404E-002  0.1799749E+03  0.7818608E-02  0.1167827E+00
          2   -1    0    0  502    0  0.00000000000E+00  0.00000000000E+00  0.12080584141E+04  0.12080584141E+04  0.00000000000E+00 0. -1.
         -2   -1    0    0    0  501 -0.00000000000E+00 -0.00000000000E+00 -0.35760377113E+02  0.35760377113E+02  0.00000000000E+00 0.  1.
          6    1    1    2  502    0  0.52292006425E+02 -0.85153491129E+01  0.89724049333E+03  0.91511281708E+03  0.17200000000E+03 0. -1.
         -6    1    1    2    0  501 -0.52292006425E+02  0.85153491129E+01  0.27505754363E+03  0.32870597410E+03  0.17200000000E+03 0.  1.
</event>
<event>
 4    1  0.3141404E-002  0.1790072E+03  0.7818608E-02  0.1168767E+00
         -3   -1    0    0    0  501 -0.00000000000E+00  0.00000000000E+00  0.13627810966E+04  0.13627810966E+04  0.00000000000E+00 0.  1.
          3   -1    0    0  502    0  0.00000000000E+00 -0.00000000000E+00 -0.63635032826E+02  0.63635032826E+02  0.00000000000E+00 0. -1.
          6    1    1    2  502    0  0.42966967003E+02  0.24767107074E+02  0.83258643212E+02  0.19742231767E+03  0.17200000000E+03 0. -1.
         -6    1    1    2    0  501 -0.42966967003E+02 -0.24767107074E+02  0.12158874206E+04  0.12289938118E+04  0.17200000000E+03 0.  1.
</event>
<event>
 4    1  0.3141404E-002  0.2185833E+03  0.7818608E-02  0.1134944E+00
         -1   -1    0    0    0  501 -0.00000000000E+00  0.00000000000E+00  0.77479440725E+02  0.77479440725E+02  0.00000000000E+00 0.  1.
          1   -1    0    0  502    0  0.00000000000E+00 -0.00000000000E+00 -0.63105383922E+03  0.63105383922E+03  0.00000000000E+00 0. -1.
          6    1    1    2  502    0 -0.28869977810E+02  0.13176182976E+03 -0.33028668978E+03  0.39606559159E+03  0.17200000000E+03 0. -1.
         -6    1    1    2    0  501  0.28869977810E+02 -0.13176182976E+03 -0.22328770872E+03  0.31246768835E+03  0.17200000000E+03 0.  1.
</event>
<event>
 4    1  0.3141404E-002  0.2854193E+03  0.7818608E-02  0.1092765E+00
          1   -1    0    0  502    0  0.00000000000E+00  0.00000000000E+00  0.78586544862E+03  0.78586544862E+03  0.00000000000E+00 0. -1.
         -1   -1    0    0    0  501 -0.00000000000E+00 -0.00000000000E+00 -0.28239121403E+03  0.28239121403E+03  0.00000000000E+00 0.  1.
          6    1    1    2  502    0  0.15790704454E+03 -0.16415089743E+03  0.67666786369E+03  0.73440012908E+03  0.17200000000E+03 0. -1.
         -6    1    1    2    0  501 -0.15790704454E+03  0.16415089743E+03 -0.17319362910E+03  0.33385653357E+03  0.17200000000E+03 0.  1.
</event>
<event>
 4    1  0.3141404E-002  0.3435581E+03  0.7818608E-02  0.1065291E+00
         -1   -1    0    0    0  501 -0.00000000000E+00  0.00000000000E+00  0.26543343781E+03  0.26543343781E+03  0.00000000000E+00 0.  1.
          1   -1    0    0  502    0  0.00000000000E+00 -0.00000000000E+00 -0.11775062454E+04  0.11775062454E+04  0.00000000000E+00 0. -1.
          6    1    1    2  502    0 -0.45035932989E+02 -0.29397270437E+03 -0.10252010582E+04  0.10812351252E+04  0.17200000000E+03 0. -1.
         -6    1    1    2    0  501  0.45035932989E+02  0.29397270437E+03  0.11312825066E+03  0.36170455799E+03  0.17200000000E+03 0.  1.
</event>
<event>
 4    1  0.3141404E-002  0.1831827E+03  0.7818608E-02  0.1164758E+00
          2   -1    0    0  502    0  0.00000000000E+00  0.00000000000E+00  0.98157822420E+03  0.98157822420E+03  0.00000000000E+00 0. -1.
         -2   -1    0    0    0  501 -0.00000000000E+00 -0.00000000000E+00 -0.35059654007E+02  0.35059654007E+02  0.00000000000E+00 0.  1.
          6    1    1    2  502    0  0.11758475391E+02 -0.61916524094E+02  0.55351613001E+03  0.58304032783E+03  0.17200000000E+03 0. -1.
         -6    1    1    2    0  501 -0.11758475391E+02  0.61916524094E+02  0.39300244018E+03  0.43359755037E+03  0.17200000000E+03 0.  1.
</event>
<event>
 4    1  0.3141404E-002  0.3958444E+03  0.7818608E-02  0.1045228E+00
          1   -1    0    0  502    0  0.00000000000E+00  0.00000000000E+00  0.25196388513E+03  0.25196388513E+03  0.00000000000E+00 0. -1.
         -1   -1    0    0    0  501 -0.00000000000E+00 -0.00000000000E+00 -0.62531581741E+03  0.62531581741E+03  0.00000000000E+00 0.  1.
          6    1    1    2  502    0  0.35593017492E+03 -0.20555455728E+02 -0.21916172352E+03  0.45246511162E+03  0.17200000000E+03 0.  1.
         -6    1    1    2    0  501 -0.35593017492E+03  0.20555455728E+02 -0.15419020876E+03  0.42481459092E+03  0.17200000000E+03 0.  1.
</event>
<event>
 4    1  0.3141404E-002  0.1945341E+03  0.7818608E-02  0.1154434E+00
         -2   -1    0    0    0  501 -0.00000000000E+00  0.00000000000E+00  0.27208536645E+02  0.27208536645E+02  0.00000000000E+00 0.  1.
          2   -1    0    0  502    0  0.00000000000E+00 -0.00000000000E+00 -0.14026033183E+04  0.14026033183E+04  0.00000000000E+00 0. -1.
          6    1    1    2  502    0  0.33540924320E+02  0.84466203055E+02 -0.62230987804E+03  0.65200699181E+03  0.17200000000E+03 0. -1.
         -6    1    1    2    0  501 -0.33540924320E+02 -0.84466203055E+02 -0.75308490362E+03  0.77780486314E+03  0.17200000000E+03 0. -1.
</event>
<event>
 4    1  0.3141404E-002  0.2812382E+03  0.7818608E-02  0.1095015E+00
         -2   -1    0    0    0  501 -0.00000000000E+00  0.00000000000E+00  0.53985453550E+02  0.53985453550E+02  0.00000000000E+00 0.  1.
          2   -1    0    0  502    0  0.00000000000E+00 -0.00000000000E+00 -0.17545169460E+04  0.17545169460E+04  0.00000000000E+00 0. -1.
          6    1    1    2  502    0  0.13235454630E+03 -0.17886644089E+03 -0.12175147204E+04  0.12495747373E+04  0.17200000000E+03 0. -1.
         -6    1    1    2    0  501 -0.13235454630E+03  0.17886644089E+03 -0.48301677209E+03  0.55892766234E+03  0.17200000000E+03 0. -1.
</event>
<event>
 4    1  0.3141404E-002  0.2853357E+03  0.7818608E-02  0.1092810E+00
         -1   -1    0    0    0  501 -0.00000000000E+00  0.00000000000E+00  0.96645586181E+02  0.96645586181E+02  0.00000000000E+00 0.  1.
          1   -1    0    0  502    0  0.00000000000E+00 -0.00000000000E+00 -0.12391242850E+04  0.12391242850E+04  0.00000000000E+00 0. -1.
          6    1    1    2  502    0 -0.16130204632E+03  0.16066774203E+03 -0.94913854476E+03  0.99110062588E+03  0.17200000000E+03 0. -1.
         -6    1    1    2    0  501  0.16130204632E+03 -0.16066774203E+03 -0.19334015403E+03  0.34466924527E+03  0.17200000000E+03 0.  1.
</event>
<event>
 4    1  0.3141404E-002  0.1882557E+03  0.7818608E-02  0.1160044E+00
         -2   -1    0    0    0  501 -0.00000000000E+00  0.00000000000E+00  0.11474120235E+03  0.11474120235E+03  0.00000000000E+00 0.  1.
          2   -1    0    0  502    0  0.00000000000E+00 -0.00000000000E+00 -0.32130173714E+03  0.32130173714E+03  0.00000000000E+00 0. -1.
          6    1    1    2  502    0  0.62587143778E+02 -0.44034909485E+02 -0.14616395216E+03  0.23833615909E+03  0.17200000000E+03 0. -1.
         -6    1    1    2    0  501 -0.62587143778E+02  0.44034909485E+02 -0.60396582628E+02  0.19770678039E+03  0.17200000000E+03 0.  1.
</event>
<event>
 4    1  0.3141404E-002  0.6173384E+03  0.7818608E-02  0.9870073E-01
         -2   -1    0    0    0  501 -0.00000000000E+00  0.00000000000E+00  0.15270200729E+03  0.15270200729E+03  0.00000000000E+00 0.  1.
          2   -1    0    0  502    0  0.00000000000E+00 -0.00000000000E+00 -0.25025389957E+04  0.25025389957E+04  0.00000000000E+00 0. -1.
          6    1    1    2  502    0 -0.58699519078E+03  0.83423036399E+02 -0.12440434618E+04  0.13887947623E+04  0.17200000000E+03 0. -1.
         -6    1    1    2    0  501  0.58699519078E+03 -0.83423036399E+02 -0.11057935266E+04  0.12664462407E+04  0.17200000000E+03 0.  1.
</event>
<event>
 4    1  0.3141404E-002  0.3560473E+03  0.7818608E-02  0.1060160E+00
          4   -1    0    0  502    0  0.00000000000E+00  0.00000000000E+00  0.44495100044E+03  0.44495100044E+03  0.00000000000E+00 0. -1.
         -4   -1    0    0    0  501 -0.00000000000E+00 -0.00000000000E+00 -0.29049272310E+03  0.29049272310E+03  0.00000000000E+00 0.  1.
          6    1    1    2  502    0  0.12477016182E+02 -0.31149634111E+03  0.26238289852E+02  0.35701273690E+03  0.17200000000E+03 0. -1.
         -6    1    1    2    0  501 -0.12477016182E+02  0.31149634111E+03  0.12821998748E+03  0.37843098664E+03  0.17200000000E+03 0.  1.
</event>
<event>
 4    1  0.3141404E-002  0.5444954E+03  0.7818608E-02  0.1002776E+00
         -2   -1    0    0    0  501 -0.00000000000E+00  0.00000000000E+00  0.11359356688E+04  0.11359356688E+04  0.00000000000E+00 0.  1.
          2   -1    0    0  502    0  0.00000000000E+00 -0.00000000000E+00 -0.84875097824E+03  0.84875097824E+03  0.00000000000E+00 0. -1.
          6    1    1    2  502    0 -0.26977011627E+02 -0.51591032675E+03 -0.68219796886E+03  0.87285124341E+03  0.17200000000E+03 0. -1.
         -6    1    1    2    0  501  0.26977011627E+02  0.51591032675E+03  0.96938265946E+03  0.11118354037E+04  0.17200000000E+03 0.  1.
</event>
<event>
 4    1  0.3141404E-002  0.2062818E+03  0.7818608E-02  0.1144545E+00
         -1   -1    0    0    0  501 -0.00000000000E+00  0.00000000000E+00  0.44904396617E+02  0.44904396617E+02  0.00000000000E+00 0.  1.
          1   -1    0    0  502    0  0.00000000000E+00 -0.00000000000E+00 -0.10481096269E+04  0.10481096269E+04  0.00000000000E+00 0. -1.
          6    1    1    2  502    0  0.10904707503E+03 -0.32816531763E+02 -0.33237994869E+03  0.39118872635E+03  0.17200000000E+03 0. -1.
         -6    1    1    2    0  501 -0.10904707503E+03  0.32816531763E+02 -0.67082528163E+03  0.70182529721E+03  0.17200000000E+03 0.  1.
</event>
<event>
 4    1  0.3141404E-002  0.4030540E+03  0.7818608E-02  0.1042727E+00
          2   -1    0    0  502    0  0.00000000000E+00  0.00000000000E+00  0.16503399134E+04  0.16503399134E+04  0.00000000000E+00 0. -1.
         -2   -1    0    0    0  501 -0.00000000000E+00 -0.00000000000E+00 -0.26700740873E+03  0.26700740873E+03  0.00000000000E+00 0.  1.
          6    1    1    2  502    0  0.26792506445E+03 -0.24715313306E+03  0.14533967949E+04  0.15082489035E+04  0.17200000000E+03 0. -1.
         -6    1    1    2    0  501 -0.26792506445E+03  0.24715313306E+03 -0.70064290286E+02  0.40909841861E+03  0.17200000000E+03 0.  1.
</event>
<event>
 4    1  0.3141404E-002  0.3338182E+03  0.7818608E-02  0.1069460E+00
          1   -1    0    0  502    0  0.00000000000E+00  0.00000000000E+00  0.89803050976E+03  0.89803050976E+03  0.00000000000E+00 0. -1.
         -1   -1    0    0    0  501 -0.00000000000E+00 -0.00000000000E+00 -0.12771398868E+03  0.12771398868E+03  0.00000000000E+00 0.  1.
          6    1    1    2  502    0  0.12203525466E+03  0.25876238965E+03  0.29873738267E+03  0.44797165254E+03  0.17200000000E+03 0. -1.
         -6    1    1    2    0  501 -0.12203525466E+03 -0.25876238965E+03  0.47157913841E+03  0.57777284590E+03  0.17200000000E+03 0.  1.
</event>
<event>
 4    1  0.3141404E-002  0.2058759E+03  0.7818608E-02  0.1144874E+00
         -2   -1    0    0    0  501 -0.00000000000E+00  0.00000000000E+00  0.68611480769E+03  0.68611480769E+03  0.00000000000E+00 0.  1.
          2   -1    0    0  502    0  0.00000000000E+00 -0.00000000000E+00 -0.16085248575E+03  0.16085248575E+03  0.00000000000E+00 0. -1.
          6    1    1    2  502    0  0.42942973721E+02 -0.10467471549E+03 -0.69729608934E+02  0.21736401132E+03  0.17200000000E+03 0. -1.
         -6    1    1    2    0  501 -0.42942973721E+02  0.10467471549E+03  0.59499193087E+03  0.62960328212E+03  0.17200000000E+03 0.  1.
</event>
<event>
 4    1  0.3141404E-002  0.2227618E+03  0.7818608E-02  0.1131841E+00
          1   -1    0    0  502    0  0.00000000000E+00  0.00000000000E+00  0.28592947303E+03  0.28592947303E+03  0.00000000000E+00 0. -1.
         -1   -1    0    0    0  501 -0.00000000000E+00 -0.00000000000E+00 -0.17745781802E+03  0.17745781802E+03  0.00000000000E+00 0.  1.
          6    1    1    2  502    0 -0.67353489182E+01  0.14139821214E+03  0.88621735508E+02  0.23974284416E+03  0.17200000000E+03 0. -1.
         -6    1    1    2    0  501  0.67353489182E+01 -0.14139821214E+03  0.19849919504E+02  0.22364444689E+03  0.17200000000E+03 0.  1.
</event>
<event>
 4    1  0.3141404E-002  0.2697587E+03  0.7818608E-02  0.1101418E+00
          2   -1    0    0  502    0  0.00000000000E+00  0.00000000000E+00  0.19814656851E+03  0.19814656851E+03  0.00000000000E+00 0. -1.
         -2   -1    0    0    0  501 -0.00000000000E+00 -0.00000000000E+00 -0.36747666659E+03  0.36747666659E+03  0.00000000000E+00 0.  1.
          6    1    1    2  502    0 -0.38505839029E+02 -0.20421329917E+03 -0.91654116019E+02  0.28490392798E+03  0.17200000000E+03 0. -1.
         -6    1    1    2    0  501  0.38505839029E+02  0.20421329917E+03 -0.77675982066E+02  0.28071930711E+03  0.17200000000E+03 0.  1.
</event>
<event>
 4    1  0.3141404E-002  0.2596662E+03  0.7818608E-02  0.1107344E+00
          2   -1    0    0  502    0  0.00000000000E+00  0.00000000000E+00  0.14380990364E+04  0.14380990364E+04  0.00000000000E+00 0. -1.
         -2   -1    0    0    0  501 -0.00000000000E+00 -0.00000000000E+00 -0.49409883481E+02  0.49409883481E+02  0.00000000000E+00 0.  1.
          6    1    1    2  502    0 -0.17315114839E+03 -0.88663563084E+02  0.86244434639E+03  0.90068684804E+03  0.17200000000E+03 0. -1.
         -6    1    1    2    0  501  0.17315114839E+03  0.88663563084E+02  0.52624480657E+03  0.58682207188E+03  0.17200000000E+03 0.  1.
</event>
<event>
 4    1  0.3141404E-002  0.2131641E+03  0.7818608E-02  0.1139085E+00
         -3   -1    0    0    0  501 -0.00000000000E+00  0.00000000000E+00  0.26700042767E+03  0.26700042767E+03  0.00000000000E+00 0.  1.
          3   -1    0    0  502    0  0.00000000000E+00 -0.00000000000E+00 -0.18411282876E+03  0.18411282876E+03  0.00000000000E+00 0. -1.
          6    1    1    2  502    0  0.66765016626E+02  0.10675841093E+03  0.10348596187E+03  0.23695626190E+03  0.17200000000E+03 0. -1.
         -6    1    1    2    0  501 -0.66765016626E+02 -0.10675841093E+03 -0.20598362959E+02  0.21415699453E+03  0.17200000000E+03 0.  1.
</event>
<event>
 4    1  0.3141404E-002  0.3032276E+03  0.7818608E-02  0.1083638E+00
         -2   -1    0    0    0  501 -0.00000000000E+00  0.00000000000E+00  0.19822756345E+03  0.19822756345E+03  0.00000000000E+00 0.  1.
          2   -1    0    0  502    0  0.00000000000E+00 -0.00000000000E+00 -0.13128556768E+04  0.13128556768E+04  0.00000000000E+00 0. -1.
          6    1    1    2  502    0 -0.10609584653E+03  0.22606776606E+03 -0.11648980831E+04  0.12037169549E+04  0.17200000000E+03 0. -1.
         -6    1    1    2    0  501  0.10609584653E+03 -0.22606776606E+03  0.50269969769E+02  0.30736628534E+03  0.17200000000E+03 0.  1.
</event>
<event>
 4    1  0.3141404E-002  0.2789701E+03  0.7818608E-02  0.1096253E+00
         -1   -1    0    0    0  501 -0.00000000000E+00  0.00000000000E+00  0.25352977920E+03  0.25352977920E+03  0.00000000000E+00 0.  1.
          1   -1    0    0  502    0  0.00000000000E+00 -0.00000000000E+00 -0.31509281682E+03  0.31509281682E+03  0.00000000000E+00 0. -1.
          6    1    1    2  502    0 -0.11677681946E+03 -0.18602013632E+03 -0.76449251000E+02  0.28925560437E+03  0.17200000000E+03 0. -1.
         -6    1    1    2    0  501  0.11677681946E+03  0.18602013632E+03  0.14886213375E+02  0.27936699166E+03  0.17200000000E+03 0.  1.
</event>
<event>
 4    1  0.3141404E-002  0.2361152E+03  0.7818608E-02  0.1122408E+00
         -2   -1    0    0    0  501 -0.00000000000E+00  0.00000000000E+00  0.13110032888E+03  0.13110032888E+03  0.00000000000E+00 0.  1.
          2   -1    0    0  502    0  0.00000000000E+00 -0.00000000000E+00 -0.49771002673E+03  0.49771002673E+03  0.00000000000E+00 0. -1.
          6    1    1    2  502    0  0.23353642708E+01 -0.16174337738E+03 -0.30326905172E+03  0.38434683787E+03  0.17200000000E+03 0. -1.
         -6    1    1    2    0  501 -0.23353642708E+01  0.16174337738E+03 -0.63340646134E+02  0.24446351774E+03  0.17200000000E+03 0.  1.
</event>
<event>
 4    1  0.3141404E-002  0.2794915E+03  0.7818608E-02  0.1095967E+00
         -2   -1    0    0    0  501 -0.00000000000E+00  0.00000000000E+00  0.10890341256E+03  0.10890341256E+03  0.00000000000E+00 0.  1.
          2   -1    0    0  502    0  0.00000000000E+00 -0.00000000000E+00 -0.17469691490E+04  0.17469691490E+04  0.00000000000E+00 0. -1.
          6    1    1    2  502    0 -0.15467698109E+03 -0.15686466128E+03 -0.15314365965E+04  0.15567316851E+04  0.17200000000E+03 0. -1.
         -6    1    1    2    0  501  0.15467698109E+03  0.15686466128E+03 -0.10662913990E+03  0.29914087637E+03  0.17200000000E+03 0.  1.
</event>
<event>
 4    1  0.3141404E-002  0.2755308E+03  0.7818608E-02  0.1098155E+00
          1   -1    0    0  502    0  0.00000000000E+00  0.00000000000E+00  0.88400009840E+02  0.88400009840E+02  0.00000000000E+00 0. -1.
         -1   -1    0    0    0  501 -0.00000000000E+00 -0.00000000000E+00 -0.88786329092E+03  0.88786329092E+03  0.00000000000E+00 0.  1.
          6    1    1    2  502    0 -0.19212250350E+03  0.97067717027E+02 -0.48805956749E+03  0.56046350413E+03  0.17200000000E+03 0. -1.
         -6    1    1    2    0  501  0.19212250350E+03 -0.97067717027E+02 -0.31140371358E+03  0.41579979663E+03  0.17200000000E+03 0.  1.
</event>
<event>
 4    1  0.3141404E-002  0.2414535E+03  0.7818608E-02  0.1118828E+00
          1   -1    0    0  502    0  0.00000000000E+00  0.00000000000E+00  0.17495985508E+03  0.17495985508E+03  0.00000000000E+00 0. -1.
         -1   -1    0    0    0  501 -0.00000000000E+00 -0.00000000000E+00 -0.63210521459E+03  0.63210521459E+03  0.00000000000E+00 0.  1.
          6    1    1    2  502    0  0.11257791811E+03  0.12665708875E+03  0.48910972250E+02  0.24635764446E+03  0.17200000000E+03 0.  1.
         -6    1    1    2    0  501 -0.11257791811E+03 -0.12665708875E+03 -0.50605633175E+03  0.56070742521E+03  0.17200000000E+03 0.  1.
</event>
<event>
 4    1  0.3141404E-002  0.1833034E+03  0.7818608E-02  0.1164644E+00
         -2   -1    0    0    0  501 -0.00000000000E+00  0.00000000000E+00  0.26102021777E+03  0.26102021777E+03  0.00000000000E+00 0.  1.
          2   -1    0    0  502    0  0.00000000000E+00 -0.00000000000E+00 -0.13832982958E+03  0.13832982958E+03  0.00000000000E+00 0. -1.
          6    1    1    2  502    0  0.45837014044E+02 -0.43762070036E+02  0.87334536636E+01  0.18351137252E+03  0.17200000000E+03 0. -1.
         -6    1    1    2    0  501 -0.45837014044E+02  0.43762070036E+02  0.11395693452E+03  0.21583867484E+03  0.17200000000E+03 0. -1.
</event>
<event>
 4    1  0.3141404E-002  0.2226316E+03  0.7818608E-02  0.1131936E+00
         -2   -1    0    0    0  501 -0.00000000000E+00  0.00000000000E+00  0.29480148993E+02  0.29480148993E+02  0.00000000000E+00 0.  1.
          2   -1    0    0  502    0  0.00000000000E+00 -0.00000000000E+00 -0.19820562517E+04  0.19820562517E+04  0.00000000000E+00 0. -1.
          6    1    1    2  502    0  0.13951703464E+03  0.22711556287E+02 -0.13680760094E+04  0.13860724314E+04  0.17200000000E+03 0. -1.
         -6    1    1    2    0  501 -0.13951703464E+03 -0.22711556287E+02 -0.58450009335E+03  0.62546396928E+03  0.17200000000E+03 0.  1.
</event>
<event>
 4    1  0.3141404E-002  0.2073224E+03  0.7818608E-02  0.1143704E+00
         -2   -1    0    0    0  501 -0.00000000000E+00  0.00000000000E+00  0.31720463317E+02  0.31720463317E+02  0.00000000000E+00 0.  1.
          2   -1    0    0  502    0  0.00000000000E+00 -0.00000000000E+00 -0.14452394864E+04  0.14452394864E+04  0.00000000000E+00 0. -1.
          6    1    1    2  502    0 -0.10705085976E+03  0.44030339328E+02 -0.89124671006E+03  0.91504276160E+03  0.17200000000E+03 0. -1.
         -6    1    1    2    0  501  0.10705085976E+03 -0.44030339328E+02 -0.52227231306E+03  0.56191718815E+03  0.17200000000E+03 0.  1.
</event>
<event>
 4    1  0.3141404E-002  0.1725699E+03  0.7818608E-02  0.1175194E+00
         -1   -1    0    0    0  501 -0.00000000000E+00  0.00000000000E+00  0.16905747478E+04  0.16905747478E+04  0.00000000000E+00 0.  1.
          1   -1    0    0  502    0  0.00000000000E+00 -0.00000000000E+00 -0.22916673961E+02  0.22916673961E+02  0.00000000000E+00 0. -1.
          6    1    1    2  502    0 -0.13551567322E+02  0.35660590130E+01  0.42176838108E+03  0.45570706494E+03  0.17200000000E+03 0. -1.
         -6    1    1    2    0  501  0.13551567322E+02 -0.35660590130E+01  0.12458896928E+04  0.12577843568E+04  0.17200000000E+03 0.  1.
</event>
<event>
 4    1  0.3141404E-002  0.2680574E+03  0.7818608E-02  0.1102397E+00
         -3   -1    0    0    0  501 -0.00000000000E+00  0.00000000000E+00  0.20554280918E+03  0.20554280918E+03  0.00000000000E+00 0.  1.
          3   -1    0    0  502    0  0.00000000000E+00 -0.00000000000E+00 -0.35576465226E+03  0.35576465226E+03  0.00000000000E+00 0. -1.
          6    1    1    2  502    0 -0.20211220216E+03 -0.37701946102E+02 -0.11209842499E+03  0.29055263875E+03  0.17200000000E+03 0.  1.
         -6    1    1    2    0  501  0.20211220216E+03  0.37701946102E+02 -0.38123418093E+02  0.27075482269E+03  0.17200000000E+03 0. -1.
</event>
<event>
 4    1  0.3141404E-002  0.2976906E+03  0.7818608E-02  0.1086401E+00
          1   -1    0    0  502    0  0.00000000000E+00  0.00000000000E+00  0.13912708203E+03  0.13912708203E+03  0.00000000000E+00 0. -1.
         -1   -1    0    0    0  501 -0.00000000000E+00 -0.00000000000E+00 -0.70791109247E+03  0.70791109247E+03  0.00000000000E+00 0.  1.
          6    1    1    2  502    0  0.74224277037E+02 -0.23135778174E+03 -0.41846305399E+03  0.51354746035E+03  0.17200000000E+03 0. -1.
         -6    1    1    2    0  501 -0.74224277037E+02  0.23135778174E+03 -0.15032095645E+03  0.33349071415E+03  0.17200000000E+03 0.  1.
</event>
<event>
 4    1  0.3141404E-002  0.3157424E+03  0.7818608E-02  0.1077626E+00
         -1   -1    0    0    0  501 -0.00000000000E+00  0.00000000000E+00  0.13928270244E+03  0.13928270244E+03  0.00000000000E+00 0.  1.
          1   -1    0    0  502    0  0.00000000000E+00 -0.00000000000E+00 -0.15397238445E+04  0.15397238445E+04  0.00000000000E+00 0. -1.
          6    1    1    2  502    0 -0.26220339886E+03 -0.36859991302E+02 -0.13143423470E+04  0.13517355830E+04  0.17200000000E+03 0. -1.
         -6    1    1    2    0  501  0.26220339886E+03  0.36859991302E+02 -0.86098795119E+02  0.32727096396E+03  0.17200000000E+03 0.  1.
</event>
<event>
 4    1  0.3141404E-002  0.5020373E+03  0.7818608E-02  0.1013249E+00
          2   -1    0    0  502    0  0.00000000000E+00  0.00000000000E+00  0.89083888566E+03  0.89083888566E+03  0.00000000000E+00 0. -1.
         -2   -1    0    0    0  501 -0.00000000000E+00 -0.00000000000E+00 -0.28590709674E+03  0.28590709674E+03  0.00000000000E+00 0.  1.
          6    1    1    2  502    0  0.46131511031E+03 -0.98213088366E+02  0.36254613115E+03  0.61925853966E+03  0.17200000000E+03 0. -1.
         -6    1    1    2    0  501 -0.46131511031E+03  0.98213088366E+02  0.24238565777E+03  0.55748744275E+03  0.17200000000E+03 0.  1.
</event>
<event>
 4    1  0.3141404E-002  0.2265010E+03  0.7818608E-02  0.1129127E+00
         -1   -1    0    0    0  501 -0.00000000000E+00  0.00000000000E+00  0.42839982080E+03  0.42839982080E+03  0.00000000000E+00 0.  1.
          1   -1    0    0  502    0  0.00000000000E+00 -0.00000000000E+00 -0.13091457886E+03  0.13091457886E+03  0.00000000000E+00 0. -1.
          6    1    1    2  502    0  0.14732329095E+03 -0.38153273407E+01  0.67090012921E+02  0.23622823416E+03  0.17200000000E+03 0. -1.
         -6    1    1    2    0  501 -0.14732329095E+03  0.38153273407E+01  0.23039522902E+03  0.32308616550E+03  0.17200000000E+03 0.  1.
</event>
<event>
 4    1  0.3141404E-002  0.1732153E+03  0.7818608E-02  0.1174536E+00
          2   -1    0    0  502    0  0.00000000000E+00  0.00000000000E+00  0.77279524634E+03  0.77279524634E+03  0.00000000000E+00 0. -1.
         -2   -1    0    0    0  501 -0.00000000000E+00 -0.00000000000E+00 -0.66401109332E+02  0.66401109332E+02  0.00000000000E+00 0.  1.
          6    1    1    2  502    0  0.20416945278E+02  0.16364260223E+01  0.62360219923E+03  0.64721189144E+03  0.17200000000E+03 0. -1.
         -6    1    1    2    0  501 -0.20416945278E+02 -0.16364260223E+01  0.82791937783E+02  0.19198446423E+03  0.17200000000E+03 0.  1.
</event>
<event>
 4    1  0.3141404E-002  0.3116588E+03  0.7818608E-02  0.1079553E+00
          2   -1    0    0  502    0  0.00000000000E+00  0.00000000000E+00  0.24007151924E+04  0.24007151924E+04  0.00000000000E+00 0. -1.
         -2   -1    0    0    0  501 -0.00000000000E+00 -0.00000000000E+00 -0.61170038095E+02  0.61170038095E+02  0.00000000000E+00 0.  1.
          6    1    1    2  502    0 -0.30986138364E+01  0.25987999808E+03  0.18860254894E+04  0.19116023021E+04  0.17200000000E+03 0. -1.
         -6    1    1    2    0  501  0.30986138364E+01 -0.25987999808E+03  0.45351966494E+03  0.55028292840E+03  0.17200000000E+03 0.  1.
</event>
<event>
 4    1  0.3141404E-002  0.1957123E+03  0.7818608E-02  0.1153408E+00
          2   -1    0    0  502    0  0.00000000000E+00  0.00000000000E+00  0.17425833109E+04  0.17425833109E+04  0.00000000000E+00 0. -1.
         -2   -1    0    0    0  501 -0.00000000000E+00 -0.00000000000E+00 -0.33701061502E+02  0.33701061502E+02  0.00000000000E+00 0.  1.
          6    1    1    2  502    0 -0.70327106348E+02  0.61428141341E+02  0.13781982737E+04  0.13920250716E+04  0.17200000000E+03 0. -1.
         -6    1    1    2    0  501  0.70327106348E+02 -0.61428141341E+02  0.33068397565E+03  0.38425930072E+03  0.17200000000E+03 0.  1.
</event>
<event>
 4    1  0.3141404E-002  0.1968302E+03  0.7818608E-02  0.1152441E+00
         -1   -1    0    0    0  501 -0.00000000000E+00  0.00000000000E+00  0.20095465602E+03  0.20095465602E+03  0.00000000000E+00 0.  1.
          1   -1    0    0  502    0  0.00000000000E+00 -0.00000000000E+00 -0.41593247834E+03  0.41593247834E+03  0.00000000000E+00 0. -1.
          6    1    1    2  502    0 -0.95367086729E+02 -0.79529574012E+01 -0.33340909159E+03  0.38717406049E+03  0.17200000000E+03 0. -1.
         -6    1    1    2    0  501  0.95367086729E+02  0.79529574012E+01  0.11843126928E+03  0.22971307387E+03  0.17200000000E+03 0.  1.
</event>
<event>
 4    1  0.3141404E-002  0.1745343E+03  0.7818608E-02  0.1173200E+00
          2   -1    0    0  502    0  0.00000000000E+00  0.00000000000E+00  0.12892473706E+03  0.12892473706E+03  0.00000000000E+00 0. -1.
         -2   -1    0    0    0  501 -0.00000000000E+00 -0.00000000000E+00 -0.24186415085E+03  0.24186415085E+03  0.00000000000E+00 0.  1.
          6    1    1    2  502    0 -0.23667854774E+02  0.17833919354E+02 -0.28297168404E+02  0.17681330767E+03  0.17200000000E+03 0. -1.
         -6    1    1    2    0  501  0.23667854774E+02 -0.17833919354E+02 -0.84642245385E+02  0.19397558025E+03  0.17200000000E+03 0. -1.
</event>
<event>
 4    1  0.3141404E-002  0.2799391E+03  0.7818608E-02  0.1095722E+00
         -2   -1    0    0    0  501 -0.00000000000E+00  0.00000000000E+00  0.54465366482E+02  0.54465366482E+02  0.00000000000E+00 0.  1.
          2   -1    0    0  502    0  0.00000000000E+00 -0.00000000000E+00 -0.14389135079E+04  0.14389135079E+04  0.00000000000E+00 0. -1.
          6    1    1    2  502    0 -0.18966031734E+03 -0.11318496862E+03 -0.69823480953E+03  0.75226173792E+03  0.17200000000E+03 0.  1.
         -6    1    1    2    0  501  0.18966031734E+03  0.11318496862E+03 -0.68621333188E+03  0.74111713645E+03  0.17200000000E+03 0.  1.
</event>
<event>
 4    1  0.3141404E-002  0.1835990E+03  0.7818608E-02  0.1164365E+00
          1   -1    0    0  502    0  0.00000000000E+00  0.00000000000E+00  0.49386326467E+02  0.49386326467E+02  0.00000000000E+00 0. -1.
         -1   -1    0    0    0  501 -0.00000000000E+00 -0.00000000000E+00 -0.74819163452E+03  0.74819163452E+03  0.00000000000E+00 0.  1.
          6    1    1    2  502    0  0.60114529758E+02 -0.22601845488E+02 -0.23128116896E+03  0.29529574874E+03  0.17200000000E+03 0. -1.
         -6    1    1    2    0  501 -0.60114529758E+02  0.22601845488E+02 -0.46752413909E+03  0.50228221224E+03  0.17200000000E+03 0.  1.
</event>
<event>
 4    1  0.3141404E-002  0.1793586E+03  0.7818608E-02  0.1168425E+00
          1   -1    0    0  502    0  0.00000000000E+00  0.00000000000E+00  0.22022432116E+04  0.22022432116E+04  0.00000000000E+00 0. -1.
         -1   -1    0    0    0  501 -0.00000000000E+00 -0.00000000000E+00 -0.95261756959E+02  0.95261756959E+02  0.00000000000E+00 0.  1.
          6    1    1    2  502    0  0.10693678485E+02  0.49710852726E+02  0.21105041551E+04  0.21181117327E+04  0.17200000000E+03 0. -1.
         -6    1    1    2    0  501 -0.10693678485E+02 -0.49710852726E+02 -0.35227004694E+01  0.17939323582E+03  0.17200000000E+03 0.  1.
</event>
<event>
 4    1  0.3141404E-002  0.1817801E+03  0.7818608E-02  0.1166091E+00
         -3   -1    0    0    0  501 -0.00000000000E+00  0.00000000000E+00  0.56088283511E+03  0.56088283511E+03  0.00000000000E+00 0.  1.
          3   -1    0    0  502    0  0.00000000000E+00 -0.00000000000E+00 -0.60580216237E+02  0.60580216237E+02  0.00000000000E+00 0. -1.
          6    1    1    2  502    0  0.38319247824E+02  0.44627686315E+02  0.19862225471E+03  0.26924857512E+03  0.17200000000E+03 0. -1.
         -6    1    1    2    0  501 -0.38319247824E+02 -0.44627686315E+02  0.30168036416E+03  0.35221447622E+03  0.17200000000E+03 0. -1.
</event>
<event>
 4    1  0.3141404E-002  0.2977421E+03  0.7818608E-02  0.1086375E+00
         -2   -1    0    0    0  501 -0.00000000000E+00  0.00000000000E+00  0.10272584541E+03  0.10272584541E+03  0.00000000000E+00 0.  1.
          2   -1    0    0  502    0  0.00000000000E+00 -0.00000000000E+00 -0.89715406439E+03  0.89715406439E+03  0.00000000000E+00 0. -1.
          6    1    1    2  502    0  0.36641287725E+02 -0.24025777280E+03 -0.49478734661E+03  0.57746419779E+03  0.17200000000E+03 0. -1.
         -6    1    1    2    0  501 -0.36641287725E+02  0.24025777280E+03 -0.29964087237E+03  0.42241571201E+03  0.17200000000E+03 0.  1.
</event>
<event>
 4    1  0.3141404E-002  0.2731758E+03  0.7818608E-02  0.1099476E+00
          2   -1    0    0  502    0  0.00000000000E+00  0.00000000000E+00  0.41352655647E+03  0.41352655647E+03  0.00000000000E+00 0. -1.
         -2   -1    0    0    0  501 -0.00000000000E+00 -0.00000000000E+00 -0.98776601999E+03  0.98776601999E+03  0.00000000000E+00 0.  1.
          6    1    1    2  502    0 -0.19790526313E+03  0.76645504420E+02  0.34629894461E+03  0.44107594081E+03  0.17200000000E+03 0. -1.
         -6    1    1    2    0  501  0.19790526313E+03 -0.76645504420E+02 -0.92053840814E+03  0.96021663565E+03  0.17200000000E+03 0.  1.
</event>
<event>
 4    1  0.3141404E-002  0.4671579E+03  0.7818608E-02  0.1022725E+00
          1   -1    0    0  502    0  0.00000000000E+00  0.00000000000E+00  0.26636695311E+04  0.26636695311E+04  0.00000000000E+00 0. -1.
         -1   -1    0    0    0  501 -0.00000000000E+00 -0.00000000000E+00 -0.21100883995E+03  0.21100883995E+03  0.00000000000E+00 0.  1.
          6    1    1    2  502    0 -0.38831985587E+03  0.19457686677E+03  0.23505086253E+04  0.23964822689E+04  0.17200000000E+03 0. -1.
         -6    1    1    2    0  501  0.38831985587E+03 -0.19457686677E+03  0.10215206584E+03  0.47819610214E+03  0.17200000000E+03 0.  1.
</event>
<event>
 4    1  0.3141404E-002  0.1795779E+03  0.7818608E-02  0.1168212E+00
         -2   -1    0    0    0  501 -0.00000000000E+00  0.00000000000E+00  0.24041899206E+02  0.24041899206E+02  0.00000000000E+00 0.  1.
          2   -1    0    0  502    0  0.00000000000E+00 -0.00000000000E+00 -0.17090141172E+04  0.17090141172E+04  0.00000000000E+00 0. -1.
          6    1    1    2  502    0  0.13784524721E+02 -0.49741479910E+02 -0.12444107007E+04  0.12573011652E+04  0.17200000000E+03 0. -1.
         -6    1    1    2    0  501 -0.13784524721E+02  0.49741479910E+02 -0.44056151731E+03  0.47575485124E+03  0.17200000000E+03 0.  1.
</event>
<event>
 4    1  0.3141404E-002  0.3078002E+03  0.7818608E-02  0.1081405E+00
         -1   -1    0    0    0  501 -0.00000000000E+00  0.00000000000E+00  0.35475315242E+03  0.35475315242E+03  0.00000000000E+00 0.  1.
          1   -1    0    0  502    0  0.00000000000E+00 -0.00000000000E+00 -0.59414432070E+03  0.59414432070E+03  0.00000000000E+00 0. -1.
          6    1    1    2  502    0  0.24871128235E+03  0.57442685126E+02 -0.47171943024E+03  0.56325854180E+03  0.17200000000E+03 0. -1.
         -6    1    1    2    0  501 -0.24871128235E+03 -0.57442685126E+02  0.23232826196E+03  0.38563893132E+03  0.17200000000E+03 0.  1.
</event>
<event>
 4    1  0.3141404E-002  0.3531622E+03  0.7818608E-02  0.1061325E+00
          2   -1    0    0  502    0  0.00000000000E+00  0.00000000000E+00  0.24150463805E+04  0.24150463805E+04  0.00000000000E+00 0. -1.
         -2   -1    0    0    0  501 -0.00000000000E+00 -0.00000000000E+00 -0.21808038946E+03  0.21808038946E+03  0.00000000000E+00 0.  1.
          6    1    1    2  502    0 -0.22678989808E+03  0.20905954084E+03  0.22486399919E+04  0.22762041567E+04  0.17200000000E+03 0. -1.
         -6    1    1    2    0  501  0.22678989808E+03 -0.20905954084E+03 -0.51674000932E+02  0.35692261327E+03  0.17200000000E+03 0.  1.
</event>
<event>
 4    1  0.3141404E-002  0.2208490E+03  0.7818608E-02  0.1133252E+00
          1   -1    0    0  502    0  0.00000000000E+00  0.00000000000E+00  0.17195509357E+03  0.17195509357E+03  0.00000000000E+00 0. -1.
         -1   -1    0    0    0  501 -0.00000000000E+00 -0.00000000000E+00 -0.43051989821E+03  0.43051989821E+03  0.00000000000E+00 0.  1.
          6    1    1    2  502    0  0.72324619019E+02  0.11815001877E+03  0.46666093880E+02  0.22572550093E+03  0.17200000000E+03 0. -1.
         -6    1    1    2    0  501 -0.72324619019E+02 -0.11815001877E+03 -0.30523089852E+03  0.37674949086E+03  0.17200000000E+03 0.  1.
</event>
<event>
 4    1  0.3141404E-002  0.3927819E+03  0.7818608E-02  0.1046308E+00
         -2   -1    0    0    0  501 -0.00000000000E+00  0.00000000000E+00  0.13085210832E+03  0.13085210832E+03  0.00000000000E+00 0.  1.
          2   -1    0    0  502    0  0.00000000000E+00 -0.00000000000E+00 -0.11790324572E+04  0.11790324572E+04  0.00000000000E+00 0. -1.
          6    1    1    2  502    0 -0.36468236708E+02 -0.35123167108E+03 -0.52221570688E+03  0.65344231847E+03  0.17200000000E+03 0. -1.
         -6    1    1    2    0  501  0.36468236708E+02  0.35123167108E+03 -0.52596464198E+03  0.65644224702E+03  0.17200000000E+03 0.  1.
</event>
<event>
 4    1  0.3141404E-002  0.3584940E+03  0.7818608E-02  0.1059182E+00
          1   -1    0    0  502    0  0.00000000000E+00  0.00000000000E+00  0.51693085207E+03  0.51693085207E+03  0.00000000000E+00 0. -1.
         -1   -1    0    0    0  501 -0.00000000000E+00 -0.00000000000E+00 -0.26646598029E+03  0.26646598029E+03  0.00000000000E+00 0.  1.
          6    1    1    2  502    0  0.23756439758E+03  0.20614832642E+03  0.22660803876E+03  0.42410986632E+03  0.17200000000E+03 0. -1.
         -6    1    1    2    0  501 -0.23756439758E+03 -0.20614832642E+03  0.23856833028E+02  0.35928696604E+03  0.17200000000E+03 0.  1.
</event>
<event>
 4    1  0.3141404E-002  0.1779753E+03  0.7818608E-02  0.1169777E+00
         -2   -1    0    0    0  501 -0.00000000000E+00  0.00000000000E+00  0.11327343915E+03  0.11327343915E+03  0.00000000000E+00 0.  1.
          2   -1    0    0  502    0  0.00000000000E+00 -0.00000000000E+00 -0.28219303823E+03  0.28219303823E+03  0.00000000000E+00 0. -1.
          6    1    1    2  502    0  0.45241774179E+02 -0.66628304593E+01 -0.65633494974E+02  0.18969176868E+03  0.17200000000E+03 0.  1.
         -6    1    1    2    0  501 -0.45241774179E+02  0.66628304593E+01 -0.10328610411E+03  0.20577470870E+03  0.17200000000E+03 0. -1.
</event>
<event>
 4    1  0.3141404E-002  0.2472725E+03  0.7818608E-02  0.1115041E+00
         -2   -1    0    0    0  501 -0.00000000000E+00  0.00000000000E+00  0.65062488255E+02  0.65062488255E+02  0.00000000000E+00 0.  1.
          2   -1    0    0  502    0  0.00000000000E+00 -0.00000000000E+00 -0.12893545389E+04  0.12893545389E+04  0.00000000000E+00 0. -1.
          6    1    1    2  502    0 -0.13604153817E+03  0.11424696908E+03 -0.96477121995E+03  0.99595540909E+03  0.17200000000E+03 0. -1.
         -6    1    1    2    0  501  0.13604153817E+03 -0.11424696908E+03 -0.25952083066E+03  0.35846161803E+03  0.17200000000E+03 0.  1.
</event>
<event>
 4    1  0.3141404E-002  0.2054671E+03  0.7818608E-02  0.1145207E+00
          2   -1    0    0  502    0  0.00000000000E+00  0.00000000000E+00  0.75036251126E+03  0.75036251126E+03  0.00000000000E+00 0. -1.
         -2   -1    0    0    0  501 -0.00000000000E+00 -0.00000000000E+00 -0.71503095938E+02  0.71503095938E+02  0.00000000000E+00 0.  1.
          6    1    1    2  502    0  0.58986380590E+02  0.95672971021E+02  0.14970669971E+03  0.25422196289E+03  0.17200000000E+03 0. -1.
         -6    1    1    2    0  501 -0.58986380590E+02 -0.95672971021E+02  0.52915271562E+03  0.56764364431E+03  0.17200000000E+03 0. -1.
</event>
<event>
 4    1  0.3141404E-002  0.4038992E+03  0.7818608E-02  0.1042438E+00
         -1   -1    0    0    0  501 -0.00000000000E+00  0.00000000000E+00  0.22322631276E+03  0.22322631276E+03  0.00000000000E+00 0.  1.
          1   -1    0    0  502    0  0.00000000000E+00 -0.00000000000E+00 -0.93593267282E+03  0.93593267282E+03  0.00000000000E+00 0. -1.
          6    1    1    2  502    0 -0.20893026286E+03 -0.29983117825E+03 -0.62768724921E+03  0.74640865015E+03  0.17200000000E+03 0. -1.
         -6    1    1    2    0  501  0.20893026286E+03  0.29983117825E+03 -0.85019110852E+02  0.41275033543E+03  0.17200000000E+03 0.  1.
</event>
<event>
 4    1  0.3141404E-002  0.2279951E+03  0.7818608E-02  0.1128059E+00
          2   -1    0    0  502    0  0.00000000000E+00  0.00000000000E+00  0.64852693017E+03  0.64852693017E+03  0.00000000000E+00 0. -1.
         -2   -1    0    0    0  501 -0.00000000000E+00 -0.00000000000E+00 -0.80752186382E+02  0.80752186382E+02  0.00000000000E+00 0.  1.
          6    1    1    2  502    0  0.11396154818E+03  0.97007898984E+02  0.31528166693E+03  0.38908134938E+03  0.17200000000E+03 0. -1.
         -6    1    1    2    0  501 -0.11396154818E+03 -0.97007898984E+02  0.25249307686E+03  0.34019776717E+03  0.17200000000E+03 0.  1.
</event>
<event>
 4    1  0.3141404E-002  0.3380459E+03  0.7818608E-02  0.1067631E+00
         -2   -1    0    0    0  501 -0.00000000000E+00  0.00000000000E+00  0.13332349270E+04  0.13332349270E+04  0.00000000000E+00 0.  1.
          2   -1    0    0  502    0  0.00000000000E+00 -0.00000000000E+00 -0.42480330260E+03  0.42480330260E+03  0.00000000000E+00 0. -1.
          6    1    1    2  502    0  0.27080166039E+03 -0.10657148851E+03 -0.33113251515E+03  0.47320583684E+03  0.17200000000E+03 0. -1.
         -6    1    1    2    0  501 -0.27080166039E+03  0.10657148851E+03  0.12395641395E+04  0.12848323927E+04  0.17200000000E+03 0.  1.
</event>
<event>
 4    1  0.3141404E-002  0.5015165E+03  0.7818608E-02  0.1013384E+00
          2   -1    0    0  502    0  0.00000000000E+00  0.00000000000E+00  0.13845955417E+04  0.13845955417E+04  0.00000000000E+00 0. -1.
         -2   -1    0    0    0  501 -0.00000000000E+00 -0.00000000000E+00 -0.27849660597E+03  0.27849660597E+03  0.00000000000E+00 0.  1.
          6    1    1    2  502    0 -0.41805113880E+03  0.21718215410E+03  0.10434005402E+04  0.11576715985E+04  0.17200000000E+03 0. -1.
         -6    1    1    2    0  501  0.41805113880E+03 -0.21718215410E+03  0.62698395538E+02  0.50542054916E+03  0.17200000000E+03 0.  1.
</event>
<event>
 4    1  0.3141404E-002  0.2002111E+03  0.7818608E-02  0.1149561E+00
         -2   -1    0    0    0  501 -0.00000000000E+00  0.00000000000E+00  0.20641230161E+02  0.20641230161E+02  0.00000000000E+00 0.  1.
          2   -1    0    0  502    0  0.00000000000E+00 -0.00000000000E+00 -0.19435351910E+04  0.19435351910E+04  0.00000000000E+00 0. -1.
          6    1    1    2  502    0 -0.84975250495E+02 -0.57268663403E+02 -0.93350939640E+03  0.95473781017E+03  0.17200000000E+03 0. -1.
         -6    1    1    2    0  501  0.84975250495E+02  0.57268663403E+02 -0.98938456440E+03  0.10094386110E+04  0.17200000000E+03 0.  1.
</event>
<event>
 4    1  0.3141404E-002  0.3413811E+03  0.7818608E-02  0.1066209E+00
          1   -1    0    0  502    0  0.00000000000E+00  0.00000000000E+00  0.20826304543E+04  0.20826304543E+04  0.00000000000E+00 0. -1.
         -1   -1    0    0    0  501 -0.00000000000E+00 -0.00000000000E+00 -0.61944954516E+02  0.61944954516E+02  0.00000000000E+00 0.  1.
          6    1    1    2  502    0  0.11478847373E+03  0.27162598966E+03  0.13436845622E+04  0.13863727041E+04  0.17200000000E+03 0. -1.
         -6    1    1    2    0  501 -0.11478847373E+03 -0.27162598966E+03  0.67700093760E+03  0.75820270473E+03  0.17200000000E+03 0.  1.
</event>
<event>
 4    1  0.3141404E-002  0.6863125E+03  0.7818608E-02  0.9740930E-01
          2   -1    0    0  502    0  0.00000000000E+00  0.00000000000E+00  0.23794824285E+04  0.23794824285E+04  0.00000000000E+00 0. -1.
         -2   -1    0    0    0  501 -0.00000000000E+00 -0.00000000000E+00 -0.24407735015E+03  0.24407735015E+03  0.00000000000E+00 0.  1.
          6    1    1    2  502    0  0.58517995644E+03 -0.31465107548E+03  0.16379507751E+04  0.17759244416E+04  0.17200000000E+03 0. -1.
         -6    1    1    2    0  501 -0.58517995644E+03  0.31465107548E+03  0.49745430322E+03  0.84763533699E+03  0.17200000000E+03 0.  1.
</event>
<event>
 4    1  0.3141404E-002  0.3726033E+03  0.7818608E-02  0.1053702E+00
         -1   -1    0    0    0  501 -0.00000000000E+00  0.00000000000E+00  0.24544039457E+03  0.24544039457E+03  0.00000000000E+00 0.  1.
          1   -1    0    0  502    0  0.00000000000E+00 -0.00000000000E+00 -0.56597477923E+03  0.56597477923E+03  0.00000000000E+00 0. -1.
          6    1    1    2  502    0 -0.66758107818E+02  0.32371683870E+03 -0.16999337352E+03  0.40954973282E+03  0.17200000000E+03 0. -1.
         -6    1    1    2    0  501  0.66758107818E+02 -0.32371683870E+03 -0.15054101114E+03  0.40186544097E+03  0.17200000000E+03 0. -1.
</event>
<event>
 4    1  0.3141404E-002  0.2544205E+03  0.7818608E-02  0.1110543E+00
         -2   -1    0    0    0  501 -0.00000000000E+00  0.00000000000E+00  0.52531914429E+03  0.52531914429E+03  0.00000000000E+00 0.  1.
          2   -1    0    0  502    0  0.00000000000E+00 -0.00000000000E+00 -0.17832321493E+03  0.17832321493E+03  0.00000000000E+00 0. -1.
          6    1    1    2  502    0 -0.18491341725E+03  0.30867403842E+02  0.36907007872E+03  0.44826609453E+03  0.17200000000E+03 0. -1.
         -6    1    1    2    0  501  0.18491341725E+03 -0.30867403842E+02 -0.22074149363E+02  0.25537626469E+03  0.17200000000E+03 0. -1.
</event>
<event>
 4    1  0.3141404E-002  0.1976719E+03  0.7818608E-02  0.1151718E+00
          1   -1    0    0  502    0  0.00000000000E+00  0.00000000000E+00  0.71633004540E+03  0.71633004540E+03  0.00000000000E+00 0. -1.
         -1   -1    0    0    0  501 -0.00000000000E+00 -0.00000000000E+00 -0.10332155725E+03  0.10332155725E+03  0.00000000000E+00 0.  1.
          6    1    1    2  502    0 -0.97380580286E+02 -0.26854018248E+01  0.58808124263E+03  0.62041416548E+03  0.17200000000E+03 0. -1.
         -6    1    1    2    0  501  0.97380580286E+02  0.26854018248E+01  0.24927245531E+02  0.19923743717E+03  0.17200000000E+03 0.  1.
</event>
<event>
 4    1  0.3141404E-002  0.2089832E+03  0.7818608E-02  0.1142374E+00
         -1   -1    0    0    0  501 -0.00000000000E+00  0.00000000000E+00  0.18626898157E+03  0.18626898157E+03  0.00000000000E+00 0.  1.
          1   -1    0    0  502    0  0.00000000000E+00 -0.00000000000E+00 -0.23481231490E+03  0.23481231490E+03  0.00000000000E+00 0. -1.
          6    1    1    2  502    0  0.41044847272E+02  0.11137904886E+03 -0.16200451101E+02  0.20961017778E+03  0.17200000000E+03 0. -1.
         -6    1    1    2    0  501 -0.41044847272E+02 -0.11137904886E+03 -0.32342882222E+02  0.21147111869E+03  0.17200000000E+03 0.  1.
</event>
<event>
 4    1  0.3141404E-002  0.2964193E+03  0.7818608E-02  0.1087044E+00
          2   -1    0    0  502    0  0.00000000000E+00  0.00000000000E+00  0.67260532226E+03  0.67260532226E+03  0.00000000000E+00 0. -1.
         -2   -1    0    0    0  501 -0.00000000000E+00 -0.00000000000E+00 -0.13406397558E+03  0.13406397558E+03  0.00000000000E+00 0.  1.
          6    1    1    2  502    0  0.55003838047E+02 -0.23506375237E+03  0.33379508544E+03  0.44641186021E+03  0.17200000000E+03 0. -1.
         -6    1    1    2    0  501 -0.55003838047E+02  0.23506375237E+03  0.20474626124E+03  0.36025743763E+03  0.17200000000E+03 0.  1.
</event>
<event>
 4    1  0.3141404E-002  0.1885311E+03  0.7818608E-02  0.1159793E+00
         -3   -1    0    0    0  501 -0.00000000000E+00  0.00000000000E+00  0.71578846869E+02  0.71578846869E+02  0.00000000000E+00 0.  1.
          3   -1    0    0  502    0  0.00000000000E+00 -0.00000000000E+00 -0.11795876270E+04  0.11795876270E+04  0.00000000000E+00 0. -1.
          6    1    1    2  502    0 -0.74453959826E+02  0.20410114602E+02 -0.10300359010E+04  0.10471475170E+04  0.17200000000E+03 0. -1.
         -6    1    1    2    0  501  0.74453959826E+02 -0.20410114602E+02 -0.77972879174E+02  0.20401895696E+03  0.17200000000E+03 0.  1.
</event>
<event>
 4    1  0.3141404E-002  0.2147503E+03  0.7818608E-02  0.1137859E+00
         -1   -1    0    0    0  501 -0.00000000000E+00  0.00000000000E+00  0.50032571783E+02  0.50032571783E+02  0.00000000000E+00 0.  1.
          1   -1    0    0  502    0  0.00000000000E+00 -0.00000000000E+00 -0.92504488847E+03  0.92504488847E+03  0.00000000000E+00 0. -1.
          6    1    1    2  502    0 -0.62014357846E+02  0.11264068361E+03 -0.46658715850E+03  0.51363535768E+03  0.17200000000E+03 0. -1.
         -6    1    1    2    0  501  0.62014357846E+02 -0.11264068361E+03 -0.40842515818E+03  0.46144210257E+03  0.17200000000E+03 0.  1.
</event>
<event>
 4    1  0.3141404E-002  0.2017480E+03  0.7818608E-02  0.1148273E+00
         -2   -1    0    0    0  501 -0.00000000000E+00  0.00000000000E+00  0.13654838985E+04  0.13654838985E+04  0.00000000000E+00 0.  1.
          2   -1    0    0  502    0  0.00000000000E+00 -0.00000000000E+00 -0.53550434470E+02  0.53550434470E+02  0.00000000000E+00 0. -1.
          6    1    1    2  502    0 -0.38791856929E+02  0.98048119807E+02  0.18352884779E+03  0.27273628276E+03  0.17200000000E+03 0. -1.
         -6    1    1    2    0  501  0.38791856929E+02 -0.98048119807E+02  0.11284046162E+04  0.11462980502E+04  0.17200000000E+03 0.  1.
</event>
<event>
 4    1  0.3141404E-002  0.2052016E+03  0.7818608E-02  0.1145423E+00
          2   -1    0    0  502    0  0.00000000000E+00  0.00000000000E+00  0.24825670695E+03  0.24825670695E+03  0.00000000000E+00 0. -1.
         -2   -1    0    0    0  501 -0.00000000000E+00 -0.00000000000E+00 -0.32796146823E+03  0.32796146823E+03  0.00000000000E+00 0.  1.
          6    1    1    2  502    0 -0.10961581167E+03 -0.22540561888E+02  0.16034192291E+03  0.26041742519E+03  0.17200000000E+03 0. -1.
         -6    1    1    2    0  501  0.10961581167E+03  0.22540561888E+02 -0.24004668420E+03  0.31580074999E+03  0.17200000000E+03 0.  1.
</event>
<event>
 4    1  0.3141404E-002  0.2279995E+03  0.7818608E-02  0.1128056E+00
          1   -1    0    0  502    0  0.00000000000E+00  0.00000000000E+00  0.12011883942E+04  0.12011883942E+04  0.00000000000E+00 0. -1.
         -1   -1    0    0    0  501 -0.00000000000E+00 -0.00000000000E+00 -0.10332977509E+03  0.10332977509E+03  0.00000000000E+00 0.  1.
          6    1    1    2  502    0  0.14964600830E+03 -0.24180572093E+01  0.10461785196E+04  0.10707349204E+04  0.17200000000E+03 0. -1.
         -6    1    1    2    0  501 -0.14964600830E+03  0.24180572093E+01  0.51680099512E+02  0.23378324894E+03  0.17200000000E+03 0.  1.
</event>
<event>
 4    1  0.3141404E-002  0.6077049E+03  0.7818608E-02  0.9889549E-01
          2   -1    0    0  502    0  0.00000000000E+00  0.00000000000E+00  0.16593327398E+04  0.16593327398E+04  0.00000000000E+00 0. -1.
         -2   -1    0    0    0  501 -0.00000000000E+00 -0.00000000000E+00 -0.24403724106E+03  0.24403724106E+03  0.00000000000E+00 0.  1.
          6    1    1    2  502    0  0.44618153310E+03 -0.37502434300E+03  0.98995971402E+03  0.11616046891E+04  0.17200000000E+03 0. -1.
         -6    1    1    2    0  501 -0.44618153310E+03  0.37502434300E+03  0.42533578472E+03  0.74176529178E+03  0.17200000000E+03 0.  1.
</event>
<event>
 4    1  0.3141404E-002  0.3004991E+03  0.7818608E-02  0.1084991E+00
         -2   -1    0    0    0  501 -0.00000000000E+00  0.00000000000E+00  0.19002723119E+03  0.19002723119E+03  0.00000000000E+00 0.  1.
          2   -1    0    0  502    0  0.00000000000E+00 -0.00000000000E+00 -0.10601247647E+04  0.10601247647E+04  0.00000000000E+00 0. -1.
          6    1    1    2  502    0  0.14330893006E+03 -0.20044516687E+03 -0.89935737171E+03  0.94823172084E+03  0.17200000000E+03 0. -1.
         -6    1    1    2    0  501 -0.14330893006E+03  0.20044516687E+03  0.29259838195E+02  0.30192027505E+03  0.17200000000E+03 0.  1.
</event>
<event>
 4    1  0.3141404E-002  0.1784536E+03  0.7818608E-02  0.1169308E+00
         -1   -1    0    0    0  501 -0.00000000000E+00  0.00000000000E+00  0.10235579543E+03  0.10235579543E+03  0.00000000000E+00 0.  1.
          1   -1    0    0  502    0  0.00000000000E+00 -0.00000000000E+00 -0.48958519739E+03  0.48958519739E+03  0.00000000000E+00 0. -1.
          6    1    1    2  502    0 -0.46000374812E+02 -0.12069387085E+02 -0.14924020667E+02  0.17907660646E+03  0.17200000000E+03 0.  1.
         -6    1    1    2    0  501  0.46000374812E+02  0.12069387085E+02 -0.37230538129E+03  0.41286438636E+03  0.17200000000E+03 0. -1.
</event>
<event>
 4    1  0.3141404E-002  0.3082649E+03  0.7818608E-02  0.1081181E+00
         -2   -1    0    0    0  501 -0.00000000000E+00  0.00000000000E+00  0.44505095702E+02  0.44505095702E+02  0.00000000000E+00 0.  1.
          2   -1    0    0  502    0  0.00000000000E+00 -0.00000000000E+00 -0.22286142057E+04  0.22286142057E+04  0.00000000000E+00 0. -1.
          6    1    1    2  502    0  0.19151676289E+03 -0.16960129249E+03 -0.13247467670E+04  0.13601401640E+04  0.17200000000E+03 0. -1.
         -6    1    1    2    0  501 -0.19151676289E+03  0.16960129249E+03 -0.85936234298E+03  0.91297913744E+03  0.17200000000E+03 0.  1.
</event>
<event>
 4    1  0.3141404E-002  0.1978637E+03  0.7818608E-02  0.1151554E+00
          1   -1    0    0  502    0  0.00000000000E+00  0.00000000000E+00  0.23406970387E+04  0.23406970387E+04  0.00000000000E+00 0. -1.
         -1   -1    0    0    0  501 -0.00000000000E+00 -0.00000000000E+00 -0.25065496181E+02  0.25065496181E+02  0.00000000000E+00 0.  1.
          6    1    1    2  502    0  0.38158257152E+02  0.90055553774E+02  0.18401196493E+04  0.18507269866E+04  0.17200000000E+03 0. -1.
         -6    1    1    2    0  501 -0.38158257152E+02 -0.90055553774E+02  0.47551189322E+03  0.51503554824E+03  0.17200000000E+03 0.  1.
</event>
<event>
 4    1  0.3141404E-002  0.2847513E+03  0.7818608E-02  0.1093122E+00
          1   -1    0    0  502    0  0.00000000000E+00  0.00000000000E+00  0.74864791334E+03  0.74864791334E+03  0.00000000000E+00 0. -1.
         -1   -1    0    0    0  501 -0.00000000000E+00 -0.00000000000E+00 -0.41332666861E+03  0.41332666861E+03  0.00000000000E+00 0.  1.
          6    1    1    2  502    0 -0.34780348545E+02 -0.22425354044E+03  0.66675686872E+03  0.72501589295E+03  0.17200000000E+03 0. -1.
         -6    1    1    2    0  501  0.34780348545E+02  0.22425354044E+03 -0.33143562399E+03  0.43695868900E+03  0.17200000000E+03 0.  1.
</event>
<event>
 4    1  0.3141404E-002  0.2691870E+03  0.7818608E-02  0.1101746E+00
          1   -1    0    0  502    0  0.00000000000E+00  0.00000000000E+00  0.53235457440E+03  0.53235457440E+03  0.00000000000E+00 0. -1.
         -1   -1    0    0    0  501 -0.00000000000E+00 -0.00000000000E+00 -0.17020580135E+03  0.17020580135E+03  0.00000000000E+00 0.  1.
          6    1    1    2  502    0 -0.20688084171E+03  0.88299158739E+01  0.33828526810E+03  0.43231767567E+03  0.17200000000E+03 0. -1.
         -6    1    1    2    0  501  0.20688084171E+03 -0.88299158739E+01  0.23863504950E+02  0.27024270009E+03  0.17200000000E+03 0.  1.
</event>
<event>
 4    1  0.3141404E-002  0.4523815E+03  0.7818608E-02  0.1027014E+00
         -1   -1    0    0    0  501 -0.00000000000E+00  0.00000000000E+00  0.37093809245E+03  0.37093809245E+03  0.00000000000E+00 0.  1.
          1   -1    0    0  502    0  0.00000000000E+00 -0.00000000000E+00 -0.71758893761E+03  0.71758893761E+03  0.00000000000E+00 0. -1.
          6    1    1    2  502    0  0.71255566183E+02  0.41229559015E+03 -0.43500592991E+03  0.62759793533E+03  0.17200000000E+03 0. -1.
         -6    1    1    2    0  501 -0.71255566183E+02 -0.41229559015E+03  0.88355084753E+02  0.46092909474E+03  0.17200000000E+03 0.  1.
</event>
<event>
 4    1  0.3141404E-002  0.2002147E+03  0.7818608E-02  0.1149558E+00
          2   -1    0    0  502    0  0.00000000000E+00  0.00000000000E+00  0.10807260794E+04  0.10807260794E+04  0.00000000000E+00 0. -1.
         -2   -1    0    0    0  501 -0.00000000000E+00 -0.00000000000E+00 -0.38354775584E+02  0.38354775584E+02  0.00000000000E+00 0.  1.
          6    1    1    2  502    0  0.12938449921E+02 -0.10165887527E+03  0.62272685873E+03  0.65412129685E+03  0.17200000000E+03 0. -1.
         -6    1    1    2    0  501 -0.12938449921E+02  0.10165887527E+03  0.41964444508E+03  0.46495955813E+03  0.17200000000E+03 0.  1.
</event>
<event>
 4    1  0.3141404E-002  0.2053102E+03  0.7818608E-02  0.1145335E+00
          1   -1    0    0  502    0  0.00000000000E+00  0.00000000000E+00  0.62617767702E+02  0.62617767702E+02  0.00000000000E+00 0. -1.
         -1   -1    0    0    0  501 -0.00000000000E+00 -0.00000000000E+00 -0.85175645464E+03  0.85175645464E+03  0.00000000000E+00 0.  1.
          6    1    1    2  502    0 -0.14372722450E+02 -0.11118314244E+03 -0.18522406632E+03  0.27651441384E+03  0.17200000000E+03 0. -1.
         -6    1    1    2    0  501  0.14372722450E+02  0.11118314244E+03 -0.60391462061E+03  0.63785980850E+03  0.17200000000E+03 0.  1.
</event>
<event>
 4    1  0.3141404E-002  0.2442343E+03  0.7818608E-02  0.1117004E+00
          2   -1    0    0  502    0  0.00000000000E+00  0.00000000000E+00  0.14582504546E+04  0.14582504546E+04  0.00000000000E+00 0. -1.
         -2   -1    0    0    0  501 -0.00000000000E+00 -0.00000000000E+00 -0.53798703538E+02  0.53798703538E+02  0.00000000000E+00 0.  1.
          6    1    1    2  502    0 -0.17313420917E+03  0.95359733482E+01  0.10723362793E+04  0.10997979292E+04  0.17200000000E+03 0.  1.
         -6    1    1    2    0  501  0.17313420917E+03 -0.95359733482E+01  0.33211547176E+03  0.41225122893E+03  0.17200000000E+03 0.  1.
</event>
<event>
 4    1  0.3141404E-002  0.2117710E+03  0.7818608E-02  0.1140171E+00
         -2   -1    0    0    0  501 -0.00000000000E+00  0.00000000000E+00  0.14972167022E+04  0.14972167022E+04  0.00000000000E+00 0.  1.
          2   -1    0    0  502    0  0.00000000000E+00 -0.00000000000E+00 -0.45259805309E+02  0.45259805309E+02  0.00000000000E+00 0. -1.
          6    1    1    2  502    0  0.96760677216E+02 -0.76813471403E+02  0.27747388895E+03  0.34905400312E+03  0.17200000000E+03 0. -1.
         -6    1    1    2    0  501 -0.96760677216E+02  0.76813471403E+02  0.11744830080E+04  0.11934225044E+04  0.17200000000E+03 0.  1.
</event>
<event>
 4    1  0.3141404E-002  0.3107702E+03  0.7818608E-02  0.1079977E+00
          1   -1    0    0  502    0  0.00000000000E+00  0.00000000000E+00  0.31470499341E+03  0.31470499341E+03  0.00000000000E+00 0. -1.
         -1   -1    0    0    0  501 -0.00000000000E+00 -0.00000000000E+00 -0.33746343142E+03  0.33746343142E+03  0.00000000000E+00 0.  1.
          6    1    1    2  502    0  0.13308573550E+03  0.22199614329E+03 -0.10953755855E+03  0.32950960132E+03  0.17200000000E+03 0.  1.
         -6    1    1    2    0  501 -0.13308573550E+03 -0.22199614329E+03  0.86779120545E+02  0.32265882351E+03  0.17200000000E+03 0.  1.
</event>
<event>
 4    1  0.3141404E-002  0.4343475E+03  0.7818608E-02  0.1032495E+00
         -2   -1    0    0    0  501 -0.00000000000E+00  0.00000000000E+00  0.78100429423E+02  0.78100429423E+02  0.00000000000E+00 0.  1.
          2   -1    0    0  502    0  0.00000000000E+00 -0.00000000000E+00 -0.24411417300E+04  0.24411417300E+04  0.00000000000E+00 0. -1.
          6    1    1    2  502    0 -0.30544460779E+01 -0.39882877933E+03 -0.13104199498E+04  0.13805282213E+04  0.17200000000E+03 0. -1.
         -6    1    1    2    0  501  0.30544460779E+01  0.39882877933E+03 -0.10526213508E+04  0.11387139382E+04  0.17200000000E+03 0.  1.
</event>
<event>
 4    1  0.3141404E-002  0.2356789E+03  0.7818608E-02  0.1122705E+00
          1   -1    0    0  502    0  0.00000000000E+00  0.00000000000E+00  0.15495975827E+03  0.15495975827E+03  0.00000000000E+00 0. -1.
         -1   -1    0    0    0  501 -0.00000000000E+00 -0.00000000000E+00 -0.43725888313E+03  0.43725888313E+03  0.00000000000E+00 0.  1.
          6    1    1    2  502    0  0.40514490873E+02  0.15594586022E+03 -0.15435346355E+02  0.23618379540E+03  0.17200000000E+03 0. -1.
         -6    1    1    2    0  501 -0.40514490873E+02 -0.15594586022E+03 -0.26686377850E+03  0.35603484600E+03  0.17200000000E+03 0.  1.
</event>
<event>
 4    1  0.3141404E-002  0.2299476E+03  0.7818608E-02  0.1126677E+00
         -1   -1    0    0    0  501 -0.00000000000E+00  0.00000000000E+00  0.74453941148E+02  0.74453941148E+02  0.00000000000E+00 0.  1.
          1   -1    0    0  502    0  0.00000000000E+00 -0.00000000000E+00 -0.72049089348E+03  0.72049089348E+03  0.00000000000E+00 0. -1.
          6    1    1    2  502    0  0.38008730144E+02  0.14780810248E+03 -0.27547568683E+03  0.35883527245E+03  0.17200000000E+03 0. -1.
         -6    1    1    2    0  501 -0.38008730144E+02 -0.14780810248E+03 -0.37056126551E+03  0.43610956217E+03  0.17200000000E+03 0.  1.
</event>
<event>
 4    1  0.3141404E-002  0.2051911E+03  0.7818608E-02  0.1145432E+00
          2   -1    0    0  502    0  0.00000000000E+00  0.00000000000E+00  0.15842489673E+04  0.15842489673E+04  0.00000000000E+00 0. -1.
         -2   -1    0    0    0  501 -0.00000000000E+00 -0.00000000000E+00 -0.27615700764E+02  0.27615700764E+02  0.00000000000E+00 0.  1.
          6    1    1    2  502    0  0.65959922046E+02  0.90380840252E+02  0.93467497618E+03  0.95693297503E+03  0.17200000000E+03 0.  1.
         -6    1    1    2    0  501 -0.65959922046E+02 -0.90380840252E+02  0.62195829040E+03  0.65493169308E+03  0.17200000000E+03 0.  1.
</event>
<event>
 4    1  0.3141404E-002  0.2024701E+03  0.7818608E-02  0.1147672E+00
          2   -1    0    0  502    0  0.00000000000E+00  0.00000000000E+00  0.25738678352E+03  0.25738678352E+03  0.00000000000E+00 0. -1.
         -2   -1    0    0    0  501 -0.00000000000E+00 -0.00000000000E+00 -0.16011802112E+03  0.16011802112E+03  0.00000000000E+00 0.  1.
          6    1    1    2  502    0  0.39606538240E+02 -0.99204197926E+02  0.63820881970E+02  0.21229049845E+03  0.17200000000E+03 0. -1.
         -6    1    1    2    0  501 -0.39606538240E+02  0.99204197926E+02  0.33447880426E+02  0.20521430618E+03  0.17200000000E+03 0.  1.
</event>
<event>
 4    1  0.3141404E-002  0.4533994E+03  0.7818608E-02  0.1026713E+00
          2   -1    0    0  502    0  0.00000000000E+00  0.00000000000E+00  0.16036012046E+04  0.16036012046E+04  0.00000000000E+00 0. -1.
         -2   -1    0    0    0  501 -0.00000000000E+00 -0.00000000000E+00 -0.16673591130E+03  0.16673591130E+03  0.00000000000E+00 0.  1.
          6    1    1    2  502    0 -0.34007989901E+03 -0.24562718271E+03  0.11440129797E+04  0.12305839055E+04  0.17200000000E+03 0. -1.
         -6    1    1    2    0  501  0.34007989901E+03  0.24562718271E+03  0.29285231353E+03  0.53975321040E+03  0.17200000000E+03 0.  1.
</event>
<event>
 4    1  0.3141404E-002  0.1972341E+03  0.7818608E-02  0.1152094E+00
          1   -1    0    0  502    0  0.00000000000E+00  0.00000000000E+00  0.32721482281E+03  0.32721482281E+03  0.00000000000E+00 0. -1.
         -1   -1    0    0    0  501 -0.00000000000E+00 -0.00000000000E+00 -0.17176847672E+03  0.17176847672E+03  0.00000000000E+00 0.  1.
          6    1    1    2  502    0 -0.59120363063E+02 -0.76302472071E+02  0.21615625431E+03  0.29261717457E+03  0.17200000000E+03 0. -1.
         -6    1    1    2    0  501  0.59120363063E+02  0.76302472071E+02 -0.60709908223E+02  0.20636612496E+03  0.17200000000E+03 0.  1.
</event>
<event>
 4    1  0.3141404E-002  0.1974200E+03  0.7818608E-02  0.1151934E+00
         -2   -1    0    0    0  501 -0.00000000000E+00  0.00000000000E+00  0.64406771537E+02  0.64406771537E+02  0.00000000000E+00 0.  1.
          2   -1    0    0  502    0  0.00000000000E+00 -0.00000000000E+00 -0.91776432347E+03  0.91776432347E+03  0.00000000000E+00 0. -1.
          6    1    1    2  502    0 -0.96875347240E+02  0.24091601416E+01 -0.71329983194E+03  0.74011572554E+03  0.17200000000E+03 0. -1.
         -6    1    1    2    0  501  0.96875347240E+02 -0.24091601416E+01 -0.14005772000E+03  0.24205536946E+03  0.17200000000E+03 0.  1.
</event>
<event>
 4    1  0.3141404E-002  0.3456084E+03  0.7818608E-02  0.1064432E+00
         -2   -1    0    0    0  501 -0.00000000000E+00  0.00000000000E+00  0.15353691839E+03  0.15353691839E+03  0.00000000000E+00 0.  1.
          2   -1    0    0  502    0  0.00000000000E+00 -0.00000000000E+00 -0.84110256238E+03  0.84110256238E+03  0.00000000000E+00 0. -1.
          6    1    1    2  502    0  0.29753527796E+03 -0.36522997196E+02 -0.48004693894E+03  0.59151520229E+03  0.17200000000E+03 0. -1.
         -6    1    1    2    0  501 -0.29753527796E+03  0.36522997196E+02 -0.20751870505E+03  0.40312427848E+03  0.17200000000E+03 0. -1.
</event>
<event>
 4    1  0.3141404E-002  0.1957736E+03  0.7818608E-02  0.1153355E+00
          2   -1    0    0  502    0  0.00000000000E+00  0.00000000000E+00  0.17139206576E+04  0.17139206576E+04  0.00000000000E+00 0. -1.
         -2   -1    0    0    0  501 -0.00000000000E+00 -0.00000000000E+00 -0.27158597229E+02  0.27158597229E+02  0.00000000000E+00 0.  1.
          6    1    1    2  502    0  0.84409994972E+01 -0.93123753862E+02  0.47754547437E+03  0.51611719997E+03  0.17200000000E+03 0.  1.
         -6    1    1    2    0  501 -0.84409994972E+01  0.93123753862E+02  0.12092165860E+04  0.12249620549E+04  0.17200000000E+03 0.  1.
</event>
<event>
 4    1  0.3141404E-002  0.2239348E+03  0.7818608E-02  0.1130983E+00
          2   -1    0    0  502    0  0.00000000000E+00  0.00000000000E+00  0.42489056310E+03  0.42489056310E+03  0.00000000000E+00 0. -1.
         -2   -1    0    0    0  501 -0.00000000000E+00 -0.00000000000E+00 -0.11908359420E+03  0.11908359420E+03  0.00000000000E+00 0.  1.
          6    1    1    2  502    0  0.13889896192E+03 -0.35635524710E+02  0.17857310352E+03  0.28641781639E+03  0.17200000000E+03 0. -1.
         -6    1    1    2    0  501 -0.13889896192E+03  0.35635524710E+02  0.12723386538E+03  0.25755634091E+03  0.17200000000E+03 0.  1.
</event>
<event>
 4    1  0.3141404E-002  0.2281998E+03  0.7818608E-02  0.1127913E+00
          2   -1    0    0  502    0  0.00000000000E+00  0.00000000000E+00  0.19110124245E+04  0.19110124245E+04  0.00000000000E+00 0. -1.
         -2   -1    0    0    0  501 -0.00000000000E+00 -0.00000000000E+00 -0.37216227559E+02  0.37216227559E+02  0.00000000000E+00 0.  1.
          6    1    1    2  502    0 -0.13366616579E+03 -0.68003675888E+02  0.14409886136E+04  0.14589459649E+04  0.17200000000E+03 0. -1.
         -6    1    1    2    0  501  0.13366616579E+03  0.68003675888E+02  0.43280758333E+03  0.48928268721E+03  0.17200000000E+03 0.  1.
</event>
<event>
 4    1  0.3141404E-002  0.3293785E+03  0.7818608E-02  0.1071412E+00
          2   -1    0    0  502    0  0.00000000000E+00  0.00000000000E+00  0.38731918690E+03  0.38731918690E+03  0.00000000000E+00 0. -1.
         -2   -1    0    0    0  501 -0.00000000000E+00 -0.00000000000E+00 -0.28014469197E+03  0.28014469197E+03  0.00000000000E+00 0.  1.
          6    1    1    2  502    0 -0.98511222499E+02 -0.26306227994E+03  0.57535947618E+02  0.33436598115E+03  0.17200000000E+03 0. -1.
         -6    1    1    2    0  501  0.98511222499E+02  0.26306227994E+03  0.49638547315E+02  0.33309789772E+03  0.17200000000E+03 0.  1.
</event>
<event>
 4    1  0.3141404E-002  0.3225431E+03  0.7818608E-02  0.1074485E+00
          1   -1    0    0  502    0  0.00000000000E+00  0.00000000000E+00  0.23459489317E+04  0.23459489317E+04  0.00000000000E+00 0. -1.
         -1   -1    0    0    0  501 -0.00000000000E+00 -0.00000000000E+00 -0.44398886844E+02  0.44398886844E+02  0.00000000000E+00 0.  1.
          6    1    1    2  502    0 -0.22674892128E+03 -0.15177286484E+03  0.11919206007E+04  0.12347909921E+04  0.17200000000E+03 0. -1.
         -6    1    1    2    0  501  0.22674892128E+03  0.15177286484E+03  0.11096294442E+04  0.11555568265E+04  0.17200000000E+03 0.  1.
</event>
<event>
 4    1  0.3141404E-002  0.2038872E+03  0.7818608E-02  0.1146500E+00
          2   -1    0    0  502    0  0.00000000000E+00  0.00000000000E+00  0.21418368387E+03  0.21418368387E+03  0.00000000000E+00 0. -1.
         -2   -1    0    0    0  501 -0.00000000000E+00 -0.00000000000E+00 -0.14221622743E+04  0.14221622743E+04  0.00000000000E+00 0.  1.
          6    1    1    2  502    0 -0.53699023172E+02  0.95406449636E+02  0.15630772964E+03  0.25690870376E+03  0.17200000000E+03 0. -1.
         -6    1    1    2    0  501  0.53699023172E+02 -0.95406449636E+02 -0.13642863201E+04  0.13794372544E+04  0.17200000000E+03 0.  1.
</event>
<event>
 4    1  0.3141404E-002  0.4445178E+03  0.7818608E-02  0.1029370E+00
          1   -1    0    0  502    0  0.00000000000E+00  0.00000000000E+00  0.13005678538E+04  0.13005678538E+04  0.00000000000E+00 0. -1.
         -1   -1    0    0    0  501 -0.00000000000E+00 -0.00000000000E+00 -0.18805690406E+03  0.18805690406E+03  0.00000000000E+00 0.  1.
          6    1    1    2  502    0 -0.38983757774E+03 -0.12664429033E+03  0.88248412190E+03  0.98811656129E+03  0.17200000000E+03 0. -1.
         -6    1    1    2    0  501  0.38983757774E+03  0.12664429033E+03  0.23002682782E+03  0.50050819654E+03  0.17200000000E+03 0.  1.
</event>
<event>
 4    1  0.3141404E-002  0.2964019E+03  0.7818608E-02  0.1087053E+00
         -2   -1    0    0    0  501 -0.00000000000E+00  0.00000000000E+00  0.18346418320E+03  0.18346418320E+03  0.00000000000E+00 0.  1.
          2   -1    0    0  502    0  0.00000000000E+00 -0.00000000000E+00 -0.10980636046E+04  0.10980636046E+04  0.00000000000E+00 0. -1.
          6    1    1    2  502    0  0.23932608780E+03 -0.31513787906E+02 -0.93847153337E+03  0.98416610086E+03  0.17200000000E+03 0. -1.
         -6    1    1    2    0  501 -0.23932608780E+03  0.31513787906E+02  0.23872111967E+02  0.29736168694E+03  0.17200000000E+03 0.  1.
</event>
<event>
 4    1  0.3141404E-002  0.2173435E+03  0.7818608E-02  0.1135879E+00
          1   -1    0    0  502    0  0.00000000000E+00  0.00000000000E+00  0.89380810276E+03  0.89380810276E+03  0.00000000000E+00 0. -1.
         -1   -1    0    0    0  501 -0.00000000000E+00 -0.00000000000E+00 -0.54449852354E+02  0.54449852354E+02  0.00000000000E+00 0.  1.
          6    1    1    2  502    0 -0.36220816302E+02  0.12783682026E+03  0.33842021746E+03  0.40220199370E+03  0.17200000000E+03 0. -1.
         -6    1    1    2    0  501  0.36220816302E+02 -0.12783682026E+03  0.50093803295E+03  0.54605596142E+03  0.17200000000E+03 0. -1.
</event>
<event>
 4    1  0.3141404E-002  0.2256527E+03  0.7818608E-02  0.1129738E+00
          3   -1    0    0  502    0  0.00000000000E+00  0.00000000000E+00  0.11151692601E+03  0.11151692601E+03  0.00000000000E+00 0. -1.
         -3   -1    0    0    0  501 -0.00000000000E+00 -0.00000000000E+00 -0.47375744150E+03  0.47375744150E+03  0.00000000000E+00 0.  1.
          6    1    1    2  502    0 -0.97910052429E+02 -0.10839169838E+03 -0.12543761541E+03  0.25817384454E+03  0.17200000000E+03 0. -1.
         -6    1    1    2    0  501  0.97910052429E+02  0.10839169838E+03 -0.23680290007E+03  0.32710052297E+03  0.17200000000E+03 0.  1.
</event>
<event>
 4    1  0.3141404E-002  0.2124221E+03  0.7818608E-02  0.1139662E+00
         -2   -1    0    0    0  501 -0.00000000000E+00  0.00000000000E+00  0.17316293916E+02  0.17316293916E+02  0.00000000000E+00 0.  1.
          2   -1    0    0  502    0  0.00000000000E+00 -0.00000000000E+00 -0.35910623580E+04  0.35910623580E+04  0.00000000000E+00 0. -1.
          6    1    1    2  502    0  0.48984577965E+02 -0.11462844100E+03 -0.27318949387E+04  0.27401410775E+04  0.17200000000E+03 0. -1.
         -6    1    1    2    0  501 -0.48984577965E+02  0.11462844100E+03 -0.84185112543E+03  0.86823757448E+03  0.17200000000E+03 0.  1.
</event>
<event>
 4    1  0.3141404E-002  0.1723399E+03  0.7818608E-02  0.1175429E+00
         -2   -1    0    0    0  501 -0.00000000000E+00  0.00000000000E+00  0.16333089919E+02  0.16333089919E+02  0.00000000000E+00 0.  1.
          2   -1    0    0  502    0  0.00000000000E+00 -0.00000000000E+00 -0.18401793025E+04  0.18401793025E+04  0.00000000000E+00 0. -1.
          6    1    1    2  502    0  0.18540714286E+01  0.10658997669E+02 -0.10127722655E+04  0.10273308686E+04  0.17200000000E+03 0. -1.
         -6    1    1    2    0  501 -0.18540714286E+01 -0.10658997669E+02 -0.81107394712E+03  0.82918152385E+03  0.17200000000E+03 0.  1.
</event>
<event>
 4    1  0.3141404E-002  0.1880010E+03  0.7818608E-02  0.1160277E+00
         -1   -1    0    0    0  501 -0.00000000000E+00  0.00000000000E+00  0.17551759797E+03  0.17551759797E+03  0.00000000000E+00 0.  1.
          1   -1    0    0  502    0  0.00000000000E+00 -0.00000000000E+00 -0.20523555677E+03  0.20523555677E+03  0.00000000000E+00 0. -1.
          6    1    1    2  502    0  0.72884210024E+02  0.21172197070E+02  0.11260707637E+02  0.18833792379E+03  0.17200000000E+03 0.  1.
         -6    1    1    2    0  501 -0.72884210024E+02 -0.21172197070E+02 -0.40978666432E+02  0.19241523095E+03  0.17200000000E+03 0. -1.
</event>
<event>
 4    1  0.3141404E-002  0.1740171E+03  0.7818608E-02  0.1173722E+00
         -2   -1    0    0    0  501 -0.00000000000E+00  0.00000000000E+00  0.28813553575E+02  0.28813553575E+02  0.00000000000E+00 0.  1.
          2   -1    0    0  502    0  0.00000000000E+00 -0.00000000000E+00 -0.11859300088E+04  0.11859300088E+04  0.00000000000E+00 0. -1.
          6    1    1    2  502    0 -0.22461376564E+02  0.13907718244E+02 -0.78345785188E+03  0.80255102251E+03  0.17200000000E+03 0. -1.
         -6    1    1    2    0  501  0.22461376564E+02 -0.13907718244E+02 -0.37365860334E+03  0.41219253986E+03  0.17200000000E+03 0.  1.
</event>
<event>
 4    1  0.3141404E-002  0.5560941E+03  0.7818608E-02  0.1000093E+00
          1   -1    0    0  502    0  0.00000000000E+00  0.00000000000E+00  0.12727307917E+04  0.12727307917E+04  0.00000000000E+00 0. -1.
         -1   -1    0    0    0  501 -0.00000000000E+00 -0.00000000000E+00 -0.26195215984E+03  0.26195215984E+03  0.00000000000E+00 0.  1.
          6    1    1    2  502    0 -0.40210669155E+03 -0.34346298398E+03  0.71192906265E+03  0.90337345711E+03  0.17200000000E+03 0. -1.
         -6    1    1    2    0  501  0.40210669155E+03  0.34346298398E+03  0.29884956924E+03  0.63130949446E+03  0.17200000000E+03 0.  1.
</event>
<event>
 4    1  0.3141404E-002  0.2424129E+03  0.7818608E-02  0.1118196E+00
          4   -1    0    0  502    0  0.00000000000E+00  0.00000000000E+00  0.15829584648E+03  0.15829584648E+03  0.00000000000E+00 0. -1.
         -4   -1    0    0    0  501 -0.00000000000E+00 -0.00000000000E+00 -0.49682691959E+03  0.49682691959E+03  0.00000000000E+00 0.  1.
          6    1    1    2  502    0 -0.13342125828E+03 -0.10667140115E+03 -0.45702245939E+01  0.24245598969E+03  0.17200000000E+03 0. -1.
         -6    1    1    2    0  501  0.13342125828E+03  0.10667140115E+03 -0.33396084852E+03  0.41266677638E+03  0.17200000000E+03 0.  1.
</event>
<event>
 4    1  0.3141404E-002  0.2441237E+03  0.7818608E-02  0.1117076E+00
         -2   -1    0    0    0  501 -0.00000000000E+00  0.00000000000E+00  0.34829210901E+03  0.34829210901E+03  0.00000000000E+00 0.  1.
          2   -1    0    0  502    0  0.00000000000E+00 -0.00000000000E+00 -0.24293871443E+04  0.24293871443E+04  0.00000000000E+00 0. -1.
          6    1    1    2  502    0  0.17192799356E+03 -0.21286983322E+02 -0.23795837381E+04  0.23920733972E+04  0.17200000000E+03 0. -1.
         -6    1    1    2    0  501 -0.17192799356E+03  0.21286983322E+02  0.29848870280E+03  0.38560585619E+03  0.17200000000E+03 0.  1.
</event>
<event>
 4    1  0.3141404E-002  0.1775878E+03  0.7818608E-02  0.1170158E+00
          3   -1    0    0  502    0  0.00000000000E+00  0.00000000000E+00  0.63786589953E+02  0.63786589953E+02  0.00000000000E+00 0. -1.
         -3   -1    0    0    0  501 -0.00000000000E+00 -0.00000000000E+00 -0.67910536305E+03  0.67910536305E+03  0.00000000000E+00 0.  1.
          6    1    1    2  502    0 -0.18287966253E+01 -0.44159573501E+02 -0.50136511205E+03  0.53188757083E+03  0.17200000000E+03 0.  1.
         -6    1    1    2    0  501  0.18287966253E+01  0.44159573501E+02 -0.11395366105E+03  0.21100438217E+03  0.17200000000E+03 0. -1.
</event>
<event>
 4    1  0.3141404E-002  0.4375981E+03  0.7818608E-02  0.1031486E+00
         -2   -1    0    0    0  501 -0.00000000000E+00  0.00000000000E+00  0.13201666938E+03  0.13201666938E+03  0.00000000000E+00 0.  1.
          2   -1    0    0  502    0  0.00000000000E+00 -0.00000000000E+00 -0.20730041427E+04  0.20730041427E+04  0.00000000000E+00 0. -1.
          6    1    1    2  502    0 -0.14151928109E+03 -0.37667016006E+03 -0.15746490730E+04  0.16343230462E+04  0.17200000000E+03 0. -1.
         -6    1    1    2    0  501  0.14151928109E+03  0.37667016006E+03 -0.36633840038E+03  0.57069776589E+03  0.17200000000E+03 0.  1.
</event>
<event>
 4    1  0.3141404E-002  0.1852845E+03  0.7818608E-02  0.1162784E+00
         -1   -1    0    0    0  501 -0.00000000000E+00  0.00000000000E+00  0.37647700362E+02  0.37647700362E+02  0.00000000000E+00 0.  1.
          1   -1    0    0  502    0  0.00000000000E+00 -0.00000000000E+00 -0.10400626299E+04  0.10400626299E+04  0.00000000000E+00 0. -1.
          6    1    1    2  502    0 -0.63102701561E+02 -0.27647812711E+02 -0.31203873123E+03  0.36290291027E+03  0.17200000000E+03 0.  1.
         -6    1    1    2    0  501  0.63102701561E+02  0.27647812711E+02 -0.69037619832E+03  0.71480742001E+03  0.17200000000E+03 0. -1.
</event>
<event>
 4    1  0.3141404E-002  0.2739246E+03  0.7818608E-02  0.1099054E+00
         -2   -1    0    0    0  501 -0.00000000000E+00  0.00000000000E+00  0.48531263794E+02  0.48531263794E+02  0.00000000000E+00 0.  1.
          2   -1    0    0  502    0  0.00000000000E+00 -0.00000000000E+00 -0.16778042840E+04  0.16778042840E+04  0.00000000000E+00 0. -1.
          6    1    1    2  502    0  0.15363278082E+03  0.14780949985E+03 -0.10564651772E+04  0.10913997207E+04  0.17200000000E+03 0. -1.
         -6    1    1    2    0  501 -0.15363278082E+03 -0.14780949985E+03 -0.57280784302E+03  0.63493582717E+03  0.17200000000E+03 0.  1.
</event>
<event>
 4    1  0.3141404E-002  0.1887960E+03  0.7818608E-02  0.1159552E+00
         -1   -1    0    0    0  501 -0.00000000000E+00  0.00000000000E+00  0.75637560274E+02  0.75637560274E+02  0.00000000000E+00 0.  1.
          1   -1    0    0  502    0  0.00000000000E+00 -0.00000000000E+00 -0.47740357512E+03  0.47740357512E+03  0.00000000000E+00 0. -1.
          6    1    1    2  502    0 -0.22750893098E+02 -0.74446824599E+02 -0.16947986565E+03  0.25370722830E+03  0.17200000000E+03 0.  1.
         -6    1    1    2    0  501  0.22750893098E+02  0.74446824599E+02 -0.23228614919E+03  0.29933390709E+03  0.17200000000E+03 0. -1.
</event>
<event>
 4    1  0.3141404E-002  0.2860154E+03  0.7818608E-02  0.1092448E+00
         -2   -1    0    0    0  501 -0.00000000000E+00  0.00000000000E+00  0.17056999151E+03  0.17056999151E+03  0.00000000000E+00 0.  1.
          2   -1    0    0  502    0  0.00000000000E+00 -0.00000000000E+00 -0.55424477404E+03  0.55424477404E+03  0.00000000000E+00 0. -1.
          6    1    1    2  502    0  0.16622229859E+03  0.15681506780E+03 -0.58836266128E+02  0.29200432231E+03  0.17200000000E+03 0. -1.
         -6    1    1    2    0  501 -0.16622229859E+03 -0.15681506780E+03 -0.32483851641E+03  0.43281044324E+03  0.17200000000E+03 0. -1.
</event>
<event>
 4    1  0.3141404E-002  0.2915336E+03  0.7818608E-02  0.1089551E+00
         -2   -1    0    0    0  501 -0.00000000000E+00  0.00000000000E+00  0.11420002577E+03  0.11420002577E+03  0.00000000000E+00 0.  1.
          2   -1    0    0  502    0  0.00000000000E+00 -0.00000000000E+00 -0.75152464157E+03  0.75152464157E+03  0.00000000000E+00 0. -1.
          6    1    1    2  502    0 -0.21907673465E+03 -0.86100020407E+02 -0.36128944239E+03  0.46424335252E+03  0.17200000000E+03 0. -1.
         -6    1    1    2    0  501  0.21907673465E+03  0.86100020407E+02 -0.27603517342E+03  0.40148131482E+03  0.17200000000E+03 0.  1.
</event>
<event>
 4    1  0.3141404E-002  0.4134092E+03  0.7818608E-02  0.1039233E+00
          1   -1    0    0  502    0  0.00000000000E+00  0.00000000000E+00  0.83622848174E+03  0.83622848174E+03  0.00000000000E+00 0. -1.
         -1   -1    0    0    0  501 -0.00000000000E+00 -0.00000000000E+00 -0.21605742213E+03  0.21605742213E+03  0.00000000000E+00 0.  1.
          6    1    1    2  502    0  0.29772257280E+03 -0.22953088399E+03  0.43241181318E+03  0.59823668663E+03  0.17200000000E+03 0. -1.
         -6    1    1    2    0  501 -0.29772257280E+03  0.22953088399E+03  0.18775924643E+03  0.45404921724E+03  0.17200000000E+03 0.  1.
</event>
<event>
 4    1  0.3141404E-002  0.1851577E+03  0.7818608E-02  0.1162903E+00
         -2   -1    0    0    0  501 -0.00000000000E+00  0.00000000000E+00  0.41854191759E+02  0.41854191759E+02  0.00000000000E+00 0.  1.
          2   -1    0    0  502    0  0.00000000000E+00 -0.00000000000E+00 -0.87183229831E+03  0.87183229831E+03  0.00000000000E+00 0. -1.
          6    1    1    2  502    0 -0.20963139068E+02  0.65268083381E+02 -0.52732773119E+03  0.55888989255E+03  0.17200000000E+03 0. -1.
         -6    1    1    2    0  501  0.20963139068E+02 -0.65268083381E+02 -0.30265037536E+03  0.35479659752E+03  0.17200000000E+03 0. -1.
</event>
<event>
 4    1  0.3141404E-002  0.1779325E+03  0.7818608E-02  0.1169819E+00
          1   -1    0    0  502    0  0.00000000000E+00  0.00000000000E+00  0.88239921930E+02  0.88239921930E+02  0.00000000000E+00 0. -1.
         -1   -1    0    0    0  501 -0.00000000000E+00 -0.00000000000E+00 -0.35966151719E+03  0.35966151719E+03  0.00000000000E+00 0.  1.
          6    1    1    2  502    0  0.23962112008E+02 -0.38752903164E+02 -0.14670844503E+03  0.23061512994E+03  0.17200000000E+03 0.  1.
         -6    1    1    2    0  501 -0.23962112008E+02  0.38752903164E+02 -0.12471315023E+03  0.21728630918E+03  0.17200000000E+03 0.  1.
</event>
<event>
 4    1  0.3141404E-002  0.4788519E+03  0.7818608E-02  0.1019451E+00
          2   -1    0    0  502    0  0.00000000000E+00  0.00000000000E+00  0.44352326485E+03  0.44352326485E+03  0.00000000000E+00 0. -1.
         -2   -1    0    0    0  501 -0.00000000000E+00 -0.00000000000E+00 -0.61070255899E+03  0.61070255899E+03  0.00000000000E+00 0.  1.
          6    1    1    2  502    0  0.41429190622E+03 -0.16756299292E+03  0.12288987498E+03  0.49436935739E+03  0.17200000000E+03 0. -1.
         -6    1    1    2    0  501 -0.41429190622E+03  0.16756299292E+03 -0.29006916912E+03  0.55985646645E+03  0.17200000000E+03 0.  1.
</event>
<event>
 4    1  0.3141404E-002  0.2172191E+03  0.7818608E-02  0.1135973E+00
         -3   -1    0    0    0  501 -0.00000000000E+00  0.00000000000E+00  0.72882806746E+02  0.72882806746E+02  0.00000000000E+00 0.  1.
          3   -1    0    0  502    0  0.00000000000E+00 -0.00000000000E+00 -0.79915103482E+03  0.79915103482E+03  0.00000000000E+00 0. -1.
          6    1    1    2  502    0  0.13171958653E+03 -0.15814432487E+02 -0.55313618761E+03  0.59425902416E+03  0.17200000000E+03 0.  1.
         -6    1    1    2    0  501 -0.13171958653E+03  0.15814432487E+02 -0.17313204047E+03  0.27777481741E+03  0.17200000000E+03 0.  1.
</event>
<event>
 4    1  0.3141404E-002  0.2309251E+03  0.7818608E-02  0.1125990E+00
          2   -1    0    0  502    0  0.00000000000E+00  0.00000000000E+00  0.13795495699E+03  0.13795495699E+03  0.00000000000E+00 0. -1.
         -2   -1    0    0    0  501 -0.00000000000E+00 -0.00000000000E+00 -0.38674464731E+03  0.38674464731E+03  0.00000000000E+00 0.  1.
          6    1    1    2  502    0 -0.89385425226E+02 -0.12550949444E+03 -0.11849813847E+03  0.25955384077E+03  0.17200000000E+03 0. -1.
         -6    1    1    2    0  501  0.89385425226E+02  0.12550949444E+03 -0.13029155185E+03  0.26514576353E+03  0.17200000000E+03 0.  1.
</event>
<event>
 4    1  0.3141404E-002  0.1739356E+03  0.7818608E-02  0.1173805E+00
          3   -1    0    0  502    0  0.00000000000E+00  0.00000000000E+00  0.84710994642E+02  0.84710994642E+02  0.00000000000E+00 0. -1.
         -3   -1    0    0    0  501 -0.00000000000E+00 -0.00000000000E+00 -0.52026496025E+03  0.52026496025E+03  0.00000000000E+00 0.  1.
          6    1    1    2  502    0  0.22195743214E+02 -0.13301788857E+02 -0.38715519627E+03  0.42443224972E+03  0.17200000000E+03 0.  1.
         -6    1    1    2    0  501 -0.22195743214E+02  0.13301788857E+02 -0.48398769338E+02  0.18054370517E+03  0.17200000000E+03 0. -1.
</event>
<event>
 4    1  0.3141404E-002  0.1833161E+03  0.7818608E-02  0.1164632E+00
         -2   -1    0    0    0  501 -0.00000000000E+00  0.00000000000E+00  0.12324776592E+03  0.12324776592E+03  0.00000000000E+00 0.  1.
          2   -1    0    0  502    0  0.00000000000E+00 -0.00000000000E+00 -0.41860332156E+03  0.41860332156E+03  0.00000000000E+00 0. -1.
          6    1    1    2  502    0  0.28620686058E+02 -0.56583131244E+02 -0.30764832298E+03  0.35812328191E+03  0.17200000000E+03 0. -1.
         -6    1    1    2    0  501 -0.28620686058E+02  0.56583131244E+02  0.12292767345E+02  0.18372780557E+03  0.17200000000E+03 0.  1.
</event>
<event>
 4    1  0.3141404E-002  0.3711205E+03  0.7818608E-02  0.1054265E+00
          2   -1    0    0  502    0  0.00000000000E+00  0.00000000000E+00  0.36745774660E+04  0.36745774660E+04  0.00000000000E+00 0. -1.
         -2   -1    0    0    0  501 -0.00000000000E+00 -0.00000000000E+00 -0.54610675868E+02  0.54610675868E+02  0.00000000000E+00 0.  1.
          6    1    1    2  502    0 -0.14842153188E+03 -0.29345782244E+03  0.28542410151E+04  0.28782672247E+04  0.17200000000E+03 0. -1.
         -6    1    1    2    0  501  0.14842153188E+03  0.29345782244E+03  0.76572577506E+03  0.85092091716E+03  0.17200000000E+03 0.  1.
</event>
<event>
 4    1  0.3141404E-002  0.1953747E+03  0.7818608E-02  0.1153701E+00
          4   -1    0    0  502    0  0.00000000000E+00  0.00000000000E+00  0.10897927887E+03  0.10897927887E+03  0.00000000000E+00 0. -1.
         -4   -1    0    0    0  501 -0.00000000000E+00 -0.00000000000E+00 -0.44933421959E+03  0.44933421959E+03  0.00000000000E+00 0.  1.
          6    1    1    2  502    0 -0.13927751153E+01 -0.92656987691E+02 -0.30125860630E+03  0.35906546069E+03  0.17200000000E+03 0. -1.
         -6    1    1    2    0  501  0.13927751153E+01  0.92656987691E+02 -0.39096334421E+02  0.19924803777E+03  0.17200000000E+03 0. -1.
</event>
<event>
 4    1  0.3141404E-002  0.2238985E+03  0.7818608E-02  0.1131009E+00
          1   -1    0    0  502    0  0.00000000000E+00  0.00000000000E+00  0.19128633864E+03  0.19128633864E+03  0.00000000000E+00 0. -1.
         -1   -1    0    0    0  501 -0.00000000000E+00 -0.00000000000E+00 -0.43919094149E+03  0.43919094149E+03  0.00000000000E+00 0.  1.
          6    1    1    2  502    0 -0.12449491409E+03 -0.71046252152E+02 -0.32414433859E+03  0.39395444638E+03  0.17200000000E+03 0.  1.
         -6    1    1    2    0  501  0.12449491409E+03  0.71046252152E+02  0.76239735744E+02  0.23652283375E+03  0.17200000000E+03 0. -1.
</event>
<event>
 4    1  0.3141404E-002  0.2501127E+03  0.7818608E-02  0.1113234E+00
         -1   -1    0    0    0  501 -0.00000000000E+00  0.00000000000E+00  0.77709744977E+02  0.77709744977E+02  0.00000000000E+00 0.  1.
          1   -1    0    0  502    0  0.00000000000E+00 -0.00000000000E+00 -0.81981923142E+03  0.81981923142E+03  0.00000000000E+00 0. -1.
          6    1    1    2  502    0  0.14909135749E+03 -0.10365386217E+03 -0.43138985732E+03  0.49865174724E+03  0.17200000000E+03 0. -1.
         -6    1    1    2    0  501 -0.14909135749E+03  0.10365386217E+03 -0.31071962912E+03  0.39887722916E+03  0.17200000000E+03 0.  1.
</event>
<event>
 4    1  0.3141404E-002  0.4115582E+03  0.7818608E-02  0.1039849E+00
          2   -1    0    0  502    0  0.00000000000E+00  0.00000000000E+00  0.16355310667E+04  0.16355310667E+04  0.00000000000E+00 0. -1.
         -2   -1    0    0    0  501 -0.00000000000E+00 -0.00000000000E+00 -0.12521657226E+03  0.12521657226E+03  0.00000000000E+00 0.  1.
          6    1    1    2  502    0 -0.37310240652E+03 -0.24305482361E+02  0.11212600764E+04  0.11944054258E+04  0.17200000000E+03 0. -1.
         -6    1    1    2    0  501  0.37310240652E+03  0.24305482361E+02  0.38905441806E+03  0.56634221319E+03  0.17200000000E+03 0.  1.
</event>
<event>
 4    1  0.3141404E-002  0.1839277E+03  0.7818608E-02  0.1164055E+00
         -2   -1    0    0    0  501 -0.00000000000E+00  0.00000000000E+00  0.32959836563E+02  0.32959836563E+02  0.00000000000E+00 0.  1.
          2   -1    0    0  502    0  0.00000000000E+00 -0.00000000000E+00 -0.11248209655E+04  0.11248209655E+04  0.00000000000E+00 0. -1.
          6    1    1    2  502    0 -0.62808793567E+02 -0.17334126825E+02 -0.71718267144E+03  0.74039205879E+03  0.17200000000E+03 0. -1.
         -6    1    1    2    0  501  0.62808793567E+02  0.17334126825E+02 -0.37467845752E+03  0.41738874330E+03  0.17200000000E+03 0.  1.
</event>
<event>
 4    1  0.3141404E-002  0.2088525E+03  0.7818608E-02  0.1142478E+00
          2   -1    0    0  502    0  0.00000000000E+00  0.00000000000E+00  0.35325314081E+03  0.35325314081E+03  0.00000000000E+00 0. -1.
         -2   -1    0    0    0  501 -0.00000000000E+00 -0.00000000000E+00 -0.13684995786E+03  0.13684995786E+03  0.00000000000E+00 0.  1.
          6    1    1    2  502    0 -0.54625287767E+02  0.10512590108E+03  0.18479914195E+03  0.27887291014E+03  0.17200000000E+03 0. -1.
         -6    1    1    2    0  501  0.54625287767E+02 -0.10512590108E+03  0.31604040996E+02  0.21123018854E+03  0.17200000000E+03 0.  1.
</event>
<event>
 4    1  0.3141404E-002  0.1878959E+03  0.7818608E-02  0.1160373E+00
          1   -1    0    0  502    0  0.00000000000E+00  0.00000000000E+00  0.22068083571E+03  0.22068083571E+03  0.00000000000E+00 0. -1.
         -1   -1    0    0    0  501 -0.00000000000E+00 -0.00000000000E+00 -0.21922488647E+03  0.21922488647E+03  0.00000000000E+00 0.  1.
          6    1    1    2  502    0 -0.66743476378E+02 -0.35583128224E+02  0.11506967180E+03  0.22033129605E+03  0.17200000000E+03 0. -1.
         -6    1    1    2    0  501  0.66743476378E+02  0.35583128224E+02 -0.11361372256E+03  0.21957442612E+03  0.17200000000E+03 0.  1.
</event>
<event>
 4    1  0.3141404E-002  0.6123703E+03  0.7818608E-02  0.9880069E-01
          1   -1    0    0  502    0  0.00000000000E+00  0.00000000000E+00  0.73387641646E+03  0.73387641646E+03  0.00000000000E+00 0. -1.
         -1   -1    0    0    0  501 -0.00000000000E+00 -0.00000000000E+00 -0.68543090837E+03  0.68543090837E+03  0.00000000000E+00 0.  1.
          6    1    1    2  502    0 -0.24575239839E+03  0.53387186383E+03  0.38223602515E+03  0.72187380284E+03  0.17200000000E+03 0. -1.
         -6    1    1    2    0  501  0.24575239839E+03 -0.53387186383E+03 -0.33379051706E+03  0.69743352198E+03  0.17200000000E+03 0.  1.
</event>
<event>
 4    1  0.3141404E-002  0.2507043E+03  0.7818608E-02  0.1112861E+00
         -2   -1    0    0    0  501 -0.00000000000E+00  0.00000000000E+00  0.10620589166E+03  0.10620589166E+03  0.00000000000E+00 0.  1.
          2   -1    0    0  502    0  0.00000000000E+00 -0.00000000000E+00 -0.69330164817E+03  0.69330164817E+03  0.00000000000E+00 0. -1.
          6    1    1    2  502    0  0.61767905290E+02  0.17161988335E+03 -0.14059144029E+03  0.28743453441E+03  0.17200000000E+03 0. -1.
         -6    1    1    2    0  501 -0.61767905290E+02 -0.17161988335E+03 -0.44650431622E+03  0.51207300543E+03  0.17200000000E+03 0. -1.
</event>
<event>
 4    1  0.3141404E-002  0.2682420E+03  0.7818608E-02  0.1102290E+00
          1   -1    0    0  502    0  0.00000000000E+00  0.00000000000E+00  0.17596266394E+04  0.17596266394E+04  0.00000000000E+00 0. -1.
         -1   -1    0    0    0  501 -0.00000000000E+00 -0.00000000000E+00 -0.93952929114E+02  0.93952929114E+02  0.00000000000E+00 0.  1.
          6    1    1    2  502    0 -0.16470638714E+03 -0.12345685496E+03  0.15293278560E+04  0.15526742994E+04  0.17200000000E+03 0. -1.
         -6    1    1    2    0  501  0.16470638714E+03  0.12345685496E+03  0.13634585436E+03  0.30090526915E+03  0.17200000000E+03 0.  1.
</event>
<event>
 4    1  0.3141404E-002  0.3672231E+03  0.7818608E-02  0.1055760E+00
          1   -1    0    0  502    0  0.00000000000E+00  0.00000000000E+00  0.95686102325E+03  0.95686102325E+03  0.00000000000E+00 0. -1.
         -1   -1    0    0    0  501 -0.00000000000E+00 -0.00000000000E+00 -0.16828246833E+03  0.16828246833E+03  0.00000000000E+00 0.  1.
          6    1    1    2  502    0  0.24772976268E+03 -0.20952033707E+03  0.62108610229E+03  0.72152668241E+03  0.17200000000E+03 0. -1.
         -6    1    1    2    0  501 -0.24772976268E+03  0.20952033707E+03  0.16749245262E+03  0.40361680918E+03  0.17200000000E+03 0.  1.
</event>
<event>
 4    1  0.3141404E-002  0.1790233E+03  0.7818608E-02  0.1168752E+00
          1   -1    0    0  502    0  0.00000000000E+00  0.00000000000E+00  0.27050150765E+03  0.27050150765E+03  0.00000000000E+00 0. -1.
         -1   -1    0    0    0  501 -0.00000000000E+00 -0.00000000000E+00 -0.11925258876E+03  0.11925258876E+03  0.00000000000E+00 0.  1.
          6    1    1    2  502    0 -0.48106947002E+02  0.12290431193E+02  0.91298249739E+02  0.20095945724E+03  0.17200000000E+03 0.  1.
         -6    1    1    2    0  501  0.48106947002E+02 -0.12290431193E+02  0.59950669142E+02  0.18879463917E+03  0.17200000000E+03 0. -1.
</event>
<event>
 4    1  0.3141404E-002  0.1757837E+03  0.7818608E-02  0.1171947E+00
         -2   -1    0    0    0  501 -0.00000000000E+00  0.00000000000E+00  0.22803796094E+03  0.22803796094E+03  0.00000000000E+00 0.  1.
          2   -1    0    0  502    0  0.00000000000E+00 -0.00000000000E+00 -0.26507079005E+03  0.26507079005E+03  0.00000000000E+00 0. -1.
          6    1    1    2  502    0 -0.31655857520E+02 -0.17715174463E+02 -0.19089353471E+03  0.25950002373E+03  0.17200000000E+03 0. -1.
         -6    1    1    2    0  501  0.31655857520E+02  0.17715174463E+02  0.15386070561E+03  0.23360872726E+03  0.17200000000E+03 0.  1.
</event>
<event>
 4    1  0.3141404E-002  0.1733141E+03  0.7818608E-02  0.1174435E+00
         -2   -1    0    0    0  501 -0.00000000000E+00  0.00000000000E+00  0.60023456923E+02  0.60023456923E+02  0.00000000000E+00 0.  1.
          2   -1    0    0  502    0  0.00000000000E+00 -0.00000000000E+00 -0.16812511778E+04  0.16812511778E+04  0.00000000000E+00 0. -1.
          6    1    1    2  502    0 -0.16493496207E+02  0.13481136980E+02 -0.15402600437E+04  0.15499802510E+04  0.17200000000E+03 0. -1.
         -6    1    1    2    0  501  0.16493496207E+02 -0.13481136980E+02 -0.80967677175E+02  0.19129438366E+03  0.17200000000E+03 0.  1.
</event>
<event>
 4    1  0.3141404E-002  0.3257949E+03  0.7818608E-02  0.1073013E+00
          2   -1    0    0  502    0  0.00000000000E+00  0.00000000000E+00  0.36041084069E+04  0.36041084069E+04  0.00000000000E+00 0. -1.
         -2   -1    0    0    0  501 -0.00000000000E+00 -0.00000000000E+00 -0.30938764712E+02  0.30938764712E+02  0.00000000000E+00 0.  1.
          6    1    1    2  502    0 -0.54512758954E+02  0.27126858405E+03  0.21852325277E+04  0.22093853185E+04  0.17200000000E+03 0. -1.
         -6    1    1    2    0  501  0.54512758954E+02 -0.27126858405E+03  0.13879371144E+04  0.14256618530E+04  0.17200000000E+03 0.  1.
</event>
<event>
 4    1  0.3141404E-002  0.3729887E+03  0.7818608E-02  0.1053556E+00
         -2   -1    0    0    0  501 -0.00000000000E+00  0.00000000000E+00  0.67656817543E+02  0.67656817543E+02  0.00000000000E+00 0.  1.
          2   -1    0    0  502    0  0.00000000000E+00 -0.00000000000E+00 -0.30087700947E+04  0.30087700947E+04  0.00000000000E+00 0. -1.
          6    1    1    2  502    0  0.28021583328E+03 -0.17611266879E+03 -0.60508079399E+03  0.71080472184E+03  0.17200000000E+03 0. -1.
         -6    1    1    2    0  501 -0.28021583328E+03  0.17611266879E+03 -0.23360324832E+04  0.23656221904E+04  0.17200000000E+03 0. -1.
</event>
<event>
 4    1  0.3141404E-002  0.1968940E+03  0.7818608E-02  0.1152386E+00
          2   -1    0    0  502    0  0.00000000000E+00  0.00000000000E+00  0.70134598233E+03  0.70134598233E+03  0.00000000000E+00 0. -1.
         -2   -1    0    0    0  501 -0.00000000000E+00 -0.00000000000E+00 -0.80698540414E+02  0.80698540414E+02  0.00000000000E+00 0.  1.
          6    1    1    2  502    0  0.59844575958E+02 -0.74845647308E+02  0.52979740613E+03  0.56520132319E+03  0.17200000000E+03 0. -1.
         -6    1    1    2    0  501 -0.59844575958E+02  0.74845647308E+02  0.90850035792E+02  0.21684319956E+03  0.17200000000E+03 0. -1.
</event>
<event>
 4    1  0.3141404E-002  0.4415120E+03  0.7818608E-02  0.1030284E+00
          1   -1    0    0  502    0  0.00000000000E+00  0.00000000000E+00  0.14919468238E+04  0.14919468238E+04  0.00000000000E+00 0. -1.
         -1   -1    0    0    0  501 -0.00000000000E+00 -0.00000000000E+00 -0.14233793358E+03  0.14233793358E+03  0.00000000000E+00 0.  1.
          6    1    1    2  502    0  0.38276265787E+03  0.13726461329E+03  0.90889400096E+03  0.10104559027E+04  0.17200000000E+03 0. -1.
         -6    1    1    2    0  501 -0.38276265787E+03 -0.13726461329E+03  0.44071488924E+03  0.62382885467E+03  0.17200000000E+03 0.  1.
</event>
<event>
 4    1  0.3141404E-002  0.3038277E+03  0.7818608E-02  0.1083343E+00
          2   -1    0    0  502    0  0.00000000000E+00  0.00000000000E+00  0.19032394430E+04  0.19032394430E+04  0.00000000000E+00 0. -1.
         -2   -1    0    0    0  501 -0.00000000000E+00 -0.00000000000E+00 -0.48779102074E+02  0.48779102074E+02  0.00000000000E+00 0.  1.
          6    1    1    2  502    0  0.71667852656E+02 -0.23998122814E+03  0.10007682288E+04  0.10458720375E+04  0.17200000000E+03 0. -1.
         -6    1    1    2    0  501 -0.71667852656E+02  0.23998122814E+03  0.85369211215E+03  0.90614650764E+03  0.17200000000E+03 0.  1.
</event>
<event>
 4    1  0.3141404E-002  0.2385423E+03  0.7818608E-02  0.1120768E+00
         -2   -1    0    0    0  501 -0.00000000000E+00  0.00000000000E+00  0.30384328180E+03  0.30384328180E+03  0.00000000000E+00 0.  1.
          2   -1    0    0  502    0  0.00000000000E+00 -0.00000000000E+00 -0.30204290615E+03  0.30204290615E+03  0.00000000000E+00 0. -1.
          6    1    1    2  502    0 -0.72503522147E+02  0.14853170846E+03 -0.18583916692E+03  0.30238820265E+03  0.17200000000E+03 0. -1.
         -6    1    1    2    0  501  0.72503522147E+02 -0.14853170846E+03  0.18763954258E+03  0.30349798530E+03  0.17200000000E+03 0.  1.
</event>
<event>
 4    1  0.3141404E-002  0.1877453E+03  0.7818608E-02  0.1160511E+00
          4   -1    0    0  502    0  0.00000000000E+00  0.00000000000E+00  0.56885116916E+03  0.56885116916E+03  0.00000000000E+00 0. -1.
         -4   -1    0    0    0  501 -0.00000000000E+00 -0.00000000000E+00 -0.31001871644E+03  0.31001871644E+03  0.00000000000E+00 0.  1.
          6    1    1    2  502    0  0.70281055011E+02  0.26923274395E+02  0.52249028447E+03  0.55519761055E+03  0.17200000000E+03 0. -1.
         -6    1    1    2    0  501 -0.70281055011E+02 -0.26923274395E+02 -0.26365783174E+03  0.32367227505E+03  0.17200000000E+03 0.  1.
</event>
<event>
 4    1  0.3141404E-002  0.3131816E+03  0.7818608E-02  0.1078831E+00
         -1   -1    0    0    0  501 -0.00000000000E+00  0.00000000000E+00  0.51310525594E+03  0.51310525594E+03  0.00000000000E+00 0.  1.
          1   -1    0    0  502    0  0.00000000000E+00 -0.00000000000E+00 -0.24610521890E+03  0.24610521890E+03  0.00000000000E+00 0. -1.
          6    1    1    2  502    0 -0.14301463927E+03  0.21919284688E+03 -0.45872566264E+02  0.31652327482E+03  0.17200000000E+03 0.  1.
         -6    1    1    2    0  501  0.14301463927E+03 -0.21919284688E+03  0.31287260330E+03  0.44268720002E+03  0.17200000000E+03 0.  1.
</event>
<event>
 4    1  0.3141404E-002  0.2366784E+03  0.7818608E-02  0.1122026E+00
         -1   -1    0    0    0  501 -0.00000000000E+00  0.00000000000E+00  0.10136222339E+04  0.10136222339E+04  0.00000000000E+00 0.  1.
          1   -1    0    0  502    0  0.00000000000E+00 -0.00000000000E+00 -0.57813448633E+02  0.57813448633E+02  0.00000000000E+00 0. -1.
          6    1    1    2  502    0 -0.13987534668E+03 -0.82870555052E+02  0.36540252539E+03  0.43535691917E+03  0.17200000000E+03 0. -1.
         -6    1    1    2    0  501  0.13987534668E+03  0.82870555052E+02  0.59040625987E+03  0.63607876336E+03  0.17200000000E+03 0.  1.
</event>
<event>
 4    1  0.3141404E-002  0.1885796E+03  0.7818608E-02  0.1159749E+00
         -3   -1    0    0    0  501 -0.00000000000E+00  0.00000000000E+00  0.98441243062E+02  0.98441243062E+02  0.00000000000E+00 0.  1.
          3   -1    0    0  502    0  0.00000000000E+00 -0.00000000000E+00 -0.36358347839E+03  0.36358347839E+03  0.00000000000E+00 0. -1.
          6    1    1    2  502    0 -0.28356845410E+02  0.71931528695E+02 -0.15106371131E+03  0.24162470978E+03  0.17200000000E+03 0.  1.
         -6    1    1    2    0  501  0.28356845410E+02 -0.71931528695E+02 -0.11407852402E+03  0.22040001167E+03  0.17200000000E+03 0.  1.
</event>
<event>
 4    1  0.3141404E-002  0.5501420E+03  0.7818608E-02  0.1001461E+00
          1   -1    0    0  502    0  0.00000000000E+00  0.00000000000E+00  0.62924847035E+03  0.62924847035E+03  0.00000000000E+00 0. -1.
         -1   -1    0    0    0  501 -0.00000000000E+00 -0.00000000000E+00 -0.64354282419E+03  0.64354282419E+03  0.00000000000E+00 0.  1.
          6    1    1    2  502    0  0.28049169503E+03  0.44090436029E+03  0.31270434401E+03  0.63280348661E+03  0.17200000000E+03 0. -1.
         -6    1    1    2    0  501 -0.28049169503E+03 -0.44090436029E+03 -0.32699869785E+03  0.63998780793E+03  0.17200000000E+03 0.  1.
</event>
<event>
 4    1  0.3141404E-002  0.2220644E+03  0.7818608E-02  0.1132353E+00
          1   -1    0    0  502    0  0.00000000000E+00  0.00000000000E+00  0.52302461511E+03  0.52302461511E+03  0.00000000000E+00 0. -1.
         -1   -1    0    0    0  501 -0.00000000000E+00 -0.00000000000E+00 -0.10142573437E+03  0.10142573437E+03  0.00000000000E+00 0.  1.
          6    1    1    2  502    0  0.13551895175E+03 -0.36921772260E+02  0.12794607120E+03  0.25628655970E+03  0.17200000000E+03 0.  1.
         -6    1    1    2    0  501 -0.13551895175E+03  0.36921772260E+02  0.29365280954E+03  0.36816378977E+03  0.17200000000E+03 0. -1.
</event>
<event>
 4    1  0.3141404E-002  0.2515763E+03  0.7818608E-02  0.1112313E+00
         -1   -1    0    0    0  501 -0.00000000000E+00  0.00000000000E+00  0.85164690068E+03  0.85164690068E+03  0.00000000000E+00 0.  1.
          1   -1    0    0  502    0  0.00000000000E+00 -0.00000000000E+00 -0.85505681279E+02  0.85505681279E+02  0.00000000000E+00 0. -1.
          6    1    1    2  502    0  0.18220465267E+03 -0.22540611954E+02  0.21355868301E+03  0.32999685715E+03  0.17200000000E+03 0. -1.
         -6    1    1    2    0  501 -0.18220465267E+03  0.22540611954E+02  0.55258253639E+03  0.60715572481E+03  0.17200000000E+03 0.  1.
</event>
<event>
 4    1  0.3141404E-002  0.2511618E+03  0.7818608E-02  0.1112573E+00
         -2   -1    0    0    0  501 -0.00000000000E+00  0.00000000000E+00  0.83164490892E+02  0.83164490892E+02  0.00000000000E+00 0.  1.
          2   -1    0    0  502    0  0.00000000000E+00 -0.00000000000E+00 -0.83233859134E+03  0.83233859134E+03  0.00000000000E+00 0. -1.
          6    1    1    2  502    0  0.81409754278E+02 -0.16392287575E+03 -0.51090438500E+03  0.56930268566E+03  0.17200000000E+03 0. -1.
         -6    1    1    2    0  501 -0.81409754278E+02  0.16392287575E+03 -0.23826971544E+03  0.34620039657E+03  0.17200000000E+03 0.  1.
</event>
<event>
 4    1  0.3141404E-002  0.2917868E+03  0.7818608E-02  0.1089420E+00
          3   -1    0    0  502    0  0.00000000000E+00  0.00000000000E+00  0.54047793347E+03  0.54047793347E+03  0.00000000000E+00 0. -1.
         -3   -1    0    0    0  501 -0.00000000000E+00 -0.00000000000E+00 -0.25373170865E+03  0.25373170865E+03  0.00000000000E+00 0.  1.
          6    1    1    2  502    0  0.23353112598E+03 -0.31917953881E+02  0.38789475728E+03  0.48538838605E+03  0.17200000000E+03 0. -1.
         -6    1    1    2    0  501 -0.23353112598E+03  0.31917953881E+02 -0.10114853247E+03  0.30882125607E+03  0.17200000000E+03 0.  1.
</event>
<event>
 4    1  0.3141404E-002  0.1845886E+03  0.7818608E-02  0.1163435E+00
          1   -1    0    0  502    0  0.00000000000E+00  0.00000000000E+00  0.33968978791E+03  0.33968978791E+03  0.00000000000E+00 0. -1.
         -1   -1    0    0    0  501 -0.00000000000E+00 -0.00000000000E+00 -0.23757116902E+03  0.23757116902E+03  0.00000000000E+00 0.  1.
          6    1    1    2  502    0  0.28621875247E+02 -0.60578515803E+02  0.27045358386E+03  0.32744176481E+03  0.17200000000E+03 0. -1.
         -6    1    1    2    0  501 -0.28621875247E+02  0.60578515803E+02 -0.16833496497E+03  0.24981919212E+03  0.17200000000E+03 0.  1.
</event>
<event>
 4    1  0.3141404E-002  0.1902549E+03  0.7818608E-02  0.1158232E+00
         -1   -1    0    0    0  501 -0.00000000000E+00  0.00000000000E+00  0.24039045800E+02  0.24039045800E+02  0.00000000000E+00 0.  1.
          1   -1    0    0  502    0  0.00000000000E+00 -0.00000000000E+00 -0.15327528536E+04  0.15327528536E+04  0.00000000000E+00 0. -1.
          6    1    1    2  502    0  0.65528789091E+02 -0.48154984651E+02 -0.65105095622E+03  0.67828037886E+03  0.17200000000E+03 0.  1.
         -6    1    1    2    0  501 -0.65528789091E+02  0.48154984651E+02 -0.85766285156E+03  0.87851152053E+03  0.17200000000E+03 0. -1.
</event>
<event>
 4    1  0.3141404E-002  0.2469857E+03  0.7818608E-02  0.1115225E+00
          2   -1    0    0  502    0  0.00000000000E+00  0.00000000000E+00  0.59238302014E+03  0.59238302014E+03  0.00000000000E+00 0. -1.
         -2   -1    0    0    0  501 -0.00000000000E+00 -0.00000000000E+00 -0.10312718485E+03  0.10312718485E+03  0.00000000000E+00 0.  1.
          6    1    1    2  502    0  0.11763943938E+03 -0.13258538665E+03  0.25789163026E+03  0.35708544553E+03  0.17200000000E+03 0. -1.
         -6    1    1    2    0  501 -0.11763943938E+03  0.13258538665E+03  0.23136420503E+03  0.33842475947E+03  0.17200000000E+03 0.  1.
</event>
<event>
 4    1  0.3141404E-002  0.1902982E+03  0.7818608E-02  0.1158193E+00
          1   -1    0    0  502    0  0.00000000000E+00  0.00000000000E+00  0.16062619267E+04  0.16062619267E+04  0.00000000000E+00 0. -1.
         -1   -1    0    0    0  501 -0.00000000000E+00 -0.00000000000E+00 -0.30033710498E+02  0.30033710498E+02  0.00000000000E+00 0.  1.
          6    1    1    2  502    0 -0.51697860981E+02 -0.62902582353E+02  0.11966466691E+04  0.12116833969E+04  0.17200000000E+03 0. -1.
         -6    1    1    2    0  501  0.51697860981E+02  0.62902582353E+02  0.37958154712E+03  0.42461224030E+03  0.17200000000E+03 0.  1.
</event>
<event>
 4    1  0.3141404E-002  0.3150199E+03  0.7818608E-02  0.1077964E+00
          3   -1    0    0  502    0  0.00000000000E+00  0.00000000000E+00  0.13924322079E+04  0.13924322079E+04  0.00000000000E+00 0. -1.
         -3   -1    0    0    0  501 -0.00000000000E+00 -0.00000000000E+00 -0.81006427829E+02  0.81006427829E+02  0.00000000000E+00 0.  1.
          6    1    1    2  502    0  0.24266742783E+03 -0.10375966577E+03  0.91113569770E+03  0.96405695288E+03  0.17200000000E+03 0. -1.
         -6    1    1    2    0  501 -0.24266742783E+03  0.10375966577E+03  0.40029008235E+03  0.50938168283E+03  0.17200000000E+03 0.  1.
</event>
<event>
 4    1  0.3141404E-002  0.2951258E+03  0.7818608E-02  0.1087703E+00
          2   -1    0    0  502    0  0.00000000000E+00  0.00000000000E+00  0.12448127594E+04  0.12448127594E+04  0.00000000000E+00 0. -1.
         -2   -1    0    0    0  501 -0.00000000000E+00 -0.00000000000E+00 -0.82626181447E+02  0.82626181447E+02  0.00000000000E+00 0.  1.
          6    1    1    2  502    0 -0.21956568940E+03 -0.96468227476E+02  0.84085893807E+03  0.89114699382E+03  0.17200000000E+03 0. -1.
         -6    1    1    2    0  501  0.21956568940E+03  0.96468227476E+02  0.32132763986E+03  0.43629194699E+03  0.17200000000E+03 0.  1.
</event>
<event>
 4    1  0.3141404E-002  0.6760087E+03  0.7818608E-02  0.9759164E-01
          2   -1    0    0  502    0  0.00000000000E+00  0.00000000000E+00  0.14134070216E+04  0.14134070216E+04  0.00000000000E+00 0. -1.
         -2   -1    0    0    0  501 -0.00000000000E+00 -0.00000000000E+00 -0.55638820383E+03  0.55638820383E+03  0.00000000000E+00 0.  1.
          6    1    1    2  502    0  0.50176304195E+03 -0.41909143183E+03  0.10659509072E+04  0.12622357605E+04  0.17200000000E+03 0. -1.
         -6    1    1    2    0  501 -0.50176304195E+03  0.41909143183E+03 -0.20893208939E+03  0.70755946498E+03  0.17200000000E+03 0.  1.
</event>
<event>
 4    1  0.3141404E-002  0.1818269E+03  0.7818608E-02  0.1166047E+00
          1   -1    0    0  502    0  0.00000000000E+00  0.00000000000E+00  0.59632100887E+03  0.59632100887E+03  0.00000000000E+00 0. -1.
         -1   -1    0    0    0  501 -0.00000000000E+00 -0.00000000000E+00 -0.57633285074E+02  0.57633285074E+02  0.00000000000E+00 0.  1.
          6    1    1    2  502    0 -0.58731276075E+02 -0.52586869816E+01  0.20558133612E+03  0.27445346116E+03  0.17200000000E+03 0.  1.
         -6    1    1    2    0  501  0.58731276075E+02  0.52586869816E+01  0.33310638767E+03  0.37950083278E+03  0.17200000000E+03 0. -1.
</event>
<event>
 4    1  0.3141404E-002  0.1932747E+03  0.7818608E-02  0.1155540E+00
          1   -1    0    0  502    0  0.00000000000E+00  0.00000000000E+00  0.21367018199E+04  0.21367018199E+04  0.00000000000E+00 0. -1.
         -1   -1    0    0    0  501 -0.00000000000E+00 -0.00000000000E+00 -0.17832209835E+02  0.17832209835E+02  0.00000000000E+00 0.  1.
          6    1    1    2  502    0  0.86583268344E+02 -0.16566997064E+02  0.12102709676E+04  0.12256063571E+04  0.17200000000E+03 0. -1.
         -6    1    1    2    0  501 -0.86583268344E+02  0.16566997064E+02  0.90859864256E+03  0.92892767264E+03  0.17200000000E+03 0.  1.
</event>
<event>
 4    1  0.3141404E-002  0.2135508E+03  0.7818608E-02  0.1138785E+00
          2   -1    0    0  502    0  0.00000000000E+00  0.00000000000E+00  0.10093431766E+04  0.10093431766E+04  0.00000000000E+00 0. -1.
         -2   -1    0    0    0  501 -0.00000000000E+00 -0.00000000000E+00 -0.45197393601E+02  0.45197393601E+02  0.00000000000E+00 0.  1.
          6    1    1    2  502    0  0.12500502047E+03  0.19841159528E+02  0.47227452547E+03  0.51831183101E+03  0.17200000000E+03 0. -1.
         -6    1    1    2    0  501 -0.12500502047E+03 -0.19841159528E+02  0.49187125750E+03  0.53622873917E+03  0.17200000000E+03 0. -1.
</event>
<event>
 4    1  0.3141404E-002  0.2137701E+03  0.7818608E-02  0.1138615E+00
         -1   -1    0    0    0  501 -0.00000000000E+00  0.00000000000E+00  0.45104234804E+02  0.45104234804E+02  0.00000000000E+00 0.  1.
          1   -1    0    0  502    0  0.00000000000E+00 -0.00000000000E+00 -0.11094544222E+04  0.11094544222E+04  0.00000000000E+00 0. -1.
          6    1    1    2  502    0 -0.68074878028E+02  0.10714223011E+03 -0.70224984348E+03  0.73406572537E+03  0.17200000000E+03 0. -1.
         -6    1    1    2    0  501  0.68074878028E+02 -0.10714223011E+03 -0.36210034391E+03  0.42049293163E+03  0.17200000000E+03 0.  1.
</event>
<event>
 4    1  0.3141404E-002  0.1762496E+03  0.7818608E-02  0.1171483E+00
         -1   -1    0    0    0  501 -0.00000000000E+00  0.00000000000E+00  0.89590441851E+02  0.89590441851E+02  0.00000000000E+00 0.  1.
          1   -1    0    0  502    0  0.00000000000E+00 -0.00000000000E+00 -0.36875023196E+03  0.36875023196E+03  0.00000000000E+00 0. -1.
          6    1    1    2  502    0  0.33743000915E+02 -0.18475313198E+02 -0.19557853822E+03  0.26327721497E+03  0.17200000000E+03 0. -1.
         -6    1    1    2    0  501 -0.33743000915E+02  0.18475313198E+02 -0.83581251887E+02  0.19506345884E+03  0.17200000000E+03 0.  1.
</event>
<event>
 4    1  0.3141404E-002  0.1749327E+03  0.7818608E-02  0.1172799E+00
         -2   -1    0    0    0  501 -0.00000000000E+00  0.00000000000E+00  0.14942548462E+02  0.14942548462E+02  0.00000000000E+00 0.  1.
          2   -1    0    0  502    0  0.00000000000E+00 -0.00000000000E+00 -0.22219432965E+04  0.22219432965E+04  0.00000000000E+00 0. -1.
          6    1    1    2  502    0 -0.22904667050E+02  0.22199652917E+02 -0.14164868734E+04  0.14272478800E+04  0.17200000000E+03 0. -1.
         -6    1    1    2    0  501  0.22904667050E+02 -0.22199652917E+02 -0.79051387463E+03  0.80963796498E+03  0.17200000000E+03 0.  1.
</event>
<event>
 4    1  0.3141404E-002  0.7354805E+03  0.7818608E-02  0.9658409E-01
         -2   -1    0    0    0  501 -0.00000000000E+00  0.00000000000E+00  0.14311892283E+04  0.14311892283E+04  0.00000000000E+00 0.  1.
          2   -1    0    0  502    0  0.00000000000E+00 -0.00000000000E+00 -0.42579879457E+03  0.42579879457E+03  0.00000000000E+00 0. -1.
          6    1    1    2  502    0 -0.88717196260E+02  0.70956098428E+03  0.81391656808E+03  0.10969921199E+04  0.17200000000E+03 0. -1.
         -6    1    1    2    0  501  0.88717196260E+02 -0.70956098428E+03  0.19147386566E+03  0.75999590298E+03  0.17200000000E+03 0.  1.
</event>
<event>
 4    1  0.3141404E-002  0.2334853E+03  0.7818608E-02  0.1124210E+00
         -2   -1    0    0    0  501 -0.00000000000E+00  0.00000000000E+00  0.96611085543E+02  0.96611085543E+02  0.00000000000E+00 0.  1.
          2   -1    0    0  502    0  0.00000000000E+00 -0.00000000000E+00 -0.78402593034E+03  0.78402593034E+03  0.00000000000E+00 0. -1.
          6    1    1    2  502    0  0.15683226662E+03 -0.18303458254E+02 -0.57681988457E+03  0.62228334034E+03  0.17200000000E+03 0. -1.
         -6    1    1    2    0  501 -0.15683226662E+03  0.18303458254E+02 -0.11059496024E+03  0.25835367554E+03  0.17200000000E+03 0.  1.
</event>
<event>
 4    1  0.3141404E-002  0.2750009E+03  0.7818608E-02  0.1098451E+00
         -2   -1    0    0    0  501 -0.00000000000E+00  0.00000000000E+00  0.73850529301E+03  0.73850529301E+03  0.00000000000E+00 0.  1.
          2   -1    0    0  502    0  0.00000000000E+00 -0.00000000000E+00 -0.10433852823E+03  0.10433852823E+03  0.00000000000E+00 0. -1.
          6    1    1    2  502    0  0.97718318816E+02  0.19103043526E+03  0.25969249617E+03  0.37824025380E+03  0.17200000000E+03 0. -1.
         -6    1    1    2    0  501 -0.97718318816E+02 -0.19103043526E+03  0.37447426860E+03  0.46460356743E+03  0.17200000000E+03 0.  1.
</event>
<event>
 4    1  0.3141404E-002  0.2628197E+03  0.7818608E-02  0.1105461E+00
         -1   -1    0    0    0  501 -0.00000000000E+00  0.00000000000E+00  0.87779970366E+02  0.87779970366E+02  0.00000000000E+00 0.  1.
          1   -1    0    0  502    0  0.00000000000E+00 -0.00000000000E+00 -0.79570091968E+03  0.79570091968E+03  0.00000000000E+00 0. -1.
          6    1    1    2  502    0 -0.13160269700E+03 -0.14889896364E+03 -0.40041463614E+03  0.47896351852E+03  0.17200000000E+03 0.  1.
         -6    1    1    2    0  501  0.13160269700E+03  0.14889896364E+03 -0.30750631317E+03  0.40451737153E+03  0.17200000000E+03 0.  1.
</event>
<event>
 4    1  0.3141404E-002  0.2480346E+03  0.7818608E-02  0.1114553E+00
         -2   -1    0    0    0  501 -0.00000000000E+00  0.00000000000E+00  0.44657787725E+02  0.44657787725E+02  0.00000000000E+00 0.  1.
          2   -1    0    0  502    0  0.00000000000E+00 -0.00000000000E+00 -0.14082125520E+04  0.14082125520E+04  0.00000000000E+00 0. -1.
          6    1    1    2  502    0  0.15230800933E+03  0.93485026870E+02 -0.78885910732E+03  0.82693401862E+03  0.17200000000E+03 0. -1.
         -6    1    1    2    0  501 -0.15230800933E+03 -0.93485026870E+02 -0.57469565698E+03  0.62593632112E+03  0.17200000000E+03 0.  1.
</event>
<event>
 4    1  0.3141404E-002  0.1986042E+03  0.7818608E-02  0.1150922E+00
          2   -1    0    0  502    0  0.00000000000E+00  0.00000000000E+00  0.86093577469E+03  0.86093577469E+03  0.00000000000E+00 0. -1.
         -2   -1    0    0    0  501 -0.00000000000E+00 -0.00000000000E+00 -0.65434791201E+02  0.65434791201E+02  0.00000000000E+00 0.  1.
          6    1    1    2  502    0  0.96373579647E+02 -0.23911357378E+02  0.65137986259E+03  0.68098410059E+03  0.17200000000E+03 0. -1.
         -6    1    1    2    0  501 -0.96373579647E+02  0.23911357378E+02  0.14412112090E+03  0.24538646531E+03  0.17200000000E+03 0.  1.
</event>
<event>
 4    1  0.3141404E-002  0.2908581E+03  0.7818608E-02  0.1089902E+00
         -1   -1    0    0    0  501 -0.00000000000E+00  0.00000000000E+00  0.80235764814E+02  0.80235764814E+02  0.00000000000E+00 0.  1.
          1   -1    0    0  502    0  0.00000000000E+00 -0.00000000000E+00 -0.10574393145E+04  0.10574393145E+04  0.00000000000E+00 0. -1.
          6    1    1    2  502    0  0.22062034285E+03  0.79631004200E+02 -0.45797075820E+03  0.54252709414E+03  0.17200000000E+03 0. -1.
         -6    1    1    2    0  501 -0.22062034285E+03 -0.79631004200E+02 -0.51923279152E+03  0.59514798521E+03  0.17200000000E+03 0. -1.
</event>
<event>
 4    1  0.3141404E-002  0.1960224E+03  0.7818608E-02  0.1153139E+00
          4   -1    0    0  502    0  0.00000000000E+00  0.00000000000E+00  0.13278722348E+03  0.13278722348E+03  0.00000000000E+00 0. -1.
         -4   -1    0    0    0  501 -0.00000000000E+00 -0.00000000000E+00 -0.34968881175E+03  0.34968881175E+03  0.00000000000E+00 0.  1.
          6    1    1    2  502    0 -0.35074466843E+02 -0.87238539128E+02 -0.82600922145E+01  0.19619635587E+03  0.17200000000E+03 0. -1.
         -6    1    1    2    0  501  0.35074466843E+02  0.87238539128E+02 -0.20864149606E+03  0.28627967935E+03  0.17200000000E+03 0.  1.
</event>
<event>
 4    1  0.3141404E-002  0.2593745E+03  0.7818608E-02  0.1107520E+00
          2   -1    0    0  502    0  0.00000000000E+00  0.00000000000E+00  0.11484925696E+04  0.11484925696E+04  0.00000000000E+00 0. -1.
         -2   -1    0    0    0  501 -0.00000000000E+00 -0.00000000000E+00 -0.90667945903E+02  0.90667945903E+02  0.00000000000E+00 0.  1.
          6    1    1    2  502    0  0.19374197282E+03 -0.12458015374E+02  0.89751839819E+03  0.93424537958E+03  0.17200000000E+03 0. -1.
         -6    1    1    2    0  501 -0.19374197282E+03  0.12458015374E+02  0.16030622551E+03  0.30491513593E+03  0.17200000000E+03 0.  1.
</event>
<event>
 4    1  0.3141404E-002  0.2049848E+03  0.7818608E-02  0.1145600E+00
         -2   -1    0    0    0  501 -0.00000000000E+00  0.00000000000E+00  0.25821826602E+03  0.25821826602E+03  0.00000000000E+00 0.  1.
          2   -1    0    0  502    0  0.00000000000E+00 -0.00000000000E+00 -0.19144341036E+03  0.19144341036E+03  0.00000000000E+00 0. -1.
          6    1    1    2  502    0  0.71377693453E+02  0.85673758894E+02 -0.53690881522E+02  0.21189969052E+03  0.17200000000E+03 0. -1.
         -6    1    1    2    0  501 -0.71377693453E+02 -0.85673758894E+02  0.12046573718E+03  0.23776198586E+03  0.17200000000E+03 0.  1.
</event>
<event>
 4    1  0.3141404E-002  0.3026967E+03  0.7818608E-02  0.1083900E+00
         -2   -1    0    0    0  501 -0.00000000000E+00  0.00000000000E+00  0.13750178552E+03  0.13750178552E+03  0.00000000000E+00 0.  1.
          2   -1    0    0  502    0  0.00000000000E+00 -0.00000000000E+00 -0.67361717155E+03  0.67361717155E+03  0.00000000000E+00 0. -1.
          6    1    1    2  502    0 -0.19906415590E+03 -0.14971564513E+03 -0.31016076186E+03  0.43338782949E+03  0.17200000000E+03 0. -1.
         -6    1    1    2    0  501  0.19906415590E+03  0.14971564513E+03 -0.22595462417E+03  0.37773112758E+03  0.17200000000E+03 0.  1.
</event>
<event>
 4    1  0.3141404E-002  0.5656455E+03  0.7818608E-02  0.9979361E-01
         -1   -1    0    0    0  501 -0.00000000000E+00  0.00000000000E+00  0.29468148998E+03  0.29468148998E+03  0.00000000000E+00 0.  1.
          1   -1    0    0  502    0  0.00000000000E+00 -0.00000000000E+00 -0.11085147783E+04  0.11085147783E+04  0.00000000000E+00 0. -1.
          6    1    1    2  502    0  0.24482492277E+03 -0.48003292072E+03 -0.50742594976E+03  0.75989205962E+03  0.17200000000E+03 0. -1.
         -6    1    1    2    0  501 -0.24482492277E+03  0.48003292072E+03 -0.30640733858E+03  0.64330420869E+03  0.17200000000E+03 0.  1.
</event>
<event>
 4    1  0.3141404E-002  0.2678020E+03  0.7818608E-02  0.1102544E+00
          2   -1    0    0  502    0  0.00000000000E+00  0.00000000000E+00  0.42552834981E+03  0.42552834981E+03  0.00000000000E+00 0. -1.
         -2   -1    0    0    0  501 -0.00000000000E+00 -0.00000000000E+00 -0.17983345999E+03  0.17983345999E+03  0.00000000000E+00 0.  1.
          6    1    1    2  502    0  0.65226080174E+02  0.19462653612E+03  0.19870366608E+03  0.33346825488E+03  0.17200000000E+03 0. -1.
         -6    1    1    2    0  501 -0.65226080174E+02 -0.19462653612E+03  0.46991223730E+02  0.27189355492E+03  0.17200000000E+03 0.  1.
</event>
<event>
 4    1  0.3141404E-002  0.2308255E+03  0.7818608E-02  0.1126060E+00
         -1   -1    0    0    0  501 -0.00000000000E+00  0.00000000000E+00  0.31111880702E+02  0.31111880702E+02  0.00000000000E+00 0.  1.
          1   -1    0    0  502    0  0.00000000000E+00 -0.00000000000E+00 -0.21166311344E+04  0.21166311344E+04  0.00000000000E+00 0. -1.
          6    1    1    2  502    0  0.15199910533E+03  0.24344826094E+02 -0.15119708397E+04  0.15294888750E+04  0.17200000000E+03 0. -1.
         -6    1    1    2    0  501 -0.15199910533E+03 -0.24344826094E+02 -0.57354841400E+03  0.61825414013E+03  0.17200000000E+03 0. -1.
</event>
<event>
 4    1  0.3141404E-002  0.1971607E+03  0.7818608E-02  0.1152157E+00
          3   -1    0    0  502    0  0.00000000000E+00  0.00000000000E+00  0.38378993550E+03  0.38378993550E+03  0.00000000000E+00 0. -1.
         -3   -1    0    0    0  501 -0.00000000000E+00 -0.00000000000E+00 -0.10182474470E+03  0.10182474470E+03  0.00000000000E+00 0.  1.
          6    1    1    2  502    0  0.93810501931E+02  0.22089024222E+02  0.12331207531E+03  0.23254720635E+03  0.17200000000E+03 0. -1.
         -6    1    1    2    0  501 -0.93810501931E+02 -0.22089024222E+02  0.15865311549E+03  0.25306747385E+03  0.17200000000E+03 0.  1.
</event>
<event>
 4    1  0.3141404E-002  0.5344329E+03  0.7818608E-02  0.1005163E+00
          2   -1    0    0  502    0  0.00000000000E+00  0.00000000000E+00  0.12267470358E+04  0.12267470358E+04  0.00000000000E+00 0. -1.
         -2   -1    0    0    0  501 -0.00000000000E+00 -0.00000000000E+00 -0.23630843885E+03  0.23630843885E+03  0.00000000000E+00 0.  1.
          6    1    1    2  502    0 -0.38176859810E+03 -0.33209522468E+03  0.58402446827E+03  0.79164580482E+03  0.17200000000E+03 0. -1.
         -6    1    1    2    0  501  0.38176859810E+03  0.33209522468E+03  0.40641412867E+03  0.67140966982E+03  0.17200000000E+03 0.  1.
</event>
<event>
 4    1  0.3141404E-002  0.1888330E+03  0.7818608E-02  0.1159518E+00
         -3   -1    0    0    0  501 -0.00000000000E+00  0.00000000000E+00  0.11342869335E+04  0.11342869335E+04  0.00000000000E+00 0.  1.
          3   -1    0    0  502    0  0.00000000000E+00 -0.00000000000E+00 -0.40110846849E+02  0.40110846849E+02  0.00000000000E+00 0. -1.
          6    1    1    2  502    0 -0.32522538305E+02  0.70824912615E+02  0.27401708474E+03  0.33278107890E+03  0.17200000000E+03 0. -1.
         -6    1    1    2    0  501  0.32522538305E+02 -0.70824912615E+02  0.82015900195E+03  0.84161670149E+03  0.17200000000E+03 0.  1.
</event>
<event>
 4    1  0.3141404E-002  0.2081768E+03  0.7818608E-02  0.1143018E+00
          2   -1    0    0  502    0  0.00000000000E+00  0.00000000000E+00  0.18366034878E+03  0.18366034878E+03  0.00000000000E+00 0. -1.
         -2   -1    0    0    0  501 -0.00000000000E+00 -0.00000000000E+00 -0.35613539464E+03  0.35613539464E+03  0.00000000000E+00 0.  1.
          6    1    1    2  502    0 -0.89816491429E+02  0.75409447167E+02 -0.24301690044E+03  0.31999187607E+03  0.17200000000E+03 0.  1.
         -6    1    1    2    0  501  0.89816491429E+02 -0.75409447167E+02  0.70541854581E+02  0.21980386735E+03  0.17200000000E+03 0. -1.
</event>
<event>
 4    1  0.3141404E-002  0.2015513E+03  0.7818608E-02  0.1148437E+00
         -1   -1    0    0    0  501 -0.00000000000E+00  0.00000000000E+00  0.52944132368E+03  0.52944132368E+03  0.00000000000E+00 0.  1.
          1   -1    0    0  502    0  0.00000000000E+00 -0.00000000000E+00 -0.10297586142E+04  0.10297586142E+04  0.00000000000E+00 0. -1.
          6    1    1    2  502    0 -0.25483118137E+02 -0.10192899303E+03 -0.10001522327E+04  0.10202584955E+04  0.17200000000E+03 0. -1.
         -6    1    1    2    0  501  0.25483118137E+02  0.10192899303E+03  0.49983494220E+03  0.53894144243E+03  0.17200000000E+03 0.  1.
</event>
<event>
 4    1  0.3141404E-002  0.4456631E+03  0.7818608E-02  0.1029023E+00
         -2   -1    0    0    0  501 -0.00000000000E+00  0.00000000000E+00  0.13404137654E+03  0.13404137654E+03  0.00000000000E+00 0.  1.
          2   -1    0    0  502    0  0.00000000000E+00 -0.00000000000E+00 -0.17447748165E+04  0.17447748165E+04  0.00000000000E+00 0. -1.
          6    1    1    2  502    0  0.10946827287E+03  0.39629316185E+03 -0.11701075889E+04  0.12521051643E+04  0.17200000000E+03 0. -1.
         -6    1    1    2    0  501 -0.10946827287E+03 -0.39629316185E+03 -0.44062585104E+03  0.62671102871E+03  0.17200000000E+03 0.  1.
</event>
<event>
 4    1  0.3141404E-002  0.3345325E+03  0.7818608E-02  0.1069149E+00
          1   -1    0    0  502    0  0.00000000000E+00  0.00000000000E+00  0.86729763833E+03  0.86729763833E+03  0.00000000000E+00 0. -1.
         -1   -1    0    0    0  501 -0.00000000000E+00 -0.00000000000E+00 -0.15554241291E+03  0.15554241291E+03  0.00000000000E+00 0.  1.
          6    1    1    2  502    0 -0.26750374552E+03  0.10377735769E+03  0.56700019508E+03  0.65833214646E+03  0.17200000000E+03 0. -1.
         -6    1    1    2    0  501  0.26750374552E+03 -0.10377735769E+03  0.14475503034E+03  0.36450790478E+03  0.17200000000E+03 0.  1.
</event>
<event>
 4    1  0.3141404E-002  0.2097977E+03  0.7818608E-02  0.1141726E+00
         -1   -1    0    0    0  501 -0.00000000000E+00  0.00000000000E+00  0.49134834158E+02  0.49134834158E+02  0.00000000000E+00 0.  1.
          1   -1    0    0  502    0  0.00000000000E+00 -0.00000000000E+00 -0.20190135942E+04  0.20190135942E+04  0.00000000000E+00 0. -1.
          6    1    1    2  502    0 -0.11430304493E+03  0.36957979037E+02 -0.17562208424E+04  0.17687076428E+04  0.17200000000E+03 0. -1.
         -6    1    1    2    0  501  0.11430304493E+03 -0.36957979037E+02 -0.21365791757E+03  0.29944078553E+03  0.17200000000E+03 0.  1.
</event>
<event>
 4    1  0.3141404E-002  0.3462745E+03  0.7818608E-02  0.1064155E+00
          1   -1    0    0  502    0  0.00000000000E+00  0.00000000000E+00  0.86376430390E+02  0.86376430390E+02  0.00000000000E+00 0. -1.
         -1   -1    0    0    0  501 -0.00000000000E+00 -0.00000000000E+00 -0.13934184178E+04  0.13934184178E+04  0.00000000000E+00 0.  1.
          6    1    1    2  502    0  0.12837505920E+03  0.27173857952E+03 -0.60815387180E+03  0.69982650937E+03  0.17200000000E+03 0. -1.
         -6    1    1    2    0  501 -0.12837505920E+03 -0.27173857952E+03 -0.69888811559E+03  0.77996833881E+03  0.17200000000E+03 0.  1.
</event>
<event>
 4    1  0.3141404E-002  0.5325556E+03  0.7818608E-02  0.1005614E+00
         -2   -1    0    0    0  501 -0.00000000000E+00  0.00000000000E+00  0.33194146597E+03  0.33194146597E+03  0.00000000000E+00 0.  1.
          2   -1    0    0  502    0  0.00000000000E+00 -0.00000000000E+00 -0.85519625350E+03  0.85519625350E+03  0.00000000000E+00 0. -1.
          6    1    1    2  502    0 -0.21985524035E+03  0.45353624005E+03 -0.24367584594E+03  0.58565635457E+03  0.17200000000E+03 0. -1.
         -6    1    1    2    0  501  0.21985524035E+03 -0.45353624005E+03 -0.27957894159E+03  0.60148136491E+03  0.17200000000E+03 0.  1.
</event>
<event>
 4    1  0.3141404E-002  0.3864624E+03  0.7818608E-02  0.1048571E+00
          2   -1    0    0  502    0  0.00000000000E+00  0.00000000000E+00  0.10343397817E+04  0.10343397817E+04  0.00000000000E+00 0. -1.
         -2   -1    0    0    0  501 -0.00000000000E+00 -0.00000000000E+00 -0.24139606641E+03  0.24139606641E+03  0.00000000000E+00 0.  1.
          6    1    1    2  502    0  0.26510393977E+03 -0.22246142465E+03  0.80081919830E+03  0.88919321450E+03  0.17200000000E+03 0. -1.
         -6    1    1    2    0  501 -0.26510393977E+03  0.22246142465E+03 -0.78754830394E+01  0.38654263358E+03  0.17200000000E+03 0.  1.
</event>
<event>
 4    1  0.3141404E-002  0.2815899E+03  0.7818608E-02  0.1094824E+00
          2   -1    0    0  502    0  0.00000000000E+00  0.00000000000E+00  0.58724423007E+03  0.58724423007E+03  0.00000000000E+00 0. -1.
         -2   -1    0    0    0  501 -0.00000000000E+00 -0.00000000000E+00 -0.24393989470E+03  0.24393989470E+03  0.00000000000E+00 0.  1.
          6    1    1    2  502    0  0.14930669311E+03  0.16557899592E+03  0.44934754492E+03  0.53028870309E+03  0.17200000000E+03 0. -1.
         -6    1    1    2    0  501 -0.14930669311E+03 -0.16557899592E+03 -0.10604320955E+03  0.30089542168E+03  0.17200000000E+03 0.  1.
</event>
<event>
 4    1  0.3141404E-002  0.1879817E+03  0.7818608E-02  0.1160294E+00
          1   -1    0    0  502    0  0.00000000000E+00  0.00000000000E+00  0.76125962390E+03  0.76125962390E+03  0.00000000000E+00 0. -1.
         -1   -1    0    0    0  501 -0.00000000000E+00 -0.00000000000E+00 -0.15616420113E+03  0.15616420113E+03  0.00000000000E+00 0.  1.
          6    1    1    2  502    0 -0.40259552596E+02  0.64282805891E+02  0.68708771469E+03  0.71233885082E+03  0.17200000000E+03 0. -1.
         -6    1    1    2    0  501  0.40259552596E+02 -0.64282805891E+02 -0.81992291921E+02  0.20508497420E+03  0.17200000000E+03 0.  1.
</event>
<event>
 4    1  0.3141404E-002  0.2629561E+03  0.7818608E-02  0.1105380E+00
         -1   -1    0    0    0  501 -0.00000000000E+00  0.00000000000E+00  0.12551124806E+04  0.12551124806E+04  0.00000000000E+00 0.  1.
          1   -1    0    0  502    0  0.00000000000E+00 -0.00000000000E+00 -0.55355853496E+02  0.55355853496E+02  0.00000000000E+00 0. -1.
          6    1    1    2  502    0 -0.96245914413E+02 -0.17406499157E+03  0.64516740319E+03  0.69669711889E+03  0.17200000000E+03 0.  1.
         -6    1    1    2    0  501  0.96245914413E+02  0.17406499157E+03  0.55458922391E+03  0.61377121520E+03  0.17200000000E+03 0. -1.
</event>
<event>
 4    1  0.3141404E-002  0.2018242E+03  0.7818608E-02  0.1148209E+00
         -1   -1    0    0    0  501 -0.00000000000E+00  0.00000000000E+00  0.22902556535E+03  0.22902556535E+03  0.00000000000E+00 0.  1.
          1   -1    0    0  502    0  0.00000000000E+00 -0.00000000000E+00 -0.17794880612E+03  0.17794880612E+03  0.00000000000E+00 0. -1.
          6    1    1    2  502    0 -0.85630233131E+02 -0.61777730980E+02  0.20832007308E+02  0.20289651894E+03  0.17200000000E+03 0. -1.
         -6    1    1    2    0  501  0.85630233131E+02  0.61777730980E+02  0.30244751920E+02  0.20407785252E+03  0.17200000000E+03 0.  1.
</event>
<event>
 4    1  0.3141404E-002  0.2150882E+03  0.7818608E-02  0.1137599E+00
         -1   -1    0    0    0  501 -0.00000000000E+00  0.00000000000E+00  0.67825712245E+02  0.67825712245E+02  0.00000000000E+00 0.  1.
          1   -1    0    0  502    0  0.00000000000E+00 -0.00000000000E+00 -0.11399532775E+04  0.11399532775E+04  0.00000000000E+00 0. -1.
          6    1    1    2  502    0 -0.44079042425E+02 -0.12139179056E+03 -0.91878631519E+03  0.94362663261E+03  0.17200000000E+03 0. -1.
         -6    1    1    2    0  501  0.44079042425E+02  0.12139179056E+03 -0.15334125002E+03  0.26415235708E+03  0.17200000000E+03 0.  1.
</event>
<event>
 4    1  0.3141404E-002  0.2212555E+03  0.7818608E-02  0.1132950E+00
          2   -1    0    0  502    0  0.00000000000E+00  0.00000000000E+00  0.37487548791E+04  0.37487548791E+04  0.00000000000E+00 0. -1.
         -2   -1    0    0    0  501 -0.00000000000E+00 -0.00000000000E+00 -0.13450983504E+02  0.13450983504E+02  0.00000000000E+00 0.  1.
          6    1    1    2  502    0 -0.11169253344E+03  0.83034884280E+02  0.21888801046E+04  0.22000341193E+04  0.17200000000E+03 0. -1.
         -6    1    1    2    0  501  0.11169253344E+03 -0.83034884280E+02  0.15464237911E+04  0.15621717433E+04  0.17200000000E+03 0.  1.
</event>
<event>
 4    1  0.3141404E-002  0.3239436E+03  0.7818608E-02  0.1073849E+00
         -2   -1    0    0    0  501 -0.00000000000E+00  0.00000000000E+00  0.12726343115E+03  0.12726343115E+03  0.00000000000E+00 0.  1.
          2   -1    0    0  502    0  0.00000000000E+00 -0.00000000000E+00 -0.10558866439E+04  0.10558866439E+04  0.00000000000E+00 0. -1.
          6    1    1    2  502    0  0.27261644578E+03  0.32182720890E+02 -0.74119123984E+03  0.80889054145E+03  0.17200000000E+03 0. -1.
         -6    1    1    2    0  501 -0.27261644578E+03 -0.32182720890E+02 -0.18743197296E+03  0.37425953364E+03  0.17200000000E+03 0.  1.
</event>
<event>
 4    1  0.3141404E-002  0.2725905E+03  0.7818608E-02  0.1099806E+00
          2   -1    0    0  502    0  0.00000000000E+00  0.00000000000E+00  0.31174495973E+04  0.31174495973E+04  0.00000000000E+00 0. -1.
         -2   -1    0    0    0  501 -0.00000000000E+00 -0.00000000000E+00 -0.11199849174E+03  0.11199849174E+03  0.00000000000E+00 0.  1.
          6    1    1    2  502    0  0.64879673128E+02 -0.20127642948E+03  0.29353610191E+04  0.29479908218E+04  0.17200000000E+03 0. -1.
         -6    1    1    2    0  501 -0.64879673128E+02  0.20127642948E+03  0.70090086459E+02  0.28145726722E+03  0.17200000000E+03 0.  1.
</event>
<event>
 4    1  0.3141404E-002  0.2006573E+03  0.7818608E-02  0.1149186E+00
         -1   -1    0    0    0  501 -0.00000000000E+00  0.00000000000E+00  0.31359335737E+02  0.31359335737E+02  0.00000000000E+00 0.  1.
          1   -1    0    0  502    0  0.00000000000E+00 -0.00000000000E+00 -0.15032871604E+04  0.15032871604E+04  0.00000000000E+00 0. -1.
          6    1    1    2  502    0  0.19508707586E+02  0.10148290794E+03 -0.10290719043E+04  0.10484523616E+04  0.17200000000E+03 0. -1.
         -6    1    1    2    0  501 -0.19508707586E+02 -0.10148290794E+03 -0.44285592032E+03  0.48619413452E+03  0.17200000000E+03 0.  1.
</event>
<event>
 4    1  0.3141404E-002  0.1965532E+03  0.7818608E-02  0.1152680E+00
         -2   -1    0    0    0  501 -0.00000000000E+00  0.00000000000E+00  0.51931158256E+02  0.51931158256E+02  0.00000000000E+00 0.  1.
          2   -1    0    0  502    0  0.00000000000E+00 -0.00000000000E+00 -0.13149780508E+04  0.13149780508E+04  0.00000000000E+00 0. -1.
          6    1    1    2  502    0  0.61920135047E+02  0.72215383337E+02 -0.10819112440E+04  0.10996204366E+04  0.17200000000E+03 0. -1.
         -6    1    1    2    0  501 -0.61920135047E+02 -0.72215383337E+02 -0.18113564861E+03  0.26728877252E+03  0.17200000000E+03 0.  1.
</event>
<event>
 4    1  0.3141404E-002  0.2978704E+03  0.7818608E-02  0.1086310E+00
          2   -1    0    0  502    0  0.00000000000E+00  0.00000000000E+00  0.42084480365E+03  0.42084480365E+03  0.00000000000E+00 0. -1.
         -2   -1    0    0    0  501 -0.00000000000E+00 -0.00000000000E+00 -0.21540227628E+03  0.21540227628E+03  0.00000000000E+00 0.  1.
          6    1    1    2  502    0 -0.24259870477E+03  0.16989584158E+02  0.14906907916E+03  0.33308912904E+03  0.17200000000E+03 0. -1.
         -6    1    1    2    0  501  0.24259870477E+03 -0.16989584158E+02  0.56373448208E+02  0.30315795089E+03  0.17200000000E+03 0.  1.
</event>
<event>
 4    1  0.3141404E-002  0.2462710E+03  0.7818608E-02  0.1115684E+00
          1   -1    0    0  502    0  0.00000000000E+00  0.00000000000E+00  0.86459331003E+02  0.86459331003E+02  0.00000000000E+00 0. -1.
         -1   -1    0    0    0  501 -0.00000000000E+00 -0.00000000000E+00 -0.70695926931E+03  0.70695926931E+03  0.00000000000E+00 0.  1.
          6    1    1    2  502    0 -0.90873113229E+01 -0.17601945815E+03 -0.34517728553E+03  0.42402451264E+03  0.17200000000E+03 0. -1.
         -6    1    1    2    0  501  0.90873113229E+01  0.17601945815E+03 -0.27532265277E+03  0.36939408767E+03  0.17200000000E+03 0.  1.
</event>
<event>
 4    1  0.3141404E-002  0.2642364E+03  0.7818608E-02  0.1104624E+00
          2   -1    0    0  502    0  0.00000000000E+00  0.00000000000E+00  0.59216522991E+02  0.59216522991E+02  0.00000000000E+00 0. -1.
         -2   -1    0    0    0  501 -0.00000000000E+00 -0.00000000000E+00 -0.19025551633E+04  0.19025551633E+04  0.00000000000E+00 0.  1.
          6    1    1    2  502    0  0.17818004927E+03  0.92134508531E+02 -0.31679901990E+03  0.41253183711E+03  0.17200000000E+03 0. -1.
         -6    1    1    2    0  501 -0.17818004927E+03 -0.92134508531E+02 -0.15265396204E+04  0.15492398492E+04  0.17200000000E+03 0.  1.
</event>
<event>
 4    1  0.3141404E-002  0.1993665E+03  0.7818608E-02  0.1150275E+00
          2   -1    0    0  502    0  0.00000000000E+00  0.00000000000E+00  0.19830277873E+03  0.19830277873E+03  0.00000000000E+00 0. -1.
         -2   -1    0    0    0  501 -0.00000000000E+00 -0.00000000000E+00 -0.25737427663E+03  0.25737427663E+03  0.00000000000E+00 0.  1.
          6    1    1    2  502    0 -0.10081014490E+03  0.54503779660E+00  0.77627876280E+02  0.21394641749E+03  0.17200000000E+03 0. -1.
         -6    1    1    2    0  501  0.10081014490E+03 -0.54503779660E+00 -0.13669937418E+03  0.24173063787E+03  0.17200000000E+03 0.  1.
</event>
<event>
 4    1  0.3141404E-002  0.2355839E+03  0.7818608E-02  0.1122770E+00
         -1   -1    0    0    0  501 -0.00000000000E+00  0.00000000000E+00  0.35524233646E+03  0.35524233646E+03  0.00000000000E+00 0.  1.
          1   -1    0    0  502    0  0.00000000000E+00 -0.00000000000E+00 -0.20790060537E+03  0.20790060537E+03  0.00000000000E+00 0. -1.
          6    1    1    2  502    0  0.90275644290E+02  0.13328939329E+03 -0.66700866880E+02  0.24484435864E+03  0.17200000000E+03 0. -1.
         -6    1    1    2    0  501 -0.90275644290E+02 -0.13328939329E+03  0.21404259797E+03  0.31829858319E+03  0.17200000000E+03 0.  1.
</event>
<event>
 4    1  0.3141404E-002  0.4762178E+03  0.7818608E-02  0.1020180E+00
         -1   -1    0    0    0  501 -0.00000000000E+00  0.00000000000E+00  0.48406518412E+03  0.48406518412E+03  0.00000000000E+00 0.  1.
          1   -1    0    0  502    0  0.00000000000E+00 -0.00000000000E+00 -0.81452849268E+03  0.81452849268E+03  0.00000000000E+00 0. -1.
          6    1    1    2  502    0 -0.32486575293E+03 -0.30275679695E+03 -0.58843345651E+03  0.75699231717E+03  0.17200000000E+03 0. -1.
         -6    1    1    2    0  501  0.32486575293E+03  0.30275679695E+03  0.25797014794E+03  0.54160135963E+03  0.17200000000E+03 0.  1.
</event>
<event>
 4    1  0.3141404E-002  0.2098277E+03  0.7818608E-02  0.1141703E+00
         -2   -1    0    0    0  501 -0.00000000000E+00  0.00000000000E+00  0.65091329576E+03  0.65091329576E+03  0.00000000000E+00 0.  1.
          2   -1    0    0  502    0  0.00000000000E+00 -0.00000000000E+00 -0.67643661956E+02  0.67643661956E+02  0.00000000000E+00 0. -1.
          6    1    1    2  502    0 -0.72890835647E+02  0.95554051218E+02  0.28892308263E+03  0.35707730018E+03  0.17200000000E+03 0. -1.
         -6    1    1    2    0  501  0.72890835647E+02 -0.95554051218E+02  0.29434655117E+03  0.36147965753E+03  0.17200000000E+03 0.  1.
</event>
<event>
 4    1  0.3141404E-002  0.2483980E+03  0.7818608E-02  0.1114321E+00
          2   -1    0    0  502    0  0.00000000000E+00  0.00000000000E+00  0.73076085574E+03  0.73076085574E+03  0.00000000000E+00 0. -1.
         -2   -1    0    0    0  501 -0.00000000000E+00 -0.00000000000E+00 -0.85635382759E+02  0.85635382759E+02  0.00000000000E+00 0.  1.
          6    1    1    2  502    0  0.17915951900E+03  0.44099341223E+01  0.27422829025E+03  0.37000369720E+03  0.17200000000E+03 0. -1.
         -6    1    1    2    0  501 -0.17915951900E+03 -0.44099341223E+01  0.37089718274E+03  0.44639254130E+03  0.17200000000E+03 0.  1.
</event>
<event>
 4    1  0.3141404E-002  0.3885234E+03  0.7818608E-02  0.1047828E+00
          2   -1    0    0  502    0  0.00000000000E+00  0.00000000000E+00  0.14655779547E+04  0.14655779547E+04  0.00000000000E+00 0. -1.
         -2   -1    0    0    0  501 -0.00000000000E+00 -0.00000000000E+00 -0.10316166750E+03  0.10316166750E+03  0.00000000000E+00 0.  1.
          6    1    1    2  502    0 -0.32092892327E+03  0.13553994291E+03  0.64989115901E+03  0.75717169022E+03  0.17200000000E+03 0. -1.
         -6    1    1    2    0  501  0.32092892327E+03 -0.13553994291E+03  0.71252512824E+03  0.81156793203E+03  0.17200000000E+03 0.  1.
</event>
<event>
 4    1  0.3141404E-002  0.2261534E+03  0.7818608E-02  0.1129377E+00
          1   -1    0    0  502    0  0.00000000000E+00  0.00000000000E+00  0.18186224610E+04  0.18186224610E+04  0.00000000000E+00 0. -1.
         -1   -1    0    0    0  501 -0.00000000000E+00 -0.00000000000E+00 -0.44487591561E+02  0.44487591561E+02  0.00000000000E+00 0.  1.
          6    1    1    2  502    0 -0.13898283197E+03 -0.47382734473E+02  0.14520563939E+04  0.14695622213E+04  0.17200000000E+03 0. -1.
         -6    1    1    2    0  501  0.13898283197E+03  0.47382734473E+02  0.32207847553E+03  0.39354783128E+03  0.17200000000E+03 0.  1.
</event>
<event>
 4    1  0.3141404E-002  0.1779021E+03  0.7818608E-02  0.1169849E+00
         -1   -1    0    0    0  501 -0.00000000000E+00  0.00000000000E+00  0.85820982468E+02  0.85820982468E+02  0.00000000000E+00 0.  1.
          1   -1    0    0  502    0  0.00000000000E+00 -0.00000000000E+00 -0.58301131787E+03  0.58301131787E+03  0.00000000000E+00 0. -1.
          6    1    1    2  502    0  0.21056725677E+02 -0.40271292796E+02 -0.45131163965E+03  0.48510963585E+03  0.17200000000E+03 0. -1.
         -6    1    1    2    0  501 -0.21056725677E+02  0.40271292796E+02 -0.45878695753E+02  0.18372266448E+03  0.17200000000E+03 0.  1.
</event>
<event>
 4    1  0.3141404E-002  0.2423989E+03  0.7818608E-02  0.1118205E+00
          2   -1    0    0  502    0  0.00000000000E+00  0.00000000000E+00  0.78444891916E+03  0.78444891916E+03  0.00000000000E+00 0. -1.
         -2   -1    0    0    0  501 -0.00000000000E+00 -0.00000000000E+00 -0.83897633542E+02  0.83897633542E+02  0.00000000000E+00 0.  1.
          6    1    1    2  502    0  0.81597381765E+02 -0.15005032829E+03  0.49243994134E+03  0.54886640410E+03  0.17200000000E+03 0. -1.
         -6    1    1    2    0  501 -0.81597381765E+02  0.15005032829E+03  0.20811134428E+03  0.31948014860E+03  0.17200000000E+03 0.  1.
</event>
<event>
 4    1  0.3141404E-002  0.2990742E+03  0.7818608E-02  0.1085704E+00
         -2   -1    0    0    0  501 -0.00000000000E+00  0.00000000000E+00  0.13620407415E+03  0.13620407415E+03  0.00000000000E+00 0.  1.
          2   -1    0    0  502    0  0.00000000000E+00 -0.00000000000E+00 -0.68914159212E+03  0.68914159212E+03  0.00000000000E+00 0. -1.
          6    1    1    2  502    0 -0.59763971666E+02  0.23725438455E+03 -0.18693333899E+03  0.35268888347E+03  0.17200000000E+03 0. -1.
         -6    1    1    2    0  501  0.59763971666E+02 -0.23725438455E+03 -0.36600417898E+03  0.47265678280E+03  0.17200000000E+03 0.  1.
</event>
<event>
 4    1  0.3141404E-002  0.2956600E+03  0.7818608E-02  0.1087430E+00
         -2   -1    0    0    0  501 -0.00000000000E+00  0.00000000000E+00  0.23502256487E+03  0.23502256487E+03  0.00000000000E+00 0.  1.
          2   -1    0    0  502    0  0.00000000000E+00 -0.00000000000E+00 -0.39080355070E+03  0.39080355070E+03  0.00000000000E+00 0. -1.
          6    1    1    2  502    0  0.84911178888E+02  0.22499090655E+03 -0.14663381446E+03  0.33002468373E+03  0.17200000000E+03 0. -1.
         -6    1    1    2    0  501 -0.84911178888E+02 -0.22499090655E+03 -0.91471713794E+01  0.29580143183E+03  0.17200000000E+03 0.  1.
</event>
<event>
 4    1  0.3141404E-002  0.2321453E+03  0.7818608E-02  0.1125139E+00
          2   -1    0    0  502    0  0.00000000000E+00  0.00000000000E+00  0.34426885111E+03  0.34426885111E+03  0.00000000000E+00 0. -1.
         -2   -1    0    0    0  501 -0.00000000000E+00 -0.00000000000E+00 -0.15719913634E+03  0.15719913634E+03  0.00000000000E+00 0.  1.
          6    1    1    2  502    0  0.14345244178E+03 -0.61064115517E+02  0.77284079517E+02  0.24467173560E+03  0.17200000000E+03 0. -1.
         -6    1    1    2    0  501 -0.14345244178E+03  0.61064115517E+02  0.10978563526E+03  0.25679625185E+03  0.17200000000E+03 0.  1.
</event>
<event>
 4    1  0.3141404E-002  0.3731484E+03  0.7818608E-02  0.1053496E+00
          2   -1    0    0  502    0  0.00000000000E+00  0.00000000000E+00  0.11639125030E+04  0.11639125030E+04  0.00000000000E+00 0. -1.
         -2   -1    0    0    0  501 -0.00000000000E+00 -0.00000000000E+00 -0.12083898654E+03  0.12083898654E+03  0.00000000000E+00 0.  1.
          6    1    1    2  502    0 -0.58689028132E+02 -0.32590075613E+03  0.45730278429E+03  0.59022499217E+03  0.17200000000E+03 0. -1.
         -6    1    1    2    0  501  0.58689028132E+02  0.32590075613E+03  0.58577073213E+03  0.69452649732E+03  0.17200000000E+03 0. -1.
</event>
<event>
 4    1  0.3141404E-002  0.2858902E+03  0.7818608E-02  0.1092515E+00
          1   -1    0    0  502    0  0.00000000000E+00  0.00000000000E+00  0.61114201887E+03  0.61114201887E+03  0.00000000000E+00 0. -1.
         -1   -1    0    0    0  501 -0.00000000000E+00 -0.00000000000E+00 -0.16194063230E+03  0.16194063230E+03  0.00000000000E+00 0.  1.
          6    1    1    2  502    0 -0.18162790274E+03 -0.13842156618E+03  0.38590980013E+03  0.48027033936E+03  0.17200000000E+03 0. -1.
         -6    1    1    2    0  501  0.18162790274E+03  0.13842156618E+03  0.63291586439E+02  0.29281231181E+03  0.17200000000E+03 0.  1.
</event>
<event>
 4    1  0.3141404E-002  0.3677093E+03  0.7818608E-02  0.1055572E+00
         -2   -1    0    0    0  501 -0.00000000000E+00  0.00000000000E+00  0.12102112742E+03  0.12102112742E+03  0.00000000000E+00 0.  1.
          2   -1    0    0  502    0  0.00000000000E+00 -0.00000000000E+00 -0.11385321468E+04  0.11385321468E+04  0.00000000000E+00 0. -1.
          6    1    1    2  502    0  0.31238905621E+03  0.89661645118E+02 -0.59487123025E+03  0.69934391656E+03  0.17200000000E+03 0. -1.
         -6    1    1    2    0  501 -0.31238905621E+03 -0.89661645118E+02 -0.42263978909E+03  0.56020935763E+03  0.17200000000E+03 0.  1.
</event>
<event>
 4    1  0.3141404E-002  0.2308296E+03  0.7818608E-02  0.1126057E+00
         -2   -1    0    0    0  501 -0.00000000000E+00  0.00000000000E+00  0.86314521475E+02  0.86314521475E+02  0.00000000000E+00 0.  1.
          2   -1    0    0  502    0  0.00000000000E+00 -0.00000000000E+00 -0.75327419213E+03  0.75327419213E+03  0.00000000000E+00 0. -1.
          6    1    1    2  502    0 -0.37698933474E+02 -0.14925507248E+03 -0.51183354642E+03  0.56147650484E+03  0.17200000000E+03 0. -1.
         -6    1    1    2    0  501  0.37698933474E+02  0.14925507248E+03 -0.15512612424E+03  0.27811220877E+03  0.17200000000E+03 0.  1.
</event>
<event>
 4    1  0.3141404E-002  0.2301209E+03  0.7818608E-02  0.1126555E+00
          1   -1    0    0  502    0  0.00000000000E+00  0.00000000000E+00  0.23818562104E+03  0.23818562104E+03  0.00000000000E+00 0. -1.
         -1   -1    0    0    0  501 -0.00000000000E+00 -0.00000000000E+00 -0.22689285776E+03  0.22689285776E+03  0.00000000000E+00 0.  1.
          6    1    1    2  502    0 -0.94874186160E+02 -0.11987704947E+03  0.38625758560E+02  0.23334002532E+03  0.17200000000E+03 0. -1.
         -6    1    1    2    0  501  0.94874186160E+02  0.11987704947E+03 -0.27332995281E+02  0.23173845348E+03  0.17200000000E+03 0.  1.
</event>
<event>
 4    1  0.3141404E-002  0.2453867E+03  0.7818608E-02  0.1116256E+00
          2   -1    0    0  502    0  0.00000000000E+00  0.00000000000E+00  0.17556568632E+03  0.17556568632E+03  0.00000000000E+00 0. -1.
         -2   -1    0    0    0  501 -0.00000000000E+00 -0.00000000000E+00 -0.42269253975E+03  0.42269253975E+03  0.00000000000E+00 0.  1.
          6    1    1    2  502    0 -0.32959079213E+02 -0.17188459089E+03  0.63409448414E+01  0.24546857451E+03  0.17200000000E+03 0. -1.
         -6    1    1    2    0  501  0.32959079213E+02  0.17188459089E+03 -0.25346779827E+03  0.35278965156E+03  0.17200000000E+03 0.  1.
</event>
<event>
 4    1  0.3141404E-002  0.3956459E+03  0.7818608E-02  0.1045298E+00
         -1   -1    0    0    0  501 -0.00000000000E+00  0.00000000000E+00  0.13973402309E+03  0.13973402309E+03  0.00000000000E+00 0.  1.
          1   -1    0    0  502    0  0.00000000000E+00 -0.00000000000E+00 -0.16267376772E+04  0.16267376772E+04  0.00000000000E+00 0. -1.
          6    1    1    2  502    0 -0.68238086149E+02 -0.34970731772E+03 -0.12363426196E+04  0.12981058190E+04  0.17200000000E+03 0. -1.
         -6    1    1    2    0  501  0.68238086149E+02  0.34970731772E+03 -0.25066103451E+03  0.46836588122E+03  0.17200000000E+03 0.  1.
</event>
<event>
 4    1  0.3141404E-002  0.1820605E+03  0.7818608E-02  0.1165824E+00
          2   -1    0    0  502    0  0.00000000000E+00  0.00000000000E+00  0.17914187523E+04  0.17914187523E+04  0.00000000000E+00 0. -1.
         -2   -1    0    0    0  501 -0.00000000000E+00 -0.00000000000E+00 -0.31514374122E+02  0.31514374122E+02  0.00000000000E+00 0.  1.
          6    1    1    2  502    0  0.30318972355E+02  0.51407885734E+02  0.29428126119E+03  0.34604547604E+03  0.17200000000E+03 0.  1.
         -6    1    1    2    0  501 -0.30318972355E+02 -0.51407885734E+02  0.14656231170E+04  0.14768876504E+04  0.17200000000E+03 0.  1.
</event>
<event>
 4    1  0.3141404E-002  0.3935842E+03  0.7818608E-02  0.1046024E+00
         -2   -1    0    0    0  501 -0.00000000000E+00  0.00000000000E+00  0.72059107997E+03  0.72059107997E+03  0.00000000000E+00 0.  1.
          2   -1    0    0  502    0  0.00000000000E+00 -0.00000000000E+00 -0.75973054503E+03  0.75973054503E+03  0.00000000000E+00 0. -1.
          6    1    1    2  502    0 -0.26347301211E+03  0.23644550556E+03 -0.64632419504E+03  0.75673209943E+03  0.17200000000E+03 0. -1.
         -6    1    1    2    0  501  0.26347301211E+03 -0.23644550556E+03  0.60718472998E+03  0.72358952558E+03  0.17200000000E+03 0.  1.
</event>
<event>
 4    1  0.3141404E-002  0.1892440E+03  0.7818608E-02  0.1159145E+00
         -2   -1    0    0    0  501 -0.00000000000E+00  0.00000000000E+00  0.23929526528E+02  0.23929526528E+02  0.00000000000E+00 0.  1.
          2   -1    0    0  502    0  0.00000000000E+00 -0.00000000000E+00 -0.15710283475E+04  0.15710283475E+04  0.00000000000E+00 0. -1.
          6    1    1    2  502    0 -0.64278255130E+02 -0.45799664661E+02 -0.94710987343E+03  0.96583146341E+03  0.17200000000E+03 0. -1.
         -6    1    1    2    0  501  0.64278255130E+02  0.45799664661E+02 -0.59998894759E+03  0.62912641066E+03  0.17200000000E+03 0.  1.
</event>
<event>
 4    1  0.3141404E-002  0.1745504E+03  0.7818608E-02  0.1173184E+00
          2   -1    0    0  502    0  0.00000000000E+00  0.00000000000E+00  0.10191427623E+04  0.10191427623E+04  0.00000000000E+00 0. -1.
         -2   -1    0    0    0  501 -0.00000000000E+00 -0.00000000000E+00 -0.40667752533E+02  0.40667752533E+02  0.00000000000E+00 0.  1.
          6    1    1    2  502    0  0.71630547297E+00 -0.29721052248E+02  0.76196252928E+03  0.78169991049E+03  0.17200000000E+03 0. -1.
         -6    1    1    2    0  501 -0.71630547297E+00  0.29721052248E+02  0.21651248050E+03  0.27811060435E+03  0.17200000000E+03 0.  1.
</event>
<event>
 4    1  0.3141404E-002  0.1940102E+03  0.7818608E-02  0.1154893E+00
          2   -1    0    0  502    0  0.00000000000E+00  0.00000000000E+00  0.13409995036E+04  0.13409995036E+04  0.00000000000E+00 0. -1.
         -2   -1    0    0    0  501 -0.00000000000E+00 -0.00000000000E+00 -0.40733345306E+02  0.40733345306E+02  0.00000000000E+00 0.  1.
          6    1    1    2  502    0  0.81731185238E+02 -0.37094326325E+02  0.10353606088E+04  0.10533810165E+04  0.17200000000E+03 0. -1.
         -6    1    1    2    0  501 -0.81731185238E+02  0.37094326325E+02  0.26490554950E+03  0.32835183240E+03  0.17200000000E+03 0.  1.
</event>
<event>
 4    1  0.3141404E-002  0.4171677E+03  0.7818608E-02  0.1037992E+00
          1   -1    0    0  502    0  0.00000000000E+00  0.00000000000E+00  0.27559374143E+03  0.27559374143E+03  0.00000000000E+00 0. -1.
         -1   -1    0    0    0  501 -0.00000000000E+00 -0.00000000000E+00 -0.70946805493E+03  0.70946805493E+03  0.00000000000E+00 0.  1.
          6    1    1    2  502    0 -0.15984077728E+03  0.34481270189E+03 -0.53627434689E+02  0.42060049360E+03  0.17200000000E+03 0. -1.
         -6    1    1    2    0  501  0.15984077728E+03 -0.34481270189E+03 -0.38024687882E+03  0.56446130276E+03  0.17200000000E+03 0.  1.
</event>
<event>
 4    1  0.3141404E-002  0.2274279E+03  0.7818608E-02  0.1128463E+00
         -1   -1    0    0    0  501 -0.00000000000E+00  0.00000000000E+00  0.17807626447E+03  0.17807626447E+03  0.00000000000E+00 0.  1.
          1   -1    0    0  502    0  0.00000000000E+00 -0.00000000000E+00 -0.29045669439E+03  0.29045669439E+03  0.00000000000E+00 0. -1.
          6    1    1    2  502    0 -0.57661284717E+02  0.13716639299E+03 -0.56187893102E+02  0.23426592251E+03  0.17200000000E+03 0.  1.
         -6    1    1    2    0  501  0.57661284717E+02 -0.13716639299E+03 -0.56192536818E+02  0.23426703634E+03  0.17200000000E+03 0.  1.
</event>
<event>
 4    1  0.3141404E-002  0.3777673E+03  0.7818608E-02  0.1051762E+00
         -2   -1    0    0    0  501 -0.00000000000E+00  0.00000000000E+00  0.45439597701E+03  0.45439597701E+03  0.00000000000E+00 0.  1.
          2   -1    0    0  502    0  0.00000000000E+00 -0.00000000000E+00 -0.11390930799E+04  0.11390930799E+04  0.00000000000E+00 0. -1.
          6    1    1    2  502    0  0.24157474838E+03 -0.23402094400E+03 -0.10204190338E+04  0.10881007150E+04  0.17200000000E+03 0. -1.
         -6    1    1    2    0  501 -0.24157474838E+03  0.23402094400E+03  0.33572193093E+03  0.50538834197E+03  0.17200000000E+03 0.  1.
</event>
<event>
 4    1  0.3141404E-002  0.4612224E+03  0.7818608E-02  0.1024427E+00
          1   -1    0    0  502    0  0.00000000000E+00  0.00000000000E+00  0.23350106171E+04  0.23350106171E+04  0.00000000000E+00 0. -1.
         -1   -1    0    0    0  501 -0.00000000000E+00 -0.00000000000E+00 -0.96670208021E+02  0.96670208021E+02  0.00000000000E+00 0.  1.
          6    1    1    2  502    0  0.38269736704E+03  0.19153281543E+03  0.82739035992E+03  0.94725968024E+03  0.17200000000E+03 0. -1.
         -6    1    1    2    0  501 -0.38269736704E+03 -0.19153281543E+03  0.14109500491E+04  0.14844211448E+04  0.17200000000E+03 0. -1.
</event>
<event>
 4    1  0.3141404E-002  0.2447958E+03  0.7818608E-02  0.1116639E+00
         -2   -1    0    0    0  501 -0.00000000000E+00  0.00000000000E+00  0.34233359511E+02  0.34233359511E+02  0.00000000000E+00 0.  1.
          2   -1    0    0  502    0  0.00000000000E+00 -0.00000000000E+00 -0.19830130959E+04  0.19830130959E+04  0.00000000000E+00 0. -1.
          6    1    1    2  502    0 -0.17181772636E+03 -0.28629593866E+02 -0.13197751496E+04  0.13422858973E+04  0.17200000000E+03 0. -1.
         -6    1    1    2    0  501  0.17181772636E+03  0.28629593866E+02 -0.62900458684E+03  0.67496055811E+03  0.17200000000E+03 0.  1.
</event>
<event>
 4    1  0.3141404E-002  0.4019156E+03  0.7818608E-02  0.1043118E+00
          1   -1    0    0  502    0  0.00000000000E+00  0.00000000000E+00  0.76177240040E+03  0.76177240040E+03  0.00000000000E+00 0. -1.
         -1   -1    0    0    0  501 -0.00000000000E+00 -0.00000000000E+00 -0.21352995808E+03  0.21352995808E+03  0.00000000000E+00 0.  1.
          6    1    1    2  502    0 -0.15827779646E+03  0.32695612196E+03  0.31467725888E+03  0.51044876706E+03  0.17200000000E+03 0. -1.
         -6    1    1    2    0  501  0.15827779646E+03 -0.32695612196E+03  0.23356518344E+03  0.46485359142E+03  0.17200000000E+03 0.  1.
</event>
<event>
 4    1  0.3141404E-002  0.1812369E+03  0.7818608E-02  0.1166611E+00
          2   -1    0    0  502    0  0.00000000000E+00  0.00000000000E+00  0.42196553240E+03  0.42196553240E+03  0.00000000000E+00 0. -1.
         -2   -1    0    0    0  501 -0.00000000000E+00 -0.00000000000E+00 -0.35594158311E+03  0.35594158311E+03  0.00000000000E+00 0.  1.
          6    1    1    2  502    0 -0.50163857540E+02 -0.27320676183E+02  0.37681381728E+03  0.41813333381E+03  0.17200000000E+03 0. -1.
         -6    1    1    2    0  501  0.50163857540E+02  0.27320676183E+02 -0.31078986799E+03  0.35977378170E+03  0.17200000000E+03 0.  1.
</event>
<event>
 4    1  0.3141404E-002  0.2254146E+03  0.7818608E-02  0.1129909E+00
         -2   -1    0    0    0  501 -0.00000000000E+00  0.00000000000E+00  0.51539847475E+03  0.51539847475E+03  0.00000000000E+00 0.  1.
          2   -1    0    0  502    0  0.00000000000E+00 -0.00000000000E+00 -0.28032399659E+03  0.28032399659E+03  0.00000000000E+00 0. -1.
          6    1    1    2  502    0  0.14355005305E+03 -0.24922414514E+02 -0.20281134060E+03  0.30322299443E+03  0.17200000000E+03 0. -1.
         -6    1    1    2    0  501 -0.14355005305E+03  0.24922414514E+02  0.43788581877E+03  0.49249947691E+03  0.17200000000E+03 0.  1.
</event>
<event>
 4    1  0.3141404E-002  0.1731637E+03  0.7818608E-02  0.1174588E+00
         -2   -1    0    0    0  501 -0.00000000000E+00  0.00000000000E+00  0.21945335011E+03  0.21945335011E+03  0.00000000000E+00 0.  1.
          2   -1    0    0  502    0  0.00000000000E+00 -0.00000000000E+00 -0.29555953419E+03  0.29555953419E+03  0.00000000000E+00 0. -1.
          6    1    1    2  502    0 -0.63153255849E+01  0.19020699291E+02 -0.22687699254E+03  0.28540995091E+03  0.17200000000E+03 0. -1.
         -6    1    1    2    0  501  0.63153255849E+01 -0.19020699291E+02  0.15077080846E+03  0.22960293339E+03  0.17200000000E+03 0.  1.
</event>
<event>
 4    1  0.3141404E-002  0.3377622E+03  0.7818608E-02  0.1067753E+00
         -2   -1    0    0    0  501 -0.00000000000E+00  0.00000000000E+00  0.16015735573E+04  0.16015735573E+04  0.00000000000E+00 0.  1.
          2   -1    0    0  502    0  0.00000000000E+00 -0.00000000000E+00 -0.72706551886E+02  0.72706551886E+02  0.00000000000E+00 0. -1.
          6    1    1    2  502    0  0.10188118543E+03  0.27224905059E+03  0.64521648216E+03  0.72827716588E+03  0.17200000000E+03 0. -1.
         -6    1    1    2    0  501 -0.10188118543E+03 -0.27224905059E+03  0.88365052325E+03  0.94600294331E+03  0.17200000000E+03 0.  1.
</event>
<event>
 4    1  0.3141404E-002  0.1786389E+03  0.7818608E-02  0.1169127E+00
         -2   -1    0    0    0  501 -0.00000000000E+00  0.00000000000E+00  0.54143883606E+02  0.54143883606E+02  0.00000000000E+00 0.  1.
          2   -1    0    0  502    0  0.00000000000E+00 -0.00000000000E+00 -0.82718560143E+03  0.82718560143E+03  0.00000000000E+00 0. -1.
          6    1    1    2  502    0 -0.38688826825E+02 -0.28827820649E+02 -0.62279089364E+03  0.64790459619E+03  0.17200000000E+03 0. -1.
         -6    1    1    2    0  501  0.38688826825E+02  0.28827820649E+02 -0.15025082419E+03  0.23342488885E+03  0.17200000000E+03 0.  1.
</event>
<event>
 4    1  0.3141404E-002  0.2337711E+03  0.7818608E-02  0.1124013E+00
          2   -1    0    0  502    0  0.00000000000E+00  0.00000000000E+00  0.18997573657E+04  0.18997573657E+04  0.00000000000E+00 0. -1.
         -2   -1    0    0    0  501 -0.00000000000E+00 -0.00000000000E+00 -0.33173538016E+02  0.33173538016E+02  0.00000000000E+00 0.  1.
          6    1    1    2  502    0  0.56190259133E+02  0.14801216810E+03  0.12855612253E+04  0.13066432608E+04  0.17200000000E+03 0. -1.
         -6    1    1    2    0  501 -0.56190259133E+02 -0.14801216810E+03  0.58102260240E+03  0.62628764288E+03  0.17200000000E+03 0.  1.
</event>
<event>
 4    1  0.3141404E-002  0.1814513E+03  0.7818608E-02  0.1166406E+00
         -2   -1    0    0    0  501 -0.00000000000E+00  0.00000000000E+00  0.52232928597E+02  0.52232928597E+02  0.00000000000E+00 0.  1.
          2   -1    0    0  502    0  0.00000000000E+00 -0.00000000000E+00 -0.71941537632E+03  0.71941537632E+03  0.00000000000E+00 0. -1.
          6    1    1    2  502    0 -0.52446031527E+02  0.24289353632E+02 -0.46935247521E+03  0.50320602630E+03  0.17200000000E+03 0. -1.
         -6    1    1    2    0  501  0.52446031527E+02 -0.24289353632E+02 -0.19782997252E+03  0.26844227862E+03  0.17200000000E+03 0.  1.
</event>
<event>
 4    1  0.3141404E-002  0.2896407E+03  0.7818608E-02  0.1090537E+00
         -2   -1    0    0    0  501 -0.00000000000E+00  0.00000000000E+00  0.14826162204E+03  0.14826162204E+03  0.00000000000E+00 0.  1.
          2   -1    0    0  502    0  0.00000000000E+00 -0.00000000000E+00 -0.58731101906E+03  0.58731101906E+03  0.00000000000E+00 0. -1.
          6    1    1    2  502    0 -0.85601179970E+02  0.21674913808E+03 -0.28985283584E+03  0.40976385555E+03  0.17200000000E+03 0.  1.
         -6    1    1    2    0  501  0.85601179970E+02 -0.21674913808E+03 -0.14919656118E+03  0.32580878555E+03  0.17200000000E+03 0. -1.
</event>
<event>
 4    1  0.3141404E-002  0.2726520E+03  0.7818608E-02  0.1099771E+00
         -2   -1    0    0    0  501 -0.00000000000E+00  0.00000000000E+00  0.21593517889E+03  0.21593517889E+03  0.00000000000E+00 0.  1.
          2   -1    0    0  502    0  0.00000000000E+00 -0.00000000000E+00 -0.12165700410E+04  0.12165700410E+04  0.00000000000E+00 0. -1.
          6    1    1    2  502    0  0.19705316155E+03  0.76975074088E+02 -0.11068185903E+04  0.11399063569E+04  0.17200000000E+03 0. -1.
         -6    1    1    2    0  501 -0.19705316155E+03 -0.76975074088E+02  0.10618372822E+03  0.29259886303E+03  0.17200000000E+03 0.  1.
</event>
<event>
 4    1  0.3141404E-002  0.1781309E+03  0.7818608E-02  0.1169624E+00
         -2   -1    0    0    0  501 -0.00000000000E+00  0.00000000000E+00  0.26302296359E+02  0.26302296359E+02  0.00000000000E+00 0.  1.
          2   -1    0    0  502    0  0.00000000000E+00 -0.00000000000E+00 -0.12066746536E+04  0.12066746536E+04  0.00000000000E+00 0. -1.
          6    1    1    2  502    0 -0.26132988692E+02  0.38258265459E+02 -0.58059231018E+03  0.60730392607E+03  0.17200000000E+03 0. -1.
         -6    1    1    2    0  501  0.26132988692E+02 -0.38258265459E+02 -0.59978004703E+03  0.62567302387E+03  0.17200000000E+03 0.  1.
</event>
<event>
 4    1  0.3141404E-002  0.2126437E+03  0.7818608E-02  0.1139489E+00
          1   -1    0    0  502    0  0.00000000000E+00  0.00000000000E+00  0.30807782896E+03  0.30807782896E+03  0.00000000000E+00 0. -1.
         -1   -1    0    0    0  501 -0.00000000000E+00 -0.00000000000E+00 -0.36406787835E+03  0.36406787835E+03  0.00000000000E+00 0.  1.
          6    1    1    2  502    0 -0.10895034173E+03 -0.61344586942E+02  0.23164255666E+03  0.31444492262E+03  0.17200000000E+03 0. -1.
         -6    1    1    2    0  501  0.10895034173E+03  0.61344586942E+02 -0.28763260604E+03  0.35770078469E+03  0.17200000000E+03 0.  1.
</event>
<event>
 4    1  0.3141404E-002  0.1961265E+03  0.7818608E-02  0.1153049E+00
         -2   -1    0    0    0  501 -0.00000000000E+00  0.00000000000E+00  0.55831567444E+02  0.55831567444E+02  0.00000000000E+00 0.  1.
          2   -1    0    0  502    0  0.00000000000E+00 -0.00000000000E+00 -0.10594123863E+04  0.10594123863E+04  0.00000000000E+00 0. -1.
          6    1    1    2  502    0 -0.17894642435E+01  0.94225294250E+02 -0.83153273418E+03  0.85434904826E+03  0.17200000000E+03 0. -1.
         -6    1    1    2    0  501  0.17894642435E+01 -0.94225294250E+02 -0.17204808465E+03  0.26089490545E+03  0.17200000000E+03 0.  1.
</event>
<event>
 4    1  0.3141404E-002  0.1986871E+03  0.7818608E-02  0.1150851E+00
         -2   -1    0    0    0  501 -0.00000000000E+00  0.00000000000E+00  0.33277541540E+02  0.33277541540E+02  0.00000000000E+00 0.  1.
          2   -1    0    0  502    0  0.00000000000E+00 -0.00000000000E+00 -0.12474116456E+04  0.12474116456E+04  0.00000000000E+00 0. -1.
          6    1    1    2  502    0 -0.47513852988E+02  0.87378376972E+02 -0.74882093174E+03  0.77473178249E+03  0.17200000000E+03 0.  1.
         -6    1    1    2    0  501  0.47513852988E+02 -0.87378376972E+02 -0.46531317234E+03  0.50595740467E+03  0.17200000000E+03 0.  1.
</event>
<event>
 4    1  0.3141404E-002  0.2748418E+03  0.7818608E-02  0.1098540E+00
         -2   -1    0    0    0  501 -0.00000000000E+00  0.00000000000E+00  0.75601210656E+02  0.75601210656E+02  0.00000000000E+00 0.  1.
          2   -1    0    0  502    0  0.00000000000E+00 -0.00000000000E+00 -0.11635111919E+04  0.11635111919E+04  0.00000000000E+00 0. -1.
          6    1    1    2  502    0  0.15651967578E+03 -0.14647726151E+03 -0.77680526925E+03  0.82399297532E+03  0.17200000000E+03 0. -1.
         -6    1    1    2    0  501 -0.15651967578E+03  0.14647726151E+03 -0.31110471201E+03  0.41511942725E+03  0.17200000000E+03 0.  1.
</event>
<event>
 4    1  0.3141404E-002  0.5542030E+03  0.7818608E-02  0.1000526E+00
          1   -1    0    0  502    0  0.00000000000E+00  0.00000000000E+00  0.17129286517E+04  0.17129286517E+04  0.00000000000E+00 0. -1.
         -1   -1    0    0    0  501 -0.00000000000E+00 -0.00000000000E+00 -0.30534666382E+03  0.30534666382E+03  0.00000000000E+00 0.  1.
          6    1    1    2  502    0 -0.29946519354E+03  0.43344840371E+03  0.13521366621E+04  0.14613057428E+04  0.17200000000E+03 0. -1.
         -6    1    1    2    0  501  0.29946519354E+03 -0.43344840371E+03  0.55445325772E+02  0.55696957275E+03  0.17200000000E+03 0.  1.
</event>
<event>
 4    1  0.3141404E-002  0.2583274E+03  0.7818608E-02  0.1108152E+00
          1   -1    0    0  502    0  0.00000000000E+00  0.00000000000E+00  0.41369825432E+03  0.41369825432E+03  0.00000000000E+00 0. -1.
         -1   -1    0    0    0  501 -0.00000000000E+00 -0.00000000000E+00 -0.16640866433E+03  0.16640866433E+03  0.00000000000E+00 0.  1.
          6    1    1    2  502    0 -0.19181142280E+03  0.18905165548E+02  0.17442377629E+03  0.31169966464E+03  0.17200000000E+03 0. -1.
         -6    1    1    2    0  501  0.19181142280E+03 -0.18905165548E+02  0.72865813697E+02  0.26840725401E+03  0.17200000000E+03 0.  1.
</event>
<event>
 4    1  0.3141404E-002  0.3419001E+03  0.7818608E-02  0.1065990E+00
         -2   -1    0    0    0  501 -0.00000000000E+00  0.00000000000E+00  0.56843476465E+03  0.56843476465E+03  0.00000000000E+00 0.  1.
          2   -1    0    0  502    0  0.00000000000E+00 -0.00000000000E+00 -0.20789912930E+03  0.20789912930E+03  0.00000000000E+00 0. -1.
          6    1    1    2  502    0 -0.15094306615E+03 -0.25402342046E+03  0.22068739476E+03  0.40693812007E+03  0.17200000000E+03 0. -1.
         -6    1    1    2    0  501  0.15094306615E+03  0.25402342046E+03  0.13984824059E+03  0.36939577388E+03  0.17200000000E+03 0.  1.
</event>
<event>
 4    1  0.3141404E-002  0.2486584E+03  0.7818608E-02  0.1114156E+00
          1   -1    0    0  502    0  0.00000000000E+00  0.00000000000E+00  0.11927451837E+04  0.11927451837E+04  0.00000000000E+00 0. -1.
         -1   -1    0    0    0  501 -0.00000000000E+00 -0.00000000000E+00 -0.61379594635E+02  0.61379594635E+02  0.00000000000E+00 0.  1.
          6    1    1    2  502    0  0.13173757280E+03 -0.12203363182E+03  0.81290140756E+03  0.85008216885E+03  0.17200000000E+03 0. -1.
         -6    1    1    2    0  501 -0.13173757280E+03  0.12203363182E+03  0.31846418153E+03  0.40404260951E+03  0.17200000000E+03 0.  1.
</event>
<event>
 4    1  0.3141404E-002  0.2358517E+03  0.7818608E-02  0.1122588E+00
         -2   -1    0    0    0  501 -0.00000000000E+00  0.00000000000E+00  0.22316357076E+03  0.22316357076E+03  0.00000000000E+00 0.  1.
          2   -1    0    0  502    0  0.00000000000E+00 -0.00000000000E+00 -0.34085333582E+04  0.34085333582E+04  0.00000000000E+00 0. -1.
          6    1    1    2  502    0 -0.10137485532E+03  0.12555949111E+03 -0.33408777465E+04  0.33491924645E+04  0.17200000000E+03 0. -1.
         -6    1    1    2    0  501  0.10137485532E+03 -0.12555949111E+03  0.15550795908E+03  0.28250446445E+03  0.17200000000E+03 0.  1.
</event>
<event>
 4    1  0.3141404E-002  0.1734651E+03  0.7818608E-02  0.1174282E+00
         -2   -1    0    0    0  501 -0.00000000000E+00  0.00000000000E+00  0.41500174641E+02  0.41500174641E+02  0.00000000000E+00 0.  1.
          2   -1    0    0  502    0  0.00000000000E+00 -0.00000000000E+00 -0.11290098551E+04  0.11290098551E+04  0.00000000000E+00 0. -1.
          6    1    1    2  502    0  0.14912834763E+02 -0.16845016870E+02 -0.89382864046E+03  0.91050523653E+03  0.17200000000E+03 0. -1.
         -6    1    1    2    0  501 -0.14912834763E+02  0.16845016870E+02 -0.19368103996E+03  0.26000479317E+03  0.17200000000E+03 0.  1.
</event>
<event>
 4    1  0.3141404E-002  0.5709626E+03  0.7818608E-02  0.9967551E-01
          2   -1    0    0  502    0  0.00000000000E+00  0.00000000000E+00  0.84088773140E+03  0.84088773140E+03  0.00000000000E+00 0. -1.
         -2   -1    0    0    0  501 -0.00000000000E+00 -0.00000000000E+00 -0.52698236723E+03  0.52698236723E+03  0.00000000000E+00 0.  1.
          6    1    1    2  502    0  0.54443597165E+03 -0.19358500794E+01  0.50858651563E+03  0.76462966110E+03  0.17200000000E+03 0. -1.
         -6    1    1    2    0  501 -0.54443597165E+03  0.19358500794E+01 -0.19468115146E+03  0.60324043754E+03  0.17200000000E+03 0.  1.
</event>
<event>
 4    1  0.3141404E-002  0.3619046E+03  0.7818608E-02  0.1057832E+00
         -2   -1    0    0    0  501 -0.00000000000E+00  0.00000000000E+00  0.63701505525E+02  0.63701505525E+02  0.00000000000E+00 0.  1.
          2   -1    0    0  502    0  0.00000000000E+00 -0.00000000000E+00 -0.35509545514E+04  0.35509545514E+04  0.00000000000E+00 0. -1.
          6    1    1    2  502    0 -0.29187442882E+03  0.12728026215E+03 -0.57097812663E+03  0.67601107123E+03  0.17200000000E+03 0.  1.
         -6    1    1    2    0  501  0.29187442882E+03 -0.12728026215E+03 -0.29162749192E+04  0.29386449857E+04  0.17200000000E+03 0. -1.
</event>
<event>
 4    1  0.3141404E-002  0.2531084E+03  0.7818608E-02  0.1111356E+00
         -2   -1    0    0    0  501 -0.00000000000E+00  0.00000000000E+00  0.50044769690E+02  0.50044769690E+02  0.00000000000E+00 0.  1.
          2   -1    0    0  502    0  0.00000000000E+00 -0.00000000000E+00 -0.12807774475E+04  0.12807774475E+04  0.00000000000E+00 0. -1.
          6    1    1    2  502    0 -0.22651833301E+02  0.18430076989E+03 -0.63031138273E+03  0.67923215364E+03  0.17200000000E+03 0. -1.
         -6    1    1    2    0  501  0.22651833301E+02 -0.18430076989E+03 -0.60042129506E+03  0.65159006354E+03  0.17200000000E+03 0.  1.
</event>
<event>
 4    1  0.3141404E-002  0.2440519E+03  0.7818608E-02  0.1117123E+00
          2   -1    0    0  502    0  0.00000000000E+00  0.00000000000E+00  0.58545909443E+02  0.58545909443E+02  0.00000000000E+00 0. -1.
         -2   -1    0    0    0  501 -0.00000000000E+00 -0.00000000000E+00 -0.13894296874E+04  0.13894296874E+04  0.00000000000E+00 0.  1.
          6    1    1    2  502    0 -0.16042044288E+03 -0.65135417743E+02 -0.29078447744E+03  0.37962738766E+03  0.17200000000E+03 0.  1.
         -6    1    1    2    0  501  0.16042044288E+03  0.65135417743E+02 -0.10400993005E+04  0.10683482092E+04  0.17200000000E+03 0.  1.
</event>
<event>
 4    1  0.3141404E-002  0.1953749E+03  0.7818608E-02  0.1153701E+00
          1   -1    0    0  502    0  0.00000000000E+00  0.00000000000E+00  0.93219993508E+03  0.93219993508E+03  0.00000000000E+00 0. -1.
         -1   -1    0    0    0  501 -0.00000000000E+00 -0.00000000000E+00 -0.61588849498E+02  0.61588849498E+02  0.00000000000E+00 0.  1.
          6    1    1    2  502    0 -0.81802409099E+02  0.43539763716E+02  0.72296661630E+03  0.74890057647E+03  0.17200000000E+03 0. -1.
         -6    1    1    2    0  501  0.81802409099E+02 -0.43539763716E+02  0.14764446928E+03  0.24488820810E+03  0.17200000000E+03 0.  1.
</event>
<event>
 4    1  0.3141404E-002  0.1863350E+03  0.7818608E-02  0.1161809E+00
         -1   -1    0    0    0  501 -0.00000000000E+00  0.00000000000E+00  0.48076808927E+02  0.48076808927E+02  0.00000000000E+00 0.  1.
          1   -1    0    0  502    0  0.00000000000E+00 -0.00000000000E+00 -0.87776787298E+03  0.87776787298E+03  0.00000000000E+00 0. -1.
          6    1    1    2  502    0 -0.14402958069E+02  0.70208958216E+02 -0.21995632387E+03  0.28827335538E+03  0.17200000000E+03 0.  1.
         -6    1    1    2    0  501  0.14402958069E+02 -0.70208958216E+02 -0.60973474018E+03  0.63757132652E+03  0.17200000000E+03 0. -1.
</event>
<event>
 4    1  0.3141404E-002  0.2459278E+03  0.7818608E-02  0.1115906E+00
          1   -1    0    0  502    0  0.00000000000E+00  0.00000000000E+00  0.82476403071E+03  0.82476403071E+03  0.00000000000E+00 0. -1.
         -1   -1    0    0    0  501 -0.00000000000E+00 -0.00000000000E+00 -0.73450278550E+02  0.73450278550E+02  0.00000000000E+00 0.  1.
          6    1    1    2  502    0 -0.10110036835E+03  0.14378876029E+03  0.35753306410E+03  0.43394744381E+03  0.17200000000E+03 0. -1.
         -6    1    1    2    0  501  0.10110036835E+03 -0.14378876029E+03  0.39378068807E+03  0.46426686546E+03  0.17200000000E+03 0.  1.
</event>
<event>
 4    1  0.3141404E-002  0.2080643E+03  0.7818608E-02  0.1143108E+00
         -2   -1    0    0    0  501 -0.00000000000E+00  0.00000000000E+00  0.37079399542E+02  0.37079399542E+02  0.00000000000E+00 0.  1.
          2   -1    0    0  502    0  0.00000000000E+00 -0.00000000000E+00 -0.12115643340E+04  0.12115643340E+04  0.00000000000E+00 0. -1.
          6    1    1    2  502    0 -0.19854047244E+02 -0.11538006329E+03 -0.70628624556E+03  0.73629545895E+03  0.17200000000E+03 0. -1.
         -6    1    1    2    0  501  0.19854047244E+02  0.11538006329E+03 -0.46819868893E+03  0.51234827463E+03  0.17200000000E+03 0.  1.
</event>
<event>
 4    1  0.3141404E-002  0.2100772E+03  0.7818608E-02  0.1141505E+00
          4   -1    0    0  502    0  0.00000000000E+00  0.00000000000E+00  0.19136484215E+03  0.19136484215E+03  0.00000000000E+00 0. -1.
         -4   -1    0    0    0  501 -0.00000000000E+00 -0.00000000000E+00 -0.29376282375E+03  0.29376282375E+03  0.00000000000E+00 0.  1.
          6    1    1    2  502    0 -0.11332563654E+03 -0.41300311122E+02  0.61259492648E+02  0.21882673748E+03  0.17200000000E+03 0. -1.
         -6    1    1    2    0  501  0.11332563654E+03  0.41300311122E+02 -0.16365747425E+03  0.26630092841E+03  0.17200000000E+03 0.  1.
</event>
<event>
 4    1  0.3141404E-002  0.1987190E+03  0.7818608E-02  0.1150824E+00
          1   -1    0    0  502    0  0.00000000000E+00  0.00000000000E+00  0.21792588939E+04  0.21792588939E+04  0.00000000000E+00 0. -1.
         -1   -1    0    0    0  501 -0.00000000000E+00 -0.00000000000E+00 -0.32126016312E+02  0.32126016312E+02  0.00000000000E+00 0.  1.
          6    1    1    2  502    0 -0.69958745689E+02 -0.70788512657E+02  0.18036215078E+04  0.18145356935E+04  0.17200000000E+03 0. -1.
         -6    1    1    2    0  501  0.69958745689E+02  0.70788512657E+02  0.34351136978E+03  0.39684921669E+03  0.17200000000E+03 0.  1.
</event>
<event>
 4    1  0.3141404E-002  0.3610454E+03  0.7818608E-02  0.1058171E+00
          2   -1    0    0  502    0  0.00000000000E+00  0.00000000000E+00  0.93763426987E+03  0.93763426987E+03  0.00000000000E+00 0. -1.
         -2   -1    0    0    0  501 -0.00000000000E+00 -0.00000000000E+00 -0.26795109256E+03  0.26795109256E+03  0.00000000000E+00 0.  1.
          6    1    1    2  502    0 -0.25952080912E+03 -0.18280797747E+03  0.75297228062E+03  0.83505752040E+03  0.17200000000E+03 0. -1.
         -6    1    1    2    0  501  0.25952080912E+03  0.18280797747E+03 -0.83289103309E+02  0.37052784204E+03  0.17200000000E+03 0.  1.
</event>
<event>
 4    1  0.3141404E-002  0.2777021E+03  0.7818608E-02  0.1096951E+00
          2   -1    0    0  502    0  0.00000000000E+00  0.00000000000E+00  0.21113006762E+04  0.21113006762E+04  0.00000000000E+00 0. -1.
         -2   -1    0    0    0  501 -0.00000000000E+00 -0.00000000000E+00 -0.37684680678E+02  0.37684680678E+02  0.00000000000E+00 0.  1.
          6    1    1    2  502    0  0.13253152466E+03  0.17311800613E+03  0.12251759362E+04  0.12562541637E+04  0.17200000000E+03 0. -1.
         -6    1    1    2    0  501 -0.13253152466E+03 -0.17311800613E+03  0.84844005930E+03  0.89273119320E+03  0.17200000000E+03 0.  1.
</event>
<event>
 4    1  0.3141404E-002  0.3462903E+03  0.7818608E-02  0.1064148E+00
          2   -1    0    0  502    0  0.00000000000E+00  0.00000000000E+00  0.49223236703E+03  0.49223236703E+03  0.00000000000E+00 0. -1.
         -2   -1    0    0    0  501 -0.00000000000E+00 -0.00000000000E+00 -0.32039227701E+03  0.32039227701E+03  0.00000000000E+00 0.  1.
          6    1    1    2  502    0  0.91558149393E+02 -0.28626920507E+03  0.28481565074E+03  0.44837139449E+03  0.17200000000E+03 0. -1.
         -6    1    1    2    0  501 -0.91558149393E+02  0.28626920507E+03 -0.11297556072E+03  0.36425324956E+03  0.17200000000E+03 0.  1.
</event>
<event>
 4    1  0.3141404E-002  0.2550463E+03  0.7818608E-02  0.1110157E+00
          3   -1    0    0  502    0  0.00000000000E+00  0.00000000000E+00  0.43851540528E+03  0.43851540528E+03  0.00000000000E+00 0. -1.
         -3   -1    0    0    0  501 -0.00000000000E+00 -0.00000000000E+00 -0.26302086310E+03  0.26302086310E+03  0.00000000000E+00 0.  1.
          6    1    1    2  502    0 -0.14447205072E+03  0.12079913870E+03  0.31936608537E+03  0.40870931215E+03  0.17200000000E+03 0. -1.
         -6    1    1    2    0  501  0.14447205072E+03 -0.12079913870E+03 -0.14387154320E+03  0.29282695623E+03  0.17200000000E+03 0.  1.
</event>
<event>
 4    1  0.3141404E-002  0.3172410E+03  0.7818608E-02  0.1076926E+00
         -2   -1    0    0    0  501 -0.00000000000E+00  0.00000000000E+00  0.40329941394E+02  0.40329941394E+02  0.00000000000E+00 0.  1.
          2   -1    0    0  502    0  0.00000000000E+00 -0.00000000000E+00 -0.29865272811E+04  0.29865272811E+04  0.00000000000E+00 0. -1.
          6    1    1    2  502    0  0.35009278294E+02  0.26425781668E+03 -0.20867875228E+04  0.21107638448E+04  0.17200000000E+03 0. -1.
         -6    1    1    2    0  501 -0.35009278294E+02 -0.26425781668E+03 -0.85940981687E+03  0.91609337765E+03  0.17200000000E+03 0.  1.
</event>
<event>
 4    1  0.3141404E-002  0.1843074E+03  0.7818608E-02  0.1163698E+00
         -2   -1    0    0    0  501 -0.00000000000E+00  0.00000000000E+00  0.90548217001E+02  0.90548217001E+02  0.00000000000E+00 0.  1.
          2   -1    0    0  502    0  0.00000000000E+00 -0.00000000000E+00 -0.67491087151E+03  0.67491087151E+03  0.00000000000E+00 0. -1.
          6    1    1    2  502    0 -0.47265088569E+01  0.66052030822E+02 -0.54724926523E+03  0.57745213564E+03  0.17200000000E+03 0. -1.
         -6    1    1    2    0  501  0.47265088569E+01 -0.66052030822E+02 -0.37113389273E+02  0.18800695286E+03  0.17200000000E+03 0.  1.
</event>
<event>
 4    1  0.3141404E-002  0.1746687E+03  0.7818608E-02  0.1173065E+00
          1   -1    0    0  502    0  0.00000000000E+00  0.00000000000E+00  0.39982011263E+02  0.39982011263E+02  0.00000000000E+00 0. -1.
         -1   -1    0    0    0  501 -0.00000000000E+00 -0.00000000000E+00 -0.91936231593E+03  0.91936231593E+03  0.00000000000E+00 0.  1.
          6    1    1    2  502    0  0.25366233945E+02 -0.16784439398E+02 -0.24191721835E+03  0.29838415468E+03  0.17200000000E+03 0. -1.
         -6    1    1    2    0  501 -0.25366233945E+02  0.16784439398E+02 -0.63746308632E+03  0.66096017251E+03  0.17200000000E+03 0.  1.
</event>
<event>
 4    1  0.3141404E-002  0.2448037E+03  0.7818608E-02  0.1116633E+00
         -3   -1    0    0    0  501 -0.00000000000E+00  0.00000000000E+00  0.18510379381E+03  0.18510379381E+03  0.00000000000E+00 0.  1.
          3   -1    0    0  502    0  0.00000000000E+00 -0.00000000000E+00 -0.32869532148E+03  0.32869532148E+03  0.00000000000E+00 0. -1.
          6    1    1    2  502    0  0.14249650539E+03  0.10019782507E+03 -0.40310555811E+02  0.24810038111E+03  0.17200000000E+03 0.  1.
         -6    1    1    2    0  501 -0.14249650539E+03 -0.10019782507E+03 -0.10328097185E+03  0.26569873418E+03  0.17200000000E+03 0. -1.
</event>
<event>
 4    1  0.3141404E-002  0.2022246E+03  0.7818608E-02  0.1147876E+00
         -2   -1    0    0    0  501 -0.00000000000E+00  0.00000000000E+00  0.79734284108E+03  0.79734284108E+03  0.00000000000E+00 0.  1.
          2   -1    0    0  502    0  0.00000000000E+00 -0.00000000000E+00 -0.10495869145E+03  0.10495869145E+03  0.00000000000E+00 0. -1.
          6    1    1    2  502    0  0.96940439099E+02 -0.43741925440E+02  0.23582231575E+02  0.20359500588E+03  0.17200000000E+03 0. -1.
         -6    1    1    2    0  501 -0.96940439099E+02  0.43741925440E+02  0.66880191806E+03  0.69870652665E+03  0.17200000000E+03 0.  1.
</event>
<event>
 4    1  0.3141404E-002  0.1814637E+03  0.7818608E-02  0.1166394E+00
          2   -1    0    0  502    0  0.00000000000E+00  0.00000000000E+00  0.23289666268E+04  0.23289666268E+04  0.00000000000E+00 0. -1.
         -2   -1    0    0    0  501 -0.00000000000E+00 -0.00000000000E+00 -0.14461232195E+03  0.14461232195E+03  0.00000000000E+00 0.  1.
          6    1    1    2  502    0 -0.89672129291E+00 -0.57829733118E+02  0.22669505875E+04  0.22742018487E+04  0.17200000000E+03 0. -1.
         -6    1    1    2    0  501  0.89672129291E+00  0.57829733118E+02 -0.82596282662E+02  0.19937710012E+03  0.17200000000E+03 0.  1.
</event>
<event>
 4    1  0.3141404E-002  0.1989309E+03  0.7818608E-02  0.1150644E+00
         -2   -1    0    0    0  501 -0.00000000000E+00  0.00000000000E+00  0.44483153612E+02  0.44483153612E+02  0.00000000000E+00 0.  1.
          2   -1    0    0  502    0  0.00000000000E+00 -0.00000000000E+00 -0.12500008666E+04  0.12500008666E+04  0.00000000000E+00 0. -1.
          6    1    1    2  502    0 -0.68137033803E+02 -0.73122110708E+02 -0.95028465386E+03  0.97088332039E+03  0.17200000000E+03 0. -1.
         -6    1    1    2    0  501  0.68137033803E+02  0.73122110708E+02 -0.25523305911E+03  0.32360069980E+03  0.17200000000E+03 0.  1.
</event>
<event>
 4    1  0.3141404E-002  0.1885820E+03  0.7818608E-02  0.1159747E+00
          1   -1    0    0  502    0  0.00000000000E+00  0.00000000000E+00  0.34968309655E+03  0.34968309655E+03  0.00000000000E+00 0. -1.
         -1   -1    0    0    0  501 -0.00000000000E+00 -0.00000000000E+00 -0.14526459633E+03  0.14526459633E+03  0.00000000000E+00 0.  1.
          6    1    1    2  502    0 -0.57421814148E+02  0.51786941690E+02 -0.33313071141E+02  0.19150173048E+03  0.17200000000E+03 0. -1.
         -6    1    1    2    0  501  0.57421814148E+02 -0.51786941690E+02  0.23773157136E+03  0.30344596239E+03  0.17200000000E+03 0. -1.
</event>
<event>
 4    1  0.3141404E-002  0.1869440E+03  0.7818608E-02  0.1161247E+00
         -2   -1    0    0    0  501 -0.00000000000E+00  0.00000000000E+00  0.26637863348E+02  0.26637863348E+02  0.00000000000E+00 0.  1.
          2   -1    0    0  502    0  0.00000000000E+00 -0.00000000000E+00 -0.13273980784E+04  0.13273980784E+04  0.00000000000E+00 0. -1.
          6    1    1    2  502    0  0.67863233136E+01 -0.72924659226E+02 -0.57738987402E+03  0.60689960185E+03  0.17200000000E+03 0. -1.
         -6    1    1    2    0  501 -0.67863233136E+01  0.72924659226E+02 -0.72337034100E+03  0.74713633986E+03  0.17200000000E+03 0.  1.
</event>
<event>
 4    1  0.3141404E-002  0.2481564E+03  0.7818608E-02  0.1114476E+00
         -2   -1    0    0    0  501 -0.00000000000E+00  0.00000000000E+00  0.36898547562E+02  0.36898547562E+02  0.00000000000E+00 0.  1.
          2   -1    0    0  502    0  0.00000000000E+00 -0.00000000000E+00 -0.17308756722E+04  0.17308756722E+04  0.00000000000E+00 0. -1.
          6    1    1    2  502    0  0.35372068117E+02  0.17534649960E+03 -0.10141835502E+04  0.10441024143E+04  0.17200000000E+03 0. -1.
         -6    1    1    2    0  501 -0.35372068117E+02 -0.17534649960E+03 -0.67979357446E+03  0.72367180545E+03  0.17200000000E+03 0.  1.
</event>
<event>
 4    1  0.3141404E-002  0.1782763E+03  0.7818608E-02  0.1169482E+00
         -2   -1    0    0    0  501 -0.00000000000E+00  0.00000000000E+00  0.56061579259E+02  0.56061579259E+02  0.00000000000E+00 0.  1.
          2   -1    0    0  502    0  0.00000000000E+00 -0.00000000000E+00 -0.58474927017E+03  0.58474927017E+03  0.00000000000E+00 0. -1.
          6    1    1    2  502    0 -0.45153991955E+02 -0.12631585417E+02 -0.20839646573E+03  0.27424720029E+03  0.17200000000E+03 0.  1.
         -6    1    1    2    0  501  0.45153991955E+02  0.12631585417E+02 -0.32029122518E+03  0.36656364913E+03  0.17200000000E+03 0.  1.
</event>
<event>
 4    1  0.3141404E-002  0.2838801E+03  0.7818608E-02  0.1093588E+00
         -1   -1    0    0    0  501 -0.00000000000E+00  0.00000000000E+00  0.39846971497E+03  0.39846971497E+03  0.00000000000E+00 0.  1.
          1   -1    0    0  502    0  0.00000000000E+00 -0.00000000000E+00 -0.30911692636E+03  0.30911692636E+03  0.00000000000E+00 0. -1.
          6    1    1    2  502    0  0.96317402833E+02  0.20427151849E+03 -0.16335226804E+03  0.32752382941E+03  0.17200000000E+03 0. -1.
         -6    1    1    2    0  501 -0.96317402833E+02 -0.20427151849E+03  0.25270505665E+03  0.38006281193E+03  0.17200000000E+03 0.  1.
</event>
<event>
 4    1  0.3141404E-002  0.1976900E+03  0.7818608E-02  0.1151703E+00
         -2   -1    0    0    0  501 -0.00000000000E+00  0.00000000000E+00  0.11593021658E+04  0.11593021658E+04  0.00000000000E+00 0.  1.
          2   -1    0    0  502    0  0.00000000000E+00 -0.00000000000E+00 -0.34112780298E+02  0.34112780298E+02  0.00000000000E+00 0. -1.
          6    1    1    2  502    0 -0.76798760074E+02  0.59993982401E+02  0.49784253170E+03  0.53565708606E+03  0.17200000000E+03 0. -1.
         -6    1    1    2    0  501  0.76798760074E+02 -0.59993982401E+02  0.62734685384E+03  0.65775786008E+03  0.17200000000E+03 0.  1.
</event>
<event>
 4    1  0.3141404E-002  0.1816885E+03  0.7818608E-02  0.1166179E+00
         -2   -1    0    0    0  501 -0.00000000000E+00  0.00000000000E+00  0.39447472492E+02  0.39447472492E+02  0.00000000000E+00 0.  1.
          2   -1    0    0  502    0  0.00000000000E+00 -0.00000000000E+00 -0.85160737868E+03  0.85160737868E+03  0.00000000000E+00 0. -1.
          6    1    1    2  502    0  0.47577108414E+02 -0.34104539930E+02 -0.46477492954E+03  0.49902548634E+03  0.17200000000E+03 0. -1.
         -6    1    1    2    0  501 -0.47577108414E+02  0.34104539930E+02 -0.34738497665E+03  0.39202936483E+03  0.17200000000E+03 0.  1.
</event>
<event>
 4    1  0.3141404E-002  0.2885904E+03  0.7818608E-02  0.1091087E+00
          1   -1    0    0  502    0  0.00000000000E+00  0.00000000000E+00  0.43812496605E+04  0.43812496605E+04  0.00000000000E+00 0. -1.
         -1   -1    0    0    0  501 -0.00000000000E+00 -0.00000000000E+00 -0.22378123491E+02  0.22378123491E+02  0.00000000000E+00 0.  1.
          6    1    1    2  502    0 -0.14873829314E+03 -0.17770020788E+03  0.30337321589E+04  0.30474276457E+04  0.17200000000E+03 0. -1.
         -6    1    1    2    0  501  0.14873829314E+03  0.17770020788E+03  0.13251393781E+04  0.13562001383E+04  0.17200000000E+03 0.  1.
</event>
<event>
 4    1  0.3141404E-002  0.2812789E+03  0.7818608E-02  0.1094993E+00
          2   -1    0    0  502    0  0.00000000000E+00  0.00000000000E+00  0.10922667668E+04  0.10922667668E+04  0.00000000000E+00 0. -1.
         -2   -1    0    0    0  501 -0.00000000000E+00 -0.00000000000E+00 -0.72513138371E+02  0.72513138371E+02  0.00000000000E+00 0.  1.
          6    1    1    2  502    0  0.70448756220E+02  0.21111790277E+03  0.49069784310E+03  0.56559894744E+03  0.17200000000E+03 0. -1.
         -6    1    1    2    0  501 -0.70448756220E+02 -0.21111790277E+03  0.52905578537E+03  0.59918095778E+03  0.17200000000E+03 0. -1.
</event>
<event>
 4    1  0.3141404E-002  0.3681125E+03  0.7818608E-02  0.1055417E+00
          1   -1    0    0  502    0  0.00000000000E+00  0.00000000000E+00  0.56746125201E+03  0.56746125201E+03  0.00000000000E+00 0. -1.
         -1   -1    0    0    0  501 -0.00000000000E+00 -0.00000000000E+00 -0.31666722339E+03  0.31666722339E+03  0.00000000000E+00 0.  1.
          6    1    1    2  502    0  0.17303211700E+02 -0.32499759300E+03  0.34461464120E+03  0.50424804166E+03  0.17200000000E+03 0. -1.
         -6    1    1    2    0  501 -0.17303211700E+02  0.32499759300E+03 -0.93820612575E+02  0.37988043374E+03  0.17200000000E+03 0.  1.
</event>
<event>
 4    1  0.3141404E-002  0.2854094E+03  0.7818608E-02  0.1092771E+00
         -3   -1    0    0    0  501 -0.00000000000E+00  0.00000000000E+00  0.36176768554E+03  0.36176768554E+03  0.00000000000E+00 0.  1.
          3   -1    0    0  502    0  0.00000000000E+00 -0.00000000000E+00 -0.26679137808E+03  0.26679137808E+03  0.00000000000E+00 0. -1.
          6    1    1    2  502    0  0.21050774795E+03  0.86954028582E+02 -0.76648129253E+02  0.29552233546E+03  0.17200000000E+03 0. -1.
         -6    1    1    2    0  501 -0.21050774795E+03 -0.86954028582E+02  0.17162443671E+03  0.33303672817E+03  0.17200000000E+03 0.  1.
</event>
<event>
 4    1  0.3141404E-002  0.1951869E+03  0.7818608E-02  0.1153865E+00
          2   -1    0    0  502    0  0.00000000000E+00  0.00000000000E+00  0.11940136781E+04  0.11940136781E+04  0.00000000000E+00 0. -1.
         -2   -1    0    0    0  501 -0.00000000000E+00 -0.00000000000E+00 -0.10197543587E+03  0.10197543587E+03  0.00000000000E+00 0.  1.
          6    1    1    2  502    0  0.46230813726E+02  0.79853915288E+02  0.10831540303E+04  0.11006001042E+04  0.17200000000E+03 0. -1.
         -6    1    1    2    0  501 -0.46230813726E+02 -0.79853915288E+02  0.88842119098E+01  0.19538900979E+03  0.17200000000E+03 0.  1.
</event>
<event>
 4    1  0.3141404E-002  0.2408852E+03  0.7818608E-02  0.1119205E+00
          1   -1    0    0  502    0  0.00000000000E+00  0.00000000000E+00  0.27852319751E+03  0.27852319751E+03  0.00000000000E+00 0. -1.
         -1   -1    0    0    0  501 -0.00000000000E+00 -0.00000000000E+00 -0.33507916087E+03  0.33507916087E+03  0.00000000000E+00 0.  1.
          6    1    1    2  502    0 -0.14731199736E+03 -0.82102671433E+02  0.16041254948E+03  0.28940950098E+03  0.17200000000E+03 0. -1.
         -6    1    1    2    0  501  0.14731199736E+03  0.82102671433E+02 -0.21696851285E+03  0.32419285740E+03  0.17200000000E+03 0.  1.
</event>
<event>
 4    1  0.3141404E-002  0.2422762E+03  0.7818608E-02  0.1118286E+00
          2   -1    0    0  502    0  0.00000000000E+00  0.00000000000E+00  0.54492870759E+03  0.54492870759E+03  0.00000000000E+00 0. -1.
         -2   -1    0    0    0  501 -0.00000000000E+00 -0.00000000000E+00 -0.37401784823E+03  0.37401784823E+03  0.00000000000E+00 0.  1.
          6    1    1    2  502    0  0.16862142638E+03 -0.26087420337E+02  0.47315997152E+03  0.53158075359E+03  0.17200000000E+03 0. -1.
         -6    1    1    2    0  501 -0.16862142638E+03  0.26087420337E+02 -0.30224911217E+03  0.38736580223E+03  0.17200000000E+03 0.  1.
</event>
<event>
 4    1  0.3141404E-002  0.1776823E+03  0.7818608E-02  0.1170065E+00
         -2   -1    0    0    0  501 -0.00000000000E+00  0.00000000000E+00  0.35113139701E+02  0.35113139701E+02  0.00000000000E+00 0.  1.
          2   -1    0    0  502    0  0.00000000000E+00 -0.00000000000E+00 -0.90566659419E+03  0.90566659419E+03  0.00000000000E+00 0. -1.
          6    1    1    2  502    0  0.40335128249E+02  0.18975635253E+02 -0.47526330940E+03  0.50739157518E+03  0.17200000000E+03 0.  1.
         -6    1    1    2    0  501 -0.40335128249E+02 -0.18975635253E+02 -0.39529014509E+03  0.43338815871E+03  0.17200000000E+03 0.  1.
</event>
<event>
 4    1  0.3141404E-002  0.3799946E+03  0.7818608E-02  0.1050936E+00
         -1   -1    0    0    0  501 -0.00000000000E+00  0.00000000000E+00  0.12706470524E+03  0.12706470524E+03  0.00000000000E+00 0.  1.
          1   -1    0    0  502    0  0.00000000000E+00 -0.00000000000E+00 -0.18023282944E+04  0.18023282944E+04  0.00000000000E+00 0. -1.
          6    1    1    2  502    0  0.91245762954E+02  0.32632208543E+03 -0.14240245704E+04  0.14738527300E+04  0.17200000000E+03 0. -1.
         -6    1    1    2    0  501 -0.91245762954E+02 -0.32632208543E+03 -0.25123901875E+03  0.45554026961E+03  0.17200000000E+03 0.  1.
</event>
<event>
 4    1  0.3141404E-002  0.2357551E+03  0.7818608E-02  0.1122653E+00
         -1   -1    0    0    0  501 -0.00000000000E+00  0.00000000000E+00  0.50229716125E+03  0.50229716125E+03  0.00000000000E+00 0.  1.
          1   -1    0    0  502    0  0.00000000000E+00 -0.00000000000E+00 -0.11301803359E+03  0.11301803359E+03  0.00000000000E+00 0. -1.
          6    1    1    2  502    0 -0.50184488928E+02 -0.15322529967E+03  0.15013021417E+03  0.27949875956E+03  0.17200000000E+03 0. -1.
         -6    1    1    2    0  501  0.50184488928E+02  0.15322529967E+03  0.23914891349E+03  0.33581643529E+03  0.17200000000E+03 0.  1.
</event>
<event>
 4    1  0.3141404E-002  0.1837405E+03  0.7818608E-02  0.1164231E+00
          2   -1    0    0  502    0  0.00000000000E+00  0.00000000000E+00  0.81717168115E+02  0.81717168115E+02  0.00000000000E+00 0. -1.
         -2   -1    0    0    0  501 -0.00000000000E+00 -0.00000000000E+00 -0.42926987060E+03  0.42926987060E+03  0.00000000000E+00 0.  1.
          6    1    1    2  502    0 -0.64565824438E+02 -0.27978263534E+01 -0.12424963100E+03  0.22180744875E+03  0.17200000000E+03 0. -1.
         -6    1    1    2    0  501  0.64565824438E+02  0.27978263534E+01 -0.22330307149E+03  0.28917958997E+03  0.17200000000E+03 0. -1.
</event>
<event>
 4    1  0.3141404E-002  0.2406274E+03  0.7818608E-02  0.1119376E+00
          2   -1    0    0  502    0  0.00000000000E+00  0.00000000000E+00  0.72366987203E+03  0.72366987203E+03  0.00000000000E+00 0. -1.
         -2   -1    0    0    0  501 -0.00000000000E+00 -0.00000000000E+00 -0.10748347505E+03  0.10748347505E+03  0.00000000000E+00 0.  1.
          6    1    1    2  502    0  0.14914060063E+03 -0.77939741558E+02  0.97991524271E+02  0.25981505134E+03  0.17200000000E+03 0.  1.
         -6    1    1    2    0  501 -0.14914060063E+03  0.77939741558E+02  0.51819487271E+03  0.57133829574E+03  0.17200000000E+03 0. -1.
</event>
<event>
 4    1  0.3141404E-002  0.1772413E+03  0.7818608E-02  0.1170500E+00
         -2   -1    0    0    0  501 -0.00000000000E+00  0.00000000000E+00  0.57524486744E+02  0.57524486744E+02  0.00000000000E+00 0.  1.
          2   -1    0    0  502    0  0.00000000000E+00 -0.00000000000E+00 -0.56024414900E+03  0.56024414900E+03  0.00000000000E+00 0. -1.
          6    1    1    2  502    0  0.23239387456E+02  0.35922069619E+02 -0.20229115836E+03  0.26895385657E+03  0.17200000000E+03 0. -1.
         -6    1    1    2    0  501 -0.23239387456E+02 -0.35922069619E+02 -0.30042850390E+03  0.34881477917E+03  0.17200000000E+03 0. -1.
</event>
<event>
 4    1  0.3141404E-002  0.6421027E+03  0.7818608E-02  0.9821712E-01
          2   -1    0    0  502    0  0.00000000000E+00  0.00000000000E+00  0.22728274022E+04  0.22728274022E+04  0.00000000000E+00 0. -1.
         -2   -1    0    0    0  501 -0.00000000000E+00 -0.00000000000E+00 -0.18909227477E+03  0.18909227477E+03  0.00000000000E+00 0.  1.
          6    1    1    2  502    0  0.61273105668E+03 -0.85279087120E+02  0.12901080002E+04  0.14410671472E+04  0.17200000000E+03 0. -1.
         -6    1    1    2    0  501 -0.61273105668E+03  0.85279087120E+02  0.79362712731E+03  0.10208525299E+04  0.17200000000E+03 0.  1.
</event>
<event>
 4    1  0.3141404E-002  0.1786149E+03  0.7818608E-02  0.1169150E+00
          2   -1    0    0  502    0  0.00000000000E+00  0.00000000000E+00  0.20669755069E+04  0.20669755069E+04  0.00000000000E+00 0. -1.
         -2   -1    0    0    0  501 -0.00000000000E+00 -0.00000000000E+00 -0.34922818848E+02  0.34922818848E+02  0.00000000000E+00 0.  1.
          6    1    1    2  502    0  0.44830950167E+02 -0.17592134464E+02  0.18011014596E+04  0.18099363981E+04  0.17200000000E+03 0. -1.
         -6    1    1    2    0  501 -0.44830950167E+02  0.17592134464E+02  0.23095122843E+03  0.29196192766E+03  0.17200000000E+03 0.  1.
</event>
<event>
 4    1  0.3141404E-002  0.1772218E+03  0.7818608E-02  0.1170519E+00
         -2   -1    0    0    0  501 -0.00000000000E+00  0.00000000000E+00  0.47211993271E+02  0.47211993271E+02  0.00000000000E+00 0.  1.
          2   -1    0    0  502    0  0.00000000000E+00 -0.00000000000E+00 -0.89951492923E+03  0.89951492923E+03  0.00000000000E+00 0. -1.
          6    1    1    2  502    0 -0.39831694790E+02  0.15394602070E+02 -0.18457839806E+03  0.25588423694E+03  0.17200000000E+03 0.  1.
         -6    1    1    2    0  501  0.39831694790E+02 -0.15394602070E+02 -0.66772453790E+03  0.69084268556E+03  0.17200000000E+03 0. -1.
</event>
<event>
 4    1  0.3141404E-002  0.2132938E+03  0.7818608E-02  0.1138984E+00
          1   -1    0    0  502    0  0.00000000000E+00  0.00000000000E+00  0.11637518077E+03  0.11637518077E+03  0.00000000000E+00 0. -1.
         -1   -1    0    0    0  501 -0.00000000000E+00 -0.00000000000E+00 -0.46952868482E+03  0.46952868482E+03  0.00000000000E+00 0.  1.
          6    1    1    2  502    0  0.12491301343E+03 -0.17521283011E+02 -0.56715198781E+02  0.22070539200E+03  0.17200000000E+03 0. -1.
         -6    1    1    2    0  501 -0.12491301343E+03  0.17521283011E+02 -0.29643830527E+03  0.36519847359E+03  0.17200000000E+03 0.  1.
</event>
<event>
 4    1  0.3141404E-002  0.2668502E+03  0.7818608E-02  0.1103096E+00
         -1   -1    0    0    0  501 -0.00000000000E+00  0.00000000000E+00  0.17762412560E+03  0.17762412560E+03  0.00000000000E+00 0.  1.
          1   -1    0    0  502    0  0.00000000000E+00 -0.00000000000E+00 -0.45619137963E+03  0.45619137963E+03  0.00000000000E+00 0. -1.
          6    1    1    2  502    0  0.16153253300E+03 -0.12462855631E+03 -0.24961488171E+03  0.36539926852E+03  0.17200000000E+03 0. -1.
         -6    1    1    2    0  501 -0.16153253300E+03  0.12462855631E+03 -0.28952372323E+02  0.26841623670E+03  0.17200000000E+03 0.  1.
</event>
<event>
 4    1  0.3141404E-002  0.1907812E+03  0.7818608E-02  0.1157759E+00
         -1   -1    0    0    0  501 -0.00000000000E+00  0.00000000000E+00  0.12568148492E+03  0.12568148492E+03  0.00000000000E+00 0.  1.
          1   -1    0    0  502    0  0.00000000000E+00 -0.00000000000E+00 -0.29623539614E+03  0.29623539614E+03  0.00000000000E+00 0. -1.
          6    1    1    2  502    0 -0.26418710952E+02 -0.78201841840E+02 -0.53706485618E+02  0.19819652609E+03  0.17200000000E+03 0.  1.
         -6    1    1    2    0  501  0.26418710952E+02  0.78201841840E+02 -0.11684742560E+03  0.22372035496E+03  0.17200000000E+03 0. -1.
</event>
<event>
 4    1  0.3141404E-002  0.1763975E+03  0.7818608E-02  0.1171336E+00
          2   -1    0    0  502    0  0.00000000000E+00  0.00000000000E+00  0.59648381147E+03  0.59648381147E+03  0.00000000000E+00 0. -1.
         -2   -1    0    0    0  501 -0.00000000000E+00 -0.00000000000E+00 -0.52704655914E+02  0.52704655914E+02  0.00000000000E+00 0.  1.
          6    1    1    2  502    0  0.34573035447E+02  0.18351372110E+02  0.30471000586E+03  0.35208557952E+03  0.17200000000E+03 0. -1.
         -6    1    1    2    0  501 -0.34573035447E+02 -0.18351372110E+02  0.23906914971E+03  0.29710288787E+03  0.17200000000E+03 0. -1.
</event>
<event>
 4    1  0.3141404E-002  0.2454024E+03  0.7818608E-02  0.1116245E+00
          3   -1    0    0  502    0  0.00000000000E+00  0.00000000000E+00  0.31583253095E+03  0.31583253095E+03  0.00000000000E+00 0. -1.
         -3   -1    0    0    0  501 -0.00000000000E+00 -0.00000000000E+00 -0.19838910041E+03  0.19838910041E+03  0.00000000000E+00 0.  1.
          6    1    1    2  502    0  0.14291404756E+03 -0.10106395560E+03  0.80323679802E+01  0.24553384094E+03  0.17200000000E+03 0. -1.
         -6    1    1    2    0  501 -0.14291404756E+03  0.10106395560E+03  0.10941106255E+03  0.26868779042E+03  0.17200000000E+03 0. -1.
</event>
<event>
 4    1  0.3141404E-002  0.5355931E+03  0.7818608E-02  0.1004885E+00
          1   -1    0    0  502    0  0.00000000000E+00  0.00000000000E+00  0.56055412494E+03  0.56055412494E+03  0.00000000000E+00 0. -1.
         -1   -1    0    0    0  501 -0.00000000000E+00 -0.00000000000E+00 -0.52596839851E+03  0.52596839851E+03  0.00000000000E+00 0.  1.
          6    1    1    2  502    0  0.49693159523E+03 -0.10166093845E+03  0.10663426612E+03  0.54610513956E+03  0.17200000000E+03 0. -1.
         -6    1    1    2    0  501 -0.49693159523E+03  0.10166093845E+03 -0.72048539690E+02  0.54041738389E+03  0.17200000000E+03 0.  1.
</event>
<event>
 4    1  0.3141404E-002  0.1770477E+03  0.7818608E-02  0.1170691E+00
         -2   -1    0    0    0  501 -0.00000000000E+00  0.00000000000E+00  0.17789351938E+04  0.17789351938E+04  0.00000000000E+00 0.  1.
          2   -1    0    0  502    0  0.00000000000E+00 -0.00000000000E+00 -0.81642333419E+02  0.81642333419E+02  0.00000000000E+00 0. -1.
          6    1    1    2  502    0 -0.31929405072E+02 -0.27246942141E+02  0.24842558581E+02  0.17878208937E+03  0.17200000000E+03 0. -1.
         -6    1    1    2    0  501  0.31929405072E+02  0.27246942141E+02  0.16724503018E+04  0.16817954378E+04  0.17200000000E+03 0.  1.
</event>
<event>
 4    1  0.3141404E-002  0.3063311E+03  0.7818608E-02  0.1082118E+00
         -1   -1    0    0    0  501 -0.00000000000E+00  0.00000000000E+00  0.84163719936E+02  0.84163719936E+02  0.00000000000E+00 0.  1.
          1   -1    0    0  502    0  0.00000000000E+00 -0.00000000000E+00 -0.15623263899E+04  0.15623263899E+04  0.00000000000E+00 0. -1.
          6    1    1    2  502    0 -0.19226683047E+03 -0.16519138765E+03 -0.11796134078E+04  0.12187397263E+04  0.17200000000E+03 0.  1.
         -6    1    1    2    0  501  0.19226683047E+03  0.16519138765E+03 -0.29854926216E+03  0.42775038350E+03  0.17200000000E+03 0.  1.
</event>
<event>
 4    1  0.3141404E-002  0.3692485E+03  0.7818608E-02  0.1054981E+00
         -1   -1    0    0    0  501 -0.00000000000E+00  0.00000000000E+00  0.17651324355E+03  0.17651324355E+03  0.00000000000E+00 0.  1.
          1   -1    0    0  502    0  0.00000000000E+00 -0.00000000000E+00 -0.11401006591E+04  0.11401006591E+04  0.00000000000E+00 0. -1.
          6    1    1    2  502    0  0.29615576683E+03 -0.13802974103E+03 -0.85563326094E+03  0.93190810967E+03  0.17200000000E+03 0. -1.
         -6    1    1    2    0  501 -0.29615576683E+03  0.13802974103E+03 -0.10795415458E+03  0.38470579295E+03  0.17200000000E+03 0.  1.
</event>
<event>
 4    1  0.3141404E-002  0.4258056E+03  0.7818608E-02  0.1035193E+00
         -2   -1    0    0    0  501 -0.00000000000E+00  0.00000000000E+00  0.46387450699E+03  0.46387450699E+03  0.00000000000E+00 0.  1.
          2   -1    0    0  502    0  0.00000000000E+00 -0.00000000000E+00 -0.22447369356E+04  0.22447369356E+04  0.00000000000E+00 0. -1.
          6    1    1    2  502    0  0.37260699072E+03 -0.11353599078E+03 -0.21211939438E+04  0.21635096806E+04  0.17200000000E+03 0. -1.
         -6    1    1    2    0  501 -0.37260699072E+03  0.11353599078E+03  0.34033151519E+03  0.54510176203E+03  0.17200000000E+03 0.  1.
</event>
<event>
 4    1  0.3141404E-002  0.4091327E+03  0.7818608E-02  0.1040662E+00
         -4   -1    0    0    0  501 -0.00000000000E+00  0.00000000000E+00  0.26946237350E+03  0.26946237350E+03  0.00000000000E+00 0.  1.
          4   -1    0    0  502    0  0.00000000000E+00 -0.00000000000E+00 -0.86639376018E+03  0.86639376018E+03  0.00000000000E+00 0. -1.
          6    1    1    2  502    0  0.34965119670E+03  0.12469817061E+03 -0.60059427023E+03  0.72670700460E+03  0.17200000000E+03 0. -1.
         -6    1    1    2    0  501 -0.34965119670E+03 -0.12469817061E+03  0.36628835552E+01  0.40914912907E+03  0.17200000000E+03 0.  1.
</event>
<event>
 4    1  0.3141404E-002  0.2019076E+03  0.7818608E-02  0.1148140E+00
          2   -1    0    0  502    0  0.00000000000E+00  0.00000000000E+00  0.40786235410E+03  0.40786235410E+03  0.00000000000E+00 0. -1.
         -2   -1    0    0    0  501 -0.00000000000E+00 -0.00000000000E+00 -0.19561359308E+03  0.19561359308E+03  0.00000000000E+00 0.  1.
          6    1    1    2  502    0 -0.79987366063E+02 -0.69171421024E+02  0.31713252776E+03  0.37595173145E+03  0.17200000000E+03 0. -1.
         -6    1    1    2    0  501  0.79987366063E+02  0.69171421024E+02 -0.10488376675E+03  0.22752421573E+03  0.17200000000E+03 0.  1.
</event>
<event>
 4    1  0.3141404E-002  0.3278757E+03  0.7818608E-02  0.1072081E+00
          2   -1    0    0  502    0  0.00000000000E+00  0.00000000000E+00  0.36581062658E+03  0.36581062658E+03  0.00000000000E+00 0. -1.
         -2   -1    0    0    0  501 -0.00000000000E+00 -0.00000000000E+00 -0.30173321901E+03  0.30173321901E+03  0.00000000000E+00 0.  1.
          6    1    1    2  502    0  0.71235865813E+02 -0.26989610926E+03 -0.21826814148E+02  0.32860138190E+03  0.17200000000E+03 0. -1.
         -6    1    1    2    0  501 -0.71235865813E+02  0.26989610926E+03  0.85904221717E+02  0.33894246368E+03  0.17200000000E+03 0. -1.
</event>
<event>
 4    1  0.3141404E-002  0.2390421E+03  0.7818608E-02  0.1120433E+00
          1   -1    0    0  502    0  0.00000000000E+00  0.00000000000E+00  0.14986179951E+04  0.14986179951E+04  0.00000000000E+00 0. -1.
         -1   -1    0    0    0  501 -0.00000000000E+00 -0.00000000000E+00 -0.38133473267E+02  0.38133473267E+02  0.00000000000E+00 0.  1.
          6    1    1    2  502    0  0.16163114001E+03 -0.37848374949E+02  0.72212081901E+03  0.76065734872E+03  0.17200000000E+03 0. -1.
         -6    1    1    2    0  501 -0.16163114001E+03  0.37848374949E+02  0.73836370279E+03  0.77609411962E+03  0.17200000000E+03 0. -1.
</event>
<event>
 4    1  0.3141404E-002  0.2257795E+03  0.7818608E-02  0.1129646E+00
         -2   -1    0    0    0  501 -0.00000000000E+00  0.00000000000E+00  0.30409635096E+02  0.30409635096E+02  0.00000000000E+00 0.  1.
          2   -1    0    0  502    0  0.00000000000E+00 -0.00000000000E+00 -0.16871188424E+04  0.16871188424E+04  0.00000000000E+00 0. -1.
          6    1    1    2  502    0 -0.77722569284E+02  0.12390146488E+03 -0.89705027189E+03  0.92502732991E+03  0.17200000000E+03 0.  1.
         -6    1    1    2    0  501  0.77722569284E+02 -0.12390146488E+03 -0.75965893537E+03  0.79250114754E+03  0.17200000000E+03 0.  1.
</event>
<event>
 4    1  0.3141404E-002  0.2049467E+03  0.7818608E-02  0.1145631E+00
         -2   -1    0    0    0  501 -0.00000000000E+00  0.00000000000E+00  0.44678140188E+02  0.44678140188E+02  0.00000000000E+00 0.  1.
          2   -1    0    0  502    0  0.00000000000E+00 -0.00000000000E+00 -0.11244632773E+04  0.11244632773E+04  0.00000000000E+00 0. -1.
          6    1    1    2  502    0  0.41476371221E+02 -0.10343521678E+03 -0.30320817668E+03  0.36597586238E+03  0.17200000000E+03 0.  1.
         -6    1    1    2    0  501 -0.41476371221E+02  0.10343521678E+03 -0.77657696048E+03  0.80316555515E+03  0.17200000000E+03 0. -1.
</event>
<event>
 4    1  0.3141404E-002  0.2713191E+03  0.7818608E-02  0.1100527E+00
         -1   -1    0    0    0  501 -0.00000000000E+00  0.00000000000E+00  0.21808627976E+03  0.21808627976E+03  0.00000000000E+00 0.  1.
          1   -1    0    0  502    0  0.00000000000E+00 -0.00000000000E+00 -0.44265240750E+03  0.44265240750E+03  0.00000000000E+00 0. -1.
          6    1    1    2  502    0 -0.89234644367E+02  0.18991379991E+03 -0.27326741539E+03  0.38508330718E+03  0.17200000000E+03 0. -1.
         -6    1    1    2    0  501  0.89234644367E+02 -0.18991379991E+03  0.48701287647E+02  0.27565538009E+03  0.17200000000E+03 0.  1.
</event>
<event>
 4    1  0.3141404E-002  0.2360462E+03  0.7818608E-02  0.1122455E+00
          1   -1    0    0  502    0  0.00000000000E+00  0.00000000000E+00  0.17047088780E+04  0.17047088780E+04  0.00000000000E+00 0. -1.
         -1   -1    0    0    0  501 -0.00000000000E+00 -0.00000000000E+00 -0.44270501240E+02  0.44270501240E+02  0.00000000000E+00 0.  1.
          6    1    1    2  502    0  0.45259349440E+02 -0.15519476105E+03  0.12775835077E+04  0.12992064662E+04  0.17200000000E+03 0. -1.
         -6    1    1    2    0  501 -0.45259349440E+02  0.15519476105E+03  0.38285486902E+03  0.44977291304E+03  0.17200000000E+03 0.  1.
</event>
<event>
 4    1  0.3141404E-002  0.2289353E+03  0.7818608E-02  0.1127391E+00
         -3   -1    0    0    0  501 -0.00000000000E+00  0.00000000000E+00  0.39974824476E+03  0.39974824476E+03  0.00000000000E+00 0.  1.
          3   -1    0    0  502    0  0.00000000000E+00 -0.00000000000E+00 -0.13982223389E+03  0.13982223389E+03  0.00000000000E+00 0. -1.
          6    1    1    2  502    0  0.14986868633E+03 -0.19150289618E+02  0.62623160811E+02  0.23734577520E+03  0.17200000000E+03 0. -1.
         -6    1    1    2    0  501 -0.14986868633E+03  0.19150289618E+02  0.19730285006E+03  0.30222470345E+03  0.17200000000E+03 0.  1.
</event>
<event>
 4    1  0.3141404E-002  0.1772990E+03  0.7818608E-02  0.1170443E+00
         -2   -1    0    0    0  501 -0.00000000000E+00  0.00000000000E+00  0.92608667486E+02  0.92608667486E+02  0.00000000000E+00 0.  1.
          2   -1    0    0  502    0  0.00000000000E+00 -0.00000000000E+00 -0.35154538339E+03  0.35154538339E+03  0.00000000000E+00 0. -1.
          6    1    1    2  502    0  0.42597181424E+02 -0.60334824475E+01 -0.17068132083E+03  0.24610370996E+03  0.17200000000E+03 0.  1.
         -6    1    1    2    0  501 -0.42597181424E+02  0.60334824475E+01 -0.88255395066E+02  0.19805034091E+03  0.17200000000E+03 0.  1.
</event>
<event>
 4    1  0.3141404E-002  0.1871040E+03  0.7818608E-02  0.1161100E+00
         -2   -1    0    0    0  501 -0.00000000000E+00  0.00000000000E+00  0.12672968133E+03  0.12672968133E+03  0.00000000000E+00 0.  1.
          2   -1    0    0  502    0  0.00000000000E+00 -0.00000000000E+00 -0.45921478521E+03  0.45921478521E+03  0.00000000000E+00 0. -1.
          6    1    1    2  502    0  0.73467540644E+02  0.51418485589E+01 -0.35117499810E+03  0.39790928291E+03  0.17200000000E+03 0. -1.
         -6    1    1    2    0  501 -0.73467540644E+02 -0.51418485589E+01  0.18689894218E+02  0.18803518362E+03  0.17200000000E+03 0.  1.
</event>
<event>
 4    1  0.3141404E-002  0.1814256E+03  0.7818608E-02  0.1166430E+00
         -2   -1    0    0    0  501 -0.00000000000E+00  0.00000000000E+00  0.60296293021E+02  0.60296293021E+02  0.00000000000E+00 0.  1.
          2   -1    0    0  502    0  0.00000000000E+00 -0.00000000000E+00 -0.57795173810E+03  0.57795173810E+03  0.00000000000E+00 0. -1.
          6    1    1    2  502    0 -0.10505402897E+02 -0.56752940558E+02 -0.18366644347E+03  0.25816394444E+03  0.17200000000E+03 0.  1.
         -6    1    1    2    0  501  0.10505402897E+02  0.56752940558E+02 -0.33398900161E+03  0.38008408668E+03  0.17200000000E+03 0. -1.
</event>
<event>
 4    1  0.3141404E-002  0.2088985E+03  0.7818608E-02  0.1142441E+00
         -2   -1    0    0    0  501 -0.00000000000E+00  0.00000000000E+00  0.36096477771E+03  0.36096477771E+03  0.00000000000E+00 0.  1.
          2   -1    0    0  502    0  0.00000000000E+00 -0.00000000000E+00 -0.21394036489E+03  0.21394036489E+03  0.00000000000E+00 0. -1.
          6    1    1    2  502    0 -0.99498339859E+02 -0.64456636916E+02 -0.11605747436E+03  0.23897262402E+03  0.17200000000E+03 0. -1.
         -6    1    1    2    0  501  0.99498339859E+02  0.64456636916E+02  0.26308188718E+03  0.33593251858E+03  0.17200000000E+03 0.  1.
</event>
<event>
 4    1  0.3141404E-002  0.5407065E+03  0.7818608E-02  0.1003668E+00
          1   -1    0    0  502    0  0.00000000000E+00  0.00000000000E+00  0.12513043008E+04  0.12513043008E+04  0.00000000000E+00 0. -1.
         -1   -1    0    0    0  501 -0.00000000000E+00 -0.00000000000E+00 -0.37921222473E+03  0.37921222473E+03  0.00000000000E+00 0.  1.
          6    1    1    2  502    0 -0.36369609196E+03 -0.36125434000E+03  0.94115235870E+03  0.10854175730E+04  0.17200000000E+03 0. -1.
         -6    1    1    2    0  501  0.36369609196E+03  0.36125434000E+03 -0.69060282587E+02  0.54509895258E+03  0.17200000000E+03 0.  1.
</event>
<event>
 4    1  0.3141404E-002  0.2595437E+03  0.7818608E-02  0.1107418E+00
         -4   -1    0    0    0  501 -0.00000000000E+00  0.00000000000E+00  0.59322621634E+03  0.59322621634E+03  0.00000000000E+00 0.  1.
          4   -1    0    0  502    0  0.00000000000E+00 -0.00000000000E+00 -0.11979856562E+03  0.11979856562E+03  0.00000000000E+00 0. -1.
          6    1    1    2  502    0  0.17786921002E+03  0.78367635959E+02  0.31811217848E+03  0.41055852242E+03  0.17200000000E+03 0. -1.
         -6    1    1    2    0  501 -0.17786921002E+03 -0.78367635959E+02  0.15531547225E+03  0.30246625954E+03  0.17200000000E+03 0.  1.
</event>
<event>
 4    1  0.3141404E-002  0.2200583E+03  0.7818608E-02  0.1133840E+00
          4   -1    0    0  502    0  0.00000000000E+00  0.00000000000E+00  0.99631591955E+02  0.99631591955E+02  0.00000000000E+00 0. -1.
         -4   -1    0    0    0  501 -0.00000000000E+00 -0.00000000000E+00 -0.52018695934E+03  0.52018695934E+03  0.00000000000E+00 0.  1.
          6    1    1    2  502    0  0.13659528318E+03 -0.13542216634E+02 -0.13088423933E+03  0.25603973739E+03  0.17200000000E+03 0. -1.
         -6    1    1    2    0  501 -0.13659528318E+03  0.13542216634E+02 -0.28967112805E+03  0.36377881391E+03  0.17200000000E+03 0.  1.
</event>
<event>
 4    1  0.3141404E-002  0.1742163E+03  0.7818608E-02  0.1173521E+00
         -3   -1    0    0    0  501 -0.00000000000E+00  0.00000000000E+00  0.23280483765E+03  0.23280483765E+03  0.00000000000E+00 0.  1.
          3   -1    0    0  502    0  0.00000000000E+00 -0.00000000000E+00 -0.15242209669E+03  0.15242209669E+03  0.00000000000E+00 0. -1.
          6    1    1    2  502    0 -0.20964645883E+02  0.18104910217E+02 -0.33068288485E+02  0.17732686163E+03  0.17200000000E+03 0. -1.
         -6    1    1    2    0  501  0.20964645883E+02 -0.18104910217E+02  0.11345102945E+03  0.20790007271E+03  0.17200000000E+03 0.  1.
</event>
<event>
 4    1  0.3141404E-002  0.4098747E+03  0.7818608E-02  0.1040413E+00
         -1   -1    0    0    0  501 -0.00000000000E+00  0.00000000000E+00  0.10614368235E+03  0.10614368235E+03  0.00000000000E+00 0.  1.
          1   -1    0    0  502    0  0.00000000000E+00 -0.00000000000E+00 -0.18129744752E+04  0.18129744752E+04  0.00000000000E+00 0. -1.
          6    1    1    2  502    0  0.35924310371E+03 -0.96735020976E+02 -0.51146256440E+03  0.65543209155E+03  0.17200000000E+03 0. -1.
         -6    1    1    2    0  501 -0.35924310371E+03  0.96735020976E+02 -0.11953682284E+04  0.12636860660E+04  0.17200000000E+03 0.  1.
</event>
<event>
 4    1  0.3141404E-002  0.2354681E+03  0.7818608E-02  0.1122849E+00
         -1   -1    0    0    0  501 -0.00000000000E+00  0.00000000000E+00  0.46780560910E+02  0.46780560910E+02  0.00000000000E+00 0.  1.
          1   -1    0    0  502    0  0.00000000000E+00 -0.00000000000E+00 -0.12024860828E+04  0.12024860828E+04  0.00000000000E+00 0. -1.
          6    1    1    2  502    0 -0.15000414651E+03  0.57965476427E+02 -0.65270181628E+03  0.69387671917E+03  0.17200000000E+03 0.  1.
         -6    1    1    2    0  501  0.15000414651E+03 -0.57965476427E+02 -0.50300370563E+03  0.55538992456E+03  0.17200000000E+03 0. -1.
</event>
<event>
 4    1  0.3141404E-002  0.2077819E+03  0.7818608E-02  0.1143335E+00
          1   -1    0    0  502    0  0.00000000000E+00  0.00000000000E+00  0.63778382776E+02  0.63778382776E+02  0.00000000000E+00 0. -1.
         -1   -1    0    0    0  501 -0.00000000000E+00 -0.00000000000E+00 -0.92394204257E+03  0.92394204257E+03  0.00000000000E+00 0.  1.
          6    1    1    2  502    0  0.57830804308E+02 -0.10121724863E+03 -0.68543605251E+03  0.71623733177E+03  0.17200000000E+03 0.  1.
         -6    1    1    2    0  501 -0.57830804308E+02  0.10121724863E+03 -0.17472760728E+03  0.27148309357E+03  0.17200000000E+03 0. -1.
</event>
<event>
 4    1  0.3141404E-002  0.2114715E+03  0.7818608E-02  0.1140406E+00
          2   -1    0    0  502    0  0.00000000000E+00  0.00000000000E+00  0.25816950738E+04  0.25816950738E+04  0.00000000000E+00 0. -1.
         -2   -1    0    0    0  501 -0.00000000000E+00 -0.00000000000E+00 -0.18483574805E+02  0.18483574805E+02  0.00000000000E+00 0.  1.
          6    1    1    2  502    0  0.11096927466E+03  0.53122468116E+02  0.16075173769E+04  0.16213674147E+04  0.17200000000E+03 0. -1.
         -6    1    1    2    0  501 -0.11096927466E+03 -0.53122468116E+02  0.95569412210E+03  0.97881123387E+03  0.17200000000E+03 0.  1.
</event>
<event>
 4    1  0.3141404E-002  0.1728515E+03  0.7818608E-02  0.1174906E+00
          2   -1    0    0  502    0  0.00000000000E+00  0.00000000000E+00  0.12355762470E+03  0.12355762470E+03  0.00000000000E+00 0. -1.
         -2   -1    0    0    0  501 -0.00000000000E+00 -0.00000000000E+00 -0.25001213241E+03  0.25001213241E+03  0.00000000000E+00 0.  1.
          6    1    1    2  502    0 -0.16705364873E+02  0.38181829343E+01 -0.97056031738E+02  0.19823602355E+03  0.17200000000E+03 0.  1.
         -6    1    1    2    0  501  0.16705364873E+02 -0.38181829343E+01 -0.29398475974E+02  0.17533373357E+03  0.17200000000E+03 0. -1.
</event>
<event>
 4    1  0.3141404E-002  0.2028480E+03  0.7818608E-02  0.1147358E+00
         -2   -1    0    0    0  501 -0.00000000000E+00  0.00000000000E+00  0.96630461282E+02  0.96630461282E+02  0.00000000000E+00 0.  1.
          2   -1    0    0  502    0  0.00000000000E+00 -0.00000000000E+00 -0.43932022692E+03  0.43932022692E+03  0.00000000000E+00 0. -1.
          6    1    1    2  502    0  0.10629377438E+03  0.16276683887E+02 -0.21831869574E+03  0.29801065387E+03  0.17200000000E+03 0. -1.
         -6    1    1    2    0  501 -0.10629377438E+03 -0.16276683887E+02 -0.12437106990E+03  0.23794003433E+03  0.17200000000E+03 0.  1.
</event>
<event>
 4    1  0.3141404E-002  0.2365914E+03  0.7818608E-02  0.1122085E+00
         -1   -1    0    0    0  501 -0.00000000000E+00  0.00000000000E+00  0.20944588334E+03  0.20944588334E+03  0.00000000000E+00 0.  1.
          1   -1    0    0  502    0  0.00000000000E+00 -0.00000000000E+00 -0.62969827070E+03  0.62969827070E+03  0.00000000000E+00 0. -1.
          6    1    1    2  502    0 -0.79227546623E+02  0.14182549419E+03 -0.52844353866E+03  0.57898881552E+03  0.17200000000E+03 0. -1.
         -6    1    1    2    0  501  0.79227546623E+02 -0.14182549419E+03  0.10819115130E+03  0.26015533853E+03  0.17200000000E+03 0.  1.
</event>
<event>
 4    1  0.3141404E-002  0.2750408E+03  0.7818608E-02  0.1098429E+00
          3   -1    0    0  502    0  0.00000000000E+00  0.00000000000E+00  0.42326207465E+02  0.42326207465E+02  0.00000000000E+00 0. -1.
         -3   -1    0    0    0  501 -0.00000000000E+00 -0.00000000000E+00 -0.18283858348E+04  0.18283858348E+04  0.00000000000E+00 0.  1.
          6    1    1    2  502    0 -0.50915171180E+02  0.20849724479E+03 -0.10333307217E+04  0.10693081110E+04  0.17200000000E+03 0. -1.
         -6    1    1    2    0  501  0.50915171180E+02 -0.20849724479E+03 -0.75272890566E+03  0.80140393133E+03  0.17200000000E+03 0.  1.
</event>
<event>
 4    1  0.3141404E-002  0.1859816E+03  0.7818608E-02  0.1162136E+00
          1   -1    0    0  502    0  0.00000000000E+00  0.00000000000E+00  0.60156586254E+03  0.60156586254E+03  0.00000000000E+00 0. -1.
         -1   -1    0    0    0  501 -0.00000000000E+00 -0.00000000000E+00 -0.66646510294E+02  0.66646510294E+02  0.00000000000E+00 0.  1.
          6    1    1    2  502    0  0.46203484409E+02  0.53576152907E+02  0.39124178975E+03  0.43319661145E+03  0.17200000000E+03 0. -1.
         -6    1    1    2    0  501 -0.46203484409E+02 -0.53576152907E+02  0.14367756251E+03  0.23501576138E+03  0.17200000000E+03 0.  1.
</event>
<event>
 4    1  0.3141404E-002  0.2744954E+03  0.7818608E-02  0.1098734E+00
         -1   -1    0    0    0  501 -0.00000000000E+00  0.00000000000E+00  0.89144836433E+02  0.89144836433E+02  0.00000000000E+00 0.  1.
          1   -1    0    0  502    0  0.00000000000E+00 -0.00000000000E+00 -0.85780787036E+03  0.85780787036E+03  0.00000000000E+00 0. -1.
          6    1    1    2  502    0  0.21081054845E+03  0.36368354825E+02 -0.32699450990E+03  0.42693460164E+03  0.17200000000E+03 0.  1.
         -6    1    1    2    0  501 -0.21081054845E+03 -0.36368354825E+02 -0.44166852403E+03  0.52001810516E+03  0.17200000000E+03 0. -1.
</event>
<event>
 4    1  0.3141404E-002  0.2203132E+03  0.7818608E-02  0.1133650E+00
          1   -1    0    0  502    0  0.00000000000E+00  0.00000000000E+00  0.11419925234E+04  0.11419925234E+04  0.00000000000E+00 0. -1.
         -1   -1    0    0    0  501 -0.00000000000E+00 -0.00000000000E+00 -0.99230400807E+02  0.99230400807E+02  0.00000000000E+00 0.  1.
          6    1    1    2  502    0  0.13479187441E+03 -0.28018514953E+02  0.99062060633E+03  0.10148236656E+04  0.17200000000E+03 0. -1.
         -6    1    1    2    0  501 -0.13479187441E+03  0.28018514953E+02  0.52141516291E+02  0.22639925863E+03  0.17200000000E+03 0.  1.
</event>
<event>
 4    1  0.3141404E-002  0.4415515E+03  0.7818608E-02  0.1030272E+00
         -3   -1    0    0    0  501 -0.00000000000E+00  0.00000000000E+00  0.15316121961E+04  0.15316121961E+04  0.00000000000E+00 0.  1.
          3   -1    0    0  502    0  0.00000000000E+00 -0.00000000000E+00 -0.12756369475E+03  0.12756369475E+03  0.00000000000E+00 0. -1.
          6    1    1    2  502    0 -0.32391767384E+03 -0.24588835702E+03  0.66400436954E+03  0.79741428776E+03  0.17200000000E+03 0. -1.
         -6    1    1    2    0  501  0.32391767384E+03  0.24588835702E+03  0.74004413180E+03  0.86176160309E+03  0.17200000000E+03 0.  1.
</event>
<event>
 4    1  0.3141404E-002  0.2005163E+03  0.7818608E-02  0.1149304E+00
          2   -1    0    0  502    0  0.00000000000E+00  0.00000000000E+00  0.63083732429E+03  0.63083732429E+03  0.00000000000E+00 0. -1.
         -2   -1    0    0    0  501 -0.00000000000E+00 -0.00000000000E+00 -0.78768765748E+02  0.78768765748E+02  0.00000000000E+00 0.  1.
          6    1    1    2  502    0 -0.87068884909E+01 -0.10269856997E+03  0.43103556244E+03  0.47539295564E+03  0.17200000000E+03 0. -1.
         -6    1    1    2    0  501  0.87068884909E+01  0.10269856997E+03  0.12103299610E+03  0.23421313440E+03  0.17200000000E+03 0.  1.
</event>
<event>
 4    1  0.3141404E-002  0.2302702E+03  0.7818608E-02  0.1126450E+00
          2   -1    0    0  502    0  0.00000000000E+00  0.00000000000E+00  0.13541551433E+04  0.13541551433E+04  0.00000000000E+00 0. -1.
         -2   -1    0    0    0  501 -0.00000000000E+00 -0.00000000000E+00 -0.55547719598E+02  0.55547719598E+02  0.00000000000E+00 0.  1.
          6    1    1    2  502    0  0.57155773862E+02  0.14203373827E+03  0.10321868964E+04  0.10575604731E+04  0.17200000000E+03 0. -1.
         -6    1    1    2    0  501 -0.57155773862E+02 -0.14203373827E+03  0.26642052737E+03  0.35214238981E+03  0.17200000000E+03 0.  1.
</event>
<event>
 4    1  0.3141404E-002  0.2547298E+03  0.7818608E-02  0.1110352E+00
         -2   -1    0    0    0  501 -0.00000000000E+00  0.00000000000E+00  0.34848827764E+03  0.34848827764E+03  0.00000000000E+00 0.  1.
          2   -1    0    0  502    0  0.00000000000E+00 -0.00000000000E+00 -0.20535932267E+03  0.20535932267E+03  0.00000000000E+00 0. -1.
          6    1    1    2  502    0 -0.76992621779E+02  0.17139260349E+03 -0.13028266408E+02  0.25506278455E+03  0.17200000000E+03 0. -1.
         -6    1    1    2    0  501  0.76992621779E+02 -0.17139260349E+03  0.15615722138E+03  0.29878481576E+03  0.17200000000E+03 0.  1.
</event>
<event>
 4    1  0.3141404E-002  0.4348574E+03  0.7818608E-02  0.1032336E+00
         -2   -1    0    0    0  501 -0.00000000000E+00  0.00000000000E+00  0.66903553895E+02  0.66903553895E+02  0.00000000000E+00 0.  1.
          2   -1    0    0  502    0  0.00000000000E+00 -0.00000000000E+00 -0.35047700713E+04  0.35047700713E+04  0.00000000000E+00 0. -1.
          6    1    1    2  502    0 -0.33257063668E+03  0.22116455196E+03 -0.25045712214E+04  0.25420420907E+04  0.17200000000E+03 0. -1.
         -6    1    1    2    0  501  0.33257063668E+03 -0.22116455196E+03 -0.93329529593E+03  0.10296315345E+04  0.17200000000E+03 0.  1.
</event>
<event>
 4    1  0.3141404E-002  0.1773153E+03  0.7818608E-02  0.1170427E+00
         -2   -1    0    0    0  501 -0.00000000000E+00  0.00000000000E+00  0.32632032150E+02  0.32632032150E+02  0.00000000000E+00 0.  1.
          2   -1    0    0  502    0  0.00000000000E+00 -0.00000000000E+00 -0.13908560944E+04  0.13908560944E+04  0.00000000000E+00 0. -1.
          6    1    1    2  502    0 -0.73576460583E+01  0.42457007130E+02 -0.28458088382E+03  0.33530137465E+03  0.17200000000E+03 0.  1.
         -6    1    1    2    0  501  0.73576460583E+01 -0.42457007130E+02 -0.10736431784E+04  0.10881867519E+04  0.17200000000E+03 0. -1.
</event>
<event>
 4    1  0.3141404E-002  0.1911558E+03  0.7818608E-02  0.1157423E+00
         -1   -1    0    0    0  501 -0.00000000000E+00  0.00000000000E+00  0.14030698871E+03  0.14030698871E+03  0.00000000000E+00 0.  1.
          1   -1    0    0  502    0  0.00000000000E+00 -0.00000000000E+00 -0.96219676111E+03  0.96219676111E+03  0.00000000000E+00 0. -1.
          6    1    1    2  502    0  0.60931105819E+02  0.56955629624E+02 -0.88172017851E+03  0.90220342307E+03  0.17200000000E+03 0. -1.
         -6    1    1    2    0  501 -0.60931105819E+02 -0.56955629624E+02  0.59830406111E+02  0.20030032675E+03  0.17200000000E+03 0.  1.
</event>
<event>
 4    1  0.3141404E-002  0.5472276E+03  0.7818608E-02  0.1002138E+00
          1   -1    0    0  502    0  0.00000000000E+00  0.00000000000E+00  0.54998095400E+03  0.54998095400E+03  0.00000000000E+00 0. -1.
         -1   -1    0    0    0  501 -0.00000000000E+00 -0.00000000000E+00 -0.10694007936E+04  0.10694007936E+04  0.00000000000E+00 0.  1.
          6    1    1    2  502    0 -0.10795015003E+03  0.50815429771E+03  0.30756368400E+03  0.62773676401E+03  0.17200000000E+03 0. -1.
         -6    1    1    2    0  501  0.10795015003E+03 -0.50815429771E+03 -0.82698352364E+03  0.99164498362E+03  0.17200000000E+03 0.  1.
</event>
<event>
 4    1  0.3141404E-002  0.1742335E+03  0.7818608E-02  0.1173503E+00
          2   -1    0    0  502    0  0.00000000000E+00  0.00000000000E+00  0.28378339054E+03  0.28378339054E+03  0.00000000000E+00 0. -1.
         -2   -1    0    0    0  501 -0.00000000000E+00 -0.00000000000E+00 -0.10904385181E+03  0.10904385181E+03  0.00000000000E+00 0.  1.
          6    1    1    2  502    0 -0.26756946447E+02 -0.75758777755E+01  0.11443324885E+03  0.20845214451E+03  0.17200000000E+03 0. -1.
         -6    1    1    2    0  501  0.26756946447E+02  0.75758777755E+01  0.60306289871E+02  0.18437509784E+03  0.17200000000E+03 0.  1.
</event>
<event>
 4    1  0.3141404E-002  0.2005805E+03  0.7818608E-02  0.1149250E+00
         -2   -1    0    0    0  501 -0.00000000000E+00  0.00000000000E+00  0.21653028625E+02  0.21653028625E+02  0.00000000000E+00 0.  1.
          2   -1    0    0  502    0  0.00000000000E+00 -0.00000000000E+00 -0.18918602881E+04  0.18918602881E+04  0.00000000000E+00 0. -1.
          6    1    1    2  502    0 -0.64697302719E+02  0.80391638526E+02 -0.10629940119E+04  0.10817526639E+04  0.17200000000E+03 0. -1.
         -6    1    1    2    0  501  0.64697302719E+02 -0.80391638526E+02 -0.80721324761E+03  0.83176065286E+03  0.17200000000E+03 0.  1.
</event>
<event>
 4    1  0.3141404E-002  0.2126655E+03  0.7818608E-02  0.1139472E+00
         -2   -1    0    0    0  501 -0.00000000000E+00  0.00000000000E+00  0.17852608511E+03  0.17852608511E+03  0.00000000000E+00 0.  1.
          2   -1    0    0  502    0  0.00000000000E+00 -0.00000000000E+00 -0.25721326128E+03  0.25721326128E+03  0.00000000000E+00 0. -1.
          6    1    1    2  502    0 -0.73350985422E+02  0.10130265309E+03 -0.12584814159E+02  0.21303748997E+03  0.17200000000E+03 0.  1.
         -6    1    1    2    0  501  0.73350985422E+02 -0.10130265309E+03 -0.66102362016E+02  0.22270185641E+03  0.17200000000E+03 0. -1.
</event>
<event>
 4    1  0.3141404E-002  0.2980107E+03  0.7818608E-02  0.1086239E+00
         -2   -1    0    0    0  501 -0.00000000000E+00  0.00000000000E+00  0.23671217261E+03  0.23671217261E+03  0.00000000000E+00 0.  1.
          2   -1    0    0  502    0  0.00000000000E+00 -0.00000000000E+00 -0.54001348931E+03  0.54001348931E+03  0.00000000000E+00 0. -1.
          6    1    1    2  502    0 -0.40534721052E+02 -0.23996525253E+03 -0.36621330191E+03  0.47214676587E+03  0.17200000000E+03 0. -1.
         -6    1    1    2    0  501  0.40534721052E+02  0.23996525253E+03  0.62911985210E+02  0.30457889604E+03  0.17200000000E+03 0.  1.
</event>
<event>
 4    1  0.3141404E-002  0.2234243E+03  0.7818608E-02  0.1131356E+00
         -2   -1    0    0    0  501 -0.00000000000E+00  0.00000000000E+00  0.35242218533E+03  0.35242218533E+03  0.00000000000E+00 0.  1.
          2   -1    0    0  502    0  0.00000000000E+00 -0.00000000000E+00 -0.15861995777E+03  0.15861995777E+03  0.00000000000E+00 0. -1.
          6    1    1    2  502    0  0.12862277217E+03  0.61567785615E+02  0.13308522289E+02  0.22382029960E+03  0.17200000000E+03 0. -1.
         -6    1    1    2    0  501 -0.12862277217E+03 -0.61567785615E+02  0.18049370527E+03  0.28722184351E+03  0.17200000000E+03 0.  1.
</event>
<event>
 4    1  0.3141404E-002  0.4130851E+03  0.7818608E-02  0.1039341E+00
         -2   -1    0    0    0  501 -0.00000000000E+00  0.00000000000E+00  0.38657602707E+03  0.38657602707E+03  0.00000000000E+00 0.  1.
          2   -1    0    0  502    0  0.00000000000E+00 -0.00000000000E+00 -0.49259235790E+03  0.49259235790E+03  0.00000000000E+00 0. -1.
          6    1    1    2  502    0 -0.25949552467E+03 -0.27150939271E+03 -0.19470172355E+03  0.45667060209E+03  0.17200000000E+03 0. -1.
         -6    1    1    2    0  501  0.25949552467E+03  0.27150939271E+03  0.88685392723E+02  0.42249778288E+03  0.17200000000E+03 0.  1.
</event>
<event>
 4    1  0.3141404E-002  0.1909158E+03  0.7818608E-02  0.1157638E+00
         -1   -1    0    0    0  501 -0.00000000000E+00  0.00000000000E+00  0.10410031209E+03  0.10410031209E+03  0.00000000000E+00 0.  1.
          1   -1    0    0  502    0  0.00000000000E+00 -0.00000000000E+00 -0.35108288161E+03  0.35108288161E+03  0.00000000000E+00 0. -1.
          6    1    1    2  502    0  0.60799836088E+02 -0.56286937178E+02 -0.11164617779E+03  0.22116443742E+03  0.17200000000E+03 0.  1.
         -6    1    1    2    0  501 -0.60799836088E+02  0.56286937178E+02 -0.13533639172E+03  0.23401875628E+03  0.17200000000E+03 0. -1.
</event>
<event>
 4    1  0.3141404E-002  0.2180768E+03  0.7818608E-02  0.1135325E+00
          4   -1    0    0  502    0  0.00000000000E+00  0.00000000000E+00  0.18084703744E+03  0.18084703744E+03  0.00000000000E+00 0. -1.
         -4   -1    0    0    0  501 -0.00000000000E+00 -0.00000000000E+00 -0.26625108631E+03  0.26625108631E+03  0.00000000000E+00 0.  1.
          6    1    1    2  502    0 -0.12199517838E+03  0.55593712678E+02 -0.17888691036E+02  0.21880925415E+03  0.17200000000E+03 0. -1.
         -6    1    1    2    0  501  0.12199517838E+03 -0.55593712678E+02 -0.67515357835E+02  0.22828886959E+03  0.17200000000E+03 0.  1.
</event>
<event>
 4    1  0.3141404E-002  0.1848616E+03  0.7818608E-02  0.1163179E+00
         -1   -1    0    0    0  501 -0.00000000000E+00  0.00000000000E+00  0.59765067538E+03  0.59765067538E+03  0.00000000000E+00 0.  1.
          1   -1    0    0  502    0  0.00000000000E+00 -0.00000000000E+00 -0.59043731002E+02  0.59043731002E+02  0.00000000000E+00 0. -1.
          6    1    1    2  502    0 -0.58977961195E+02  0.33337953397E+02  0.32763564145E+03  0.37619002192E+03  0.17200000000E+03 0.  1.
         -6    1    1    2    0  501  0.58977961195E+02 -0.33337953397E+02  0.21097130293E+03  0.28050438446E+03  0.17200000000E+03 0. -1.
</event>
<event>
 4    1  0.3141404E-002  0.1973308E+03  0.7818608E-02  0.1152011E+00
          2   -1    0    0  502    0  0.00000000000E+00  0.00000000000E+00  0.40182762775E+03  0.40182762775E+03  0.00000000000E+00 0. -1.
         -2   -1    0    0    0  501 -0.00000000000E+00 -0.00000000000E+00 -0.97700046643E+02  0.97700046643E+02  0.00000000000E+00 0.  1.
          6    1    1    2  502    0  0.92598480181E+02  0.27946082829E+02  0.12954544418E+03  0.23605398574E+03  0.17200000000E+03 0.  1.
         -6    1    1    2    0  501 -0.92598480181E+02 -0.27946082829E+02  0.17458213693E+03  0.26347368866E+03  0.17200000000E+03 0.  1.
</event>
<event>
 4    1  0.3141404E-002  0.3447784E+03  0.7818608E-02  0.1064779E+00
          1   -1    0    0  502    0  0.00000000000E+00  0.00000000000E+00  0.51066834323E+03  0.51066834323E+03  0.00000000000E+00 0. -1.
         -1   -1    0    0    0  501 -0.00000000000E+00 -0.00000000000E+00 -0.43458038993E+03  0.43458038993E+03  0.00000000000E+00 0.  1.
          6    1    1    2  502    0  0.26575511703E+03 -0.13661028007E+03  0.36010979147E+03  0.49854910768E+03  0.17200000000E+03 0. -1.
         -6    1    1    2    0  501 -0.26575511703E+03  0.13661028007E+03 -0.28402183818E+03  0.44669962549E+03  0.17200000000E+03 0.  1.
</event>
<event>
 4    1  0.3141404E-002  0.3962300E+03  0.7818608E-02  0.1045093E+00
         -2   -1    0    0    0  501 -0.00000000000E+00  0.00000000000E+00  0.20990339989E+03  0.20990339989E+03  0.00000000000E+00 0.  1.
          2   -1    0    0  502    0  0.00000000000E+00 -0.00000000000E+00 -0.80549884430E+03  0.80549884430E+03  0.00000000000E+00 0. -1.
          6    1    1    2  502    0 -0.13709118994E+03 -0.32957577085E+03 -0.16209856364E+03  0.42810527610E+03  0.17200000000E+03 0. -1.
         -6    1    1    2    0  501  0.13709118994E+03  0.32957577085E+03 -0.43349688076E+03  0.58729696809E+03  0.17200000000E+03 0.  1.
</event>
<event>
 4    1  0.3141404E-002  0.5299913E+03  0.7818608E-02  0.1006234E+00
          2   -1    0    0  502    0  0.00000000000E+00  0.00000000000E+00  0.12657878858E+04  0.12657878858E+04  0.00000000000E+00 0. -1.
         -2   -1    0    0    0  501 -0.00000000000E+00 -0.00000000000E+00 -0.23373678555E+03  0.23373678555E+03  0.00000000000E+00 0.  1.
          6    1    1    2  502    0 -0.31571578102E+03  0.38939743059E+03  0.68467930157E+03  0.86583864509E+03  0.17200000000E+03 0. -1.
         -6    1    1    2    0  501  0.31571578102E+03 -0.38939743059E+03  0.34737179864E+03  0.63368602622E+03  0.17200000000E+03 0.  1.
</event>
<event>
 4    1  0.3141404E-002  0.1767095E+03  0.7818608E-02  0.1171026E+00
         -2   -1    0    0    0  501 -0.00000000000E+00  0.00000000000E+00  0.13866107787E+04  0.13866107787E+04  0.00000000000E+00 0.  1.
          2   -1    0    0  502    0  0.00000000000E+00 -0.00000000000E+00 -0.25276550313E+02  0.25276550313E+02  0.00000000000E+00 0. -1.
          6    1    1    2  502    0 -0.22895028122E+02 -0.33437689915E+02  0.91380144115E+03  0.93073053849E+03  0.17200000000E+03 0.  1.
         -6    1    1    2    0  501  0.22895028122E+02  0.33437689915E+02  0.44753278723E+03  0.48115679053E+03  0.17200000000E+03 0. -1.
</event>
<event>
 4    1  0.3141404E-002  0.4577694E+03  0.7818608E-02  0.1025430E+00
         -2   -1    0    0    0  501 -0.00000000000E+00  0.00000000000E+00  0.18477351529E+03  0.18477351529E+03  0.00000000000E+00 0.  1.
          2   -1    0    0  502    0  0.00000000000E+00 -0.00000000000E+00 -0.11616673432E+04  0.11616673432E+04  0.00000000000E+00 0. -1.
          6    1    1    2  502    0 -0.38322484396E+03 -0.18195468963E+03 -0.59214362335E+03  0.74845631855E+03  0.17200000000E+03 0. -1.
         -6    1    1    2    0  501  0.38322484396E+03  0.18195468963E+03 -0.38475020458E+03  0.59798453996E+03  0.17200000000E+03 0.  1.
</event>
<event>
 4    1  0.3141404E-002  0.3075638E+03  0.7818608E-02  0.1081519E+00
         -2   -1    0    0    0  501 -0.00000000000E+00  0.00000000000E+00  0.73991641949E+02  0.73991641949E+02  0.00000000000E+00 0.  1.
          2   -1    0    0  502    0  0.00000000000E+00 -0.00000000000E+00 -0.12930711886E+04  0.12930711886E+04  0.00000000000E+00 0. -1.
          6    1    1    2  502    0 -0.24179967765E+03 -0.80897675856E+02 -0.53688616433E+03  0.61874249209E+03  0.17200000000E+03 0. -1.
         -6    1    1    2    0  501  0.24179967765E+03  0.80897675856E+02 -0.68219338234E+03  0.74832033848E+03  0.17200000000E+03 0.  1.
</event>
<event>
 4    1  0.3141404E-002  0.2122841E+03  0.7818608E-02  0.1139770E+00
          2   -1    0    0  502    0  0.00000000000E+00  0.00000000000E+00  0.56361046029E+03  0.56361046029E+03  0.00000000000E+00 0. -1.
         -2   -1    0    0    0  501 -0.00000000000E+00 -0.00000000000E+00 -0.12786765735E+03  0.12786765735E+03  0.00000000000E+00 0.  1.
          6    1    1    2  502    0  0.46084842949E+02 -0.11557123890E+03  0.42950507945E+03  0.47910242881E+03  0.17200000000E+03 0. -1.
         -6    1    1    2    0  501 -0.46084842949E+02  0.11557123890E+03  0.62377234840E+01  0.21237568883E+03  0.17200000000E+03 0.  1.
</event>
<event>
 4    1  0.3141404E-002  0.1828916E+03  0.7818608E-02  0.1165034E+00
          3   -1    0    0  502    0  0.00000000000E+00  0.00000000000E+00  0.75102140716E+02  0.75102140716E+02  0.00000000000E+00 0. -1.
         -3   -1    0    0    0  501 -0.00000000000E+00 -0.00000000000E+00 -0.45216941821E+03  0.45216941821E+03  0.00000000000E+00 0.  1.
          6    1    1    2  502    0 -0.59485581276E+02  0.18077293140E+02 -0.15623911910E+03  0.24054102612E+03  0.17200000000E+03 0. -1.
         -6    1    1    2    0  501  0.59485581276E+02 -0.18077293140E+02 -0.22082815839E+03  0.28673053281E+03  0.17200000000E+03 0. -1.
</event>
<event>
 4    1  0.3141404E-002  0.3038520E+03  0.7818608E-02  0.1083331E+00
         -1   -1    0    0    0  501 -0.00000000000E+00  0.00000000000E+00  0.13390518855E+03  0.13390518855E+03  0.00000000000E+00 0.  1.
          1   -1    0    0  502    0  0.00000000000E+00 -0.00000000000E+00 -0.69036982768E+03  0.69036982768E+03  0.00000000000E+00 0. -1.
          6    1    1    2  502    0  0.11786482647E+03  0.22102020694E+03 -0.26350442733E+03  0.40219476926E+03  0.17200000000E+03 0. -1.
         -6    1    1    2    0  501 -0.11786482647E+03 -0.22102020694E+03 -0.29296021180E+03  0.42208024698E+03  0.17200000000E+03 0. -1.
</event>
<event>
 4    1  0.3141404E-002  0.2195590E+03  0.7818608E-02  0.1134212E+00
         -2   -1    0    0    0  501 -0.00000000000E+00  0.00000000000E+00  0.39119025469E+02  0.39119025469E+02  0.00000000000E+00 0.  1.
          2   -1    0    0  502    0  0.00000000000E+00 -0.00000000000E+00 -0.14712731523E+04  0.14712731523E+04  0.00000000000E+00 0. -1.
          6    1    1    2  502    0 -0.12733765792E+03  0.49064210704E+02 -0.10204403465E+04  0.10437934071E+04  0.17200000000E+03 0.  1.
         -6    1    1    2    0  501  0.12733765792E+03 -0.49064210704E+02 -0.41171378035E+03  0.46659877070E+03  0.17200000000E+03 0.  1.
</event>
<event>
 4    1  0.3141404E-002  0.3649078E+03  0.7818608E-02  0.1056657E+00
         -2   -1    0    0    0  501 -0.00000000000E+00  0.00000000000E+00  0.14816770202E+03  0.14816770202E+03  0.00000000000E+00 0.  1.
          2   -1    0    0  502    0  0.00000000000E+00 -0.00000000000E+00 -0.23277639208E+04  0.23277639208E+04  0.00000000000E+00 0. -1.
          6    1    1    2  502    0  0.20429011070E+03 -0.24867501150E+03 -0.20597844771E+04  0.20918579787E+04  0.17200000000E+03 0. -1.
         -6    1    1    2    0  501 -0.20429011070E+03  0.24867501150E+03 -0.11981174160E+03  0.38407364411E+03  0.17200000000E+03 0.  1.
</event>
<event>
 4    1  0.3141404E-002  0.3959664E+03  0.7818608E-02  0.1045185E+00
         -4   -1    0    0    0  501 -0.00000000000E+00  0.00000000000E+00  0.35452794096E+04  0.35452794096E+04  0.00000000000E+00 0.  1.
          4   -1    0    0  502    0  0.00000000000E+00 -0.00000000000E+00 -0.44534302254E+02  0.44534302254E+02  0.00000000000E+00 0. -1.
          6    1    1    2  502    0 -0.33005047073E+03 -0.13517429150E+03  0.16007486872E+04  0.16489953796E+04  0.17200000000E+03 0. -1.
         -6    1    1    2    0  501  0.33005047073E+03  0.13517429150E+03  0.18999964201E+04  0.19408183322E+04  0.17200000000E+03 0.  1.
</event>
<event>
 4    1  0.3141404E-002  0.2199846E+03  0.7818608E-02  0.1133895E+00
          1   -1    0    0  502    0  0.00000000000E+00  0.00000000000E+00  0.13659496317E+04  0.13659496317E+04  0.00000000000E+00 0. -1.
         -1   -1    0    0    0  501 -0.00000000000E+00 -0.00000000000E+00 -0.92548740446E+02  0.92548740446E+02  0.00000000000E+00 0.  1.
          6    1    1    2  502    0  0.62551120369E+02  0.12205147417E+03  0.63790105373E+02  0.22904668203E+03  0.17200000000E+03 0.  1.
         -6    1    1    2    0  501 -0.62551120369E+02 -0.12205147417E+03  0.12096107859E+04  0.12294516901E+04  0.17200000000E+03 0.  1.
</event>
<event>
 4    1  0.3141404E-002  0.3569862E+03  0.7818608E-02  0.1059784E+00
          1   -1    0    0  502    0  0.00000000000E+00  0.00000000000E+00  0.44561228100E+03  0.44561228100E+03  0.00000000000E+00 0. -1.
         -1   -1    0    0    0  501 -0.00000000000E+00 -0.00000000000E+00 -0.33986261190E+03  0.33986261190E+03  0.00000000000E+00 0.  1.
          6    1    1    2  502    0 -0.30705100640E+03 -0.59789862886E+02  0.20924297547E+03  0.41378952502E+03  0.17200000000E+03 0. -1.
         -6    1    1    2    0  501  0.30705100640E+03  0.59789862886E+02 -0.10349330637E+03  0.37168536788E+03  0.17200000000E+03 0.  1.
</event>
<event>
 4    1  0.3141404E-002  0.4612843E+03  0.7818608E-02  0.1024409E+00
          1   -1    0    0  502    0  0.00000000000E+00  0.00000000000E+00  0.80808475577E+03  0.80808475577E+03  0.00000000000E+00 0. -1.
         -1   -1    0    0    0  501 -0.00000000000E+00 -0.00000000000E+00 -0.27820201951E+03  0.27820201951E+03  0.00000000000E+00 0.  1.
          6    1    1    2  502    0  0.19813436086E+02 -0.42755887485E+03  0.39057220201E+03  0.60442518866E+03  0.17200000000E+03 0. -1.
         -6    1    1    2    0  501 -0.19813436086E+02  0.42755887485E+03  0.13931053425E+03  0.48186158662E+03  0.17200000000E+03 0.  1.
</event>
<event>
 4    1  0.3141404E-002  0.1991581E+03  0.7818608E-02  0.1150451E+00
          1   -1    0    0  502    0  0.00000000000E+00  0.00000000000E+00  0.12130106501E+04  0.12130106501E+04  0.00000000000E+00 0. -1.
         -1   -1    0    0    0  501 -0.00000000000E+00 -0.00000000000E+00 -0.52846904377E+02  0.52846904377E+02  0.00000000000E+00 0.  1.
          6    1    1    2  502    0 -0.85955363702E+02 -0.51881024151E+02  0.97088893720E+03  0.99110508706E+03  0.17200000000E+03 0. -1.
         -6    1    1    2    0  501  0.85955363702E+02  0.51881024151E+02  0.18927480855E+03  0.27475246745E+03  0.17200000000E+03 0.  1.
</event>
<event>
 4    1  0.3141404E-002  0.4137727E+03  0.7818608E-02  0.1039112E+00
         -2   -1    0    0    0  501 -0.00000000000E+00  0.00000000000E+00  0.17977680982E+03  0.17977680982E+03  0.00000000000E+00 0.  1.
          2   -1    0    0  502    0  0.00000000000E+00 -0.00000000000E+00 -0.10377476622E+04  0.10377476622E+04  0.00000000000E+00 0. -1.
          6    1    1    2  502    0  0.26962097656E+03  0.26254212045E+03 -0.60363265899E+03  0.73183346672E+03  0.17200000000E+03 0. -1.
         -6    1    1    2    0  501 -0.26962097656E+03 -0.26254212045E+03 -0.25433819338E+03  0.48569100529E+03  0.17200000000E+03 0.  1.
</event>
<event>
 4    1  0.3141404E-002  0.2215933E+03  0.7818608E-02  0.1132701E+00
          4   -1    0    0  502    0  0.00000000000E+00  0.00000000000E+00  0.38882204429E+02  0.38882204429E+02  0.00000000000E+00 0. -1.
         -4   -1    0    0    0  501 -0.00000000000E+00 -0.00000000000E+00 -0.13707782490E+04  0.13707782490E+04  0.00000000000E+00 0.  1.
          6    1    1    2  502    0 -0.93848226084E+02 -0.10349937410E+03 -0.46820305309E+03  0.51799392747E+03  0.17200000000E+03 0. -1.
         -6    1    1    2    0  501  0.93848226084E+02  0.10349937410E+03 -0.86369299152E+03  0.89166652600E+03  0.17200000000E+03 0.  1.
</event>
<event>
 4    1  0.3141404E-002  0.8244701E+03  0.7818608E-02  0.9525258E-01
          1   -1    0    0  502    0  0.00000000000E+00  0.00000000000E+00  0.71617820349E+03  0.71617820349E+03  0.00000000000E+00 0. -1.
         -1   -1    0    0    0  501 -0.00000000000E+00 -0.00000000000E+00 -0.97799832692E+03  0.97799832692E+03  0.00000000000E+00 0.  1.
          6    1    1    2  502    0 -0.62850949923E+03 -0.50511660474E+03  0.14609189510E+02  0.82459954125E+03  0.17200000000E+03 0. -1.
         -6    1    1    2    0  501  0.62850949923E+03  0.50511660474E+03 -0.27642931294E+03  0.86957698915E+03  0.17200000000E+03 0.  1.
</event>
<event>
 4    1  0.3141404E-002  0.2367582E+03  0.7818608E-02  0.1121971E+00
         -1   -1    0    0    0  501 -0.00000000000E+00  0.00000000000E+00  0.50417366550E+03  0.50417366550E+03  0.00000000000E+00 0.  1.
          1   -1    0    0  502    0  0.00000000000E+00 -0.00000000000E+00 -0.27973783769E+03  0.27973783769E+03  0.00000000000E+00 0. -1.
          6    1    1    2  502    0  0.11789250291E+03  0.11212403022E+03 -0.19203507772E+03  0.30484735765E+03  0.17200000000E+03 0. -1.
         -6    1    1    2    0  501 -0.11789250291E+03 -0.11212403022E+03  0.41647090553E+03  0.47906414554E+03  0.17200000000E+03 0.  1.
</event>
<event>
 4    1  0.3141404E-002  0.2757121E+03  0.7818608E-02  0.1098054E+00
         -2   -1    0    0    0  501 -0.00000000000E+00  0.00000000000E+00  0.59278595990E+03  0.59278595990E+03  0.00000000000E+00 0.  1.
          2   -1    0    0  502    0  0.00000000000E+00 -0.00000000000E+00 -0.49177866890E+03  0.49177866890E+03  0.00000000000E+00 0. -1.
          6    1    1    2  502    0 -0.13366419432E+03  0.16901792296E+03 -0.41574503208E+03  0.49885980678E+03  0.17200000000E+03 0. -1.
         -6    1    1    2    0  501  0.13366419432E+03 -0.16901792296E+03  0.51675232308E+03  0.58570482201E+03  0.17200000000E+03 0.  1.
</event>
<event>
 4    1  0.3141404E-002  0.2300885E+03  0.7818608E-02  0.1126578E+00
          2   -1    0    0  502    0  0.00000000000E+00  0.00000000000E+00  0.14458236126E+04  0.14458236126E+04  0.00000000000E+00 0. -1.
         -2   -1    0    0    0  501 -0.00000000000E+00 -0.00000000000E+00 -0.14671326804E+03  0.14671326804E+03  0.00000000000E+00 0.  1.
          6    1    1    2  502    0  0.39984952100E+02  0.14750559079E+03  0.13393382061E+04  0.13589582503E+04  0.17200000000E+03 0. -1.
         -6    1    1    2    0  501 -0.39984952100E+02 -0.14750559079E+03 -0.40227861545E+02  0.23357863034E+03  0.17200000000E+03 0.  1.
</event>
<event>
 4    1  0.3141404E-002  0.1819953E+03  0.7818608E-02  0.1165886E+00
         -2   -1    0    0    0  501 -0.00000000000E+00  0.00000000000E+00  0.27059064539E+03  0.27059064539E+03  0.00000000000E+00 0.  1.
          2   -1    0    0  502    0  0.00000000000E+00 -0.00000000000E+00 -0.30448871517E+03  0.30448871517E+03  0.00000000000E+00 0. -1.
          6    1    1    2  502    0 -0.32976815273E+02 -0.49505917971E+02 -0.23930297846E+03  0.30064634001E+03  0.17200000000E+03 0. -1.
         -6    1    1    2    0  501  0.32976815273E+02  0.49505917971E+02  0.20540490868E+03  0.27443302055E+03  0.17200000000E+03 0.  1.
</event>
<event>
 4    1  0.3141404E-002  0.3818664E+03  0.7818608E-02  0.1050246E+00
          2   -1    0    0  502    0  0.00000000000E+00  0.00000000000E+00  0.46080032652E+03  0.46080032652E+03  0.00000000000E+00 0. -1.
         -2   -1    0    0    0  501 -0.00000000000E+00 -0.00000000000E+00 -0.33263703102E+03  0.33263703102E+03  0.00000000000E+00 0.  1.
          6    1    1    2  502    0  0.29797669807E+03  0.16567398963E+03  0.15158624472E+03  0.41085322564E+03  0.17200000000E+03 0. -1.
         -6    1    1    2    0  501 -0.29797669807E+03 -0.16567398963E+03 -0.23422949220E+02  0.38258413190E+03  0.17200000000E+03 0.  1.
</event>
<event>
 4    1  0.3141404E-002  0.4912167E+03  0.7818608E-02  0.1016097E+00
          2   -1    0    0  502    0  0.00000000000E+00  0.00000000000E+00  0.12042101117E+04  0.12042101117E+04  0.00000000000E+00 0. -1.
         -2   -1    0    0    0  501 -0.00000000000E+00 -0.00000000000E+00 -0.10928436178E+04  0.10928436178E+04  0.00000000000E+00 0.  1.
          6    1    1    2  502    0 -0.28842449119E+03 -0.35849844919E+03  0.10935905781E+04  0.11988470201E+04  0.17200000000E+03 0. -1.
         -6    1    1    2    0  501  0.28842449119E+03  0.35849844919E+03 -0.98222408416E+03  0.10982067095E+04  0.17200000000E+03 0.  1.
</event>
<event>
 4    1  0.3141404E-002  0.1960629E+03  0.7818608E-02  0.1153104E+00
         -1   -1    0    0    0  501 -0.00000000000E+00  0.00000000000E+00  0.58705263769E+02  0.58705263769E+02  0.00000000000E+00 0.  1.
          1   -1    0    0  502    0  0.00000000000E+00 -0.00000000000E+00 -0.68293231353E+03  0.68293231353E+03  0.00000000000E+00 0. -1.
          6    1    1    2  502    0 -0.42615685492E+02  0.83908004985E+02 -0.38736540210E+03  0.43415735016E+03  0.17200000000E+03 0.  1.
         -6    1    1    2    0  501  0.42615685492E+02 -0.83908004985E+02 -0.23686164765E+03  0.30748022714E+03  0.17200000000E+03 0.  1.
</event>
<event>
 4    1  0.3141404E-002  0.2330816E+03  0.7818608E-02  0.1124489E+00
         -1   -1    0    0    0  501 -0.00000000000E+00  0.00000000000E+00  0.10441001720E+03  0.10441001720E+03  0.00000000000E+00 0.  1.
          1   -1    0    0  502    0  0.00000000000E+00 -0.00000000000E+00 -0.77687682089E+03  0.77687682089E+03  0.00000000000E+00 0. -1.
          6    1    1    2  502    0 -0.19854500436E+02  0.15604119159E+03 -0.58945425447E+03  0.63386384404E+03  0.17200000000E+03 0. -1.
         -6    1    1    2    0  501  0.19854500436E+02 -0.15604119159E+03 -0.83012549218E+02  0.24742299406E+03  0.17200000000E+03 0.  1.
</event>
<event>
 4    1  0.3141404E-002  0.2071734E+03  0.7818608E-02  0.1143824E+00
          4   -1    0    0  502    0  0.00000000000E+00  0.00000000000E+00  0.77238500372E+02  0.77238500372E+02  0.00000000000E+00 0. -1.
         -4   -1    0    0    0  501 -0.00000000000E+00 -0.00000000000E+00 -0.62630520337E+03  0.62630520337E+03  0.00000000000E+00 0.  1.
          6    1    1    2  502    0 -0.89057405633E+02 -0.73522645503E+02 -0.15641655411E+03  0.25958994453E+03  0.17200000000E+03 0. -1.
         -6    1    1    2    0  501  0.89057405633E+02  0.73522645503E+02 -0.39265014888E+03  0.44395375921E+03  0.17200000000E+03 0.  1.
</event>
<event>
 4    1  0.3141404E-002  0.1803504E+03  0.7818608E-02  0.1167464E+00
          1   -1    0    0  502    0  0.00000000000E+00  0.00000000000E+00  0.98026808868E+02  0.98026808868E+02  0.00000000000E+00 0. -1.
         -1   -1    0    0    0  501 -0.00000000000E+00 -0.00000000000E+00 -0.36509639539E+03  0.36509639539E+03  0.00000000000E+00 0.  1.
          6    1    1    2  502    0 -0.54175685419E+02 -0.26914826524E+01 -0.63615356813E+02  0.19124111114E+03  0.17200000000E+03 0. -1.
         -6    1    1    2    0  501  0.54175685419E+02  0.26914826524E+01 -0.20345422971E+03  0.27188209312E+03  0.17200000000E+03 0.  1.
</event>
<event>
 4    1  0.3141404E-002  0.3854270E+03  0.7818608E-02  0.1048946E+00
         -2   -1    0    0    0  501 -0.00000000000E+00  0.00000000000E+00  0.12205922909E+03  0.12205922909E+03  0.00000000000E+00 0.  1.
          2   -1    0    0  502    0  0.00000000000E+00 -0.00000000000E+00 -0.12199012472E+04  0.12199012472E+04  0.00000000000E+00 0. -1.
          6    1    1    2  502    0 -0.32753607663E+03 -0.10812082558E+03 -0.51656665410E+03  0.64451152243E+03  0.17200000000E+03 0. -1.
         -6    1    1    2    0  501  0.32753607663E+03  0.10812082558E+03 -0.58127536398E+03  0.69744895382E+03  0.17200000000E+03 0.  1.
</event>
<event>
 4    1  0.3141404E-002  0.2992016E+03  0.7818608E-02  0.1085640E+00
          2   -1    0    0  502    0  0.00000000000E+00  0.00000000000E+00  0.46019587701E+04  0.46019587701E+04  0.00000000000E+00 0. -1.
         -2   -1    0    0    0  501 -0.00000000000E+00 -0.00000000000E+00 -0.19489427663E+02  0.19489427663E+02  0.00000000000E+00 0.  1.
          6    1    1    2  502    0  0.23268973643E+03 -0.76112132814E+02  0.23912337722E+04  0.24098797737E+04  0.17200000000E+03 0.  1.
         -6    1    1    2    0  501 -0.23268973643E+03  0.76112132814E+02  0.21912355702E+04  0.22115684241E+04  0.17200000000E+03 0.  1.
</event>
<event>
 4    1  0.3141404E-002  0.2211938E+03  0.7818608E-02  0.1132996E+00
          2   -1    0    0  502    0  0.00000000000E+00  0.00000000000E+00  0.52135875662E+03  0.52135875662E+03  0.00000000000E+00 0. -1.
         -2   -1    0    0    0  501 -0.00000000000E+00 -0.00000000000E+00 -0.15137491834E+03  0.15137491834E+03  0.00000000000E+00 0.  1.
          6    1    1    2  502    0  0.16085821247E+02 -0.13814466816E+03  0.39235651363E+03  0.45041129734E+03  0.17200000000E+03 0. -1.
         -6    1    1    2    0  501 -0.16085821247E+02  0.13814466816E+03 -0.22372675342E+02  0.22232237761E+03  0.17200000000E+03 0.  1.
</event>
<event>
 4    1  0.3141404E-002  0.3172667E+03  0.7818608E-02  0.1076914E+00
          1   -1    0    0  502    0  0.00000000000E+00  0.00000000000E+00  0.43839788802E+03  0.43839788802E+03  0.00000000000E+00 0. -1.
         -1   -1    0    0    0  501 -0.00000000000E+00 -0.00000000000E+00 -0.22980652218E+03  0.22980652218E+03  0.00000000000E+00 0.  1.
          6    1    1    2  502    0 -0.34711370003E+02  0.26432800458E+03  0.94392232894E+02  0.33101067482E+03  0.17200000000E+03 0. -1.
         -6    1    1    2    0  501  0.34711370003E+02 -0.26432800458E+03  0.11419913294E+03  0.33719373538E+03  0.17200000000E+03 0.  1.
</event>
<event>
 4    1  0.3141404E-002  0.2050665E+03  0.7818608E-02  0.1145533E+00
         -2   -1    0    0    0  501 -0.00000000000E+00  0.00000000000E+00  0.40786908091E+02  0.40786908091E+02  0.00000000000E+00 0.  1.
          2   -1    0    0  502    0  0.00000000000E+00 -0.00000000000E+00 -0.20242551747E+04  0.20242551747E+04  0.00000000000E+00 0. -1.
          6    1    1    2  502    0  0.35486488207E+01  0.11160503644E+03 -0.17149891832E+04  0.17272058868E+04  0.17200000000E+03 0. -1.
         -6    1    1    2    0  501 -0.35486488207E+01 -0.11160503644E+03 -0.26847908345E+03  0.33783619598E+03  0.17200000000E+03 0.  1.
</event>
<event>
 4    1  0.3141404E-002  0.2428691E+03  0.7818608E-02  0.1117896E+00
          1   -1    0    0  502    0  0.00000000000E+00  0.00000000000E+00  0.15391459544E+04  0.15391459544E+04  0.00000000000E+00 0. -1.
         -1   -1    0    0    0  501 -0.00000000000E+00 -0.00000000000E+00 -0.38354013993E+02  0.38354013993E+02  0.00000000000E+00 0.  1.
          6    1    1    2  502    0 -0.10166179201E+03  0.13808073434E+03  0.72813631850E+03  0.76757273757E+03  0.17200000000E+03 0.  1.
         -6    1    1    2    0  501  0.10166179201E+03 -0.13808073434E+03  0.77265562190E+03  0.80992723080E+03  0.17200000000E+03 0.  1.
</event>
<event>
 4    1  0.3141404E-002  0.4791867E+03  0.7818608E-02  0.1019359E+00
          2   -1    0    0  502    0  0.00000000000E+00  0.00000000000E+00  0.32069913951E+04  0.32069913951E+04  0.00000000000E+00 0. -1.
         -2   -1    0    0    0  501 -0.00000000000E+00 -0.00000000000E+00 -0.73105541076E+02  0.73105541076E+02  0.00000000000E+00 0.  1.
          6    1    1    2  502    0 -0.41132901001E+03  0.17562556442E+03  0.13315687071E+04  0.14151661087E+04  0.17200000000E+03 0. -1.
         -6    1    1    2    0  501  0.41132901001E+03 -0.17562556442E+03  0.18023171469E+04  0.18649308275E+04  0.17200000000E+03 0.  1.
</event>
<event>
 4    1  0.3141404E-002  0.2224562E+03  0.7818608E-02  0.1132065E+00
         -2   -1    0    0    0  501 -0.00000000000E+00  0.00000000000E+00  0.64300420244E+02  0.64300420244E+02  0.00000000000E+00 0.  1.
          2   -1    0    0  502    0  0.00000000000E+00 -0.00000000000E+00 -0.88472218360E+03  0.88472218360E+03  0.00000000000E+00 0. -1.
          6    1    1    2  502    0  0.14070115889E+03  0.10291954433E+02 -0.58136574934E+03  0.62247319215E+03  0.17200000000E+03 0. -1.
         -6    1    1    2    0  501 -0.14070115889E+03 -0.10291954433E+02 -0.23905601402E+03  0.32654941170E+03  0.17200000000E+03 0.  1.
</event>
<event>
 4    1  0.3141404E-002  0.3198010E+03  0.7818608E-02  0.1075741E+00
         -2   -1    0    0    0  501 -0.00000000000E+00  0.00000000000E+00  0.10504059693E+03  0.10504059693E+03  0.00000000000E+00 0.  1.
          2   -1    0    0  502    0  0.00000000000E+00 -0.00000000000E+00 -0.10601614117E+04  0.10601614117E+04  0.00000000000E+00 0. -1.
          6    1    1    2  502    0 -0.23724370376E+03  0.12807863278E+03 -0.31113351241E+03  0.44618020316E+03  0.17200000000E+03 0. -1.
         -6    1    1    2    0  501  0.23724370376E+03 -0.12807863278E+03 -0.64398730241E+03  0.71902180552E+03  0.17200000000E+03 0.  1.
</event>
<event>
 4    1  0.3141404E-002  0.3465412E+03  0.7818608E-02  0.1064044E+00
         -2   -1    0    0    0  501 -0.00000000000E+00  0.00000000000E+00  0.38077311024E+03  0.38077311024E+03  0.00000000000E+00 0.  1.
          2   -1    0    0  502    0  0.00000000000E+00 -0.00000000000E+00 -0.35590695525E+03  0.35590695525E+03  0.00000000000E+00 0. -1.
          6    1    1    2  502    0 -0.23469525573E+03 -0.18821506390E+03 -0.11185137111E+03  0.36414489227E+03  0.17200000000E+03 0.  1.
         -6    1    1    2    0  501  0.23469525573E+03  0.18821506390E+03  0.13671752611E+03  0.37253517322E+03  0.17200000000E+03 0. -1.
</event>
<event>
 4    1  0.3141404E-002  0.2194006E+03  0.7818608E-02  0.1134331E+00
          1   -1    0    0  502    0  0.00000000000E+00  0.00000000000E+00  0.17110835412E+04  0.17110835412E+04  0.00000000000E+00 0. -1.
         -1   -1    0    0    0  501 -0.00000000000E+00 -0.00000000000E+00 -0.37698220665E+02  0.37698220665E+02  0.00000000000E+00 0.  1.
          6    1    1    2  502    0  0.12282876483E+03 -0.58870164597E+02  0.12771563273E+04  0.12958645323E+04  0.17200000000E+03 0. -1.
         -6    1    1    2    0  501 -0.12282876483E+03  0.58870164597E+02  0.39622899330E+03  0.45291722961E+03  0.17200000000E+03 0.  1.
</event>
<event>
 4    1  0.3141404E-002  0.5642273E+03  0.7818608E-02  0.9982535E-01
          1   -1    0    0  502    0  0.00000000000E+00  0.00000000000E+00  0.52539665979E+03  0.52539665979E+03  0.00000000000E+00 0. -1.
         -1   -1    0    0    0  501 -0.00000000000E+00 -0.00000000000E+00 -0.64788602458E+03  0.64788602458E+03  0.00000000000E+00 0.  1.
          6    1    1    2  502    0 -0.53506810082E+03  0.49705251469E+02 -0.21053494918E+03  0.60222707458E+03  0.17200000000E+03 0. -1.
         -6    1    1    2    0  501  0.53506810082E+03 -0.49705251469E+02  0.88045584383E+02  0.57105560978E+03  0.17200000000E+03 0.  1.
</event>
<event>
 4    1  0.3141404E-002  0.2320355E+03  0.7818608E-02  0.1125215E+00
         -4   -1    0    0    0  501 -0.00000000000E+00  0.00000000000E+00  0.57141917365E+03  0.57141917365E+03  0.00000000000E+00 0.  1.
          4   -1    0    0  502    0  0.00000000000E+00 -0.00000000000E+00 -0.14532680730E+03  0.14532680730E+03  0.00000000000E+00 0. -1.
          6    1    1    2  502    0 -0.13854731901E+03 -0.71141525174E+02  0.53017253640E+00  0.23203611204E+03  0.17200000000E+03 0. -1.
         -6    1    1    2    0  501  0.13854731901E+03  0.71141525174E+02  0.42556219381E+03  0.48470986890E+03  0.17200000000E+03 0.  1.
</event>
<event>
 4    1  0.3141404E-002  0.1732091E+03  0.7818608E-02  0.1174542E+00
         -1   -1    0    0    0  501 -0.00000000000E+00  0.00000000000E+00  0.60771136526E+02  0.60771136526E+02  0.00000000000E+00 0.  1.
          1   -1    0    0  502    0  0.00000000000E+00 -0.00000000000E+00 -0.65382092250E+03  0.65382092250E+03  0.00000000000E+00 0. -1.
          6    1    1    2  502    0  0.20038431447E+02 -0.39799715899E+01 -0.47335350141E+03  0.50404852565E+03  0.17200000000E+03 0. -1.
         -6    1    1    2    0  501 -0.20038431447E+02  0.39799715899E+01 -0.11969628456E+03  0.21054353337E+03  0.17200000000E+03 0.  1.
</event>
<event>
 4    1  0.3141404E-002  0.3387660E+03  0.7818608E-02  0.1067323E+00
          1   -1    0    0  502    0  0.00000000000E+00  0.00000000000E+00  0.56368991734E+03  0.56368991734E+03  0.00000000000E+00 0. -1.
         -1   -1    0    0    0  501 -0.00000000000E+00 -0.00000000000E+00 -0.38571114577E+03  0.38571114577E+03  0.00000000000E+00 0.  1.
          6    1    1    2  502    0  0.29633075863E+02 -0.29034511412E+03  0.41517677974E+03  0.53584901130E+03  0.17200000000E+03 0. -1.
         -6    1    1    2    0  501 -0.29633075863E+02  0.29034511412E+03 -0.23719800817E+03  0.41355205181E+03  0.17200000000E+03 0.  1.
</event>
<event>
 4    1  0.3141404E-002  0.2761928E+03  0.7818608E-02  0.1097787E+00
         -1   -1    0    0    0  501 -0.00000000000E+00  0.00000000000E+00  0.14047340531E+03  0.14047340531E+03  0.00000000000E+00 0.  1.
          1   -1    0    0  502    0  0.00000000000E+00 -0.00000000000E+00 -0.54311272622E+03  0.54311272622E+03  0.00000000000E+00 0. -1.
          6    1    1    2  502    0  0.21111598135E+03  0.46135842577E+02 -0.20531420133E+03  0.34414589177E+03  0.17200000000E+03 0. -1.
         -6    1    1    2    0  501 -0.21111598135E+03 -0.46135842577E+02 -0.19732511957E+03  0.33944023976E+03  0.17200000000E+03 0.  1.
</event>
<event>
 4    1  0.3141404E-002  0.2052204E+03  0.7818608E-02  0.1145408E+00
         -4   -1    0    0    0  501 -0.00000000000E+00  0.00000000000E+00  0.92261416363E+02  0.92261416363E+02  0.00000000000E+00 0.  1.
          4   -1    0    0  502    0  0.00000000000E+00 -0.00000000000E+00 -0.47183514411E+03  0.47183514411E+03  0.00000000000E+00 0. -1.
          6    1    1    2  502    0 -0.73259262997E+02  0.84643328416E+02 -0.24066923266E+03  0.31628640851E+03  0.17200000000E+03 0. -1.
         -6    1    1    2    0  501  0.73259262997E+02 -0.84643328416E+02 -0.13890449509E+03  0.24781015196E+03  0.17200000000E+03 0.  1.
</event>
<event>
 4    1  0.3141404E-002  0.1808468E+03  0.7818608E-02  0.1166986E+00
         -2   -1    0    0    0  501 -0.00000000000E+00  0.00000000000E+00  0.46513796463E+02  0.46513796463E+02  0.00000000000E+00 0.  1.
          2   -1    0    0  502    0  0.00000000000E+00 -0.00000000000E+00 -0.98518477489E+03  0.98518477489E+03  0.00000000000E+00 0. -1.
          6    1    1    2  502    0 -0.33242624282E+02 -0.44905196043E+02 -0.74534605081E+03  0.76697215344E+03  0.17200000000E+03 0. -1.
         -6    1    1    2    0  501  0.33242624282E+02  0.44905196043E+02 -0.19332492761E+03  0.26472641791E+03  0.17200000000E+03 0.  1.
</event>
<event>
 4    1  0.3141404E-002  0.2344555E+03  0.7818608E-02  0.1123543E+00
          2   -1    0    0  502    0  0.00000000000E+00  0.00000000000E+00  0.80941712840E+03  0.80941712840E+03  0.00000000000E+00 0. -1.
         -2   -1    0    0    0  501 -0.00000000000E+00 -0.00000000000E+00 -0.99007759809E+02  0.99007759809E+02  0.00000000000E+00 0.  1.
          6    1    1    2  502    0 -0.12937020152E+03  0.92998550961E+02  0.60975456460E+03  0.65327636462E+03  0.17200000000E+03 0. -1.
         -6    1    1    2    0  501  0.12937020152E+03 -0.92998550961E+02  0.10065480399E+03  0.25514852358E+03  0.17200000000E+03 0.  1.
</event>
<event>
 4    1  0.3141404E-002  0.1743468E+03  0.7818608E-02  0.1173389E+00
          4   -1    0    0  502    0  0.00000000000E+00  0.00000000000E+00  0.69263865720E+02  0.69263865720E+02  0.00000000000E+00 0. -1.
         -4   -1    0    0    0  501 -0.00000000000E+00 -0.00000000000E+00 -0.92238436562E+03  0.92238436562E+03  0.00000000000E+00 0.  1.
          6    1    1    2  502    0 -0.69339581024E+01 -0.27653490836E+02 -0.67569633524E+02  0.18698248770E+03  0.17200000000E+03 0. -1.
         -6    1    1    2    0  501  0.69339581024E+01  0.27653490836E+02 -0.78555086637E+03  0.80466574364E+03  0.17200000000E+03 0.  1.
</event>
<event>
 4    1  0.3141404E-002  0.2989254E+03  0.7818608E-02  0.1085779E+00
         -1   -1    0    0    0  501 -0.00000000000E+00  0.00000000000E+00  0.16579043327E+03  0.16579043327E+03  0.00000000000E+00 0.  1.
          1   -1    0    0  502    0  0.00000000000E+00 -0.00000000000E+00 -0.64026509454E+03  0.64026509454E+03  0.00000000000E+00 0. -1.
          6    1    1    2  502    0 -0.23788410116E+03 -0.56422773323E+02 -0.39754168299E+03  0.49738894705E+03  0.17200000000E+03 0. -1.
         -6    1    1    2    0  501  0.23788410116E+03  0.56422773323E+02 -0.76932978276E+02  0.30866658076E+03  0.17200000000E+03 0.  1.
</event>
<event>
 4    1  0.3141404E-002  0.3782361E+03  0.7818608E-02  0.1051588E+00
         -1   -1    0    0    0  501 -0.00000000000E+00  0.00000000000E+00  0.25128196295E+03  0.25128196295E+03  0.00000000000E+00 0.  1.
          1   -1    0    0  502    0  0.00000000000E+00 -0.00000000000E+00 -0.62127578078E+03  0.62127578078E+03  0.00000000000E+00 0. -1.
          6    1    1    2  502    0 -0.32824443771E+03  0.75723969446E+02 -0.31114894746E+03  0.48977157731E+03  0.17200000000E+03 0. -1.
         -6    1    1    2    0  501  0.32824443771E+03 -0.75723969446E+02 -0.58844870372E+02  0.38278616642E+03  0.17200000000E+03 0.  1.
</event>
<event>
 4    1  0.3141404E-002  0.1781337E+03  0.7818608E-02  0.1169622E+00
          2   -1    0    0  502    0  0.00000000000E+00  0.00000000000E+00  0.87743847062E+02  0.87743847062E+02  0.00000000000E+00 0. -1.
         -2   -1    0    0    0  501 -0.00000000000E+00 -0.00000000000E+00 -0.46591837967E+03  0.46591837967E+03  0.00000000000E+00 0.  1.
          6    1    1    2  502    0  0.43900376253E+02 -0.14844874183E+02 -0.58121191164E+02  0.18737578869E+03  0.17200000000E+03 0. -1.
         -6    1    1    2    0  501 -0.43900376253E+02  0.14844874183E+02 -0.32005334145E+03  0.36628643805E+03  0.17200000000E+03 0.  1.
</event>
<event>
 4    1  0.3141404E-002  0.2028514E+03  0.7818608E-02  0.1147355E+00
         -4   -1    0    0    0  501 -0.00000000000E+00  0.00000000000E+00  0.12392346929E+03  0.12392346929E+03  0.00000000000E+00 0.  1.
          4   -1    0    0  502    0  0.00000000000E+00 -0.00000000000E+00 -0.37154467219E+03  0.37154467219E+03  0.00000000000E+00 0. -1.
          6    1    1    2  502    0 -0.90544506483E+02  0.58020697156E+02 -0.20458114078E+03  0.28810094084E+03  0.17200000000E+03 0.  1.
         -6    1    1    2    0  501  0.90544506483E+02 -0.58020697156E+02 -0.43040062121E+02  0.20736720064E+03  0.17200000000E+03 0.  1.
</event>
<event>
 4    1  0.3141404E-002  0.1780393E+03  0.7818608E-02  0.1169714E+00
          2   -1    0    0  502    0  0.00000000000E+00  0.00000000000E+00  0.38701083741E+03  0.38701083741E+03  0.00000000000E+00 0. -1.
         -2   -1    0    0    0  501 -0.00000000000E+00 -0.00000000000E+00 -0.18673228733E+03  0.18673228733E+03  0.00000000000E+00 0.  1.
          6    1    1    2  502    0  0.14632130915E+02  0.43587643167E+02 -0.11479996908E+03  0.21184195711E+03  0.17200000000E+03 0.  1.
         -6    1    1    2    0  501 -0.14632130915E+02 -0.43587643167E+02  0.31507851917E+03  0.36190116763E+03  0.17200000000E+03 0. -1.
</event>
<event>
 4    1  0.3141404E-002  0.2431213E+03  0.7818608E-02  0.1117731E+00
         -2   -1    0    0    0  501 -0.00000000000E+00  0.00000000000E+00  0.76703973753E+02  0.76703973753E+02  0.00000000000E+00 0.  1.
          2   -1    0    0  502    0  0.00000000000E+00 -0.00000000000E+00 -0.77341920065E+03  0.77341920065E+03  0.00000000000E+00 0. -1.
          6    1    1    2  502    0 -0.17027819981E+03  0.23006488009E+02 -0.32268759427E+03  0.40402382023E+03  0.17200000000E+03 0. -1.
         -6    1    1    2    0  501  0.17027819981E+03 -0.23006488009E+02 -0.37402763262E+03  0.44609935417E+03  0.17200000000E+03 0.  1.
</event>
<event>
 4    1  0.3141404E-002  0.2200387E+03  0.7818608E-02  0.1133854E+00
         -2   -1    0    0    0  501 -0.00000000000E+00  0.00000000000E+00  0.22020322874E+02  0.22020322874E+02  0.00000000000E+00 0.  1.
          2   -1    0    0  502    0  0.00000000000E+00 -0.00000000000E+00 -0.26432857558E+04  0.26432857558E+04  0.00000000000E+00 0. -1.
          6    1    1    2  502    0 -0.88605850639E+02 -0.10479515113E+03 -0.18571476502E+04  0.18701375391E+04  0.17200000000E+03 0. -1.
         -6    1    1    2    0  501  0.88605850639E+02  0.10479515113E+03 -0.76411778276E+03  0.79516853961E+03  0.17200000000E+03 0.  1.
</event>
<event>
 4    1  0.3141404E-002  0.2747088E+03  0.7818608E-02  0.1098614E+00
         -2   -1    0    0    0  501 -0.00000000000E+00  0.00000000000E+00  0.10092159341E+03  0.10092159341E+03  0.00000000000E+00 0.  1.
          2   -1    0    0  502    0  0.00000000000E+00 -0.00000000000E+00 -0.10589484507E+04  0.10589484507E+04  0.00000000000E+00 0. -1.
          6    1    1    2  502    0  0.18198159951E+03  0.11297613590E+03 -0.79339363084E+03  0.83960607626E+03  0.17200000000E+03 0. -1.
         -6    1    1    2    0  501 -0.18198159951E+03 -0.11297613590E+03 -0.16463322644E+03  0.32026396783E+03  0.17200000000E+03 0.  1.
</event>
<event>
 4    1  0.3141404E-002  0.2372913E+03  0.7818608E-02  0.1121611E+00
         -1   -1    0    0    0  501 -0.00000000000E+00  0.00000000000E+00  0.84193135287E+02  0.84193135287E+02  0.00000000000E+00 0.  1.
          1   -1    0    0  502    0  0.00000000000E+00 -0.00000000000E+00 -0.16559076766E+04  0.16559076766E+04  0.00000000000E+00 0. -1.
          6    1    1    2  502    0 -0.14143237305E+03  0.81975989079E+02 -0.14576135397E+04  0.14768020889E+04  0.17200000000E+03 0. -1.
         -6    1    1    2    0  501  0.14143237305E+03 -0.81975989079E+02 -0.11410100169E+03  0.26329872297E+03  0.17200000000E+03 0.  1.
</event>
<event>
 4    1  0.3141404E-002  0.2122030E+03  0.7818608E-02  0.1139833E+00
         -2   -1    0    0    0  501 -0.00000000000E+00  0.00000000000E+00  0.50324411640E+03  0.50324411640E+03  0.00000000000E+00 0.  1.
          2   -1    0    0  502    0  0.00000000000E+00 -0.00000000000E+00 -0.93730291580E+02  0.93730291580E+02  0.00000000000E+00 0. -1.
          6    1    1    2  502    0 -0.11856757074E+03  0.37253719397E+02  0.26832115424E+03  0.34209114319E+03  0.17200000000E+03 0.  1.
         -6    1    1    2    0  501  0.11856757074E+03 -0.37253719397E+02  0.14119267058E+03  0.25488326478E+03  0.17200000000E+03 0. -1.
</event>
<event>
 4    1  0.3141404E-002  0.2933220E+03  0.7818608E-02  0.1088627E+00
         -4   -1    0    0    0  501 -0.00000000000E+00  0.00000000000E+00  0.11420092956E+03  0.11420092956E+03  0.00000000000E+00 0.  1.
          4   -1    0    0  502    0  0.00000000000E+00 -0.00000000000E+00 -0.76435311343E+03  0.76435311343E+03  0.00000000000E+00 0. -1.
          6    1    1    2  502    0 -0.17445393517E+03  0.16130605705E+03 -0.37768528949E+03  0.47820915657E+03  0.17200000000E+03 0. -1.
         -6    1    1    2    0  501  0.17445393517E+03 -0.16130605705E+03 -0.27246689439E+03  0.40034488641E+03  0.17200000000E+03 0.  1.
</event>
<event>
 4    1  0.3141404E-002  0.3205724E+03  0.7818608E-02  0.1075386E+00
         -2   -1    0    0    0  501 -0.00000000000E+00  0.00000000000E+00  0.13033650362E+03  0.13033650362E+03  0.00000000000E+00 0.  1.
          2   -1    0    0  502    0  0.00000000000E+00 -0.00000000000E+00 -0.26976541718E+04  0.26976541718E+04  0.00000000000E+00 0. -1.
          6    1    1    2  502    0  0.25980046872E+03  0.75407896727E+02 -0.24731975142E+04  0.24938870421E+04  0.17200000000E+03 0. -1.
         -6    1    1    2    0  501 -0.25980046872E+03 -0.75407896727E+02 -0.94120153995E+02  0.33410363336E+03  0.17200000000E+03 0.  1.
</event>
<event>
 4    1  0.3141404E-002  0.1890505E+03  0.7818608E-02  0.1159321E+00
         -2   -1    0    0    0  501 -0.00000000000E+00  0.00000000000E+00  0.15135803121E+02  0.15135803121E+02  0.00000000000E+00 0.  1.
          2   -1    0    0  502    0  0.00000000000E+00 -0.00000000000E+00 -0.29664159295E+04  0.29664159295E+04  0.00000000000E+00 0. -1.
          6    1    1    2  502    0 -0.71685822768E+02 -0.31893879920E+02 -0.80232569856E+03  0.82429764244E+03  0.17200000000E+03 0.  1.
         -6    1    1    2    0  501  0.71685822768E+02  0.31893879920E+02 -0.21489544278E+04  0.21572540902E+04  0.17200000000E+03 0. -1.
</event>
<event>
 4    1  0.3141404E-002  0.2869948E+03  0.7818608E-02  0.1091929E+00
         -2   -1    0    0    0  501 -0.00000000000E+00  0.00000000000E+00  0.24419734861E+03  0.24419734861E+03  0.00000000000E+00 0.  1.
          2   -1    0    0  502    0  0.00000000000E+00 -0.00000000000E+00 -0.55131532997E+03  0.55131532997E+03  0.00000000000E+00 0. -1.
          6    1    1    2  502    0  0.22960863389E+03 -0.78687777491E+01 -0.40138488222E+03  0.49343273715E+03  0.17200000000E+03 0. -1.
         -6    1    1    2    0  501 -0.22960863389E+03  0.78687777491E+01  0.94266900859E+02  0.30207994143E+03  0.17200000000E+03 0.  1.
</event>
<event>
 4    1  0.3141404E-002  0.4374293E+03  0.7818608E-02  0.1031538E+00
         -1   -1    0    0    0  501 -0.00000000000E+00  0.00000000000E+00  0.69151228935E+03  0.69151228935E+03  0.00000000000E+00 0.  1.
          1   -1    0    0  502    0  0.00000000000E+00 -0.00000000000E+00 -0.36207194464E+03  0.36207194464E+03  0.00000000000E+00 0. -1.
          6    1    1    2  502    0  0.35000188838E+03 -0.19813892980E+03 -0.91072868423E+02  0.44680938300E+03  0.17200000000E+03 0. -1.
         -6    1    1    2    0  501 -0.35000188838E+03  0.19813892980E+03  0.42051321313E+03  0.60677485099E+03  0.17200000000E+03 0.  1.
</event>
<event>
 4    1  0.3141404E-002  0.1806489E+03  0.7818608E-02  0.1167177E+00
          2   -1    0    0  502    0  0.00000000000E+00  0.00000000000E+00  0.75787327483E+03  0.75787327483E+03  0.00000000000E+00 0. -1.
         -2   -1    0    0    0  501 -0.00000000000E+00 -0.00000000000E+00 -0.68438818521E+02  0.68438818521E+02  0.00000000000E+00 0.  1.
          6    1    1    2  502    0  0.49479815427E+02 -0.24531052369E+02  0.59631022318E+03  0.62307295475E+03  0.17200000000E+03 0. -1.
         -6    1    1    2    0  501 -0.49479815427E+02  0.24531052369E+02  0.93124233125E+02  0.20323913860E+03  0.17200000000E+03 0.  1.
</event>
<event>
 4    1  0.3141404E-002  0.4622239E+03  0.7818608E-02  0.1024138E+00
          1   -1    0    0  502    0  0.00000000000E+00  0.00000000000E+00  0.99799680042E+03  0.99799680042E+03  0.00000000000E+00 0. -1.
         -1   -1    0    0    0  501 -0.00000000000E+00 -0.00000000000E+00 -0.31303643841E+03  0.31303643841E+03  0.00000000000E+00 0.  1.
          6    1    1    2  502    0 -0.39552318953E+03  0.16621785387E+03 -0.26080242612E+02  0.46295912072E+03  0.17200000000E+03 0. -1.
         -6    1    1    2    0  501  0.39552318953E+03 -0.16621785387E+03  0.71104060462E+03  0.84807411812E+03  0.17200000000E+03 0.  1.
</event>
<event>
 4    1  0.3141404E-002  0.5181059E+03  0.7818608E-02  0.1009158E+00
         -3   -1    0    0    0  501 -0.00000000000E+00  0.00000000000E+00  0.13892423264E+04  0.13892423264E+04  0.00000000000E+00 0.  1.
          3   -1    0    0  502    0  0.00000000000E+00 -0.00000000000E+00 -0.31229478756E+03  0.31229478756E+03  0.00000000000E+00 0. -1.
          6    1    1    2  502    0 -0.10915327257E+03  0.47637724596E+03  0.13142434622E+02  0.51827255471E+03  0.17200000000E+03 0. -1.
         -6    1    1    2    0  501  0.10915327257E+03 -0.47637724596E+03  0.10638051042E+04  0.11832645592E+04  0.17200000000E+03 0.  1.
</event>
<event>
 4    1  0.3141404E-002  0.3616748E+03  0.7818608E-02  0.1057923E+00
          1   -1    0    0  502    0  0.00000000000E+00  0.00000000000E+00  0.15287545133E+04  0.15287545133E+04  0.00000000000E+00 0. -1.
         -1   -1    0    0    0  501 -0.00000000000E+00 -0.00000000000E+00 -0.16520802221E+03  0.16520802221E+03  0.00000000000E+00 0.  1.
          6    1    1    2  502    0 -0.14348035373E+02  0.31783459032E+03  0.12698454535E+04  0.13203469880E+04  0.17200000000E+03 0. -1.
         -6    1    1    2    0  501  0.14348035373E+02 -0.31783459032E+03  0.93701037630E+02  0.37361554755E+03  0.17200000000E+03 0.  1.
</event>
<event>
 4    1  0.3141404E-002  0.5911011E+03  0.7818608E-02  0.9924042E-01
         -2   -1    0    0    0  501 -0.00000000000E+00  0.00000000000E+00  0.18030807228E+03  0.18030807228E+03  0.00000000000E+00 0.  1.
          2   -1    0    0  502    0  0.00000000000E+00 -0.00000000000E+00 -0.19853415529E+04  0.19853415529E+04  0.00000000000E+00 0. -1.
          6    1    1    2  502    0  0.36872955758E+03  0.42878314833E+03 -0.10700843681E+04  0.12224896849E+04  0.17200000000E+03 0. -1.
         -6    1    1    2    0  501 -0.36872955758E+03 -0.42878314833E+03 -0.73494911260E+03  0.94315994033E+03  0.17200000000E+03 0.  1.
</event>
<event>
 4    1  0.3141404E-002  0.3962983E+03  0.7818608E-02  0.1045069E+00
          1   -1    0    0  502    0  0.00000000000E+00  0.00000000000E+00  0.17097660782E+04  0.17097660782E+04  0.00000000000E+00 0. -1.
         -1   -1    0    0    0  501 -0.00000000000E+00 -0.00000000000E+00 -0.95308481207E+02  0.95308481207E+02  0.00000000000E+00 0.  1.
          6    1    1    2  502    0 -0.29460205890E+03  0.20168784298E+03  0.63545304410E+03  0.74890114859E+03  0.17200000000E+03 0. -1.
         -6    1    1    2    0  501  0.29460205890E+03 -0.20168784298E+03  0.97900455289E+03  0.10561734108E+04  0.17200000000E+03 0.  1.
</event>
<event>
 4    1  0.3141404E-002  0.3274381E+03  0.7818608E-02  0.1072276E+00
         -2   -1    0    0    0  501 -0.00000000000E+00  0.00000000000E+00  0.84530604588E+02  0.84530604588E+02  0.00000000000E+00 0.  1.
          2   -1    0    0  502    0  0.00000000000E+00 -0.00000000000E+00 -0.18431922871E+04  0.18431922871E+04  0.00000000000E+00 0. -1.
          6    1    1    2  502    0 -0.27862205433E+03 -0.12101646605E+01 -0.14175978180E+04  0.14549224334E+04  0.17200000000E+03 0. -1.
         -6    1    1    2    0  501  0.27862205433E+03  0.12101646605E+01 -0.34106386446E+03  0.47280045822E+03  0.17200000000E+03 0.  1.
</event>
<event>
 4    1  0.3141404E-002  0.1863267E+03  0.7818608E-02  0.1161817E+00
         -2   -1    0    0    0  501 -0.00000000000E+00  0.00000000000E+00  0.13467910446E+02  0.13467910446E+02  0.00000000000E+00 0.  1.
          2   -1    0    0  502    0  0.00000000000E+00 -0.00000000000E+00 -0.27829489423E+04  0.27829489423E+04  0.00000000000E+00 0. -1.
          6    1    1    2  502    0 -0.37193494926E+02 -0.61239587716E+02 -0.17643603864E+04  0.17741716986E+04  0.17200000000E+03 0. -1.
         -6    1    1    2    0  501  0.37193494926E+02  0.61239587716E+02 -0.10051206455E+04  0.10222451541E+04  0.17200000000E+03 0.  1.
</event>
<event>
 4    1  0.3141404E-002  0.2135461E+03  0.7818608E-02  0.1138788E+00
          2   -1    0    0  502    0  0.00000000000E+00  0.00000000000E+00  0.17811588271E+04  0.17811588271E+04  0.00000000000E+00 0. -1.
         -2   -1    0    0    0  501 -0.00000000000E+00 -0.00000000000E+00 -0.30195634206E+02  0.30195634206E+02  0.00000000000E+00 0.  1.
          6    1    1    2  502    0 -0.12314561094E+03  0.29207719140E+02  0.12287142875E+04  0.12471330052E+04  0.17200000000E+03 0. -1.
         -6    1    1    2    0  501  0.12314561094E+03 -0.29207719140E+02  0.52224890544E+03  0.56422145615E+03  0.17200000000E+03 0.  1.
</event>
<event>
 4    1  0.3141404E-002  0.1814638E+03  0.7818608E-02  0.1166394E+00
          2   -1    0    0  502    0  0.00000000000E+00  0.00000000000E+00  0.99257803012E+03  0.99257803012E+03  0.00000000000E+00 0. -1.
         -2   -1    0    0    0  501 -0.00000000000E+00 -0.00000000000E+00 -0.56497393268E+02  0.56497393268E+02  0.00000000000E+00 0.  1.
          6    1    1    2  502    0 -0.22433760739E+02  0.53308756325E+02  0.80505285644E+03  0.82525099139E+03  0.17200000000E+03 0. -1.
         -6    1    1    2    0  501  0.22433760739E+02 -0.53308756325E+02  0.13102778041E+03  0.22382443200E+03  0.17200000000E+03 0.  1.
</event>
<event>
 4    1  0.3141404E-002  0.1894734E+03  0.7818608E-02  0.1158937E+00
          2   -1    0    0  502    0  0.00000000000E+00  0.00000000000E+00  0.16705666364E+04  0.16705666364E+04  0.00000000000E+00 0. -1.
         -2   -1    0    0    0  501 -0.00000000000E+00 -0.00000000000E+00 -0.23616849057E+02  0.23616849057E+02  0.00000000000E+00 0.  1.
          6    1    1    2  502    0 -0.79119315523E+02 -0.75030344733E+01  0.56925643512E+03  0.59996087417E+03  0.17200000000E+03 0.  1.
         -6    1    1    2    0  501  0.79119315523E+02  0.75030344733E+01  0.10776933522E+04  0.10942226113E+04  0.17200000000E+03 0. -1.
</event>
<event>
 4    1  0.3141404E-002  0.1966873E+03  0.7818608E-02  0.1152564E+00
         -1   -1    0    0    0  501 -0.00000000000E+00  0.00000000000E+00  0.11867162222E+02  0.11867162222E+02  0.00000000000E+00 0.  1.
          1   -1    0    0  502    0  0.00000000000E+00 -0.00000000000E+00 -0.42293199392E+04  0.42293199392E+04  0.00000000000E+00 0. -1.
          6    1    1    2  502    0  0.51684220294E+02  0.80191238618E+02 -0.31239826181E+04  0.31301682530E+04  0.17200000000E+03 0.  1.
         -6    1    1    2    0  501 -0.51684220294E+02 -0.80191238618E+02 -0.10934701589E+04  0.11110188485E+04  0.17200000000E+03 0.  1.
</event>
<event>
 4    1  0.3141404E-002  0.3463728E+03  0.7818608E-02  0.1064114E+00
         -2   -1    0    0    0  501 -0.00000000000E+00  0.00000000000E+00  0.14347863837E+03  0.14347863837E+03  0.00000000000E+00 0.  1.
          2   -1    0    0  502    0  0.00000000000E+00 -0.00000000000E+00 -0.85451923919E+03  0.85451923919E+03  0.00000000000E+00 0. -1.
          6    1    1    2  502    0  0.29931675264E+03  0.28276606509E+02 -0.42862069080E+03  0.55108055805E+03  0.17200000000E+03 0.  1.
         -6    1    1    2    0  501 -0.29931675264E+03 -0.28276606509E+02 -0.28241991003E+03  0.44691731950E+03  0.17200000000E+03 0.  1.
</event>
<event>
 4    1  0.3141404E-002  0.1859688E+03  0.7818608E-02  0.1162148E+00
         -2   -1    0    0    0  501 -0.00000000000E+00  0.00000000000E+00  0.12272202603E+02  0.12272202603E+02  0.00000000000E+00 0.  1.
          2   -1    0    0  502    0  0.00000000000E+00 -0.00000000000E+00 -0.28188779243E+04  0.28188779243E+04  0.00000000000E+00 0. -1.
          6    1    1    2  502    0 -0.44610102931E+02  0.54866474334E+02 -0.13799067996E+04  0.13923818323E+04  0.17200000000E+03 0. -1.
         -6    1    1    2    0  501  0.44610102931E+02 -0.54866474334E+02 -0.14266989221E+04  0.14387682946E+04  0.17200000000E+03 0.  1.
</event>
<event>
 4    1  0.3141404E-002  0.2162424E+03  0.7818608E-02  0.1136716E+00
         -3   -1    0    0    0  501 -0.00000000000E+00  0.00000000000E+00  0.78439370993E+03  0.78439370993E+03  0.00000000000E+00 0.  1.
          3   -1    0    0  502    0  0.00000000000E+00 -0.00000000000E+00 -0.89997197446E+02  0.89997197446E+02  0.00000000000E+00 0. -1.
          6    1    1    2  502    0 -0.13014919518E+03 -0.15425953123E+02  0.60122448035E+03  0.63893008132E+03  0.17200000000E+03 0.  1.
         -6    1    1    2    0  501  0.13014919518E+03  0.15425953123E+02  0.93172032133E+02  0.23546082606E+03  0.17200000000E+03 0.  1.
</event>
<event>
 4    1  0.3141404E-002  0.1965420E+03  0.7818608E-02  0.1152690E+00
          2   -1    0    0  502    0  0.00000000000E+00  0.00000000000E+00  0.11600544517E+04  0.11600544517E+04  0.00000000000E+00 0. -1.
         -2   -1    0    0    0  501 -0.00000000000E+00 -0.00000000000E+00 -0.38963717249E+02  0.38963717249E+02  0.00000000000E+00 0.  1.
          6    1    1    2  502    0 -0.82745785954E+02 -0.46881864498E+02  0.78913192778E+03  0.81323918607E+03  0.17200000000E+03 0. -1.
         -6    1    1    2    0  501  0.82745785954E+02  0.46881864498E+02  0.33195880672E+03  0.38577898293E+03  0.17200000000E+03 0.  1.
</event>
<event>
 4    1  0.3141404E-002  0.2207308E+03  0.7818608E-02  0.1133339E+00
          2   -1    0    0  502    0  0.00000000000E+00  0.00000000000E+00  0.38236272534E+04  0.38236272534E+04  0.00000000000E+00 0. -1.
         -2   -1    0    0    0  501 -0.00000000000E+00 -0.00000000000E+00 -0.13225905521E+02  0.13225905521E+02  0.00000000000E+00 0.  1.
          6    1    1    2  502    0  0.12126213675E+03  0.66585127903E+02  0.15383872054E+04  0.15541419751E+04  0.17200000000E+03 0.  1.
         -6    1    1    2    0  501 -0.12126213675E+03 -0.66585127903E+02  0.22720141425E+04  0.22827111838E+04  0.17200000000E+03 0. -1.
</event>
<event>
 4    1  0.3141404E-002  0.2398913E+03  0.7818608E-02  0.1119865E+00
         -1   -1    0    0    0  501 -0.00000000000E+00  0.00000000000E+00  0.26096697137E+03  0.26096697137E+03  0.00000000000E+00 0.  1.
          1   -1    0    0  502    0  0.00000000000E+00 -0.00000000000E+00 -0.22365389277E+03  0.22365389277E+03  0.00000000000E+00 0. -1.
          6    1    1    2  502    0 -0.61337282686E+02 -0.15556854785E+03  0.47350170652E+02  0.24451968017E+03  0.17200000000E+03 0.  1.
         -6    1    1    2    0  501  0.61337282686E+02  0.15556854785E+03 -0.10037092046E+02  0.24010118397E+03  0.17200000000E+03 0.  1.
</event>
<event>
 4    1  0.3141404E-002  0.2904789E+03  0.7818608E-02  0.1090099E+00
          2   -1    0    0  502    0  0.00000000000E+00  0.00000000000E+00  0.10143468154E+04  0.10143468154E+04  0.00000000000E+00 0. -1.
         -2   -1    0    0    0  501 -0.00000000000E+00 -0.00000000000E+00 -0.92026358631E+02  0.92026358631E+02  0.00000000000E+00 0.  1.
          6    1    1    2  502    0 -0.32187430194E+02  0.23185766395E+03  0.28969127142E+03  0.41024265957E+03  0.17200000000E+03 0.  1.
         -6    1    1    2    0  501  0.32187430194E+02 -0.23185766395E+03  0.63262918530E+03  0.69613051441E+03  0.17200000000E+03 0.  1.
</event>
<event>
 4    1  0.3141404E-002  0.2132308E+03  0.7818608E-02  0.1139033E+00
         -1   -1    0    0    0  501 -0.00000000000E+00  0.00000000000E+00  0.37002021759E+03  0.37002021759E+03  0.00000000000E+00 0.  1.
          1   -1    0    0  502    0  0.00000000000E+00 -0.00000000000E+00 -0.12391735464E+03  0.12391735464E+03  0.00000000000E+00 0. -1.
          6    1    1    2  502    0 -0.10716666035E+03 -0.66322503881E+02  0.10043392546E+03  0.23569968391E+03  0.17200000000E+03 0.  1.
         -6    1    1    2    0  501  0.10716666035E+03  0.66322503881E+02  0.14566893749E+03  0.25823788832E+03  0.17200000000E+03 0. -1.
</event>
<event>
 4    1  0.3141404E-002  0.3260093E+03  0.7818608E-02  0.1072916E+00
          2   -1    0    0  502    0  0.00000000000E+00  0.00000000000E+00  0.58372766620E+03  0.58372766620E+03  0.00000000000E+00 0. -1.
         -2   -1    0    0    0  501 -0.00000000000E+00 -0.00000000000E+00 -0.26736982911E+03  0.26736982911E+03  0.00000000000E+00 0.  1.
          6    1    1    2  502    0 -0.27439786750E+03 -0.37467923975E+02  0.39853507659E+03  0.51489051485E+03  0.17200000000E+03 0. -1.
         -6    1    1    2    0  501  0.27439786750E+03  0.37467923975E+02 -0.82177239500E+02  0.33620698046E+03  0.17200000000E+03 0.  1.
</event>
<event>
 4    1  0.3141404E-002  0.5584145E+03  0.7818608E-02  0.9995649E-01
         -2   -1    0    0    0  501 -0.00000000000E+00  0.00000000000E+00  0.51811970787E+03  0.51811970787E+03  0.00000000000E+00 0.  1.
          2   -1    0    0  502    0  0.00000000000E+00 -0.00000000000E+00 -0.23394097781E+04  0.23394097781E+04  0.00000000000E+00 0. -1.
          6    1    1    2  502    0  0.50056432101E+03 -0.17798350152E+03 -0.21419859637E+04  0.22135786941E+04  0.17200000000E+03 0. -1.
         -6    1    1    2    0  501 -0.50056432101E+03  0.17798350152E+03  0.32069589346E+03  0.64395079189E+03  0.17200000000E+03 0.  1.
</event>
<event>
 4    1  0.3141404E-002  0.2056051E+03  0.7818608E-02  0.1145094E+00
         -2   -1    0    0    0  501 -0.00000000000E+00  0.00000000000E+00  0.46127322002E+02  0.46127322002E+02  0.00000000000E+00 0.  1.
          2   -1    0    0  502    0  0.00000000000E+00 -0.00000000000E+00 -0.10550091396E+04  0.10550091396E+04  0.00000000000E+00 0. -1.
          6    1    1    2  502    0  0.10858787702E+03  0.29968749337E+02 -0.30491546250E+03  0.36775928574E+03  0.17200000000E+03 0. -1.
         -6    1    1    2    0  501 -0.10858787702E+03 -0.29968749337E+02 -0.70396635506E+03  0.73337717583E+03  0.17200000000E+03 0. -1.
</event>
<event>
 4    1  0.3141404E-002  0.2622645E+03  0.7818608E-02  0.1105790E+00
          4   -1    0    0  502    0  0.00000000000E+00  0.00000000000E+00  0.25159666296E+03  0.25159666296E+03  0.00000000000E+00 0. -1.
         -4   -1    0    0    0  501 -0.00000000000E+00 -0.00000000000E+00 -0.42321782809E+03  0.42321782809E+03  0.00000000000E+00 0.  1.
          6    1    1    2  502    0  0.14615761449E+03  0.13355390197E+03  0.11494899144E+03  0.28634937338E+03  0.17200000000E+03 0. -1.
         -6    1    1    2    0  501 -0.14615761449E+03 -0.13355390197E+03 -0.28657015657E+03  0.38846511766E+03  0.17200000000E+03 0.  1.
</event>
<event>
 4    1  0.3141404E-002  0.6215557E+03  0.7818608E-02  0.9861667E-01
         -2   -1    0    0    0  501 -0.00000000000E+00  0.00000000000E+00  0.76497617783E+03  0.76497617783E+03  0.00000000000E+00 0.  1.
          2   -1    0    0  502    0  0.00000000000E+00 -0.00000000000E+00 -0.11208103396E+04  0.11208103396E+04  0.00000000000E+00 0. -1.
          6    1    1    2  502    0 -0.58245737058E+03  0.13225296364E+03 -0.87681129135E+03  0.10747694988E+04  0.17200000000E+03 0. -1.
         -6    1    1    2    0  501  0.58245737058E+03 -0.13225296364E+03  0.52097712958E+03  0.81101701861E+03  0.17200000000E+03 0.  1.
</event>
<event>
 4    1  0.3141404E-002  0.1794787E+03  0.7818608E-02  0.1168309E+00
          2   -1    0    0  502    0  0.00000000000E+00  0.00000000000E+00  0.11376827028E+03  0.11376827028E+03  0.00000000000E+00 0. -1.
         -2   -1    0    0    0  501 -0.00000000000E+00 -0.00000000000E+00 -0.29763527070E+03  0.29763527070E+03  0.00000000000E+00 0.  1.
          6    1    1    2  502    0  0.34438445805E+02  0.37981395368E+02 -0.46541768859E+02  0.18541501879E+03  0.17200000000E+03 0. -1.
         -6    1    1    2    0  501 -0.34438445805E+02 -0.37981395368E+02 -0.13732523156E+03  0.22598852220E+03  0.17200000000E+03 0.  1.
</event>
<event>
 4    1  0.3141404E-002  0.2098553E+03  0.7818608E-02  0.1141681E+00
          2   -1    0    0  502    0  0.00000000000E+00  0.00000000000E+00  0.13343565440E+04  0.13343565440E+04  0.00000000000E+00 0. -1.
         -2   -1    0    0    0  501 -0.00000000000E+00 -0.00000000000E+00 -0.33107048724E+02  0.33107048724E+02  0.00000000000E+00 0.  1.
          6    1    1    2  502    0  0.11133813327E+03  0.45376755764E+02  0.68875300707E+03  0.72001384336E+03  0.17200000000E+03 0.  1.
         -6    1    1    2    0  501 -0.11133813327E+03 -0.45376755764E+02  0.61249648816E+03  0.64744974932E+03  0.17200000000E+03 0.  1.
</event>
<event>
 4    1  0.3141404E-002  0.2823040E+03  0.7818608E-02  0.1094437E+00
         -2   -1    0    0    0  501 -0.00000000000E+00  0.00000000000E+00  0.56263090150E+02  0.56263090150E+02  0.00000000000E+00 0.  1.
          2   -1    0    0  502    0  0.00000000000E+00 -0.00000000000E+00 -0.14400555132E+04  0.14400555132E+04  0.00000000000E+00 0. -1.
          6    1    1    2  502    0  0.99796531494E+02 -0.20038018672E+03 -0.78762244006E+03  0.83668672454E+03  0.17200000000E+03 0. -1.
         -6    1    1    2    0  501 -0.99796531494E+02  0.20038018672E+03 -0.59616998295E+03  0.65963187878E+03  0.17200000000E+03 0.  1.
</event>
<event>
 4    1  0.3141404E-002  0.2991781E+03  0.7818608E-02  0.1085652E+00
         -2   -1    0    0    0  501 -0.00000000000E+00  0.00000000000E+00  0.18650399627E+03  0.18650399627E+03  0.00000000000E+00 0.  1.
          2   -1    0    0  502    0  0.00000000000E+00 -0.00000000000E+00 -0.13778909702E+04  0.13778909702E+04  0.00000000000E+00 0. -1.
          6    1    1    2  502    0 -0.18321825681E+03 -0.16234109929E+03 -0.12271441216E+04  0.12630875889E+04  0.17200000000E+03 0. -1.
         -6    1    1    2    0  501  0.18321825681E+03  0.16234109929E+03  0.35757147673E+02  0.30130737753E+03  0.17200000000E+03 0.  1.
</event>
<event>
 4    1  0.3141404E-002  0.2010269E+03  0.7818608E-02  0.1148876E+00
         -2   -1    0    0    0  501 -0.00000000000E+00  0.00000000000E+00  0.21961191581E+02  0.21961191581E+02  0.00000000000E+00 0.  1.
          2   -1    0    0  502    0  0.00000000000E+00 -0.00000000000E+00 -0.20159232517E+04  0.20159232517E+04  0.00000000000E+00 0. -1.
          6    1    1    2  502    0 -0.53571733845E+02 -0.89206931897E+02 -0.12978610969E+04  0.13133374411E+04  0.17200000000E+03 0. -1.
         -6    1    1    2    0  501  0.53571733845E+02  0.89206931897E+02 -0.69610096323E+03  0.72454700218E+03  0.17200000000E+03 0.  1.
</event>
<event>
 4    1  0.3141404E-002  0.4521354E+03  0.7818608E-02  0.1027087E+00
         -1   -1    0    0    0  501 -0.00000000000E+00  0.00000000000E+00  0.28302381932E+03  0.28302381932E+03  0.00000000000E+00 0.  1.
          1   -1    0    0  502    0  0.00000000000E+00 -0.00000000000E+00 -0.74941012178E+03  0.74941012178E+03  0.00000000000E+00 0. -1.
          6    1    1    2  502    0  0.39315229276E+03 -0.14238559974E+03 -0.13499870673E+03  0.47185912636E+03  0.17200000000E+03 0.  1.
         -6    1    1    2    0  501 -0.39315229276E+03  0.14238559974E+03 -0.33138759573E+03  0.56057481474E+03  0.17200000000E+03 0.  1.
</event>
<event>
 4    1  0.3141404E-002  0.1948147E+03  0.7818608E-02  0.1154189E+00
          2   -1    0    0  502    0  0.00000000000E+00  0.00000000000E+00  0.13089253346E+04  0.13089253346E+04  0.00000000000E+00 0. -1.
         -2   -1    0    0    0  501 -0.00000000000E+00 -0.00000000000E+00 -0.29031828169E+02  0.29031828169E+02  0.00000000000E+00 0.  1.
          6    1    1    2  502    0 -0.52687663383E+02  0.74784796457E+02  0.66365817746E+03  0.69166099511E+03  0.17200000000E+03 0. -1.
         -6    1    1    2    0  501  0.52687663383E+02 -0.74784796457E+02  0.61623532899E+03  0.64629616768E+03  0.17200000000E+03 0. -1.
</event>
<event>
 4    1  0.3141404E-002  0.2235387E+03  0.7818608E-02  0.1131272E+00
          1   -1    0    0  502    0  0.00000000000E+00  0.00000000000E+00  0.79283417133E+03  0.79283417133E+03  0.00000000000E+00 0. -1.
         -1   -1    0    0    0  501 -0.00000000000E+00 -0.00000000000E+00 -0.63304464074E+02  0.63304464074E+02  0.00000000000E+00 0.  1.
          6    1    1    2  502    0 -0.95464503993E+02 -0.10616994904E+03  0.39313255015E+03  0.45224189500E+03  0.17200000000E+03 0. -1.
         -6    1    1    2    0  501  0.95464503993E+02  0.10616994904E+03  0.33639715710E+03  0.40389674040E+03  0.17200000000E+03 0. -1.
</event>
<event>
 4    1  0.3141404E-002  0.2008180E+03  0.7818608E-02  0.1149051E+00
         -1   -1    0    0    0  501 -0.00000000000E+00  0.00000000000E+00  0.23367004217E+03  0.23367004217E+03  0.00000000000E+00 0.  1.
          1   -1    0    0  502    0  0.00000000000E+00 -0.00000000000E+00 -0.53490682591E+03  0.53490682591E+03  0.00000000000E+00 0. -1.
          6    1    1    2  502    0 -0.86005310075E+02 -0.57852859076E+02 -0.46689399367E+03  0.50824980865E+03  0.17200000000E+03 0. -1.
         -6    1    1    2    0  501  0.86005310075E+02  0.57852859076E+02  0.16565720993E+03  0.26032705942E+03  0.17200000000E+03 0.  1.
</event>
<event>
 4    1  0.3141404E-002  0.3217601E+03  0.7818608E-02  0.1074842E+00
         -2   -1    0    0    0  501 -0.00000000000E+00  0.00000000000E+00  0.15960764817E+03  0.15960764817E+03  0.00000000000E+00 0.  1.
          2   -1    0    0  502    0  0.00000000000E+00 -0.00000000000E+00 -0.65003561430E+03  0.65003561430E+03  0.00000000000E+00 0. -1.
          6    1    1    2  502    0 -0.20935738777E+03 -0.17353678514E+03 -0.22652497543E+03  0.39350107510E+03  0.17200000000E+03 0. -1.
         -6    1    1    2    0  501  0.20935738777E+03  0.17353678514E+03 -0.26390299070E+03  0.41614218737E+03  0.17200000000E+03 0.  1.
</event>
<event>
 4    1  0.3141404E-002  0.2911342E+03  0.7818608E-02  0.1089758E+00
         -1   -1    0    0    0  501 -0.00000000000E+00  0.00000000000E+00  0.36147247572E+03  0.36147247572E+03  0.00000000000E+00 0.  1.
          1   -1    0    0  502    0  0.00000000000E+00 -0.00000000000E+00 -0.26421232726E+03  0.26421232726E+03  0.00000000000E+00 0. -1.
          6    1    1    2  502    0  0.39260195039E+02 -0.23158961245E+03  0.15357039855E+03  0.32915494652E+03  0.17200000000E+03 0. -1.
         -6    1    1    2    0  501 -0.39260195039E+02  0.23158961245E+03 -0.56310250093E+02  0.29652985646E+03  0.17200000000E+03 0.  1.
</event>
<event>
 4    1  0.3141404E-002  0.2184853E+03  0.7818608E-02  0.1135017E+00
          2   -1    0    0  502    0  0.00000000000E+00  0.00000000000E+00  0.76945907640E+03  0.76945907640E+03  0.00000000000E+00 0. -1.
         -2   -1    0    0    0  501 -0.00000000000E+00 -0.00000000000E+00 -0.71821821678E+02  0.71821821678E+02  0.00000000000E+00 0.  1.
          6    1    1    2  502    0 -0.13038646912E+03 -0.33929183872E+02  0.50406936260E+03  0.54938305686E+03  0.17200000000E+03 0. -1.
         -6    1    1    2    0  501  0.13038646912E+03  0.33929183872E+02  0.19356789212E+03  0.29189784122E+03  0.17200000000E+03 0.  1.
</event>
<event>
 4    1  0.3141404E-002  0.2443284E+03  0.7818608E-02  0.1116943E+00
          2   -1    0    0  502    0  0.00000000000E+00  0.00000000000E+00  0.25610276472E+04  0.25610276472E+04  0.00000000000E+00 0. -1.
         -2   -1    0    0    0  501 -0.00000000000E+00 -0.00000000000E+00 -0.25548472096E+02  0.25548472096E+02  0.00000000000E+00 0.  1.
          6    1    1    2  502    0  0.92601470941E+02 -0.14675599272E+03  0.16505944059E+04  0.16685797094E+04  0.17200000000E+03 0. -1.
         -6    1    1    2    0  501 -0.92601470941E+02  0.14675599272E+03  0.88488476921E+03  0.91799640991E+03  0.17200000000E+03 0. -1.
</event>
<event>
 4    1  0.3141404E-002  0.1729227E+03  0.7818608E-02  0.1174834E+00
          4   -1    0    0  502    0  0.00000000000E+00  0.00000000000E+00  0.89726017893E+03  0.89726017893E+03  0.00000000000E+00 0. -1.
         -4   -1    0    0    0  501 -0.00000000000E+00 -0.00000000000E+00 -0.11963190337E+03  0.11963190337E+03  0.00000000000E+00 0.  1.
          6    1    1    2  502    0  0.10667196629E+01  0.17807941564E+02  0.82067231199E+03  0.83869261612E+03  0.17200000000E+03 0. -1.
         -6    1    1    2    0  501 -0.10667196629E+01 -0.17807941564E+02 -0.43044036436E+02  0.17819946618E+03  0.17200000000E+03 0.  1.
</event>
<event>
 4    1  0.3141404E-002  0.4064812E+03  0.7818608E-02  0.1041558E+00
          2   -1    0    0  502    0  0.00000000000E+00  0.00000000000E+00  0.34030993943E+03  0.34030993943E+03  0.00000000000E+00 0. -1.
         -2   -1    0    0    0  501 -0.00000000000E+00 -0.00000000000E+00 -0.50593918103E+03  0.50593918103E+03  0.00000000000E+00 0.  1.
          6    1    1    2  502    0  0.54773263036E+02  0.36420166285E+03  0.21911176307E+01  0.40648710012E+03  0.17200000000E+03 0. -1.
         -6    1    1    2    0  501 -0.54773263036E+02 -0.36420166285E+03 -0.16782035924E+03  0.43976202035E+03  0.17200000000E+03 0.  1.
</event>
<event>
 4    1  0.3141404E-002  0.2212037E+03  0.7818608E-02  0.1132989E+00
          1   -1    0    0  502    0  0.00000000000E+00  0.00000000000E+00  0.15330119652E+04  0.15330119652E+04  0.00000000000E+00 0. -1.
         -1   -1    0    0    0  501 -0.00000000000E+00 -0.00000000000E+00 -0.35118298745E+02  0.35118298745E+02  0.00000000000E+00 0.  1.
          6    1    1    2  502    0  0.81526508566E+02 -0.11269644824E+03  0.51226571103E+03  0.55798496372E+03  0.17200000000E+03 0. -1.
         -6    1    1    2    0  501 -0.81526508566E+02  0.11269644824E+03  0.98562795540E+03  0.10101453002E+04  0.17200000000E+03 0. -1.
</event>
