<event>
 4    1  0.4612011E+000  0.1760015E+03  0.7818608E-02  0.1171730E+00
         21   -1    0    0  501  502  0.00000000000E+00  0.00000000000E+00  0.10844823925E+03  0.10844823925E+03  0.00000000000E+00 0. -1.
         21   -1    0    0  502  503 -0.00000000000E+00 -0.00000000000E+00 -0.35579885227E+03  0.35579885227E+03  0.00000000000E+00 0. -1.
          6    1    1    2  501    0 -0.79829749287E+01 -0.36452942949E+02 -0.20595030124E+02  0.17720242720E+03  0.17200000000E+03 0. -1.
         -6    1    1    2    0  503  0.79829749287E+01  0.36452942949E+02 -0.22675558290E+03  0.28704466432E+03  0.17200000000E+03 0. -1.
</event>
<event>
 4    1  0.4612011E+000  0.1858941E+03  0.7818608E-02  0.1162218E+00
         21   -1    0    0  503  502  0.00000000000E+00  0.00000000000E+00  0.35311179776E+03  0.35311179776E+03  0.00000000000E+00 0. -1.
         21   -1    0    0  501  503 -0.00000000000E+00 -0.00000000000E+00 -0.29113145043E+03  0.29113145043E+03  0.00000000000E+00 0. -1.
          6    1    1    2  501    0 -0.34734485571E+02  0.61368951776E+02 -0.23146529848E+03  0.29687171831E+03  0.17200000000E+03 0. -1.
         -6    1    1    2    0  502  0.34734485571E+02 -0.61368951776E+02  0.29344564581E+03  0.34737152988E+03  0.17200000000E+03 0. -1.
</event>
<event>
 4    1  0.4612011E+000  0.3273066E+03  0.7818608E-02  0.1072335E+00
         21   -1    0    0  503  502  0.00000000000E+00  0.00000000000E+00  0.20731870702E+03  0.20731870702E+03  0.00000000000E+00 0. -1.
         21   -1    0    0  501  503 -0.00000000000E+00 -0.00000000000E+00 -0.69649937505E+03  0.69649937505E+03  0.00000000000E+00 0. -1.
          6    1    1    2  501    0 -0.12366683657E+03 -0.24950381712E+03 -0.47417229680E+03  0.57616751754E+03  0.17200000000E+03 0. -1.
         -6    1    1    2    0  502  0.12366683657E+03  0.24950381712E+03 -0.15008371233E+02  0.32765056452E+03  0.17200000000E+03 0. -1.
</event>
<event>
 4    1  0.4612011E+000  0.1850324E+03  0.7818608E-02  0.1163020E+00
         21   -1    0    0  501  502  0.00000000000E+00  0.00000000000E+00  0.13586037925E+03  0.13586037925E+03  0.00000000000E+00 0. -1.
         21   -1    0    0  502  503 -0.00000000000E+00 -0.00000000000E+00 -0.36591698058E+03  0.36591698058E+03  0.00000000000E+00 0. -1.
          6    1    1    2  501    0 -0.65802831403E+02 -0.17971567159E+02 -0.25501332336E+03  0.31506949224E+03  0.17200000000E+03 0. -1.
         -6    1    1    2    0  503  0.65802831403E+02  0.17971567159E+02  0.24956722032E+02  0.18670786759E+03  0.17200000000E+03 0. -1.
</event>
<event>
 4    1  0.4612011E+000  0.2098151E+03  0.7818608E-02  0.1141712E+00
         21   -1    0    0  503  502  0.00000000000E+00  0.00000000000E+00  0.26629131327E+03  0.26629131327E+03  0.00000000000E+00 0.  1.
         21   -1    0    0  501  503 -0.00000000000E+00 -0.00000000000E+00 -0.16554051868E+03  0.16554051868E+03  0.00000000000E+00 0.  1.
          6    1    1    2  501    0 -0.87709295677E+02 -0.82130832674E+02  0.42435664491E+02  0.21406349489E+03  0.17200000000E+03 0.  1.
         -6    1    1    2    0  502  0.87709295677E+02  0.82130832674E+02  0.58315130099E+02  0.21776833705E+03  0.17200000000E+03 0.  1.
</event>
<event>
 4    1  0.4612011E+000  0.2133474E+03  0.7818608E-02  0.1138942E+00
         21   -1    0    0  501  502  0.00000000000E+00  0.00000000000E+00  0.12013020250E+03  0.12013020250E+03  0.00000000000E+00 0. -1.
         21   -1    0    0  502  503 -0.00000000000E+00 -0.00000000000E+00 -0.18332017887E+04  0.18332017887E+04  0.00000000000E+00 0.  1.
          6    1    1    2  501    0  0.11587277548E+03  0.50066159926E+02  0.13362473147E+02  0.21376546998E+03  0.17200000000E+03 0. -1.
         -6    1    1    2    0  503 -0.11587277548E+03 -0.50066159926E+02 -0.17264340594E+04  0.17395665212E+04  0.17200000000E+03 0.  1.
</event>
<event>
 4    1  0.4612011E+000  0.2166513E+03  0.7818608E-02  0.1136405E+00
         21   -1    0    0  503  502  0.00000000000E+00  0.00000000000E+00  0.32454638858E+03  0.32454638858E+03  0.00000000000E+00 0.  1.
         21   -1    0    0  501  503 -0.00000000000E+00 -0.00000000000E+00 -0.14709268768E+03  0.14709268768E+03  0.00000000000E+00 0.  1.
          6    1    1    2  501    0  0.61049124169E+02 -0.11673390615E+03  0.11926577162E+03  0.24730977475E+03  0.17200000000E+03 0.  1.
         -6    1    1    2    0  502 -0.61049124169E+02  0.11673390615E+03  0.58187929280E+02  0.22432930152E+03  0.17200000000E+03 0.  1.
</event>
<event>
 4    1  0.4612011E+000  0.2301220E+03  0.7818608E-02  0.1126554E+00
         21   -1    0    0  503  502  0.00000000000E+00  0.00000000000E+00  0.11252824763E+03  0.11252824763E+03  0.00000000000E+00 0.  1.
         21   -1    0    0  501  503 -0.00000000000E+00 -0.00000000000E+00 -0.47087541678E+03  0.47087541678E+03  0.00000000000E+00 0.  1.
          6    1    1    2  501    0  0.51377411049E+02 -0.14398789637E+03 -0.18618731315E+03  0.29600991241E+03  0.17200000000E+03 0.  1.
         -6    1    1    2    0  502 -0.51377411049E+02  0.14398789637E+03 -0.17215985600E+03  0.28739375200E+03  0.17200000000E+03 0.  1.
</event>
<event>
 4    1  0.4612011E+000  0.2749050E+03  0.7818608E-02  0.1098505E+00
         21   -1    0    0  503  502  0.00000000000E+00  0.00000000000E+00  0.39918975078E+03  0.39918975078E+03  0.00000000000E+00 0. -1.
         21   -1    0    0  501  503 -0.00000000000E+00 -0.00000000000E+00 -0.41701646540E+03  0.41701646540E+03  0.00000000000E+00 0.  1.
          6    1    1    2  501    0 -0.98219228089E+02  0.19063507112E+03 -0.31047484737E+03  0.41468949584E+03  0.17200000000E+03 0.  1.
         -6    1    1    2    0  502  0.98219228089E+02 -0.19063507112E+03  0.29264813275E+03  0.40151672034E+03  0.17200000000E+03 0. -1.
</event>
<event>
 4    1  0.4612011E+000  0.2000906E+03  0.7818608E-02  0.1149663E+00
         21   -1    0    0  503  502  0.00000000000E+00  0.00000000000E+00  0.54240127746E+02  0.54240127746E+02  0.00000000000E+00 0. -1.
         21   -1    0    0  501  503 -0.00000000000E+00 -0.00000000000E+00 -0.11247183279E+04  0.11247183279E+04  0.00000000000E+00 0.  1.
          6    1    1    2  501    0 -0.87835301402E+02 -0.52318325192E+02 -0.88083706523E+03  0.90327746723E+03  0.17200000000E+03 0.  1.
         -6    1    1    2    0  502  0.87835301402E+02  0.52318325192E+02 -0.18964113496E+03  0.27568098845E+03  0.17200000000E+03 0. -1.
</event>
<event>
 4    1  0.4612011E+000  0.1834290E+03  0.7818608E-02  0.1164525E+00
         21   -1    0    0  503  502  0.00000000000E+00  0.00000000000E+00  0.14389735174E+04  0.14389735174E+04  0.00000000000E+00 0.  1.
         21   -1    0    0  501  503 -0.00000000000E+00 -0.00000000000E+00 -0.53156407321E+02  0.53156407321E+02  0.00000000000E+00 0.  1.
          6    1    1    2  501    0 -0.63673232578E+02 -0.28143292738E+01  0.13454151086E+03  0.22748103029E+03  0.17200000000E+03 0.  1.
         -6    1    1    2    0  502  0.63673232578E+02  0.28143292738E+01  0.12512755992E+04  0.12646488945E+04  0.17200000000E+03 0.  1.
</event>
<event>
 4    1  0.4612011E+000  0.3191335E+03  0.7818608E-02  0.1076049E+00
         21   -1    0    0  501  502  0.00000000000E+00  0.00000000000E+00  0.13059017325E+03  0.13059017325E+03  0.00000000000E+00 0. -1.
         21   -1    0    0  502  503 -0.00000000000E+00 -0.00000000000E+00 -0.78148299880E+03  0.78148299880E+03  0.00000000000E+00 0.  1.
          6    1    1    2  501    0 -0.35558919611E+02 -0.26645407940E+03 -0.30486885302E+03  0.44135159537E+03  0.17200000000E+03 0. -1.
         -6    1    1    2    0  503  0.35558919611E+02  0.26645407940E+03 -0.34602397252E+03  0.47072157668E+03  0.17200000000E+03 0.  1.
</event>
<event>
 4    1  0.4612011E+000  0.2422203E+03  0.7818608E-02  0.1118323E+00
         21   -1    0    0  503  502  0.00000000000E+00  0.00000000000E+00  0.95723242532E+02  0.95723242532E+02  0.00000000000E+00 0. -1.
         21   -1    0    0  501  503 -0.00000000000E+00 -0.00000000000E+00 -0.63496964052E+03  0.63496964052E+03  0.00000000000E+00 0.  1.
          6    1    1    2  501    0  0.16985760772E+03 -0.15331235715E+02 -0.20154110980E+03  0.31510232089E+03  0.17200000000E+03 0.  1.
         -6    1    1    2    0  502 -0.16985760772E+03  0.15331235715E+02 -0.33770528819E+03  0.41559056217E+03  0.17200000000E+03 0. -1.
</event>
<event>
 4    1  0.4612011E+000  0.1973943E+03  0.7818608E-02  0.1151956E+00
         21   -1    0    0  501  502  0.00000000000E+00  0.00000000000E+00  0.75089687098E+03  0.75089687098E+03  0.00000000000E+00 0.  1.
         21   -1    0    0  502  503 -0.00000000000E+00 -0.00000000000E+00 -0.21273609851E+03  0.21273609851E+03  0.00000000000E+00 0.  1.
          6    1    1    2  501    0  0.81736383542E+02 -0.51958471262E+02  0.68803353740E+03  0.71578954150E+03  0.17200000000E+03 0.  1.
         -6    1    1    2    0  503 -0.81736383542E+02  0.51958471262E+02 -0.14987276494E+03  0.24784342799E+03  0.17200000000E+03 0.  1.
</event>
<event>
 4    1  0.4612011E+000  0.2379960E+03  0.7818608E-02  0.1121135E+00
         21   -1    0    0  501  502  0.00000000000E+00  0.00000000000E+00  0.76328101770E+02  0.76328101770E+02  0.00000000000E+00 0.  1.
         21   -1    0    0  502  503 -0.00000000000E+00 -0.00000000000E+00 -0.74940860510E+03  0.74940860510E+03  0.00000000000E+00 0.  1.
          6    1    1    2  501    0  0.78166646897E+02 -0.14473444687E+03 -0.29573103775E+03  0.37960365052E+03  0.17200000000E+03 0.  1.
         -6    1    1    2    0  503 -0.78166646897E+02  0.14473444687E+03 -0.37734946558E+03  0.44613305635E+03  0.17200000000E+03 0.  1.
</event>
<event>
 4    1  0.4612011E+000  0.2210794E+03  0.7818608E-02  0.1133081E+00
         21   -1    0    0  503  502  0.00000000000E+00  0.00000000000E+00  0.76241610501E+03  0.76241610501E+03  0.00000000000E+00 0.  1.
         21   -1    0    0  501  503 -0.00000000000E+00 -0.00000000000E+00 -0.64611424088E+02  0.64611424088E+02  0.00000000000E+00 0. -1.
          6    1    1    2  501    0  0.13718466089E+03 -0.21736692595E+02  0.31236083506E+03  0.38268186039E+03  0.17200000000E+03 0. -1.
         -6    1    1    2    0  502 -0.13718466089E+03  0.21736692595E+02  0.38544384586E+03  0.44434566871E+03  0.17200000000E+03 0. -1.
</event>
<event>
 4    1  0.4612011E+000  0.3226274E+03  0.7818608E-02  0.1074446E+00
         21   -1    0    0  503  502  0.00000000000E+00  0.00000000000E+00  0.21780566971E+03  0.21780566971E+03  0.00000000000E+00 0. -1.
         21   -1    0    0  501  503 -0.00000000000E+00 -0.00000000000E+00 -0.49299700196E+03  0.49299700196E+03  0.00000000000E+00 0.  1.
          6    1    1    2  501    0  0.26739811652E+03  0.54796642308E+02 -0.19979733217E+03  0.37948306770E+03  0.17200000000E+03 0. -1.
         -6    1    1    2    0  502 -0.26739811652E+03 -0.54796642308E+02 -0.75394000075E+02  0.33131960397E+03  0.17200000000E+03 0.  1.
</event>
<event>
 4    1  0.4612011E+000  0.2091890E+03  0.7818608E-02  0.1142210E+00
         21   -1    0    0  503  502  0.00000000000E+00  0.00000000000E+00  0.72260905121E+02  0.72260905121E+02  0.00000000000E+00 0. -1.
         21   -1    0    0  501  503 -0.00000000000E+00 -0.00000000000E+00 -0.61968360091E+03  0.61968360091E+03  0.00000000000E+00 0. -1.
          6    1    1    2  501    0 -0.84575268665E+02  0.83803713522E+02 -0.32589827222E+03  0.38725924432E+03  0.17200000000E+03 0. -1.
         -6    1    1    2    0  502  0.84575268665E+02 -0.83803713522E+02 -0.22152442357E+03  0.30468526171E+03  0.17200000000E+03 0. -1.
</event>
<event>
 4    1  0.4612011E+000  0.2172050E+03  0.7818608E-02  0.1135984E+00
         21   -1    0    0  503  502  0.00000000000E+00  0.00000000000E+00  0.84366279084E+03  0.84366279084E+03  0.00000000000E+00 0.  1.
         21   -1    0    0  501  503 -0.00000000000E+00 -0.00000000000E+00 -0.59558179250E+02  0.59558179250E+02  0.00000000000E+00 0. -1.
          6    1    1    2  501    0 -0.13050839267E+03  0.23697846779E+02  0.28044138635E+03  0.35471876138E+03  0.17200000000E+03 0. -1.
         -6    1    1    2    0  502  0.13050839267E+03 -0.23697846779E+02  0.50366322524E+03  0.54850220871E+03  0.17200000000E+03 0.  1.
</event>
<event>
 4    1  0.4612011E+000  0.1776526E+03  0.7818608E-02  0.1170094E+00
         21   -1    0    0  501  502  0.00000000000E+00  0.00000000000E+00  0.81183137727E+03  0.81183137727E+03  0.00000000000E+00 0. -1.
         21   -1    0    0  502  503 -0.00000000000E+00 -0.00000000000E+00 -0.11135201529E+03  0.11135201529E+03  0.00000000000E+00 0. -1.
          6    1    1    2  501    0  0.40875526648E+02 -0.17482749760E+02  0.72263757231E+03  0.74415422873E+03  0.17200000000E+03 0. -1.
         -6    1    1    2    0  503 -0.40875526648E+02  0.17482749760E+02 -0.22158210336E+02  0.17902916383E+03  0.17200000000E+03 0. -1.
</event>
<event>
 4    1  0.4612011E+000  0.1749315E+03  0.7818608E-02  0.1172801E+00
         21   -1    0    0  501  502  0.00000000000E+00  0.00000000000E+00  0.32229524345E+02  0.32229524345E+02  0.00000000000E+00 0. -1.
         21   -1    0    0  502  503 -0.00000000000E+00 -0.00000000000E+00 -0.96376484650E+03  0.96376484650E+03  0.00000000000E+00 0. -1.
          6    1    1    2  501    0  0.22938820967E+02 -0.22154779990E+02 -0.52641392967E+03  0.55471853145E+03  0.17200000000E+03 0. -1.
         -6    1    1    2    0  503 -0.22938820967E+02  0.22154779990E+02 -0.40512139248E+03  0.44127583939E+03  0.17200000000E+03 0. -1.
</event>
<event>
 4    1  0.4612011E+000  0.1824102E+03  0.7818608E-02  0.1165491E+00
         21   -1    0    0  501  502  0.00000000000E+00  0.00000000000E+00  0.82440604158E+02  0.82440604158E+02  0.00000000000E+00 0. -1.
         21   -1    0    0  502  503 -0.00000000000E+00 -0.00000000000E+00 -0.40549552278E+03  0.40549552278E+03  0.00000000000E+00 0. -1.
          6    1    1    2  501    0 -0.54935273594E+02 -0.25915205417E+02 -0.14487140152E+03  0.23294034673E+03  0.17200000000E+03 0. -1.
         -6    1    1    2    0  503  0.54935273594E+02  0.25915205417E+02 -0.17818351710E+03  0.25499578021E+03  0.17200000000E+03 0. -1.
</event>
<event>
 4    1  0.4612011E+000  0.2422486E+03  0.7818608E-02  0.1118304E+00
         21   -1    0    0  501  502  0.00000000000E+00  0.00000000000E+00  0.12814553721E+03  0.12814553721E+03  0.00000000000E+00 0.  1.
         21   -1    0    0  502  503 -0.00000000000E+00 -0.00000000000E+00 -0.74427574728E+03  0.74427574728E+03  0.00000000000E+00 0.  1.
          6    1    1    2  501    0  0.88955789516E+02  0.14555842875E+03 -0.37508153707E+02  0.24513516733E+03  0.17200000000E+03 0.  1.
         -6    1    1    2    0  503 -0.88955789516E+02 -0.14555842875E+03 -0.57862205637E+03  0.62728611716E+03  0.17200000000E+03 0.  1.
</event>
<event>
 4    1  0.4612011E+000  0.2060861E+03  0.7818608E-02  0.1144703E+00
         21   -1    0    0  501  502  0.00000000000E+00  0.00000000000E+00  0.12196386141E+03  0.12196386141E+03  0.00000000000E+00 0. -1.
         21   -1    0    0  502  503 -0.00000000000E+00 -0.00000000000E+00 -0.88493772399E+03  0.88493772399E+03  0.00000000000E+00 0.  1.
          6    1    1    2  501    0  0.85926757873E+02  0.74189459944E+02  0.10588446786E+02  0.20635793876E+03  0.17200000000E+03 0. -1.
         -6    1    1    2    0  503 -0.85926757873E+02 -0.74189459944E+02 -0.77356230937E+03  0.80054364663E+03  0.17200000000E+03 0.  1.
</event>
<event>
 4    1  0.4612011E+000  0.2863637E+03  0.7818608E-02  0.1092263E+00
         21   -1    0    0  501  502  0.00000000000E+00  0.00000000000E+00  0.21143307358E+03  0.21143307358E+03  0.00000000000E+00 0.  1.
         21   -1    0    0  502  503 -0.00000000000E+00 -0.00000000000E+00 -0.83925542786E+03  0.83925542786E+03  0.00000000000E+00 0. -1.
          6    1    1    2  501    0 -0.20355000646E+03 -0.10482152710E+03  0.71372541275E+02  0.29512403718E+03  0.17200000000E+03 0. -1.
         -6    1    1    2    0  503  0.20355000646E+03  0.10482152710E+03 -0.69919489556E+03  0.75556446426E+03  0.17200000000E+03 0.  1.
</event>
<event>
 4    1  0.4612011E+000  0.2121611E+03  0.7818608E-02  0.1139866E+00
         21   -1    0    0  501  502  0.00000000000E+00  0.00000000000E+00  0.15392485117E+03  0.15392485117E+03  0.00000000000E+00 0. -1.
         21   -1    0    0  502  503 -0.00000000000E+00 -0.00000000000E+00 -0.38851852214E+03  0.38851852214E+03  0.00000000000E+00 0. -1.
          6    1    1    2  501    0 -0.12028874157E+03 -0.30967088512E+02  0.17584814821E+02  0.21288862730E+03  0.17200000000E+03 0. -1.
         -6    1    1    2    0  503  0.12028874157E+03  0.30967088512E+02 -0.25217848579E+03  0.32955474601E+03  0.17200000000E+03 0. -1.
</event>
<event>
 4    1  0.4612011E+000  0.1725357E+03  0.7818608E-02  0.1175229E+00
         21   -1    0    0  503  502  0.00000000000E+00  0.00000000000E+00  0.16630742231E+03  0.16630742231E+03  0.00000000000E+00 0. -1.
         21   -1    0    0  501  503 -0.00000000000E+00 -0.00000000000E+00 -0.44509732482E+03  0.44509732482E+03  0.00000000000E+00 0. -1.
          6    1    1    2  501    0  0.43225327728E+01 -0.12879977377E+02 -0.37576572857E+03  0.41348332599E+03  0.17200000000E+03 0. -1.
         -6    1    1    2    0  502 -0.43225327728E+01  0.12879977377E+02  0.96975826057E+02  0.19792142114E+03  0.17200000000E+03 0. -1.
</event>
<event>
 4    1  0.4612011E+000  0.2291974E+03  0.7818608E-02  0.1127206E+00
         21   -1    0    0  503  502  0.00000000000E+00  0.00000000000E+00  0.25192270643E+03  0.25192270643E+03  0.00000000000E+00 0. -1.
         21   -1    0    0  501  503 -0.00000000000E+00 -0.00000000000E+00 -0.20873976038E+03  0.20873976038E+03  0.00000000000E+00 0. -1.
          6    1    1    2  501    0  0.67540863419E+01  0.15133351364E+03  0.14153632550E+02  0.22963400303E+03  0.17200000000E+03 0. -1.
         -6    1    1    2    0  502 -0.67540863419E+01 -0.15133351364E+03  0.29029313495E+02  0.23102846378E+03  0.17200000000E+03 0. -1.
</event>
<event>
 4    1  0.4612011E+000  0.1977553E+03  0.7818608E-02  0.1151647E+00
         21   -1    0    0  501  502  0.00000000000E+00  0.00000000000E+00  0.60346502348E+03  0.60346502348E+03  0.00000000000E+00 0. -1.
         21   -1    0    0  502  503 -0.00000000000E+00 -0.00000000000E+00 -0.12492430785E+03  0.12492430785E+03  0.00000000000E+00 0. -1.
          6    1    1    2  501    0  0.75486558147E+02 -0.61846165122E+02  0.49192040187E+03  0.53018190311E+03  0.17200000000E+03 0. -1.
         -6    1    1    2    0  503 -0.75486558147E+02  0.61846165122E+02 -0.13379686243E+02  0.19820742823E+03  0.17200000000E+03 0. -1.
</event>
<event>
 4    1  0.4612011E+000  0.1860307E+03  0.7818608E-02  0.1162091E+00
         21   -1    0    0  503  502  0.00000000000E+00  0.00000000000E+00  0.10994188478E+04  0.10994188478E+04  0.00000000000E+00 0.  1.
         21   -1    0    0  501  503 -0.00000000000E+00 -0.00000000000E+00 -0.52494589362E+02  0.52494589362E+02  0.00000000000E+00 0.  1.
          6    1    1    2  501    0  0.16419183810E+02 -0.68948087136E+02  0.15903186882E+03  0.24474183054E+03  0.17200000000E+03 0.  1.
         -6    1    1    2    0  502 -0.16419183810E+02  0.68948087136E+02  0.88789238964E+03  0.90717160665E+03  0.17200000000E+03 0.  1.
</event>
<event>
 4    1  0.4612011E+000  0.1766617E+03  0.7818608E-02  0.1171074E+00
         21   -1    0    0  503  502  0.00000000000E+00  0.00000000000E+00  0.42523195123E+03  0.42523195123E+03  0.00000000000E+00 0. -1.
         21   -1    0    0  501  503 -0.00000000000E+00 -0.00000000000E+00 -0.95741875521E+02  0.95741875521E+02  0.00000000000E+00 0. -1.
          6    1    1    2  501    0  0.31651567739E+02 -0.24970701511E+02  0.38894313307E+02  0.18089257940E+03  0.17200000000E+03 0. -1.
         -6    1    1    2    0  502 -0.31651567739E+02  0.24970701511E+02  0.29059576240E+03  0.34008124735E+03  0.17200000000E+03 0. -1.
</event>
<event>
 4    1  0.4612011E+000  0.2818429E+03  0.7818608E-02  0.1094687E+00
         21   -1    0    0  501  502  0.00000000000E+00  0.00000000000E+00  0.78457787637E+03  0.78457787637E+03  0.00000000000E+00 0. -1.
         21   -1    0    0  502  503 -0.00000000000E+00 -0.00000000000E+00 -0.14119849877E+03  0.14119849877E+03  0.00000000000E+00 0.  1.
          6    1    1    2  501    0 -0.16491683864E+02 -0.22266443025E+03  0.56791498496E+03  0.63400540555E+03  0.17200000000E+03 0.  1.
         -6    1    1    2    0  503  0.16491683864E+02  0.22266443025E+03  0.75464392643E+02  0.29177096958E+03  0.17200000000E+03 0. -1.
</event>
<event>
 4    1  0.4612011E+000  0.1876431E+03  0.7818608E-02  0.1160604E+00
         21   -1    0    0  503  502  0.00000000000E+00  0.00000000000E+00  0.33723924941E+03  0.33723924941E+03  0.00000000000E+00 0. -1.
         21   -1    0    0  501  503 -0.00000000000E+00 -0.00000000000E+00 -0.11064438624E+03  0.11064438624E+03  0.00000000000E+00 0. -1.
          6    1    1    2  501    0 -0.28397180762E+02  0.69422900104E+02  0.60124279316E+02  0.19704026974E+03  0.17200000000E+03 0.  1.
         -6    1    1    2    0  502  0.28397180762E+02 -0.69422900104E+02  0.16647058386E+03  0.25084336591E+03  0.17200000000E+03 0.  1.
</event>
<event>
 4    1  0.4612011E+000  0.2322420E+03  0.7818608E-02  0.1125072E+00
         21   -1    0    0  501  502  0.00000000000E+00  0.00000000000E+00  0.64080357833E+02  0.64080357833E+02  0.00000000000E+00 0. -1.
         21   -1    0    0  502  503 -0.00000000000E+00 -0.00000000000E+00 -0.18953890595E+04  0.18953890595E+04  0.00000000000E+00 0.  1.
          6    1    1    2  501    0 -0.12246561370E+03 -0.96718820569E+02 -0.18516178063E+03  0.29702060837E+03  0.17200000000E+03 0. -1.
         -6    1    1    2    0  503  0.12246561370E+03  0.96718820569E+02 -0.16461469210E+04  0.16624488090E+04  0.17200000000E+03 0.  1.
</event>
<event>
 4    1  0.4612011E+000  0.2661495E+03  0.7818608E-02  0.1103504E+00
         21   -1    0    0  501  502  0.00000000000E+00  0.00000000000E+00  0.27342865019E+03  0.27342865019E+03  0.00000000000E+00 0.  1.
         21   -1    0    0  502  503 -0.00000000000E+00 -0.00000000000E+00 -0.25908531649E+03  0.25908531649E+03  0.00000000000E+00 0.  1.
          6    1    1    2  501    0 -0.15332277025E+03 -0.13320534733E+03  0.95833378789E+01  0.26632194202E+03  0.17200000000E+03 0.  1.
         -6    1    1    2    0  503  0.15332277025E+03  0.13320534733E+03  0.47599958235E+01  0.26619202467E+03  0.17200000000E+03 0.  1.
</event>
<event>
 4    1  0.4612011E+000  0.2892135E+03  0.7818608E-02  0.1090760E+00
         21   -1    0    0  503  502  0.00000000000E+00  0.00000000000E+00  0.83072960115E+03  0.83072960115E+03  0.00000000000E+00 0.  1.
         21   -1    0    0  501  503 -0.00000000000E+00 -0.00000000000E+00 -0.15282177170E+03  0.15282177170E+03  0.00000000000E+00 0. -1.
          6    1    1    2  501    0  0.76047101133E+02  0.21972099419E+03  0.51721044923E+02  0.29380187775E+03  0.17200000000E+03 0. -1.
         -6    1    1    2    0  502 -0.76047101133E+02 -0.21972099419E+03  0.62618678453E+03  0.68974949510E+03  0.17200000000E+03 0.  1.
</event>
<event>
 4    1  0.4612011E+000  0.2165775E+03  0.7818608E-02  0.1136461E+00
         21   -1    0    0  503  502  0.00000000000E+00  0.00000000000E+00  0.31829462139E+03  0.31829462139E+03  0.00000000000E+00 0.  1.
         21   -1    0    0  501  503 -0.00000000000E+00 -0.00000000000E+00 -0.18274182635E+03  0.18274182635E+03  0.00000000000E+00 0.  1.
          6    1    1    2  501    0 -0.11743881932E+03 -0.59413425405E+02 -0.42446832709E+02  0.22069790441E+03  0.17200000000E+03 0.  1.
         -6    1    1    2    0  502  0.11743881932E+03  0.59413425405E+02  0.17799962775E+03  0.28033854334E+03  0.17200000000E+03 0.  1.
</event>
<event>
 4    1  0.4612011E+000  0.2205186E+03  0.7818608E-02  0.1133497E+00
         21   -1    0    0  503  502  0.00000000000E+00  0.00000000000E+00  0.70210961840E+02  0.70210961840E+02  0.00000000000E+00 0. -1.
         21   -1    0    0  501  503 -0.00000000000E+00 -0.00000000000E+00 -0.73646917518E+03  0.73646917518E+03  0.00000000000E+00 0. -1.
          6    1    1    2  501    0 -0.25805580535E+02  0.13556734621E+03 -0.43156447508E+03  0.48464041257E+03  0.17200000000E+03 0. -1.
         -6    1    1    2    0  502  0.25805580535E+02 -0.13556734621E+03 -0.23469373825E+03  0.32203972444E+03  0.17200000000E+03 0. -1.
</event>
<event>
 4    1  0.4612011E+000  0.1720571E+03  0.7818608E-02  0.1175719E+00
         21   -1    0    0  501  502  0.00000000000E+00  0.00000000000E+00  0.34553647418E+02  0.34553647418E+02  0.00000000000E+00 0. -1.
         21   -1    0    0  502  503 -0.00000000000E+00 -0.00000000000E+00 -0.15891847334E+04  0.15891847334E+04  0.00000000000E+00 0. -1.
          6    1    1    2  501    0  0.45111288819E+00 -0.44075198392E+01 -0.22614612035E+03  0.28415787422E+03  0.17200000000E+03 0. -1.
         -6    1    1    2    0  503 -0.45111288819E+00  0.44075198392E+01 -0.13284849656E+04  0.13395805066E+04  0.17200000000E+03 0. -1.
</event>
<event>
 4    1  0.4612011E+000  0.1920360E+03  0.7818608E-02  0.1156638E+00
         21   -1    0    0  501  502  0.00000000000E+00  0.00000000000E+00  0.19758217707E+03  0.19758217707E+03  0.00000000000E+00 0.  1.
         21   -1    0    0  502  503 -0.00000000000E+00 -0.00000000000E+00 -0.24838351714E+03  0.24838351714E+03  0.00000000000E+00 0.  1.
          6    1    1    2  501    0  0.69241337845E+02  0.49994618766E+02  0.85769021085E+02  0.21031916163E+03  0.17200000000E+03 0.  1.
         -6    1    1    2    0  503 -0.69241337845E+02 -0.49994618766E+02 -0.13657036115E+03  0.23564653258E+03  0.17200000000E+03 0.  1.
</event>
<event>
 4    1  0.4612011E+000  0.1842328E+03  0.7818608E-02  0.1163768E+00
         21   -1    0    0  503  502  0.00000000000E+00  0.00000000000E+00  0.18679731084E+03  0.18679731084E+03  0.00000000000E+00 0. -1.
         21   -1    0    0  501  503 -0.00000000000E+00 -0.00000000000E+00 -0.18975272399E+03  0.18975272399E+03  0.00000000000E+00 0. -1.
          6    1    1    2  501    0  0.22680516061E+02  0.61994374693E+02  0.37299643675E+02  0.18797066718E+03  0.17200000000E+03 0.  1.
         -6    1    1    2    0  502 -0.22680516061E+02 -0.61994374693E+02 -0.40255056819E+02  0.18857936765E+03  0.17200000000E+03 0.  1.
</event>
<event>
 4    1  0.4612011E+000  0.3218258E+03  0.7818608E-02  0.1074812E+00
         21   -1    0    0  501  502  0.00000000000E+00  0.00000000000E+00  0.35778914254E+03  0.35778914254E+03  0.00000000000E+00 0.  1.
         21   -1    0    0  502  503 -0.00000000000E+00 -0.00000000000E+00 -0.28964755328E+03  0.28964755328E+03  0.00000000000E+00 0. -1.
          6    1    1    2  501    0  0.22426317558E+03 -0.15392822198E+03  0.41916954328E+02  0.32454414261E+03  0.17200000000E+03 0. -1.
         -6    1    1    2    0  503 -0.22426317558E+03  0.15392822198E+03  0.26224634935E+02  0.32289255321E+03  0.17200000000E+03 0.  1.
</event>
<event>
 4    1  0.4612011E+000  0.1920741E+03  0.7818608E-02  0.1156604E+00
         21   -1    0    0  501  502  0.00000000000E+00  0.00000000000E+00  0.10592386493E+04  0.10592386493E+04  0.00000000000E+00 0.  1.
         21   -1    0    0  502  503 -0.00000000000E+00 -0.00000000000E+00 -0.18274735388E+03  0.18274735388E+03  0.00000000000E+00 0. -1.
          6    1    1    2  501    0 -0.23833906499E+02 -0.82099886211E+02  0.99693691105E+03  0.10152712204E+04  0.17200000000E+03 0.  1.
         -6    1    1    2    0  503  0.23833906499E+02  0.82099886211E+02 -0.12044561559E+03  0.22671478278E+03  0.17200000000E+03 0. -1.
</event>
<event>
 4    1  0.4612011E+000  0.1752624E+03  0.7818608E-02  0.1172468E+00
         21   -1    0    0  503  502  0.00000000000E+00  0.00000000000E+00  0.30056829187E+02  0.30056829187E+02  0.00000000000E+00 0.  1.
         21   -1    0    0  501  503 -0.00000000000E+00 -0.00000000000E+00 -0.10527008579E+04  0.10527008579E+04  0.00000000000E+00 0.  1.
          6    1    1    2  501    0 -0.33370985273E+02  0.43932053517E+01 -0.60383357976E+03  0.62875425642E+03  0.17200000000E+03 0. -1.
         -6    1    1    2    0  502  0.33370985273E+02 -0.43932053517E+01 -0.41881044894E+03  0.45400343066E+03  0.17200000000E+03 0. -1.
</event>
<event>
 4    1  0.4612011E+000  0.2182309E+03  0.7818608E-02  0.1135209E+00
         21   -1    0    0  503  502  0.00000000000E+00  0.00000000000E+00  0.61768143864E+03  0.61768143864E+03  0.00000000000E+00 0. -1.
         21   -1    0    0  501  503 -0.00000000000E+00 -0.00000000000E+00 -0.86157842842E+02  0.86157842842E+02  0.00000000000E+00 0. -1.
          6    1    1    2  501    0  0.48530297684E+02 -0.12524199043E+03  0.15167116515E+03  0.26576096082E+03  0.17200000000E+03 0. -1.
         -6    1    1    2    0  502 -0.48530297684E+02  0.12524199043E+03  0.37985243065E+03  0.43807832066E+03  0.17200000000E+03 0. -1.
</event>
<event>
 4    1  0.4612011E+000  0.2074868E+03  0.7818608E-02  0.1143572E+00
         21   -1    0    0  503  502  0.00000000000E+00  0.00000000000E+00  0.65836478374E+03  0.65836478374E+03  0.00000000000E+00 0.  1.
         21   -1    0    0  501  503 -0.00000000000E+00 -0.00000000000E+00 -0.91089840238E+02  0.91089840238E+02  0.00000000000E+00 0. -1.
          6    1    1    2  501    0 -0.20633823284E+02  0.11419718433E+03  0.84596713774E+02  0.22406997915E+03  0.17200000000E+03 0. -1.
         -6    1    1    2    0  502  0.20633823284E+02 -0.11419718433E+03  0.48267822973E+03  0.52538464483E+03  0.17200000000E+03 0.  1.
</event>
<event>
 4    1  0.4612011E+000  0.1794042E+03  0.7818608E-02  0.1168381E+00
         21   -1    0    0  503  502  0.00000000000E+00  0.00000000000E+00  0.22666817180E+04  0.22666817180E+04  0.00000000000E+00 0.  1.
         21   -1    0    0  501  503 -0.00000000000E+00 -0.00000000000E+00 -0.14206903533E+02  0.14206903533E+02  0.00000000000E+00 0.  1.
          6    1    1    2  501    0 -0.41678876682E+02 -0.29406569753E+02  0.11521720685E+04  0.11660558951E+04  0.17200000000E+03 0.  1.
         -6    1    1    2    0  502  0.41678876682E+02  0.29406569753E+02  0.11003027460E+04  0.11148327264E+04  0.17200000000E+03 0.  1.
</event>
<event>
 4    1  0.4612011E+000  0.1893313E+03  0.7818608E-02  0.1159066E+00
         21   -1    0    0  501  502  0.00000000000E+00  0.00000000000E+00  0.93070522011E+02  0.93070522011E+02  0.00000000000E+00 0. -1.
         21   -1    0    0  502  503 -0.00000000000E+00 -0.00000000000E+00 -0.40118861110E+03  0.40118861110E+03  0.00000000000E+00 0. -1.
          6    1    1    2  501    0 -0.78967891463E+02 -0.51390613708E+01 -0.10465063568E+03  0.21632866981E+03  0.17200000000E+03 0. -1.
         -6    1    1    2    0  503  0.78967891463E+02  0.51390613708E+01 -0.20346745341E+03  0.27793046330E+03  0.17200000000E+03 0. -1.
</event>
<event>
 4    1  0.4612011E+000  0.1907080E+03  0.7818608E-02  0.1157824E+00
         21   -1    0    0  501  502  0.00000000000E+00  0.00000000000E+00  0.18505255772E+03  0.18505255772E+03  0.00000000000E+00 0. -1.
         21   -1    0    0  502  503 -0.00000000000E+00 -0.00000000000E+00 -0.49433501525E+03  0.49433501525E+03  0.00000000000E+00 0. -1.
          6    1    1    2  501    0 -0.90856861027E+01 -0.81871882993E+02  0.10901515243E+03  0.21966760885E+03  0.17200000000E+03 0. -1.
         -6    1    1    2    0  503  0.90856861027E+01  0.81871882993E+02 -0.41829760995E+03  0.45971996412E+03  0.17200000000E+03 0. -1.
</event>
<event>
 4    1  0.4612011E+000  0.2437642E+03  0.7818608E-02  0.1117310E+00
         21   -1    0    0  503  502  0.00000000000E+00  0.00000000000E+00  0.17061595155E+03  0.17061595155E+03  0.00000000000E+00 0.  1.
         21   -1    0    0  501  503 -0.00000000000E+00 -0.00000000000E+00 -0.77716850557E+03  0.77716850557E+03  0.00000000000E+00 0. -1.
          6    1    1    2  501    0 -0.62835668838E+02  0.16089950213E+03 -0.65532081780E+03  0.69918977774E+03  0.17200000000E+03 0. -1.
         -6    1    1    2    0  502  0.62835668838E+02 -0.16089950213E+03  0.48768263770E+02  0.24859467938E+03  0.17200000000E+03 0.  1.
</event>
<event>
 4    1  0.4612011E+000  0.1939655E+03  0.7818608E-02  0.1154933E+00
         21   -1    0    0  501  502  0.00000000000E+00  0.00000000000E+00  0.14490261212E+04  0.14490261212E+04  0.00000000000E+00 0. -1.
         21   -1    0    0  502  503 -0.00000000000E+00 -0.00000000000E+00 -0.30252728332E+02  0.30252728332E+02  0.00000000000E+00 0. -1.
          6    1    1    2  501    0  0.89525571532E+02  0.48766421630E+01  0.98786971247E+03  0.10067319298E+04  0.17200000000E+03 0.  1.
         -6    1    1    2    0  503 -0.89525571532E+02 -0.48766421630E+01  0.43090368038E+03  0.47254691975E+03  0.17200000000E+03 0.  1.
</event>
<event>
 4    1  0.4612011E+000  0.1847472E+03  0.7818608E-02  0.1163286E+00
         21   -1    0    0  501  502  0.00000000000E+00  0.00000000000E+00  0.29607141319E+03  0.29607141319E+03  0.00000000000E+00 0. -1.
         21   -1    0    0  502  503 -0.00000000000E+00 -0.00000000000E+00 -0.13833061068E+03  0.13833061068E+03  0.00000000000E+00 0. -1.
          6    1    1    2  501    0 -0.31173851529E+02  0.59797287177E+02  0.16753102935E+03  0.24939561016E+03  0.17200000000E+03 0. -1.
         -6    1    1    2    0  503  0.31173851529E+02 -0.59797287177E+02 -0.97902268385E+01  0.18500641371E+03  0.17200000000E+03 0. -1.
</event>
<event>
 4    1  0.4612011E+000  0.1881266E+03  0.7818608E-02  0.1160162E+00
         21   -1    0    0  501  502  0.00000000000E+00  0.00000000000E+00  0.15370107072E+03  0.15370107072E+03  0.00000000000E+00 0. -1.
         21   -1    0    0  502  503 -0.00000000000E+00 -0.00000000000E+00 -0.25575140230E+03  0.25575140230E+03  0.00000000000E+00 0. -1.
          6    1    1    2  501    0 -0.76166548850E+02 -0.25016223593E+01  0.13605642491E+02  0.18861790685E+03  0.17200000000E+03 0. -1.
         -6    1    1    2    0  503  0.76166548850E+02  0.25016223593E+01 -0.11565597406E+03  0.22083456617E+03  0.17200000000E+03 0. -1.
</event>
<event>
 4    1  0.4612011E+000  0.2156038E+03  0.7818608E-02  0.1137204E+00
         21   -1    0    0  501  502  0.00000000000E+00  0.00000000000E+00  0.81779094862E+03  0.81779094862E+03  0.00000000000E+00 0. -1.
         21   -1    0    0  502  503 -0.00000000000E+00 -0.00000000000E+00 -0.19381116774E+03  0.19381116774E+03  0.00000000000E+00 0. -1.
          6    1    1    2  501    0  0.12931371867E+03  0.13377890933E+02  0.73719794798E+03  0.76807930601E+03  0.17200000000E+03 0. -1.
         -6    1    1    2    0  503 -0.12931371867E+03 -0.13377890933E+02 -0.11321816711E+03  0.24352281036E+03  0.17200000000E+03 0. -1.
</event>
<event>
 4    1  0.4612011E+000  0.3138474E+03  0.7818608E-02  0.1078516E+00
         21   -1    0    0  501  502  0.00000000000E+00  0.00000000000E+00  0.17426406369E+03  0.17426406369E+03  0.00000000000E+00 0.  1.
         21   -1    0    0  502  503 -0.00000000000E+00 -0.00000000000E+00 -0.82216492273E+03  0.82216492273E+03  0.00000000000E+00 0. -1.
          6    1    1    2  501    0 -0.14691940396E+03 -0.21755660795E+03 -0.45438353784E+02  0.31711958772E+03  0.17200000000E+03 0.  1.
         -6    1    1    2    0  503  0.14691940396E+03  0.21755660795E+03 -0.60246250526E+03  0.67930939870E+03  0.17200000000E+03 0. -1.
</event>
<event>
 4    1  0.4612011E+000  0.2426099E+03  0.7818608E-02  0.1118066E+00
         21   -1    0    0  501  502  0.00000000000E+00  0.00000000000E+00  0.86482854257E+02  0.86482854257E+02  0.00000000000E+00 0.  1.
         21   -1    0    0  502  503 -0.00000000000E+00 -0.00000000000E+00 -0.73562731441E+03  0.73562731441E+03  0.00000000000E+00 0. -1.
          6    1    1    2  501    0 -0.83013685633E+02  0.14961379772E+03 -0.21213999717E+03  0.32227773561E+03  0.17200000000E+03 0.  1.
         -6    1    1    2    0  503  0.83013685633E+02 -0.14961379772E+03 -0.43700446299E+03  0.49983243306E+03  0.17200000000E+03 0. -1.
</event>
<event>
 4    1  0.4612011E+000  0.3052251E+03  0.7818608E-02  0.1082657E+00
         21   -1    0    0  503  502  0.00000000000E+00  0.00000000000E+00  0.28578343595E+03  0.28578343595E+03  0.00000000000E+00 0.  1.
         21   -1    0    0  501  503 -0.00000000000E+00 -0.00000000000E+00 -0.78607873620E+03  0.78607873620E+03  0.00000000000E+00 0. -1.
          6    1    1    2  501    0 -0.14120275829E+03 -0.20890228311E+03 -0.66016004714E+03  0.72730576147E+03  0.17200000000E+03 0. -1.
         -6    1    1    2    0  502  0.14120275829E+03  0.20890228311E+03  0.15986474689E+03  0.34455641068E+03  0.17200000000E+03 0.  1.
</event>
<event>
 4    1  0.4612011E+000  0.1734694E+03  0.7818608E-02  0.1174277E+00
         21   -1    0    0  503  502  0.00000000000E+00  0.00000000000E+00  0.19288510937E+03  0.19288510937E+03  0.00000000000E+00 0. -1.
         21   -1    0    0  501  503 -0.00000000000E+00 -0.00000000000E+00 -0.18345348381E+03  0.18345348381E+03  0.00000000000E+00 0. -1.
          6    1    1    2  501    0  0.12220274823E+02 -0.18928981890E+02 -0.68065577998E+02  0.18634528269E+03  0.17200000000E+03 0.  1.
         -6    1    1    2    0  502 -0.12220274823E+02  0.18928981890E+02  0.77497203556E+02  0.18999331049E+03  0.17200000000E+03 0.  1.
</event>
<event>
 4    1  0.4612011E+000  0.1732813E+03  0.7818608E-02  0.1174469E+00
         21   -1    0    0  503  502  0.00000000000E+00  0.00000000000E+00  0.36817480515E+03  0.36817480515E+03  0.00000000000E+00 0. -1.
         21   -1    0    0  501  503 -0.00000000000E+00 -0.00000000000E+00 -0.11274974058E+03  0.11274974058E+03  0.00000000000E+00 0. -1.
          6    1    1    2  501    0 -0.49209602503E+01  0.20449823030E+02  0.12297324461E+01  0.17328566979E+03  0.17200000000E+03 0. -1.
         -6    1    1    2    0  502  0.49209602503E+01 -0.20449823030E+02  0.25419533212E+03  0.30763887593E+03  0.17200000000E+03 0. -1.
</event>
<event>
 4    1  0.4612011E+000  0.2572072E+03  0.7818608E-02  0.1108833E+00
         21   -1    0    0  501  502  0.00000000000E+00  0.00000000000E+00  0.50324486814E+03  0.50324486814E+03  0.00000000000E+00 0.  1.
         21   -1    0    0  502  503 -0.00000000000E+00 -0.00000000000E+00 -0.15619923824E+03  0.15619923824E+03  0.00000000000E+00 0.  1.
          6    1    1    2  501    0  0.16448365044E+03  0.97553548487E+02  0.30474861126E+03  0.39878224904E+03  0.17200000000E+03 0.  1.
         -6    1    1    2    0  503 -0.16448365044E+03 -0.97553548487E+02  0.42297018644E+02  0.26066185734E+03  0.17200000000E+03 0.  1.
</event>
<event>
 4    1  0.4612011E+000  0.2230163E+03  0.7818608E-02  0.1131654E+00
         21   -1    0    0  503  502  0.00000000000E+00  0.00000000000E+00  0.28772805783E+03  0.28772805783E+03  0.00000000000E+00 0. -1.
         21   -1    0    0  501  503 -0.00000000000E+00 -0.00000000000E+00 -0.22121402471E+03  0.22121402471E+03  0.00000000000E+00 0. -1.
          6    1    1    2  501    0  0.12365404822E+03  0.69727539402E+02 -0.85717757015E+02  0.23892213640E+03  0.17200000000E+03 0. -1.
         -6    1    1    2    0  502 -0.12365404822E+03 -0.69727539402E+02  0.15223179014E+03  0.27001994615E+03  0.17200000000E+03 0. -1.
</event>
<event>
 4    1  0.4612011E+000  0.1782163E+03  0.7818608E-02  0.1169541E+00
         21   -1    0    0  503  502  0.00000000000E+00  0.00000000000E+00  0.22341857320E+03  0.22341857320E+03  0.00000000000E+00 0.  1.
         21   -1    0    0  501  503 -0.00000000000E+00 -0.00000000000E+00 -0.44047723850E+03  0.44047723850E+03  0.00000000000E+00 0. -1.
          6    1    1    2  501    0  0.25948426450E+02  0.38777977931E+02 -0.38170864188E+03  0.42126302910E+03  0.17200000000E+03 0. -1.
         -6    1    1    2    0  502 -0.25948426450E+02 -0.38777977931E+02  0.16464997657E+03  0.24263278260E+03  0.17200000000E+03 0.  1.
</event>
<event>
 4    1  0.4612011E+000  0.2746439E+03  0.7818608E-02  0.1098651E+00
         21   -1    0    0  501  502  0.00000000000E+00  0.00000000000E+00  0.16733929561E+03  0.16733929561E+03  0.00000000000E+00 0.  1.
         21   -1    0    0  502  503 -0.00000000000E+00 -0.00000000000E+00 -0.56682930644E+03  0.56682930644E+03  0.00000000000E+00 0.  1.
          6    1    1    2  501    0 -0.24647506403E+01 -0.21410089089E+03 -0.33631476851E+02  0.27669539698E+03  0.17200000000E+03 0.  1.
         -6    1    1    2    0  503  0.24647506403E+01  0.21410089089E+03 -0.36585853398E+03  0.45747320507E+03  0.17200000000E+03 0.  1.
</event>
<event>
 4    1  0.4612011E+000  0.2193813E+03  0.7818608E-02  0.1134345E+00
         21   -1    0    0  501  502  0.00000000000E+00  0.00000000000E+00  0.82057458432E+02  0.82057458432E+02  0.00000000000E+00 0. -1.
         21   -1    0    0  502  503 -0.00000000000E+00 -0.00000000000E+00 -0.59328804371E+03  0.59328804371E+03  0.00000000000E+00 0. -1.
          6    1    1    2  501    0  0.11702216060E+03 -0.69641824395E+02 -0.21954401333E+03  0.31036711096E+03  0.17200000000E+03 0. -1.
         -6    1    1    2    0  503 -0.11702216060E+03  0.69641824395E+02 -0.29168657195E+03  0.36497839118E+03  0.17200000000E+03 0. -1.
</event>
<event>
 4    1  0.4612011E+000  0.2450407E+03  0.7818608E-02  0.1116480E+00
         21   -1    0    0  503  502  0.00000000000E+00  0.00000000000E+00  0.29108578089E+03  0.29108578089E+03  0.00000000000E+00 0.  1.
         21   -1    0    0  501  503 -0.00000000000E+00 -0.00000000000E+00 -0.23078412778E+03  0.23078412778E+03  0.00000000000E+00 0.  1.
          6    1    1    2  501    0  0.81442270640E+02 -0.15436361304E+03 -0.54875849119E+02  0.25111018954E+03  0.17200000000E+03 0.  1.
         -6    1    1    2    0  502 -0.81442270640E+02  0.15436361304E+03  0.11517750223E+03  0.27075971912E+03  0.17200000000E+03 0.  1.
</event>
<event>
 4    1  0.4612011E+000  0.2499081E+03  0.7818608E-02  0.1113363E+00
         21   -1    0    0  503  502  0.00000000000E+00  0.00000000000E+00  0.45589260980E+02  0.45589260980E+02  0.00000000000E+00 0.  1.
         21   -1    0    0  501  503 -0.00000000000E+00 -0.00000000000E+00 -0.16792936002E+04  0.16792936002E+04  0.00000000000E+00 0.  1.
          6    1    1    2  501    0  0.30007382220E+01  0.18127624893E+03 -0.11870220753E+04  0.12130438946E+04  0.17200000000E+03 0.  1.
         -6    1    1    2    0  502 -0.30007382220E+01 -0.18127624893E+03 -0.44668226390E+03  0.51183896661E+03  0.17200000000E+03 0.  1.
</event>
<event>
 4    1  0.4612011E+000  0.2327036E+03  0.7818608E-02  0.1124751E+00
         21   -1    0    0  501  502  0.00000000000E+00  0.00000000000E+00  0.18482617582E+04  0.18482617582E+04  0.00000000000E+00 0.  1.
         21   -1    0    0  502  503 -0.00000000000E+00 -0.00000000000E+00 -0.14871273860E+03  0.14871273860E+03  0.00000000000E+00 0.  1.
          6    1    1    2  501    0  0.15649174178E+03 -0.87907871879E+01  0.17445144874E+04  0.17599664031E+04  0.17200000000E+03 0.  1.
         -6    1    1    2    0  503 -0.15649174178E+03  0.87907871879E+01 -0.44965467828E+02  0.23700809370E+03  0.17200000000E+03 0.  1.
</event>
<event>
 4    1  0.4612011E+000  0.1732729E+03  0.7818608E-02  0.1174477E+00
         21   -1    0    0  503  502  0.00000000000E+00  0.00000000000E+00  0.36269581878E+02  0.36269581878E+02  0.00000000000E+00 0.  1.
         21   -1    0    0  501  503 -0.00000000000E+00 -0.00000000000E+00 -0.11472461140E+04  0.11472461140E+04  0.00000000000E+00 0.  1.
          6    1    1    2  501    0  0.43102146596E+01  0.20516619338E+02 -0.86775302335E+03  0.88488350598E+03  0.17200000000E+03 0.  1.
         -6    1    1    2    0  502 -0.43102146596E+01 -0.20516619338E+02 -0.24322350873E+03  0.29863218985E+03  0.17200000000E+03 0.  1.
</event>
<event>
 4    1  0.4612011E+000  0.2202086E+03  0.7818608E-02  0.1133728E+00
         21   -1    0    0  501  502  0.00000000000E+00  0.00000000000E+00  0.11582097774E+04  0.11582097774E+04  0.00000000000E+00 0. -1.
         21   -1    0    0  502  503 -0.00000000000E+00 -0.00000000000E+00 -0.51918920648E+02  0.51918920648E+02  0.00000000000E+00 0.  1.
          6    1    1    2  501    0 -0.10772282234E+03 -0.85461260507E+02  0.81936709776E+03  0.84844226344E+03  0.17200000000E+03 0. -1.
         -6    1    1    2    0  503  0.10772282234E+03  0.85461260507E+02  0.28692375897E+03  0.36168643458E+03  0.17200000000E+03 0.  1.
</event>
<event>
 4    1  0.4612011E+000  0.2647879E+03  0.7818608E-02  0.1104300E+00
         21   -1    0    0  501  502  0.00000000000E+00  0.00000000000E+00  0.43006899947E+03  0.43006899947E+03  0.00000000000E+00 0.  1.
         21   -1    0    0  502  503 -0.00000000000E+00 -0.00000000000E+00 -0.23401664069E+03  0.23401664069E+03  0.00000000000E+00 0.  1.
          6    1    1    2  501    0 -0.19356667413E+03 -0.55322576130E+02  0.28090766226E+03  0.38603336576E+03  0.17200000000E+03 0.  1.
         -6    1    1    2    0  503  0.19356667413E+03  0.55322576130E+02 -0.84855303478E+02  0.27805227439E+03  0.17200000000E+03 0.  1.
</event>
<event>
 4    1  0.4612011E+000  0.1829810E+03  0.7818608E-02  0.1164949E+00
         21   -1    0    0  501  502  0.00000000000E+00  0.00000000000E+00  0.70606131855E+02  0.70606131855E+02  0.00000000000E+00 0.  1.
         21   -1    0    0  502  503 -0.00000000000E+00 -0.00000000000E+00 -0.97389194742E+03  0.97389194742E+03  0.00000000000E+00 0.  1.
          6    1    1    2  501    0 -0.15248632363E+02  0.60543640375E+02 -0.77558515759E+02  0.19873946902E+03  0.17200000000E+03 0.  1.
         -6    1    1    2    0  503  0.15248632363E+02 -0.60543640375E+02 -0.82572729981E+03  0.84575861026E+03  0.17200000000E+03 0.  1.
</event>
<event>
 4    1  0.4612011E+000  0.2093161E+03  0.7818608E-02  0.1142109E+00
         21   -1    0    0  503  502  0.00000000000E+00  0.00000000000E+00  0.26879022640E+03  0.26879022640E+03  0.00000000000E+00 0.  1.
         21   -1    0    0  501  503 -0.00000000000E+00 -0.00000000000E+00 -0.29095156961E+03  0.29095156961E+03  0.00000000000E+00 0.  1.
          6    1    1    2  501    0 -0.11292079862E+03  0.38446258134E+02 -0.19667623062E+03  0.28721901263E+03  0.17200000000E+03 0.  1.
         -6    1    1    2    0  502  0.11292079862E+03 -0.38446258134E+02  0.17451488741E+03  0.27252278337E+03  0.17200000000E+03 0.  1.
</event>
<event>
 4    1  0.4612011E+000  0.2311190E+03  0.7818608E-02  0.1125855E+00
         21   -1    0    0  501  502  0.00000000000E+00  0.00000000000E+00  0.53225583390E+03  0.53225583390E+03  0.00000000000E+00 0.  1.
         21   -1    0    0  502  503 -0.00000000000E+00 -0.00000000000E+00 -0.12539788321E+03  0.12539788321E+03  0.00000000000E+00 0.  1.
          6    1    1    2  501    0  0.12768645590E+03 -0.86764941817E+02  0.35036919675E+03  0.41973153346E+03  0.17200000000E+03 0.  1.
         -6    1    1    2    0  503 -0.12768645590E+03  0.86764941817E+02  0.56488753947E+02  0.23792218365E+03  0.17200000000E+03 0.  1.
</event>
<event>
 4    1  0.4612011E+000  0.1844406E+03  0.7818608E-02  0.1163573E+00
         21   -1    0    0  501  502  0.00000000000E+00  0.00000000000E+00  0.21202184053E+02  0.21202184053E+02  0.00000000000E+00 0. -1.
         21   -1    0    0  502  503 -0.00000000000E+00 -0.00000000000E+00 -0.18728837106E+04  0.18728837106E+04  0.00000000000E+00 0.  1.
          6    1    1    2  501    0  0.36966483877E+02  0.55387953570E+02 -0.56732055791E+03  0.59654921151E+03  0.17200000000E+03 0. -1.
         -6    1    1    2    0  503 -0.36966483877E+02 -0.55387953570E+02 -0.12843609686E+04  0.12975366831E+04  0.17200000000E+03 0.  1.
</event>
<event>
 4    1  0.4612011E+000  0.2059734E+03  0.7818608E-02  0.1144795E+00
         21   -1    0    0  501  502  0.00000000000E+00  0.00000000000E+00  0.77648794395E+03  0.77648794395E+03  0.00000000000E+00 0.  1.
         21   -1    0    0  502  503 -0.00000000000E+00 -0.00000000000E+00 -0.17593166330E+03  0.17593166330E+03  0.00000000000E+00 0.  1.
          6    1    1    2  501    0 -0.13690405745E+02  0.11248833513E+03  0.69568753855E+03  0.72553856138E+03  0.17200000000E+03 0.  1.
         -6    1    1    2    0  503  0.13690405745E+02 -0.11248833513E+03 -0.95131257897E+02  0.22688104588E+03  0.17200000000E+03 0.  1.
</event>
<event>
 4    1  0.4612011E+000  0.1751373E+03  0.7818608E-02  0.1172594E+00
         21   -1    0    0  503  502  0.00000000000E+00  0.00000000000E+00  0.24013419795E+03  0.24013419795E+03  0.00000000000E+00 0. -1.
         21   -1    0    0  501  503 -0.00000000000E+00 -0.00000000000E+00 -0.14077284831E+03  0.14077284831E+03  0.00000000000E+00 0. -1.
          6    1    1    2  501    0  0.22880061863E+02  0.23781715745E+02 -0.82842710159E+01  0.17533310121E+03  0.17200000000E+03 0. -1.
         -6    1    1    2    0  502 -0.22880061863E+02 -0.23781715745E+02  0.10764562066E+03  0.20557394505E+03  0.17200000000E+03 0. -1.
</event>
<event>
 4    1  0.4612011E+000  0.2156078E+03  0.7818608E-02  0.1137201E+00
         21   -1    0    0  503  502  0.00000000000E+00  0.00000000000E+00  0.35224070444E+03  0.35224070444E+03  0.00000000000E+00 0. -1.
         21   -1    0    0  501  503 -0.00000000000E+00 -0.00000000000E+00 -0.14425383433E+03  0.14425383433E+03  0.00000000000E+00 0. -1.
          6    1    1    2  501    0  0.11610580660E+03  0.58499150114E+02  0.31564462617E+02  0.21790599852E+03  0.17200000000E+03 0. -1.
         -6    1    1    2    0  502 -0.11610580660E+03 -0.58499150114E+02  0.17642240750E+03  0.27858854025E+03  0.17200000000E+03 0. -1.
</event>
<event>
 4    1  0.4612011E+000  0.1834062E+03  0.7818608E-02  0.1164547E+00
         21   -1    0    0  503  502  0.00000000000E+00  0.00000000000E+00  0.17937852083E+04  0.17937852083E+04  0.00000000000E+00 0.  1.
         21   -1    0    0  501  503 -0.00000000000E+00 -0.00000000000E+00 -0.29700582961E+02  0.29700582961E+02  0.00000000000E+00 0. -1.
          6    1    1    2  501    0 -0.58496116132E+02 -0.25140171736E+02  0.32848777566E+03  0.37622073653E+03  0.17200000000E+03 0. -1.
         -6    1    1    2    0  502  0.58496116132E+02  0.25140171736E+02  0.14355968497E+04  0.14472650547E+04  0.17200000000E+03 0.  1.
</event>
<event>
 4    1  0.4612011E+000  0.1794909E+03  0.7818608E-02  0.1168297E+00
         21   -1    0    0  503  502  0.00000000000E+00  0.00000000000E+00  0.16713789948E+04  0.16713789948E+04  0.00000000000E+00 0.  1.
         21   -1    0    0  501  503 -0.00000000000E+00 -0.00000000000E+00 -0.21190479636E+02  0.21190479636E+02  0.00000000000E+00 0.  1.
          6    1    1    2  501    0  0.11198775472E+02 -0.50075586287E+02  0.57070012663E+03  0.59826048796E+03  0.17200000000E+03 0.  1.
         -6    1    1    2    0  502 -0.11198775472E+02  0.50075586287E+02  0.10794883886E+04  0.10943089865E+04  0.17200000000E+03 0.  1.
</event>
<event>
 4    1  0.4612011E+000  0.1897131E+03  0.7818608E-02  0.1158720E+00
         21   -1    0    0  503  502  0.00000000000E+00  0.00000000000E+00  0.22103025336E+03  0.22103025336E+03  0.00000000000E+00 0.  1.
         21   -1    0    0  501  503 -0.00000000000E+00 -0.00000000000E+00 -0.18348554207E+03  0.18348554207E+03  0.00000000000E+00 0.  1.
          6    1    1    2  501    0  0.12619525010E+02  0.79042998155E+02 -0.49083910039E+02  0.19595988925E+03  0.17200000000E+03 0.  1.
         -6    1    1    2    0  502 -0.12619525010E+02 -0.79042998155E+02  0.86628621335E+02  0.20855590618E+03  0.17200000000E+03 0.  1.
</event>
<event>
 4    1  0.4612011E+000  0.2588284E+03  0.7818608E-02  0.1107849E+00
         21   -1    0    0  503  502  0.00000000000E+00  0.00000000000E+00  0.28355811578E+03  0.28355811578E+03  0.00000000000E+00 0.  1.
         21   -1    0    0  501  503 -0.00000000000E+00 -0.00000000000E+00 -0.26222948887E+03  0.26222948887E+03  0.00000000000E+00 0. -1.
          6    1    1    2  501    0  0.11196305879E+00 -0.19341177979E+03 -0.75221864174E+02  0.26953748894E+03  0.17200000000E+03 0. -1.
         -6    1    1    2    0  502 -0.11196305879E+00  0.19341177979E+03  0.96550491088E+02  0.27625011570E+03  0.17200000000E+03 0.  1.
</event>
<event>
 4    1  0.4612011E+000  0.1739841E+03  0.7818608E-02  0.1173756E+00
         21   -1    0    0  503  502  0.00000000000E+00  0.00000000000E+00  0.20418766529E+04  0.20418766529E+04  0.00000000000E+00 0. -1.
         21   -1    0    0  501  503 -0.00000000000E+00 -0.00000000000E+00 -0.19734261649E+02  0.19734261649E+02  0.00000000000E+00 0. -1.
          6    1    1    2  501    0  0.20454710463E+02  0.16372857038E+02  0.49693040142E+03  0.52650763478E+03  0.17200000000E+03 0. -1.
         -6    1    1    2    0  502 -0.20454710463E+02 -0.16372857038E+02  0.15252119899E+04  0.15351032798E+04  0.17200000000E+03 0. -1.
</event>
<event>
 4    1  0.4612011E+000  0.1877049E+03  0.7818608E-02  0.1160548E+00
         21   -1    0    0  501  502  0.00000000000E+00  0.00000000000E+00  0.63235851866E+03  0.63235851866E+03  0.00000000000E+00 0. -1.
         21   -1    0    0  502  503 -0.00000000000E+00 -0.00000000000E+00 -0.74450574417E+02  0.74450574417E+02  0.00000000000E+00 0. -1.
          6    1    1    2  501    0  0.72791633343E+02 -0.18722129141E+02  0.10167874250E+03  0.21347530696E+03  0.17200000000E+03 0. -1.
         -6    1    1    2    0  503 -0.72791633343E+02  0.18722129141E+02  0.45622920175E+03  0.49333378612E+03  0.17200000000E+03 0. -1.
</event>
<event>
 4    1  0.4612011E+000  0.2304662E+03  0.7818608E-02  0.1126312E+00
         21   -1    0    0  501  502  0.00000000000E+00  0.00000000000E+00  0.51685025567E+03  0.51685025567E+03  0.00000000000E+00 0. -1.
         21   -1    0    0  502  503 -0.00000000000E+00 -0.00000000000E+00 -0.10301018899E+03  0.10301018899E+03  0.00000000000E+00 0.  1.
          6    1    1    2  501    0  0.12743978281E+03  0.85380170833E+02  0.19183241375E+03  0.29985721065E+03  0.17200000000E+03 0.  1.
         -6    1    1    2    0  503 -0.12743978281E+03 -0.85380170833E+02  0.22200765293E+03  0.32000323401E+03  0.17200000000E+03 0. -1.
</event>
<event>
 4    1  0.4612011E+000  0.1867470E+03  0.7818608E-02  0.1161428E+00
         21   -1    0    0  503  502  0.00000000000E+00  0.00000000000E+00  0.88280302454E+02  0.88280302454E+02  0.00000000000E+00 0. -1.
         21   -1    0    0  501  503 -0.00000000000E+00 -0.00000000000E+00 -0.39504236032E+03  0.39504236032E+03  0.00000000000E+00 0.  1.
          6    1    1    2  501    0 -0.40285177987E+02  0.60560411865E+02 -0.15337991694E+03  0.24166062561E+03  0.17200000000E+03 0.  1.
         -6    1    1    2    0  502  0.40285177987E+02 -0.60560411865E+02 -0.15338214093E+03  0.24166203717E+03  0.17200000000E+03 0. -1.
</event>
<event>
 4    1  0.4612011E+000  0.2292343E+03  0.7818608E-02  0.1127180E+00
         21   -1    0    0  503  502  0.00000000000E+00  0.00000000000E+00  0.14418877138E+03  0.14418877138E+03  0.00000000000E+00 0.  1.
         21   -1    0    0  501  503 -0.00000000000E+00 -0.00000000000E+00 -0.37259308848E+03  0.37259308848E+03  0.00000000000E+00 0. -1.
          6    1    1    2  501    0 -0.20622733221E+02  0.15013021898E+03 -0.15242118122E+03  0.27528275693E+03  0.17200000000E+03 0. -1.
         -6    1    1    2    0  502  0.20622733221E+02 -0.15013021898E+03 -0.75983135886E+02  0.24149910293E+03  0.17200000000E+03 0. -1.
</event>
<event>
 4    1  0.4612011E+000  0.1826698E+03  0.7818608E-02  0.1165244E+00
         21   -1    0    0  503  502  0.00000000000E+00  0.00000000000E+00  0.87172984468E+03  0.87172984468E+03  0.00000000000E+00 0. -1.
         21   -1    0    0  501  503 -0.00000000000E+00 -0.00000000000E+00 -0.73577952403E+02  0.73577952403E+02  0.00000000000E+00 0. -1.
          6    1    1    2  501    0 -0.50297839409E+02 -0.35417135944E+02  0.71693606902E+02  0.19623511265E+03  0.17200000000E+03 0. -1.
         -6    1    1    2    0  502  0.50297839409E+02  0.35417135944E+02  0.72645828538E+03  0.74907268443E+03  0.17200000000E+03 0. -1.
</event>
<event>
 4    1  0.4612011E+000  0.1825952E+03  0.7818608E-02  0.1165315E+00
         21   -1    0    0  503  502  0.00000000000E+00  0.00000000000E+00  0.34999725673E+03  0.34999725673E+03  0.00000000000E+00 0. -1.
         21   -1    0    0  501  503 -0.00000000000E+00 -0.00000000000E+00 -0.10613420503E+03  0.10613420503E+03  0.00000000000E+00 0. -1.
          6    1    1    2  501    0  0.56414235864E+02  0.23967331073E+02  0.48932636126E+02  0.18903809628E+03  0.17200000000E+03 0. -1.
         -6    1    1    2    0  502 -0.56414235864E+02 -0.23967331073E+02  0.19493041558E+03  0.26709336548E+03  0.17200000000E+03 0. -1.
</event>
<event>
 4    1  0.4612011E+000  0.3093373E+03  0.7818608E-02  0.1080664E+00
         21   -1    0    0  503  502  0.00000000000E+00  0.00000000000E+00  0.58958443626E+02  0.58958443626E+02  0.00000000000E+00 0.  1.
         21   -1    0    0  501  503 -0.00000000000E+00 -0.00000000000E+00 -0.17047934911E+04  0.17047934911E+04  0.00000000000E+00 0. -1.
          6    1    1    2  501    0 -0.25648951502E+03  0.17852166330E+02 -0.10160833154E+04  0.10621275230E+04  0.17200000000E+03 0.  1.
         -6    1    1    2    0  502  0.25648951502E+03 -0.17852166330E+02 -0.62975173206E+03  0.70162441177E+03  0.17200000000E+03 0. -1.
</event>
<event>
 4    1  0.4612011E+000  0.2262000E+03  0.7818608E-02  0.1129343E+00
         21   -1    0    0  501  502  0.00000000000E+00  0.00000000000E+00  0.52162180615E+02  0.52162180615E+02  0.00000000000E+00 0. -1.
         21   -1    0    0  502  503 -0.00000000000E+00 -0.00000000000E+00 -0.11027191849E+04  0.11027191849E+04  0.00000000000E+00 0. -1.
          6    1    1    2  501    0  0.12572750934E+03 -0.75993574888E+02 -0.33336122998E+03  0.40285995046E+03  0.17200000000E+03 0. -1.
         -6    1    1    2    0  503 -0.12572750934E+03  0.75993574888E+02 -0.71719577435E+03  0.75202141510E+03  0.17200000000E+03 0. -1.
</event>
<event>
 4    1  0.4612011E+000  0.1788237E+03  0.7818608E-02  0.1168946E+00
         21   -1    0    0  501  502  0.00000000000E+00  0.00000000000E+00  0.13806093140E+04  0.13806093140E+04  0.00000000000E+00 0.  1.
         21   -1    0    0  502  503 -0.00000000000E+00 -0.00000000000E+00 -0.25672569429E+02  0.25672569429E+02  0.00000000000E+00 0.  1.
          6    1    1    2  501    0  0.48920344463E+02  0.84934570471E+00  0.89734459283E+03  0.91498920200E+03  0.17200000000E+03 0.  1.
         -6    1    1    2    0  503 -0.48920344463E+02 -0.84934570471E+00  0.45759215170E+03  0.49129268139E+03  0.17200000000E+03 0.  1.
</event>
<event>
 4    1  0.4612011E+000  0.2160409E+03  0.7818608E-02  0.1136870E+00
         21   -1    0    0  503  502  0.00000000000E+00  0.00000000000E+00  0.28185315014E+02  0.28185315014E+02  0.00000000000E+00 0.  1.
         21   -1    0    0  501  503 -0.00000000000E+00 -0.00000000000E+00 -0.17211644723E+04  0.17211644723E+04  0.00000000000E+00 0. -1.
          6    1    1    2  501    0 -0.63018826618E+02  0.11453517280E+03 -0.10167380176E+04  0.10394372876E+04  0.17200000000E+03 0. -1.
         -6    1    1    2    0  502  0.63018826618E+02 -0.11453517280E+03 -0.67624113966E+03  0.70991249974E+03  0.17200000000E+03 0.  1.
</event>
<event>
 4    1  0.4612011E+000  0.1904031E+03  0.7818608E-02  0.1158098E+00
         21   -1    0    0  501  502  0.00000000000E+00  0.00000000000E+00  0.11144589941E+04  0.11144589941E+04  0.00000000000E+00 0.  1.
         21   -1    0    0  502  503 -0.00000000000E+00 -0.00000000000E+00 -0.11765566275E+03  0.11765566275E+03  0.00000000000E+00 0. -1.
          6    1    1    2  501    0 -0.74463896762E+02 -0.33532979860E+02  0.10224182188E+04  0.10399963206E+04  0.17200000000E+03 0.  1.
         -6    1    1    2    0  503  0.74463896762E+02  0.33532979860E+02 -0.25614887487E+02  0.19211833624E+03  0.17200000000E+03 0. -1.
</event>
<event>
 4    1  0.4612011E+000  0.2409364E+03  0.7818608E-02  0.1119171E+00
         21   -1    0    0  501  502  0.00000000000E+00  0.00000000000E+00  0.52334077107E+03  0.52334077107E+03  0.00000000000E+00 0. -1.
         21   -1    0    0  502  503 -0.00000000000E+00 -0.00000000000E+00 -0.11508860095E+03  0.11508860095E+03  0.00000000000E+00 0. -1.
          6    1    1    2  501    0 -0.16698433667E+03  0.24136607896E+02  0.26485896125E+03  0.35805113306E+03  0.17200000000E+03 0. -1.
         -6    1    1    2    0  503  0.16698433667E+03 -0.24136607896E+02  0.14339320887E+03  0.28037823896E+03  0.17200000000E+03 0. -1.
</event>
<event>
 4    1  0.4612011E+000  0.2642896E+03  0.7818608E-02  0.1104593E+00
         21   -1    0    0  503  502  0.00000000000E+00  0.00000000000E+00  0.23569457738E+03  0.23569457738E+03  0.00000000000E+00 0.  1.
         21   -1    0    0  501  503 -0.00000000000E+00 -0.00000000000E+00 -0.33702127184E+03  0.33702127184E+03  0.00000000000E+00 0. -1.
          6    1    1    2  501    0  0.14992000383E+03  0.13337543733E+03  0.48809243792E+02  0.26875892006E+03  0.17200000000E+03 0.  1.
         -6    1    1    2    0  502 -0.14992000383E+03 -0.13337543733E+03 -0.15013593825E+03  0.30395692916E+03  0.17200000000E+03 0. -1.
</event>
<event>
 4    1  0.4612011E+000  0.2332520E+03  0.7818608E-02  0.1124372E+00
         21   -1    0    0  503  502  0.00000000000E+00  0.00000000000E+00  0.21306011362E+03  0.21306011362E+03  0.00000000000E+00 0.  1.
         21   -1    0    0  501  503 -0.00000000000E+00 -0.00000000000E+00 -0.38078189361E+03  0.38078189361E+03  0.00000000000E+00 0.  1.
          6    1    1    2  501    0 -0.12309521112E+03  0.98336480570E+02 -0.25427039270E+03  0.34505061515E+03  0.17200000000E+03 0.  1.
         -6    1    1    2    0  502  0.12309521112E+03 -0.98336480570E+02  0.86548612712E+02  0.24879139208E+03  0.17200000000E+03 0.  1.
</event>
<event>
 4    1  0.4612011E+000  0.1742555E+03  0.7818608E-02  0.1173481E+00
         21   -1    0    0  503  502  0.00000000000E+00  0.00000000000E+00  0.48991302393E+03  0.48991302393E+03  0.00000000000E+00 0.  1.
         21   -1    0    0  501  503 -0.00000000000E+00 -0.00000000000E+00 -0.62226652590E+02  0.62226652590E+02  0.00000000000E+00 0.  1.
          6    1    1    2  501    0  0.71828268565E+01  0.27007259694E+02  0.19647488459E+03  0.26261638439E+03  0.17200000000E+03 0. -1.
         -6    1    1    2    0  502 -0.71828268565E+01 -0.27007259694E+02  0.23121148675E+03  0.28952329213E+03  0.17200000000E+03 0. -1.
</event>
<event>
 4    1  0.4612011E+000  0.1983785E+03  0.7818608E-02  0.1151114E+00
         21   -1    0    0  503  502  0.00000000000E+00  0.00000000000E+00  0.95558909815E+02  0.95558909815E+02  0.00000000000E+00 0.  1.
         21   -1    0    0  501  503 -0.00000000000E+00 -0.00000000000E+00 -0.13532099119E+04  0.13532099119E+04  0.00000000000E+00 0. -1.
          6    1    1    2  501    0 -0.91606764084E+02 -0.37124430713E+02 -0.12330091692E+04  0.12488657389E+04  0.17200000000E+03 0. -1.
         -6    1    1    2    0  502  0.91606764084E+02  0.37124430713E+02 -0.24641832910E+02  0.19990308279E+03  0.17200000000E+03 0.  1.
</event>
<event>
 4    1  0.4612011E+000  0.2600356E+03  0.7818608E-02  0.1107122E+00
         21   -1    0    0  501  502  0.00000000000E+00  0.00000000000E+00  0.31840401091E+03  0.31840401091E+03  0.00000000000E+00 0.  1.
         21   -1    0    0  502  503 -0.00000000000E+00 -0.00000000000E+00 -0.83171619678E+03  0.83171619678E+03  0.00000000000E+00 0.  1.
          6    1    1    2  501    0  0.16425180014E+03  0.10514691344E+03  0.23958579833E+03  0.35358150689E+03  0.17200000000E+03 0.  1.
         -6    1    1    2    0  503 -0.16425180014E+03 -0.10514691344E+03 -0.75289798420E+03  0.79653870079E+03  0.17200000000E+03 0.  1.
</event>
<event>
 4    1  0.4612011E+000  0.1903581E+03  0.7818608E-02  0.1158139E+00
         21   -1    0    0  501  502  0.00000000000E+00  0.00000000000E+00  0.10145599467E+03  0.10145599467E+03  0.00000000000E+00 0. -1.
         21   -1    0    0  502  503 -0.00000000000E+00 -0.00000000000E+00 -0.48660875243E+03  0.48660875243E+03  0.00000000000E+00 0. -1.
          6    1    1    2  501    0  0.55241506106E+02 -0.60004842944E+02 -0.40923340754E+02  0.19470728028E+03  0.17200000000E+03 0. -1.
         -6    1    1    2    0  503 -0.55241506106E+02  0.60004842944E+02 -0.34422941701E+03  0.39335746683E+03  0.17200000000E+03 0. -1.
</event>
<event>
 4    1  0.4612011E+000  0.1987978E+03  0.7818608E-02  0.1150757E+00
         21   -1    0    0  501  502  0.00000000000E+00  0.00000000000E+00  0.29974914553E+02  0.29974914553E+02  0.00000000000E+00 0.  1.
         21   -1    0    0  502  503 -0.00000000000E+00 -0.00000000000E+00 -0.18688214088E+04  0.18688214088E+04  0.00000000000E+00 0. -1.
          6    1    1    2  501    0  0.10313451686E+02  0.99147439645E+02 -0.40420603256E+03  0.45044766492E+03  0.17200000000E+03 0.  1.
         -6    1    1    2    0  503 -0.10313451686E+02 -0.99147439645E+02 -0.14346404617E+04  0.14483486584E+04  0.17200000000E+03 0. -1.
</event>
<event>
 4    1  0.4612011E+000  0.1837097E+03  0.7818608E-02  0.1164260E+00
         21   -1    0    0  503  502  0.00000000000E+00  0.00000000000E+00  0.12844702450E+03  0.12844702450E+03  0.00000000000E+00 0.  1.
         21   -1    0    0  501  503 -0.00000000000E+00 -0.00000000000E+00 -0.34041902649E+03  0.34041902649E+03  0.00000000000E+00 0.  1.
          6    1    1    2  501    0 -0.59263068976E+02 -0.25556508219E+02 -0.21796597560E+03  0.28505861323E+03  0.17200000000E+03 0.  1.
         -6    1    1    2    0  502  0.59263068976E+02  0.25556508219E+02  0.59939736073E+01  0.18380743776E+03  0.17200000000E+03 0.  1.
</event>
<event>
 4    1  0.4612011E+000  0.2072954E+03  0.7818608E-02  0.1143726E+00
         21   -1    0    0  501  502  0.00000000000E+00  0.00000000000E+00  0.31244377773E+03  0.31244377773E+03  0.00000000000E+00 0.  1.
         21   -1    0    0  502  503 -0.00000000000E+00 -0.00000000000E+00 -0.24256443060E+03  0.24256443060E+03  0.00000000000E+00 0.  1.
          6    1    1    2  501    0  0.17192697458E+02  0.11441932423E+03  0.21754574975E+03  0.30049546392E+03  0.17200000000E+03 0.  1.
         -6    1    1    2    0  503 -0.17192697458E+02 -0.11441932423E+03 -0.14766640262E+03  0.25451274440E+03  0.17200000000E+03 0.  1.
</event>
<event>
 4    1  0.4612011E+000  0.2459478E+03  0.7818608E-02  0.1115893E+00
         21   -1    0    0  503  502  0.00000000000E+00  0.00000000000E+00  0.23073293289E+04  0.23073293289E+04  0.00000000000E+00 0. -1.
         21   -1    0    0  501  503 -0.00000000000E+00 -0.00000000000E+00 -0.30140373773E+03  0.30140373773E+03  0.00000000000E+00 0.  1.
          6    1    1    2  501    0 -0.47722011057E+02  0.16920090885E+03 -0.24338541186E+03  0.34601560167E+03  0.17200000000E+03 0.  1.
         -6    1    1    2    0  502  0.47722011057E+02 -0.16920090885E+03  0.22493110031E+04  0.22627174650E+04  0.17200000000E+03 0. -1.
</event>
<event>
 4    1  0.4612011E+000  0.2180526E+03  0.7818608E-02  0.1135343E+00
         21   -1    0    0  503  502  0.00000000000E+00  0.00000000000E+00  0.75931432434E+02  0.75931432434E+02  0.00000000000E+00 0. -1.
         21   -1    0    0  501  503 -0.00000000000E+00 -0.00000000000E+00 -0.63810644142E+03  0.63810644142E+03  0.00000000000E+00 0.  1.
          6    1    1    2  501    0 -0.10333924838E+03  0.85346041601E+02 -0.32989106587E+03  0.39544286871E+03  0.17200000000E+03 0. -1.
         -6    1    1    2    0  502  0.10333924838E+03 -0.85346041601E+02 -0.23228394312E+03  0.31859500515E+03  0.17200000000E+03 0.  1.
</event>
<event>
 4    1  0.4612011E+000  0.2453423E+03  0.7818608E-02  0.1116284E+00
         21   -1    0    0  503  502  0.00000000000E+00  0.00000000000E+00  0.31184590042E+03  0.31184590042E+03  0.00000000000E+00 0. -1.
         21   -1    0    0  501  503 -0.00000000000E+00 -0.00000000000E+00 -0.21723397919E+03  0.21723397919E+03  0.00000000000E+00 0. -1.
          6    1    1    2  501    0  0.12669836406E+02 -0.17449453327E+03 -0.41012151944E+02  0.24874658490E+03  0.17200000000E+03 0. -1.
         -6    1    1    2    0  502 -0.12669836406E+02  0.17449453327E+03  0.13562407318E+03  0.28033329471E+03  0.17200000000E+03 0. -1.
</event>
<event>
 4    1  0.4612011E+000  0.2793816E+03  0.7818608E-02  0.1096027E+00
         21   -1    0    0  501  502  0.00000000000E+00  0.00000000000E+00  0.18268537426E+03  0.18268537426E+03  0.00000000000E+00 0.  1.
         21   -1    0    0  502  503 -0.00000000000E+00 -0.00000000000E+00 -0.55423592873E+03  0.55423592873E+03  0.00000000000E+00 0.  1.
          6    1    1    2  501    0  0.50288375266E+02 -0.21433892701E+03 -0.94132803838E+01  0.27954016914E+03  0.17200000000E+03 0.  1.
         -6    1    1    2    0  503 -0.50288375266E+02  0.21433892701E+03 -0.36213727409E+03  0.45738113385E+03  0.17200000000E+03 0.  1.
</event>
<event>
 4    1  0.4612011E+000  0.1795505E+03  0.7818608E-02  0.1168239E+00
         21   -1    0    0  503  502  0.00000000000E+00  0.00000000000E+00  0.21990070241E+03  0.21990070241E+03  0.00000000000E+00 0. -1.
         21   -1    0    0  501  503 -0.00000000000E+00 -0.00000000000E+00 -0.14757931776E+03  0.14757931776E+03  0.00000000000E+00 0. -1.
          6    1    1    2  501    0  0.43507386737E+02  0.27594955600E+02  0.21225469563E+02  0.18080070474E+03  0.17200000000E+03 0.  1.
         -6    1    1    2    0  502 -0.43507386737E+02 -0.27594955600E+02  0.51095915087E+02  0.18667931544E+03  0.17200000000E+03 0.  1.
</event>
<event>
 4    1  0.4612011E+000  0.1737080E+03  0.7818608E-02  0.1174035E+00
         21   -1    0    0  503  502  0.00000000000E+00  0.00000000000E+00  0.10065885278E+04  0.10065885278E+04  0.00000000000E+00 0. -1.
         21   -1    0    0  501  503 -0.00000000000E+00 -0.00000000000E+00 -0.11329429692E+03  0.11329429692E+03  0.00000000000E+00 0. -1.
          6    1    1    2  501    0 -0.18751172932E+02  0.15455023406E+02 -0.33535301905E+02  0.17691546204E+03  0.17200000000E+03 0. -1.
         -6    1    1    2    0  502  0.18751172932E+02 -0.15455023406E+02  0.92682953274E+03  0.94296736263E+03  0.17200000000E+03 0. -1.
</event>
<event>
 4    1  0.4612011E+000  0.1927884E+03  0.7818608E-02  0.1155970E+00
         21   -1    0    0  503  502  0.00000000000E+00  0.00000000000E+00  0.11406806062E+04  0.11406806062E+04  0.00000000000E+00 0.  1.
         21   -1    0    0  501  503 -0.00000000000E+00 -0.00000000000E+00 -0.41898753295E+02  0.41898753295E+02  0.00000000000E+00 0.  1.
          6    1    1    2  501    0  0.70099982241E+02 -0.51665925190E+02  0.27058827287E+03  0.33224296645E+03  0.17200000000E+03 0.  1.
         -6    1    1    2    0  502 -0.70099982241E+02  0.51665925190E+02  0.82819357999E+03  0.85033639301E+03  0.17200000000E+03 0.  1.
</event>
<event>
 4    1  0.4612011E+000  0.1950141E+03  0.7818608E-02  0.1154015E+00
         21   -1    0    0  503  502  0.00000000000E+00  0.00000000000E+00  0.28618985539E+03  0.28618985539E+03  0.00000000000E+00 0.  1.
         21   -1    0    0  501  503 -0.00000000000E+00 -0.00000000000E+00 -0.16887792538E+03  0.16887792538E+03  0.00000000000E+00 0.  1.
          6    1    1    2  501    0  0.64339623437E+02 -0.65626967631E+02 -0.46386552600E+02  0.20045497820E+03  0.17200000000E+03 0.  1.
         -6    1    1    2    0  502 -0.64339623437E+02  0.65626967631E+02  0.16369848261E+03  0.25461280257E+03  0.17200000000E+03 0.  1.
</event>
<event>
 4    1  0.4612011E+000  0.2173265E+03  0.7818608E-02  0.1135892E+00
         21   -1    0    0  501  502  0.00000000000E+00  0.00000000000E+00  0.36349287911E+03  0.36349287911E+03  0.00000000000E+00 0.  1.
         21   -1    0    0  502  503 -0.00000000000E+00 -0.00000000000E+00 -0.16871905200E+03  0.16871905200E+03  0.00000000000E+00 0.  1.
          6    1    1    2  501    0 -0.45453758641E+02  0.12482300718E+03  0.22497005271E+03  0.31279762133E+03  0.17200000000E+03 0.  1.
         -6    1    1    2    0  503  0.45453758641E+02 -0.12482300718E+03 -0.30196225598E+02  0.21941430978E+03  0.17200000000E+03 0.  1.
</event>
<event>
 4    1  0.4612011E+000  0.1847477E+03  0.7818608E-02  0.1163286E+00
         21   -1    0    0  503  502  0.00000000000E+00  0.00000000000E+00  0.35652431315E+03  0.35652431315E+03  0.00000000000E+00 0.  1.
         21   -1    0    0  501  503 -0.00000000000E+00 -0.00000000000E+00 -0.32624853842E+03  0.32624853842E+03  0.00000000000E+00 0.  1.
          6    1    1    2  501    0  0.54722632211E+01  0.67214321722E+02 -0.27182158263E+03  0.32866195930E+03  0.17200000000E+03 0.  1.
         -6    1    1    2    0  502 -0.54722632211E+01 -0.67214321722E+02  0.30209735736E+03  0.35411089228E+03  0.17200000000E+03 0.  1.
</event>
<event>
 4    1  0.4612011E+000  0.1943054E+03  0.7818608E-02  0.1154634E+00
         21   -1    0    0  503  502  0.00000000000E+00  0.00000000000E+00  0.11878779364E+04  0.11878779364E+04  0.00000000000E+00 0. -1.
         21   -1    0    0  501  503 -0.00000000000E+00 -0.00000000000E+00 -0.83356696928E+02  0.83356696928E+02  0.00000000000E+00 0. -1.
          6    1    1    2  501    0  0.15893978150E+02 -0.88983052955E+02  0.52296751835E+02  0.20122015930E+03  0.17200000000E+03 0. -1.
         -6    1    1    2    0  502 -0.15893978150E+02  0.88983052955E+02  0.10522244876E+04  0.10700144740E+04  0.17200000000E+03 0. -1.
</event>
<event>
 4    1  0.4612011E+000  0.1972904E+03  0.7818608E-02  0.1152045E+00
         21   -1    0    0  501  502  0.00000000000E+00  0.00000000000E+00  0.46740852813E+03  0.46740852813E+03  0.00000000000E+00 0. -1.
         21   -1    0    0  502  503 -0.00000000000E+00 -0.00000000000E+00 -0.90903349245E+02  0.90903349245E+02  0.00000000000E+00 0.  1.
          6    1    1    2  501    0  0.26783574852E+02 -0.92855517973E+02  0.26911905130E+03  0.33368933287E+03  0.17200000000E+03 0. -1.
         -6    1    1    2    0  503 -0.26783574852E+02  0.92855517973E+02  0.10738612758E+03  0.22462254450E+03  0.17200000000E+03 0.  1.
</event>
<event>
 4    1  0.4612011E+000  0.2237918E+03  0.7818608E-02  0.1131087E+00
         21   -1    0    0  503  502  0.00000000000E+00  0.00000000000E+00  0.35931037268E+02  0.35931037268E+02  0.00000000000E+00 0. -1.
         21   -1    0    0  501  503 -0.00000000000E+00 -0.00000000000E+00 -0.14210778687E+04  0.14210778687E+04  0.00000000000E+00 0. -1.
          6    1    1    2  501    0 -0.82385620836E+02 -0.11709554006E+03 -0.59174846923E+03  0.63265235862E+03  0.17200000000E+03 0. -1.
         -6    1    1    2    0  502  0.82385620836E+02  0.11709554006E+03 -0.79339836224E+03  0.82435654739E+03  0.17200000000E+03 0. -1.
</event>
<event>
 4    1  0.4612011E+000  0.1950480E+03  0.7818608E-02  0.1153986E+00
         21   -1    0    0  503  502  0.00000000000E+00  0.00000000000E+00  0.78805893799E+03  0.78805893799E+03  0.00000000000E+00 0.  1.
         21   -1    0    0  501  503 -0.00000000000E+00 -0.00000000000E+00 -0.50234682476E+02  0.50234682476E+02  0.00000000000E+00 0. -1.
          6    1    1    2  501    0 -0.67514857939E+02 -0.62461787226E+02  0.28613104924E+03  0.34628703159E+03  0.17200000000E+03 0. -1.
         -6    1    1    2    0  502  0.67514857939E+02  0.62461787226E+02  0.45169320627E+03  0.49200658888E+03  0.17200000000E+03 0. -1.
</event>
<event>
 4    1  0.4612011E+000  0.1744592E+03  0.7818608E-02  0.1173276E+00
         21   -1    0    0  501  502  0.00000000000E+00  0.00000000000E+00  0.11238616295E+04  0.11238616295E+04  0.00000000000E+00 0.  1.
         21   -1    0    0  502  503 -0.00000000000E+00 -0.00000000000E+00 -0.48717326721E+02  0.48717326721E+02  0.00000000000E+00 0.  1.
          6    1    1    2  501    0 -0.15996913880E+02  0.24415570472E+02  0.92828318039E+03  0.94453463903E+03  0.17200000000E+03 0.  1.
         -6    1    1    2    0  503  0.15996913880E+02 -0.24415570472E+02  0.14686112240E+03  0.22804431720E+03  0.17200000000E+03 0.  1.
</event>
<event>
 4    1  0.4612011E+000  0.1762257E+03  0.7818608E-02  0.1171507E+00
         21   -1    0    0  501  502  0.00000000000E+00  0.00000000000E+00  0.20697390941E+04  0.20697390941E+04  0.00000000000E+00 0. -1.
         21   -1    0    0  502  503 -0.00000000000E+00 -0.00000000000E+00 -0.26882962046E+02  0.26882962046E+02  0.00000000000E+00 0. -1.
          6    1    1    2  501    0 -0.45126818875E+01 -0.38093750736E+02  0.17182644806E+04  0.17272777204E+04  0.17200000000E+03 0. -1.
         -6    1    1    2    0  503  0.45126818875E+01  0.38093750736E+02  0.32459165143E+03  0.36934433571E+03  0.17200000000E+03 0. -1.
</event>
<event>
 4    1  0.4612011E+000  0.3192551E+03  0.7818608E-02  0.1075993E+00
         21   -1    0    0  501  502  0.00000000000E+00  0.00000000000E+00  0.46466389137E+03  0.46466389137E+03  0.00000000000E+00 0.  1.
         21   -1    0    0  502  503 -0.00000000000E+00 -0.00000000000E+00 -0.41606507347E+03  0.41606507347E+03  0.00000000000E+00 0. -1.
          6    1    1    2  501    0  0.24787200675E+03 -0.10439965687E+03  0.32709598428E+03  0.45707286401E+03  0.17200000000E+03 0.  1.
         -6    1    1    2    0  503 -0.24787200675E+03  0.10439965687E+03 -0.27849716639E+03  0.42365610083E+03  0.17200000000E+03 0. -1.
</event>
<event>
 4    1  0.4612011E+000  0.1980310E+03  0.7818608E-02  0.1151411E+00
         21   -1    0    0  503  502  0.00000000000E+00  0.00000000000E+00  0.43363947370E+03  0.43363947370E+03  0.00000000000E+00 0. -1.
         21   -1    0    0  501  503 -0.00000000000E+00 -0.00000000000E+00 -0.11947562706E+03  0.11947562706E+03  0.00000000000E+00 0. -1.
          6    1    1    2  501    0 -0.96877984800E+02  0.15714277786E+02  0.20734420440E+02  0.19911353208E+03  0.17200000000E+03 0. -1.
         -6    1    1    2    0  502  0.96877984800E+02 -0.15714277786E+02  0.29342942621E+03  0.35400156868E+03  0.17200000000E+03 0. -1.
</event>
<event>
 4    1  0.4612011E+000  0.1736880E+03  0.7818608E-02  0.1174056E+00
         21   -1    0    0  503  502  0.00000000000E+00  0.00000000000E+00  0.76724628870E+02  0.76724628870E+02  0.00000000000E+00 0.  1.
         21   -1    0    0  501  503 -0.00000000000E+00 -0.00000000000E+00 -0.44592442545E+03  0.44592442545E+03  0.00000000000E+00 0.  1.
          6    1    1    2  501    0  0.20653363418E+02  0.12528496293E+02 -0.27446429130E+03  0.32480482115E+03  0.17200000000E+03 0.  1.
         -6    1    1    2    0  502 -0.20653363418E+02 -0.12528496293E+02 -0.94735505277E+02  0.19784423317E+03  0.17200000000E+03 0.  1.
</event>
<event>
 4    1  0.4612011E+000  0.1923122E+03  0.7818608E-02  0.1156392E+00
         21   -1    0    0  503  502  0.00000000000E+00  0.00000000000E+00  0.90530937648E+02  0.90530937648E+02  0.00000000000E+00 0.  1.
         21   -1    0    0  501  503 -0.00000000000E+00 -0.00000000000E+00 -0.40918634340E+03  0.40918634340E+03  0.00000000000E+00 0.  1.
          6    1    1    2  501    0 -0.40079294704E+02 -0.76115873520E+02 -0.14926807422E+03  0.24344390329E+03  0.17200000000E+03 0.  1.
         -6    1    1    2    0  502  0.40079294704E+02  0.76115873520E+02 -0.16938733153E+03  0.25627337776E+03  0.17200000000E+03 0.  1.
</event>
<event>
 4    1  0.4612011E+000  0.1918502E+03  0.7818608E-02  0.1156803E+00
         21   -1    0    0  503  502  0.00000000000E+00  0.00000000000E+00  0.18776976387E+03  0.18776976387E+03  0.00000000000E+00 0. -1.
         21   -1    0    0  501  503 -0.00000000000E+00 -0.00000000000E+00 -0.51680608092E+03  0.51680608092E+03  0.00000000000E+00 0.  1.
          6    1    1    2  501    0  0.74056436010E+02  0.41691220200E+02 -0.44206872708E+03  0.48190380058E+03  0.17200000000E+03 0.  1.
         -6    1    1    2    0  502 -0.74056436010E+02 -0.41691220200E+02  0.11303241003E+03  0.22267204421E+03  0.17200000000E+03 0. -1.
</event>
<event>
 4    1  0.4612011E+000  0.1761545E+03  0.7818608E-02  0.1171577E+00
         21   -1    0    0  503  502  0.00000000000E+00  0.00000000000E+00  0.34681223793E+03  0.34681223793E+03  0.00000000000E+00 0.  1.
         21   -1    0    0  501  503 -0.00000000000E+00 -0.00000000000E+00 -0.10513286235E+03  0.10513286235E+03  0.00000000000E+00 0.  1.
          6    1    1    2  501    0 -0.15947662633E+02 -0.34526537288E+02  0.33627480246E+02  0.17933548770E+03  0.17200000000E+03 0.  1.
         -6    1    1    2    0  502  0.15947662633E+02  0.34526537288E+02  0.20805189533E+03  0.27260961258E+03  0.17200000000E+03 0.  1.
</event>
<event>
 4    1  0.4612011E+000  0.2164110E+03  0.7818608E-02  0.1136587E+00
         21   -1    0    0  503  502  0.00000000000E+00  0.00000000000E+00  0.69776523341E+03  0.69776523341E+03  0.00000000000E+00 0. -1.
         21   -1    0    0  501  503 -0.00000000000E+00 -0.00000000000E+00 -0.71806592500E+02  0.71806592500E+02  0.00000000000E+00 0. -1.
          6    1    1    2  501    0 -0.47254981036E+02 -0.12254253338E+03  0.41128651567E+03  0.46474756986E+03  0.17200000000E+03 0. -1.
         -6    1    1    2    0  502  0.47254981036E+02  0.12254253338E+03  0.21467212524E+03  0.30482425605E+03  0.17200000000E+03 0. -1.
</event>
<event>
 4    1  0.4612011E+000  0.1738378E+03  0.7818608E-02  0.1173904E+00
         21   -1    0    0  503  502  0.00000000000E+00  0.00000000000E+00  0.49750285001E+03  0.49750285001E+03  0.00000000000E+00 0. -1.
         21   -1    0    0  501  503 -0.00000000000E+00 -0.00000000000E+00 -0.17172748009E+03  0.17172748009E+03  0.00000000000E+00 0. -1.
          6    1    1    2  501    0  0.13455575696E+02  0.21319643772E+02 -0.10611571847E+03  0.20366670183E+03  0.17200000000E+03 0. -1.
         -6    1    1    2    0  502 -0.13455575696E+02 -0.21319643772E+02  0.43189108839E+03  0.46556362826E+03  0.17200000000E+03 0. -1.
</event>
<event>
 4    1  0.4612011E+000  0.1869052E+03  0.7818608E-02  0.1161283E+00
         21   -1    0    0  501  502  0.00000000000E+00  0.00000000000E+00  0.71330677665E+03  0.71330677665E+03  0.00000000000E+00 0. -1.
         21   -1    0    0  502  503 -0.00000000000E+00 -0.00000000000E+00 -0.49340580816E+02  0.49340580816E+02  0.00000000000E+00 0. -1.
          6    1    1    2  501    0 -0.69291757823E+02  0.23413893807E+02  0.29911938151E+03  0.35271229425E+03  0.17200000000E+03 0. -1.
         -6    1    1    2    0  503  0.69291757823E+02 -0.23413893807E+02  0.36484681433E+03  0.40993506321E+03  0.17200000000E+03 0. -1.
</event>
<event>
 4    1  0.4612011E+000  0.2018708E+03  0.7818608E-02  0.1148170E+00
         21   -1    0    0  503  502  0.00000000000E+00  0.00000000000E+00  0.98787796629E+02  0.98787796629E+02  0.00000000000E+00 0. -1.
         21   -1    0    0  501  503 -0.00000000000E+00 -0.00000000000E+00 -0.82544940756E+03  0.82544940756E+03  0.00000000000E+00 0.  1.
          6    1    1    2  501    0 -0.10171848684E+03  0.28656331815E+02 -0.69017945235E+03  0.71909631647E+03  0.17200000000E+03 0.  1.
         -6    1    1    2    0  502  0.10171848684E+03 -0.28656331815E+02 -0.36482158577E+02  0.20514088771E+03  0.17200000000E+03 0. -1.
</event>
<event>
 4    1  0.4612011E+000  0.1763624E+03  0.7818608E-02  0.1171371E+00
         21   -1    0    0  503  502  0.00000000000E+00  0.00000000000E+00  0.82619844160E+02  0.82619844160E+02  0.00000000000E+00 0.  1.
         21   -1    0    0  501  503 -0.00000000000E+00 -0.00000000000E+00 -0.39491909133E+03  0.39491909133E+03  0.00000000000E+00 0. -1.
          6    1    1    2  501    0  0.21417988397E+02 -0.32572552898E+02 -0.20776029018E+03  0.27252163145E+03  0.17200000000E+03 0. -1.
         -6    1    1    2    0  502 -0.21417988397E+02  0.32572552898E+02 -0.10453895698E+03  0.20501730404E+03  0.17200000000E+03 0.  1.
</event>
<event>
 4    1  0.4612011E+000  0.4246732E+03  0.7818608E-02  0.1035556E+00
         21   -1    0    0  503  502  0.00000000000E+00  0.00000000000E+00  0.43804197956E+03  0.43804197956E+03  0.00000000000E+00 0.  1.
         21   -1    0    0  501  503 -0.00000000000E+00 -0.00000000000E+00 -0.61192489298E+03  0.61192489298E+03  0.00000000000E+00 0. -1.
          6    1    1    2  501    0  0.31057788573E+03 -0.23303368145E+03 -0.38723231761E+03  0.57471400505E+03  0.17200000000E+03 0. -1.
         -6    1    1    2    0  502 -0.31057788573E+03  0.23303368145E+03  0.21334940419E+03  0.47525286750E+03  0.17200000000E+03 0.  1.
</event>
<event>
 4    1  0.4612011E+000  0.1789909E+03  0.7818608E-02  0.1168783E+00
         21   -1    0    0  501  502  0.00000000000E+00  0.00000000000E+00  0.19161023384E+03  0.19161023384E+03  0.00000000000E+00 0. -1.
         21   -1    0    0  502  503 -0.00000000000E+00 -0.00000000000E+00 -0.27744617513E+03  0.27744617513E+03  0.00000000000E+00 0. -1.
          6    1    1    2  501    0  0.37544665116E+01 -0.49392687383E+02  0.10491874573E+03  0.20747452082E+03  0.17200000000E+03 0. -1.
         -6    1    1    2    0  503 -0.37544665116E+01  0.49392687383E+02 -0.19075468702E+03  0.26158188814E+03  0.17200000000E+03 0. -1.
</event>
<event>
 4    1  0.4612011E+000  0.2019038E+03  0.7818608E-02  0.1148143E+00
         21   -1    0    0  503  502  0.00000000000E+00  0.00000000000E+00  0.42188658232E+02  0.42188658232E+02  0.00000000000E+00 0. -1.
         21   -1    0    0  501  503 -0.00000000000E+00 -0.00000000000E+00 -0.96912444179E+03  0.96912444179E+03  0.00000000000E+00 0.  1.
          6    1    1    2  501    0  0.88274513912E+02 -0.58213036272E+02 -0.43596973795E+03  0.48045266136E+03  0.17200000000E+03 0.  1.
         -6    1    1    2    0  502 -0.88274513912E+02  0.58213036272E+02 -0.49096604561E+03  0.53086043866E+03  0.17200000000E+03 0.  1.
</event>
<event>
 4    1  0.4612011E+000  0.1983711E+03  0.7818608E-02  0.1151121E+00
         21   -1    0    0  503  502  0.00000000000E+00  0.00000000000E+00  0.21343979279E+02  0.21343979279E+02  0.00000000000E+00 0.  1.
         21   -1    0    0  501  503 -0.00000000000E+00 -0.00000000000E+00 -0.26018471216E+04  0.26018471216E+04  0.00000000000E+00 0.  1.
          6    1    1    2  501    0  0.98552285174E+02  0.73843090669E+01 -0.19982735033E+04  0.20080956339E+04  0.17200000000E+03 0.  1.
         -6    1    1    2    0  502 -0.98552285174E+02 -0.73843090669E+01 -0.58222963902E+03  0.61509546697E+03  0.17200000000E+03 0.  1.
</event>
<event>
 4    1  0.4612011E+000  0.2101655E+03  0.7818608E-02  0.1141435E+00
         21   -1    0    0  501  502  0.00000000000E+00  0.00000000000E+00  0.29336511291E+03  0.29336511291E+03  0.00000000000E+00 0.  1.
         21   -1    0    0  502  503 -0.00000000000E+00 -0.00000000000E+00 -0.16195342718E+03  0.16195342718E+03  0.00000000000E+00 0. -1.
          6    1    1    2  501    0 -0.93946810492E+02  0.75891685531E+02  0.12608471406E+03  0.24508550805E+03  0.17200000000E+03 0.  1.
         -6    1    1    2    0  503  0.93946810492E+02 -0.75891685531E+02  0.53269716741E+01  0.21023303204E+03  0.17200000000E+03 0.  1.
</event>
<event>
 4    1  0.4612011E+000  0.1894008E+03  0.7818608E-02  0.1159003E+00
         21   -1    0    0  501  502  0.00000000000E+00  0.00000000000E+00  0.97327671253E+02  0.97327671253E+02  0.00000000000E+00 0.  1.
         21   -1    0    0  502  503 -0.00000000000E+00 -0.00000000000E+00 -0.15198161473E+04  0.15198161473E+04  0.00000000000E+00 0.  1.
          6    1    1    2  501    0 -0.60673970168E+01 -0.79068688007E+02 -0.75142903315E+01  0.18954982271E+03  0.17200000000E+03 0.  1.
         -6    1    1    2    0  503  0.60673970168E+01  0.79068688007E+02 -0.14149741857E+04  0.14275939959E+04  0.17200000000E+03 0.  1.
</event>
<event>
 4    1  0.4612011E+000  0.2438937E+03  0.7818608E-02  0.1117226E+00
         21   -1    0    0  503  502  0.00000000000E+00  0.00000000000E+00  0.10646250949E+03  0.10646250949E+03  0.00000000000E+00 0.  1.
         21   -1    0    0  501  503 -0.00000000000E+00 -0.00000000000E+00 -0.11443786463E+04  0.11443786463E+04  0.00000000000E+00 0. -1.
          6    1    1    2  501    0 -0.12567931843E+03  0.11876378641E+03 -0.96636706836E+03  0.99666917222E+03  0.17200000000E+03 0. -1.
         -6    1    1    2    0  502  0.12567931843E+03 -0.11876378641E+03 -0.71549068456E+02  0.25417198358E+03  0.17200000000E+03 0.  1.
</event>
<event>
 4    1  0.4612011E+000  0.2425866E+03  0.7818608E-02  0.1118082E+00
         21   -1    0    0  501  502  0.00000000000E+00  0.00000000000E+00  0.10131349246E+03  0.10131349246E+03  0.00000000000E+00 0.  1.
         21   -1    0    0  502  503 -0.00000000000E+00 -0.00000000000E+00 -0.58549985898E+03  0.58549985898E+03  0.00000000000E+00 0.  1.
          6    1    1    2  501    0 -0.13478593972E+03  0.10534231271E+03 -0.21150017747E+03  0.32183936593E+03  0.17200000000E+03 0.  1.
         -6    1    1    2    0  503  0.13478593972E+03 -0.10534231271E+03 -0.27268618905E+03  0.36497398550E+03  0.17200000000E+03 0.  1.
</event>
<event>
 4    1  0.4612011E+000  0.2162118E+03  0.7818608E-02  0.1136739E+00
         21   -1    0    0  501  502  0.00000000000E+00  0.00000000000E+00  0.13272287391E+03  0.13272287391E+03  0.00000000000E+00 0.  1.
         21   -1    0    0  502  503 -0.00000000000E+00 -0.00000000000E+00 -0.51846584728E+03  0.51846584728E+03  0.00000000000E+00 0. -1.
          6    1    1    2  501    0  0.85964549061E+02  0.98861710031E+02 -0.85002047522E+01  0.21637882264E+03  0.17200000000E+03 0.  1.
         -6    1    1    2    0  503 -0.85964549061E+02 -0.98861710031E+02 -0.37724276862E+03  0.43480989856E+03  0.17200000000E+03 0. -1.
</event>
<event>
 4    1  0.4612011E+000  0.1951466E+03  0.7818608E-02  0.1153900E+00
         21   -1    0    0  501  502  0.00000000000E+00  0.00000000000E+00  0.17637773464E+04  0.17637773464E+04  0.00000000000E+00 0. -1.
         21   -1    0    0  502  503 -0.00000000000E+00 -0.00000000000E+00 -0.22576190337E+02  0.22576190337E+02  0.00000000000E+00 0. -1.
          6    1    1    2  501    0  0.70075937996E+02 -0.59896133191E+02  0.68404262277E+03  0.71133430511E+03  0.17200000000E+03 0. -1.
         -6    1    1    2    0  503 -0.70075937996E+02  0.59896133191E+02  0.10571585333E+04  0.10750192316E+04  0.17200000000E+03 0. -1.
</event>
<event>
 4    1  0.4612011E+000  0.2446257E+03  0.7818608E-02  0.1116749E+00
         21   -1    0    0  503  502  0.00000000000E+00  0.00000000000E+00  0.19024239656E+03  0.19024239656E+03  0.00000000000E+00 0.  1.
         21   -1    0    0  501  503 -0.00000000000E+00 -0.00000000000E+00 -0.33546591835E+03  0.33546591835E+03  0.00000000000E+00 0. -1.
          6    1    1    2  501    0  0.13456376083E+03 -0.11022844632E+03 -0.69857265975E+01  0.24472538994E+03  0.17200000000E+03 0. -1.
         -6    1    1    2    0  502 -0.13456376083E+03  0.11022844632E+03 -0.13823779519E+03  0.28098292497E+03  0.17200000000E+03 0. -1.
</event>
<event>
 4    1  0.4612011E+000  0.2332006E+03  0.7818608E-02  0.1124407E+00
         21   -1    0    0  501  502  0.00000000000E+00  0.00000000000E+00  0.10544637110E+03  0.10544637110E+03  0.00000000000E+00 0.  1.
         21   -1    0    0  502  503 -0.00000000000E+00 -0.00000000000E+00 -0.73376444275E+03  0.73376444275E+03  0.00000000000E+00 0.  1.
          6    1    1    2  501    0 -0.14978426532E+02 -0.15676151208E+03 -0.85431217466E+02  0.24835663440E+03  0.17200000000E+03 0.  1.
         -6    1    1    2    0  503  0.14978426532E+02  0.15676151208E+03 -0.54288685418E+03  0.59085417945E+03  0.17200000000E+03 0.  1.
</event>
<event>
 4    1  0.4612011E+000  0.2122615E+03  0.7818608E-02  0.1139788E+00
         21   -1    0    0  503  502  0.00000000000E+00  0.00000000000E+00  0.60101113360E+03  0.60101113360E+03  0.00000000000E+00 0. -1.
         21   -1    0    0  501  503 -0.00000000000E+00 -0.00000000000E+00 -0.96366630977E+02  0.96366630977E+02  0.00000000000E+00 0.  1.
          6    1    1    2  501    0  0.81770440850E+02 -0.93725881895E+02  0.41664425734E+03  0.46759745841E+03  0.17200000000E+03 0. -1.
         -6    1    1    2    0  502 -0.81770440850E+02  0.93725881895E+02  0.88000245281E+02  0.22978030617E+03  0.17200000000E+03 0.  1.
</event>
<event>
 4    1  0.4612011E+000  0.2055626E+03  0.7818608E-02  0.1145129E+00
         21   -1    0    0  501  502  0.00000000000E+00  0.00000000000E+00  0.65176547979E+03  0.65176547979E+03  0.00000000000E+00 0.  1.
         21   -1    0    0  502  503 -0.00000000000E+00 -0.00000000000E+00 -0.65136647935E+02  0.65136647935E+02  0.00000000000E+00 0.  1.
          6    1    1    2  501    0  0.48438183836E+02 -0.10161561410E+03  0.26884546918E+03  0.33842854044E+03  0.17200000000E+03 0.  1.
         -6    1    1    2    0  503 -0.48438183836E+02  0.10161561410E+03  0.31778336268E+03  0.37847358729E+03  0.17200000000E+03 0.  1.
</event>
<event>
 4    1  0.4612011E+000  0.1845454E+03  0.7818608E-02  0.1163475E+00
         21   -1    0    0  503  502  0.00000000000E+00  0.00000000000E+00  0.96017083143E+02  0.96017083143E+02  0.00000000000E+00 0. -1.
         21   -1    0    0  501  503 -0.00000000000E+00 -0.00000000000E+00 -0.36348999707E+03  0.36348999707E+03  0.00000000000E+00 0.  1.
          6    1    1    2  501    0  0.66614989529E+02  0.59529578487E+01 -0.98002716594E+02  0.20895340868E+03  0.17200000000E+03 0. -1.
         -6    1    1    2    0  502 -0.66614989529E+02 -0.59529578487E+01 -0.16947019734E+03  0.25055367154E+03  0.17200000000E+03 0.  1.
</event>
<event>
 4    1  0.4612011E+000  0.3044029E+03  0.7818608E-02  0.1083060E+00
         21   -1    0    0  501  502  0.00000000000E+00  0.00000000000E+00  0.16651055770E+03  0.16651055770E+03  0.00000000000E+00 0. -1.
         21   -1    0    0  502  503 -0.00000000000E+00 -0.00000000000E+00 -0.71123131053E+03  0.71123131053E+03  0.00000000000E+00 0. -1.
          6    1    1    2  501    0 -0.21238878862E+03 -0.13404526118E+03 -0.67651201682E+02  0.31182978477E+03  0.17200000000E+03 0. -1.
         -6    1    1    2    0  503  0.21238878862E+03  0.13404526118E+03 -0.47706955115E+03  0.56591208347E+03  0.17200000000E+03 0. -1.
</event>
<event>
 4    1  0.4612011E+000  0.1875547E+03  0.7818608E-02  0.1160686E+00
         21   -1    0    0  501  502  0.00000000000E+00  0.00000000000E+00  0.49024731848E+03  0.49024731848E+03  0.00000000000E+00 0. -1.
         21   -1    0    0  502  503 -0.00000000000E+00 -0.00000000000E+00 -0.93731279146E+02  0.93731279146E+02  0.00000000000E+00 0. -1.
          6    1    1    2  501    0 -0.60823675371E+02 -0.43511423514E+02  0.33964862248E+03  0.38799220381E+03  0.17200000000E+03 0. -1.
         -6    1    1    2    0  503  0.60823675371E+02  0.43511423514E+02  0.56867416851E+02  0.19598639382E+03  0.17200000000E+03 0. -1.
</event>
<event>
 4    1  0.4612011E+000  0.2049263E+03  0.7818608E-02  0.1145648E+00
         21   -1    0    0  503  502  0.00000000000E+00  0.00000000000E+00  0.48380210787E+03  0.48380210787E+03  0.00000000000E+00 0. -1.
         21   -1    0    0  501  503 -0.00000000000E+00 -0.00000000000E+00 -0.97476564349E+02  0.97476564349E+02  0.00000000000E+00 0. -1.
          6    1    1    2  501    0  0.99216941389E+02  0.50663308096E+02  0.96981936256E+02  0.22671627248E+03  0.17200000000E+03 0. -1.
         -6    1    1    2    0  502 -0.99216941389E+02 -0.50663308096E+02  0.28934360726E+03  0.35456239974E+03  0.17200000000E+03 0. -1.
</event>
<event>
 4    1  0.4612011E+000  0.1760207E+03  0.7818608E-02  0.1171711E+00
         21   -1    0    0  501  502  0.00000000000E+00  0.00000000000E+00  0.31871189720E+03  0.31871189720E+03  0.00000000000E+00 0. -1.
         21   -1    0    0  502  503 -0.00000000000E+00 -0.00000000000E+00 -0.20498062944E+03  0.20498062944E+03  0.00000000000E+00 0. -1.
          6    1    1    2  501    0  0.26114588617E+01  0.37315877785E+02  0.24672494088E+03  0.30307835769E+03  0.17200000000E+03 0. -1.
         -6    1    1    2    0  503 -0.26114588617E+01 -0.37315877785E+02 -0.13299367311E+03  0.22061416895E+03  0.17200000000E+03 0. -1.
</event>
<event>
 4    1  0.4612011E+000  0.1894782E+03  0.7818608E-02  0.1158933E+00
         21   -1    0    0  503  502  0.00000000000E+00  0.00000000000E+00  0.96175166537E+02  0.96175166537E+02  0.00000000000E+00 0. -1.
         21   -1    0    0  501  503 -0.00000000000E+00 -0.00000000000E+00 -0.88796775355E+03  0.88796775355E+03  0.00000000000E+00 0. -1.
          6    1    1    2  501    0 -0.70061263585E+02 -0.37541905147E+02 -0.77051891547E+03  0.79347424306E+03  0.17200000000E+03 0. -1.
         -6    1    1    2    0  502  0.70061263585E+02  0.37541905147E+02 -0.21273671536E+02  0.19066867702E+03  0.17200000000E+03 0. -1.
</event>
<event>
 4    1  0.4612011E+000  0.1961327E+03  0.7818608E-02  0.1153043E+00
         21   -1    0    0  503  502  0.00000000000E+00  0.00000000000E+00  0.40837868440E+03  0.40837868440E+03  0.00000000000E+00 0. -1.
         21   -1    0    0  501  503 -0.00000000000E+00 -0.00000000000E+00 -0.16995149016E+03  0.16995149016E+03  0.00000000000E+00 0.  1.
          6    1    1    2  501    0  0.41758621594E+02  0.84500084779E+02 -0.73844294509E+02  0.20957343972E+03  0.17200000000E+03 0.  1.
         -6    1    1    2    0  502 -0.41758621594E+02 -0.84500084779E+02  0.31227148875E+03  0.36875673484E+03  0.17200000000E+03 0. -1.
</event>
<event>
 4    1  0.4612011E+000  0.1778600E+03  0.7818608E-02  0.1169890E+00
         21   -1    0    0  501  502  0.00000000000E+00  0.00000000000E+00  0.25158975876E+02  0.25158975876E+02  0.00000000000E+00 0.  1.
         21   -1    0    0  502  503 -0.00000000000E+00 -0.00000000000E+00 -0.19409010751E+04  0.19409010751E+04  0.00000000000E+00 0.  1.
          6    1    1    2  501    0  0.39283637976E+02  0.22516236444E+02 -0.15412404749E+04  0.15514691059E+04  0.17200000000E+03 0.  1.
         -6    1    1    2    0  503 -0.39283637976E+02 -0.22516236444E+02 -0.37450162439E+03  0.41459094513E+03  0.17200000000E+03 0.  1.
</event>
<event>
 4    1  0.4612011E+000  0.2592858E+03  0.7818608E-02  0.1107573E+00
         21   -1    0    0  503  502  0.00000000000E+00  0.00000000000E+00  0.47005586360E+03  0.47005586360E+03  0.00000000000E+00 0. -1.
         21   -1    0    0  501  503 -0.00000000000E+00 -0.00000000000E+00 -0.18291831495E+03  0.18291831495E+03  0.00000000000E+00 0.  1.
          6    1    1    2  501    0  0.14642882904E+03  0.12729386738E+03 -0.89047833170E+01  0.25943867447E+03  0.17200000000E+03 0.  1.
         -6    1    1    2    0  502 -0.14642882904E+03 -0.12729386738E+03  0.29604233197E+03  0.39353550407E+03  0.17200000000E+03 0. -1.
</event>
<event>
 4    1  0.4612011E+000  0.2073037E+03  0.7818608E-02  0.1143719E+00
         21   -1    0    0  503  502  0.00000000000E+00  0.00000000000E+00  0.58219495728E+02  0.58219495728E+02  0.00000000000E+00 0.  1.
         21   -1    0    0  501  503 -0.00000000000E+00 -0.00000000000E+00 -0.86513858959E+03  0.86513858959E+03  0.00000000000E+00 0.  1.
          6    1    1    2  501    0 -0.55907824112E+02  0.10131711844E+03 -0.58033846377E+03  0.61625285056E+03  0.17200000000E+03 0.  1.
         -6    1    1    2    0  502  0.55907824112E+02 -0.10131711844E+03 -0.22658063009E+03  0.30710523476E+03  0.17200000000E+03 0.  1.
</event>
<event>
 4    1  0.4612011E+000  0.1784771E+03  0.7818608E-02  0.1169285E+00
         21   -1    0    0  501  502  0.00000000000E+00  0.00000000000E+00  0.38248476176E+02  0.38248476176E+02  0.00000000000E+00 0. -1.
         21   -1    0    0  502  503 -0.00000000000E+00 -0.00000000000E+00 -0.24260855450E+04  0.24260855450E+04  0.00000000000E+00 0. -1.
          6    1    1    2  501    0  0.46403186636E+01  0.47418810307E+02 -0.19538955233E+03  0.26463399873E+03  0.17200000000E+03 0. -1.
         -6    1    1    2    0  503 -0.46403186636E+01 -0.47418810307E+02 -0.21924475165E+04  0.21997000225E+04  0.17200000000E+03 0. -1.
</event>
<event>
 4    1  0.4612011E+000  0.2192311E+03  0.7818608E-02  0.1134458E+00
         21   -1    0    0  503  502  0.00000000000E+00  0.00000000000E+00  0.55548301476E+02  0.55548301476E+02  0.00000000000E+00 0. -1.
         21   -1    0    0  501  503 -0.00000000000E+00 -0.00000000000E+00 -0.90158554691E+03  0.90158554691E+03  0.00000000000E+00 0.  1.
          6    1    1    2  501    0  0.10518426862E+02  0.13552727355E+03 -0.51911359071E+03  0.56350794071E+03  0.17200000000E+03 0.  1.
         -6    1    1    2    0  502 -0.10518426862E+02 -0.13552727355E+03 -0.32692365472E+03  0.39362590768E+03  0.17200000000E+03 0. -1.
</event>
<event>
 4    1  0.4612011E+000  0.1912895E+03  0.7818608E-02  0.1157303E+00
         21   -1    0    0  503  502  0.00000000000E+00  0.00000000000E+00  0.66290952171E+03  0.66290952171E+03  0.00000000000E+00 0. -1.
         21   -1    0    0  501  503 -0.00000000000E+00 -0.00000000000E+00 -0.12025587784E+03  0.12025587784E+03  0.00000000000E+00 0. -1.
          6    1    1    2  501    0 -0.83556221556E+02  0.51015332329E+01 -0.16690317362E+02  0.19201623498E+03  0.17200000000E+03 0. -1.
         -6    1    1    2    0  502  0.83556221556E+02 -0.51015332329E+01  0.55934396124E+03  0.59114916457E+03  0.17200000000E+03 0. -1.
</event>
<event>
 4    1  0.4612011E+000  0.2926164E+03  0.7818608E-02  0.1088991E+00
         21   -1    0    0  501  502  0.00000000000E+00  0.00000000000E+00  0.14242396375E+03  0.14242396375E+03  0.00000000000E+00 0. -1.
         21   -1    0    0  502  503 -0.00000000000E+00 -0.00000000000E+00 -0.75740080361E+03  0.75740080361E+03  0.00000000000E+00 0.  1.
          6    1    1    2  501    0  0.17316435579E+03  0.16141394615E+03 -0.10316611259E+03  0.31027020951E+03  0.17200000000E+03 0. -1.
         -6    1    1    2    0  503 -0.17316435579E+03 -0.16141394615E+03 -0.51181072728E+03  0.58955455785E+03  0.17200000000E+03 0.  1.
</event>
<event>
 4    1  0.4612011E+000  0.1797042E+03  0.7818608E-02  0.1168090E+00
         21   -1    0    0  501  502  0.00000000000E+00  0.00000000000E+00  0.30197902733E+03  0.30197902733E+03  0.00000000000E+00 0. -1.
         21   -1    0    0  502  503 -0.00000000000E+00 -0.00000000000E+00 -0.27181488117E+03  0.27181488117E+03  0.00000000000E+00 0. -1.
          6    1    1    2  501    0  0.24407352918E+02 -0.45976930397E+02  0.23852506910E+03  0.29864327482E+03  0.17200000000E+03 0. -1.
         -6    1    1    2    0  503 -0.24407352918E+02  0.45976930397E+02 -0.20836092294E+03  0.27515063368E+03  0.17200000000E+03 0. -1.
</event>
<event>
 4    1  0.4612011E+000  0.1921257E+03  0.7818608E-02  0.1156558E+00
         21   -1    0    0  503  502  0.00000000000E+00  0.00000000000E+00  0.80405401176E+02  0.80405401176E+02  0.00000000000E+00 0.  1.
         21   -1    0    0  501  503 -0.00000000000E+00 -0.00000000000E+00 -0.48601233406E+03  0.48601233406E+03  0.00000000000E+00 0.  1.
          6    1    1    2  501    0 -0.82783993702E+02  0.21796291398E+02 -0.26947564223E+03  0.33095224684E+03  0.17200000000E+03 0.  1.
         -6    1    1    2    0  502  0.82783993702E+02 -0.21796291398E+02 -0.13613129066E+03  0.23546548840E+03  0.17200000000E+03 0.  1.
</event>
<event>
 4    1  0.4612011E+000  0.2757276E+03  0.7818608E-02  0.1098046E+00
         21   -1    0    0  503  502  0.00000000000E+00  0.00000000000E+00  0.13957499528E+03  0.13957499528E+03  0.00000000000E+00 0.  1.
         21   -1    0    0  501  503 -0.00000000000E+00 -0.00000000000E+00 -0.55063371840E+03  0.55063371840E+03  0.00000000000E+00 0.  1.
          6    1    1    2  501    0  0.16972750046E+03  0.13279406261E+03 -0.24137162453E+03  0.36645047224E+03  0.17200000000E+03 0.  1.
         -6    1    1    2    0  502 -0.16972750046E+03 -0.13279406261E+03 -0.16968709859E+03  0.32375824144E+03  0.17200000000E+03 0.  1.
</event>
<event>
 4    1  0.4612011E+000  0.1877038E+03  0.7818608E-02  0.1160549E+00
         21   -1    0    0  503  502  0.00000000000E+00  0.00000000000E+00  0.70141624287E+02  0.70141624287E+02  0.00000000000E+00 0.  1.
         21   -1    0    0  501  503 -0.00000000000E+00 -0.00000000000E+00 -0.70527098372E+03  0.70527098372E+03  0.00000000000E+00 0.  1.
          6    1    1    2  501    0  0.53733959109E+02 -0.52548992089E+02 -0.52555002038E+03  0.55806411715E+03  0.17200000000E+03 0.  1.
         -6    1    1    2    0  502 -0.53733959109E+02  0.52548992089E+02 -0.10957933906E+03  0.21734849086E+03  0.17200000000E+03 0.  1.
</event>
<event>
 4    1  0.4612011E+000  0.2005273E+03  0.7818608E-02  0.1149295E+00
         21   -1    0    0  501  502  0.00000000000E+00  0.00000000000E+00  0.43746885805E+03  0.43746885805E+03  0.00000000000E+00 0.  1.
         21   -1    0    0  502  503 -0.00000000000E+00 -0.00000000000E+00 -0.92468733856E+02  0.92468733856E+02  0.00000000000E+00 0. -1.
          6    1    1    2  501    0  0.27699998029E+02  0.99297105726E+02  0.15204881056E+03  0.25165461627E+03  0.17200000000E+03 0. -1.
         -6    1    1    2    0  503 -0.27699998029E+02 -0.99297105726E+02  0.19295131364E+03  0.27828297564E+03  0.17200000000E+03 0.  1.
</event>
<event>
 4    1  0.4612011E+000  0.1830185E+03  0.7818608E-02  0.1164913E+00
         21   -1    0    0  503  502  0.00000000000E+00  0.00000000000E+00  0.77249095497E+02  0.77249095497E+02  0.00000000000E+00 0. -1.
         21   -1    0    0  501  503 -0.00000000000E+00 -0.00000000000E+00 -0.43626795852E+03  0.43626795852E+03  0.00000000000E+00 0. -1.
          6    1    1    2  501    0 -0.58598132330E+02  0.21864122077E+02 -0.19956029332E+03  0.27077682991E+03  0.17200000000E+03 0. -1.
         -6    1    1    2    0  502  0.58598132330E+02 -0.21864122077E+02 -0.15945856970E+03  0.24274022410E+03  0.17200000000E+03 0. -1.
</event>
<event>
 4    1  0.4612011E+000  0.1800635E+03  0.7818608E-02  0.1167742E+00
         21   -1    0    0  501  502  0.00000000000E+00  0.00000000000E+00  0.16777797677E+03  0.16777797677E+03  0.00000000000E+00 0.  1.
         21   -1    0    0  502  503 -0.00000000000E+00 -0.00000000000E+00 -0.25863596094E+03  0.25863596094E+03  0.00000000000E+00 0.  1.
          6    1    1    2  501    0  0.37514822949E+02  0.37835288178E+02  0.61773186507E+02  0.19036490628E+03  0.17200000000E+03 0.  1.
         -6    1    1    2    0  503 -0.37514822949E+02 -0.37835288178E+02 -0.15263117068E+03  0.23604903142E+03  0.17200000000E+03 0.  1.
</event>
<event>
 4    1  0.4612011E+000  0.2209913E+03  0.7818608E-02  0.1133146E+00
         21   -1    0    0  501  502  0.00000000000E+00  0.00000000000E+00  0.60941973265E+03  0.60941973265E+03  0.00000000000E+00 0.  1.
         21   -1    0    0  502  503 -0.00000000000E+00 -0.00000000000E+00 -0.98611980008E+02  0.98611980008E+02  0.00000000000E+00 0.  1.
          6    1    1    2  501    0 -0.87811048356E+01  0.13847761827E+03  0.40863540646E+03  0.46456437011E+03  0.17200000000E+03 0.  1.
         -6    1    1    2    0  503  0.87811048356E+01 -0.13847761827E+03  0.10217234619E+03  0.24346734255E+03  0.17200000000E+03 0.  1.
</event>
<event>
 4    1  0.4612011E+000  0.2569415E+03  0.7818608E-02  0.1108995E+00
         21   -1    0    0  501  502  0.00000000000E+00  0.00000000000E+00  0.32393016991E+03  0.32393016991E+03  0.00000000000E+00 0.  1.
         21   -1    0    0  502  503 -0.00000000000E+00 -0.00000000000E+00 -0.22065194332E+03  0.22065194332E+03  0.00000000000E+00 0.  1.
          6    1    1    2  501    0  0.15689528634E+03 -0.10871441422E+03  0.12687507454E+03  0.28655931197E+03  0.17200000000E+03 0.  1.
         -6    1    1    2    0  503 -0.15689528634E+03  0.10871441422E+03 -0.23596847944E+02  0.25802280126E+03  0.17200000000E+03 0.  1.
</event>
<event>
 4    1  0.4612011E+000  0.1966422E+03  0.7818608E-02  0.1152603E+00
         21   -1    0    0  501  502  0.00000000000E+00  0.00000000000E+00  0.15202842449E+03  0.15202842449E+03  0.00000000000E+00 0. -1.
         21   -1    0    0  502  503 -0.00000000000E+00 -0.00000000000E+00 -0.10823243726E+04  0.10823243726E+04  0.00000000000E+00 0. -1.
          6    1    1    2  501    0  0.83041268311E+02  0.46779114554E+02  0.74660305833E+02  0.21033853443E+03  0.17200000000E+03 0. -1.
         -6    1    1    2    0  503 -0.83041268311E+02 -0.46779114554E+02 -0.10049562539E+04  0.10240142627E+04  0.17200000000E+03 0. -1.
</event>
<event>
 4    1  0.4612011E+000  0.4957607E+03  0.7818608E-02  0.1014891E+00
         21   -1    0    0  501  502  0.00000000000E+00  0.00000000000E+00  0.16210041566E+03  0.16210041566E+03  0.00000000000E+00 0.  1.
         21   -1    0    0  502  503 -0.00000000000E+00 -0.00000000000E+00 -0.15752942612E+04  0.15752942612E+04  0.00000000000E+00 0. -1.
          6    1    1    2  501    0  0.44624025166E+03 -0.13063026168E+03 -0.87483158216E+03  0.10055391214E+04  0.17200000000E+03 0. -1.
         -6    1    1    2    0  503 -0.44624025166E+03  0.13063026168E+03 -0.53836226342E+03  0.73185555552E+03  0.17200000000E+03 0.  1.
</event>
<event>
 4    1  0.4612011E+000  0.2009635E+03  0.7818608E-02  0.1148929E+00
         21   -1    0    0  501  502  0.00000000000E+00  0.00000000000E+00  0.15026383637E+03  0.15026383637E+03  0.00000000000E+00 0.  1.
         21   -1    0    0  502  503 -0.00000000000E+00 -0.00000000000E+00 -0.51681647463E+03  0.51681647463E+03  0.00000000000E+00 0.  1.
          6    1    1    2  501    0  0.46258482031E+02 -0.93072528422E+02  0.47795445731E+02  0.20656898930E+03  0.17200000000E+03 0.  1.
         -6    1    1    2    0  503 -0.46258482031E+02  0.93072528422E+02 -0.41434808399E+03  0.46051132170E+03  0.17200000000E+03 0.  1.
</event>
<event>
 4    1  0.4612011E+000  0.1955787E+03  0.7818608E-02  0.1153524E+00
         21   -1    0    0  501  502  0.00000000000E+00  0.00000000000E+00  0.17073287815E+02  0.17073287815E+02  0.00000000000E+00 0.  1.
         21   -1    0    0  502  503 -0.00000000000E+00 -0.00000000000E+00 -0.22570928887E+04  0.22570928887E+04  0.00000000000E+00 0.  1.
          6    1    1    2  501    0  0.54321187969E+02  0.75605721435E+02 -0.10222261950E+04  0.10407677024E+04  0.17200000000E+03 0. -1.
         -6    1    1    2    0  503 -0.54321187969E+02 -0.75605721435E+02 -0.12177934058E+04  0.12333984741E+04  0.17200000000E+03 0. -1.
</event>
<event>
 4    1  0.4612011E+000  0.1736118E+03  0.7818608E-02  0.1174133E+00
         21   -1    0    0  501  502  0.00000000000E+00  0.00000000000E+00  0.26497266638E+03  0.26497266638E+03  0.00000000000E+00 0.  1.
         21   -1    0    0  502  503 -0.00000000000E+00 -0.00000000000E+00 -0.12292060819E+03  0.12292060819E+03  0.00000000000E+00 0.  1.
          6    1    1    2  501    0 -0.14463361468E+02 -0.18650886730E+02  0.12399638652E+03  0.21334513885E+03  0.17200000000E+03 0.  1.
         -6    1    1    2    0  503  0.14463361468E+02  0.18650886730E+02  0.18055671669E+02  0.17454813571E+03  0.17200000000E+03 0.  1.
</event>
<event>
 4    1  0.4612011E+000  0.2260732E+03  0.7818608E-02  0.1129435E+00
         21   -1    0    0  503  502  0.00000000000E+00  0.00000000000E+00  0.99494102546E+02  0.99494102546E+02  0.00000000000E+00 0. -1.
         21   -1    0    0  501  503 -0.00000000000E+00 -0.00000000000E+00 -0.52910568301E+03  0.52910568301E+03  0.00000000000E+00 0. -1.
          6    1    1    2  501    0 -0.86734887612E+02 -0.11833068137E+03 -0.26845450372E+03  0.35096568414E+03  0.17200000000E+03 0. -1.
         -6    1    1    2    0  502  0.86734887612E+02  0.11833068137E+03 -0.16115707675E+03  0.27763410141E+03  0.17200000000E+03 0. -1.
</event>
<event>
 4    1  0.4612011E+000  0.2041728E+03  0.7818608E-02  0.1146265E+00
         21   -1    0    0  503  502  0.00000000000E+00  0.00000000000E+00  0.13063107537E+04  0.13063107537E+04  0.00000000000E+00 0. -1.
         21   -1    0    0  501  503 -0.00000000000E+00 -0.00000000000E+00 -0.17121844983E+03  0.17121844983E+03  0.00000000000E+00 0.  1.
          6    1    1    2  501    0 -0.10939048458E+03 -0.11673353028E+02 -0.98826152797E+02  0.22683287629E+03  0.17200000000E+03 0.  1.
         -6    1    1    2    0  502  0.10939048458E+03  0.11673353028E+02  0.12339184567E+04  0.12506963273E+04  0.17200000000E+03 0. -1.
</event>
<event>
 4    1  0.4612011E+000  0.2003237E+03  0.7818608E-02  0.1149466E+00
         21   -1    0    0  503  502  0.00000000000E+00  0.00000000000E+00  0.37909314117E+02  0.37909314117E+02  0.00000000000E+00 0.  1.
         21   -1    0    0  501  503 -0.00000000000E+00 -0.00000000000E+00 -0.15766877351E+04  0.15766877351E+04  0.00000000000E+00 0.  1.
          6    1    1    2  501    0  0.98767910558E+02  0.28115721952E+02 -0.12321710441E+04  0.12483489399E+04  0.17200000000E+03 0.  1.
         -6    1    1    2    0  502 -0.98767910558E+02 -0.28115721952E+02 -0.30660737689E+03  0.36624810926E+03  0.17200000000E+03 0.  1.
</event>
<event>
 4    1  0.4612011E+000  0.3262155E+03  0.7818608E-02  0.1072824E+00
         21   -1    0    0  501  502  0.00000000000E+00  0.00000000000E+00  0.67496314099E+03  0.67496314099E+03  0.00000000000E+00 0.  1.
         21   -1    0    0  502  503 -0.00000000000E+00 -0.00000000000E+00 -0.15771754372E+03  0.15771754372E+03  0.00000000000E+00 0. -1.
          6    1    1    2  501    0  0.27235133137E+03  0.51549167664E+02  0.26638097712E+03  0.42115957707E+03  0.17200000000E+03 0. -1.
         -6    1    1    2    0  503 -0.27235133137E+03 -0.51549167664E+02  0.25086462015E+03  0.41152110764E+03  0.17200000000E+03 0.  1.
</event>
<event>
 4    1  0.4612011E+000  0.3430963E+03  0.7818608E-02  0.1065485E+00
         21   -1    0    0  501  502  0.00000000000E+00  0.00000000000E+00  0.25691723256E+03  0.25691723256E+03  0.00000000000E+00 0. -1.
         21   -1    0    0  502  503 -0.00000000000E+00 -0.00000000000E+00 -0.48596412674E+03  0.48596412674E+03  0.00000000000E+00 0.  1.
          6    1    1    2  501    0 -0.36911286450E+02 -0.29456517357E+03 -0.20333368066E+03  0.39882285571E+03  0.17200000000E+03 0. -1.
         -6    1    1    2    0  503  0.36911286450E+02  0.29456517357E+03 -0.25713213524E+02  0.34405850360E+03  0.17200000000E+03 0. -1.
</event>
<event>
 4    1  0.4612011E+000  0.1787130E+03  0.7818608E-02  0.1169054E+00
         21   -1    0    0  501  502  0.00000000000E+00  0.00000000000E+00  0.65834282372E+03  0.65834282372E+03  0.00000000000E+00 0. -1.
         21   -1    0    0  502  503 -0.00000000000E+00 -0.00000000000E+00 -0.51694326581E+02  0.51694326581E+02  0.00000000000E+00 0. -1.
          6    1    1    2  501    0  0.40430289031E+02  0.26827463222E+02  0.39139256585E+03  0.43026324692E+03  0.17200000000E+03 0. -1.
         -6    1    1    2    0  503 -0.40430289031E+02 -0.26827463222E+02  0.21525593129E+03  0.27977390338E+03  0.17200000000E+03 0. -1.
</event>
<event>
 4    1  0.4612011E+000  0.2001446E+03  0.7818608E-02  0.1149617E+00
         21   -1    0    0  503  502  0.00000000000E+00  0.00000000000E+00  0.27246838456E+03  0.27246838456E+03  0.00000000000E+00 0.  1.
         21   -1    0    0  501  503 -0.00000000000E+00 -0.00000000000E+00 -0.17239632359E+03  0.17239632359E+03  0.00000000000E+00 0.  1.
          6    1    1    2  501    0 -0.10769863374E+02  0.10177365450E+03  0.13537786553E+03  0.24162995092E+03  0.17200000000E+03 0. -1.
         -6    1    1    2    0  502  0.10769863374E+02 -0.10177365450E+03 -0.35305804563E+02  0.20323475722E+03  0.17200000000E+03 0. -1.
</event>
<event>
 4    1  0.4612011E+000  0.2897055E+03  0.7818608E-02  0.1090503E+00
         21   -1    0    0  503  502  0.00000000000E+00  0.00000000000E+00  0.23984838063E+03  0.23984838063E+03  0.00000000000E+00 0.  1.
         21   -1    0    0  501  503 -0.00000000000E+00 -0.00000000000E+00 -0.82190835607E+03  0.82190835607E+03  0.00000000000E+00 0. -1.
          6    1    1    2  501    0  0.19059256839E+03  0.13423766375E+03 -0.69332628474E+03  0.75141906724E+03  0.17200000000E+03 0. -1.
         -6    1    1    2    0  502 -0.19059256839E+03 -0.13423766375E+03  0.11126630930E+03  0.31033766945E+03  0.17200000000E+03 0.  1.
</event>
<event>
 4    1  0.4612011E+000  0.2401207E+03  0.7818608E-02  0.1119712E+00
         21   -1    0    0  503  502  0.00000000000E+00  0.00000000000E+00  0.83669180374E+02  0.83669180374E+02  0.00000000000E+00 0.  1.
         21   -1    0    0  501  503 -0.00000000000E+00 -0.00000000000E+00 -0.69293914796E+03  0.69293914796E+03  0.00000000000E+00 0.  1.
          6    1    1    2  501    0 -0.14557791928E+03  0.82951807245E+02 -0.33347032203E+03  0.41092625686E+03  0.17200000000E+03 0.  1.
         -6    1    1    2    0  502  0.14557791928E+03 -0.82951807245E+02 -0.27579964556E+03  0.36568207147E+03  0.17200000000E+03 0.  1.
</event>
<event>
 4    1  0.4612011E+000  0.2018919E+03  0.7818608E-02  0.1148153E+00
         21   -1    0    0  501  502  0.00000000000E+00  0.00000000000E+00  0.24603883287E+03  0.24603883287E+03  0.00000000000E+00 0. -1.
         21   -1    0    0  502  503 -0.00000000000E+00 -0.00000000000E+00 -0.16946046291E+03  0.16946046291E+03  0.00000000000E+00 0. -1.
          6    1    1    2  501    0  0.92050372697E+02  0.51991032080E+02  0.69375207096E+02  0.21347894016E+03  0.17200000000E+03 0. -1.
         -6    1    1    2    0  503 -0.92050372697E+02 -0.51991032080E+02  0.72031628639E+01  0.20202035562E+03  0.17200000000E+03 0. -1.
</event>
<event>
 4    1  0.4612011E+000  0.1817626E+03  0.7818608E-02  0.1166108E+00
         21   -1    0    0  501  502  0.00000000000E+00  0.00000000000E+00  0.19346540661E+02  0.19346540661E+02  0.00000000000E+00 0.  1.
         21   -1    0    0  502  503 -0.00000000000E+00 -0.00000000000E+00 -0.20030657488E+04  0.20030657488E+04  0.00000000000E+00 0.  1.
          6    1    1    2  501    0  0.55524688289E+02  0.19252058706E+02 -0.60353988719E+03  0.63031581624E+03  0.17200000000E+03 0.  1.
         -6    1    1    2    0  503 -0.55524688289E+02 -0.19252058706E+02 -0.13801793209E+04  0.13920964732E+04  0.17200000000E+03 0.  1.
</event>
<event>
 4    1  0.4612011E+000  0.2305580E+03  0.7818608E-02  0.1126248E+00
         21   -1    0    0  501  502  0.00000000000E+00  0.00000000000E+00  0.37214335034E+03  0.37214335034E+03  0.00000000000E+00 0.  1.
         21   -1    0    0  502  503 -0.00000000000E+00 -0.00000000000E+00 -0.20574989504E+03  0.20574989504E+03  0.00000000000E+00 0.  1.
          6    1    1    2  501    0  0.26205860439E+02  0.15128206980E+03  0.24297097340E+03  0.33495060185E+03  0.17200000000E+03 0.  1.
         -6    1    1    2    0  503 -0.26205860439E+02 -0.15128206980E+03 -0.76577518102E+02  0.24294264353E+03  0.17200000000E+03 0.  1.
</event>
<event>
 4    1  0.4612011E+000  0.2318247E+03  0.7818608E-02  0.1125362E+00
         21   -1    0    0  501  502  0.00000000000E+00  0.00000000000E+00  0.37748728274E+03  0.37748728274E+03  0.00000000000E+00 0.  1.
         21   -1    0    0  502  503 -0.00000000000E+00 -0.00000000000E+00 -0.18068041076E+03  0.18068041076E+03  0.00000000000E+00 0.  1.
          6    1    1    2  501    0  0.11858051634E+03  0.10048554433E+03  0.22691443135E+03  0.32439611994E+03  0.17200000000E+03 0.  1.
         -6    1    1    2    0  503 -0.11858051634E+03 -0.10048554433E+03 -0.30107559367E+02  0.23377157356E+03  0.17200000000E+03 0.  1.
</event>
<event>
 4    1  0.4612011E+000  0.2598825E+03  0.7818608E-02  0.1107214E+00
         21   -1    0    0  503  502  0.00000000000E+00  0.00000000000E+00  0.38140437012E+03  0.38140437012E+03  0.00000000000E+00 0.  1.
         21   -1    0    0  501  503 -0.00000000000E+00 -0.00000000000E+00 -0.70139261489E+03  0.70139261489E+03  0.00000000000E+00 0. -1.
          6    1    1    2  501    0 -0.36212943332E+02 -0.19142501917E+03 -0.62808673426E+03  0.67972925565E+03  0.17200000000E+03 0. -1.
         -6    1    1    2    0  502  0.36212943332E+02  0.19142501917E+03  0.30809848949E+03  0.40306772936E+03  0.17200000000E+03 0.  1.
</event>
<event>
 4    1  0.4612011E+000  0.1937200E+03  0.7818608E-02  0.1155148E+00
         21   -1    0    0  501  502  0.00000000000E+00  0.00000000000E+00  0.17819147320E+03  0.17819147320E+03  0.00000000000E+00 0. -1.
         21   -1    0    0  502  503 -0.00000000000E+00 -0.00000000000E+00 -0.21519748336E+03  0.21519748336E+03  0.00000000000E+00 0. -1.
          6    1    1    2  501    0  0.33349483841E+02 -0.82651261817E+02 -0.47247552655E+02  0.19939847137E+03  0.17200000000E+03 0. -1.
         -6    1    1    2    0  503 -0.33349483841E+02  0.82651261817E+02  0.10241542492E+02  0.19399048519E+03  0.17200000000E+03 0. -1.
</event>
<event>
 4    1  0.4612011E+000  0.2853865E+03  0.7818608E-02  0.1092783E+00
         21   -1    0    0  501  502  0.00000000000E+00  0.00000000000E+00  0.55085391220E+03  0.55085391220E+03  0.00000000000E+00 0.  1.
         21   -1    0    0  502  503 -0.00000000000E+00 -0.00000000000E+00 -0.17154831639E+03  0.17154831639E+03  0.00000000000E+00 0. -1.
          6    1    1    2  501    0 -0.17956064567E+03  0.14006931323E+03  0.32389421664E+03  0.43168611462E+03  0.17200000000E+03 0.  1.
         -6    1    1    2    0  503  0.17956064567E+03 -0.14006931323E+03  0.55411379167E+02  0.29071611397E+03  0.17200000000E+03 0. -1.
</event>
<event>
 4    1  0.4612011E+000  0.2691006E+03  0.7818608E-02  0.1101795E+00
         21   -1    0    0  501  502  0.00000000000E+00  0.00000000000E+00  0.19739944040E+04  0.19739944040E+04  0.00000000000E+00 0.  1.
         21   -1    0    0  502  503 -0.00000000000E+00 -0.00000000000E+00 -0.88703300308E+02  0.88703300308E+02  0.00000000000E+00 0.  1.
          6    1    1    2  501    0  0.14748290027E+03  0.14518933573E+03  0.17324426727E+04  0.17532178311E+04  0.17200000000E+03 0.  1.
         -6    1    1    2    0  503 -0.14748290027E+03 -0.14518933573E+03  0.15284843103E+03  0.30947987325E+03  0.17200000000E+03 0.  1.
</event>
<event>
 4    1  0.4612011E+000  0.3032126E+03  0.7818608E-02  0.1083646E+00
         21   -1    0    0  501  502  0.00000000000E+00  0.00000000000E+00  0.91998502345E+02  0.91998502345E+02  0.00000000000E+00 0. -1.
         21   -1    0    0  502  503 -0.00000000000E+00 -0.00000000000E+00 -0.10692164644E+04  0.10692164644E+04  0.00000000000E+00 0.  1.
          6    1    1    2  501    0 -0.22490482520E+02 -0.24869275415E+03 -0.34018261036E+03  0.45569958982E+03  0.17200000000E+03 0.  1.
         -6    1    1    2    0  503  0.22490482520E+02  0.24869275415E+03 -0.63703535174E+03  0.70551537697E+03  0.17200000000E+03 0. -1.
</event>
<event>
 4    1  0.4612011E+000  0.1814430E+03  0.7818608E-02  0.1166414E+00
         21   -1    0    0  501  502  0.00000000000E+00  0.00000000000E+00  0.12459657341E+03  0.12459657341E+03  0.00000000000E+00 0. -1.
         21   -1    0    0  502  503 -0.00000000000E+00 -0.00000000000E+00 -0.10872592872E+04  0.10872592872E+04  0.00000000000E+00 0.  1.
          6    1    1    2  501    0  0.34649356281E+02 -0.46227500684E+02  0.45853963957E+02  0.18714739037E+03  0.17200000000E+03 0. -1.
         -6    1    1    2    0  503 -0.34649356281E+02  0.46227500684E+02 -0.10085166777E+04  0.10247084702E+04  0.17200000000E+03 0.  1.
</event>
<event>
 4    1  0.4612011E+000  0.2268675E+03  0.7818608E-02  0.1128864E+00
         21   -1    0    0  503  502  0.00000000000E+00  0.00000000000E+00  0.57361223587E+02  0.57361223587E+02  0.00000000000E+00 0. -1.
         21   -1    0    0  501  503 -0.00000000000E+00 -0.00000000000E+00 -0.11519780329E+04  0.11519780329E+04  0.00000000000E+00 0. -1.
          6    1    1    2  501    0  0.14258975408E+03 -0.39408350133E+02 -0.83163151489E+03  0.86202078431E+03  0.17200000000E+03 0. -1.
         -6    1    1    2    0  502 -0.14258975408E+03  0.39408350133E+02 -0.26298529441E+03  0.34731847217E+03  0.17200000000E+03 0. -1.
</event>
<event>
 4    1  0.4612011E+000  0.1803845E+03  0.7818608E-02  0.1167431E+00
         21   -1    0    0  501  502  0.00000000000E+00  0.00000000000E+00  0.10948787117E+03  0.10948787117E+03  0.00000000000E+00 0. -1.
         21   -1    0    0  502  503 -0.00000000000E+00 -0.00000000000E+00 -0.42381184337E+03  0.42381184337E+03  0.00000000000E+00 0. -1.
          6    1    1    2  501    0 -0.52004747602E+02  0.15814088831E+02 -0.11411159580E+02  0.18074510710E+03  0.17200000000E+03 0. -1.
         -6    1    1    2    0  503  0.52004747602E+02 -0.15814088831E+02 -0.30291281261E+03  0.35255460744E+03  0.17200000000E+03 0. -1.
</event>
<event>
 4    1  0.4612011E+000  0.1811947E+03  0.7818608E-02  0.1166652E+00
         21   -1    0    0  501  502  0.00000000000E+00  0.00000000000E+00  0.83884649834E+03  0.83884649834E+03  0.00000000000E+00 0. -1.
         21   -1    0    0  502  503 -0.00000000000E+00 -0.00000000000E+00 -0.17124682024E+03  0.17124682024E+03  0.00000000000E+00 0. -1.
          6    1    1    2  501    0  0.23891794369E+02  0.51736730199E+02  0.77739287128E+03  0.79823003163E+03  0.17200000000E+03 0. -1.
         -6    1    1    2    0  503 -0.23891794369E+02 -0.51736730199E+02 -0.10979319318E+03  0.21186328695E+03  0.17200000000E+03 0. -1.
</event>
<event>
 4    1  0.4612011E+000  0.2036823E+03  0.7818608E-02  0.1146669E+00
         21   -1    0    0  501  502  0.00000000000E+00  0.00000000000E+00  0.23138244602E+03  0.23138244602E+03  0.00000000000E+00 0. -1.
         21   -1    0    0  502  503 -0.00000000000E+00 -0.00000000000E+00 -0.25297329178E+03  0.25297329178E+03  0.00000000000E+00 0. -1.
          6    1    1    2  501    0 -0.61159790046E+02  0.90343539839E+02  0.11989904883E+03  0.23635197698E+03  0.17200000000E+03 0. -1.
         -6    1    1    2    0  503  0.61159790046E+02 -0.90343539839E+02 -0.14148989459E+03  0.24800376082E+03  0.17200000000E+03 0. -1.
</event>
<event>
 4    1  0.4612011E+000  0.2214540E+03  0.7818608E-02  0.1132804E+00
         21   -1    0    0  501  502  0.00000000000E+00  0.00000000000E+00  0.21663314741E+03  0.21663314741E+03  0.00000000000E+00 0. -1.
         21   -1    0    0  502  503 -0.00000000000E+00 -0.00000000000E+00 -0.62214622960E+03  0.62214622960E+03  0.00000000000E+00 0. -1.
          6    1    1    2  501    0 -0.93918924639E+02  0.10313641201E+03  0.13173849937E+03  0.25767599054E+03  0.17200000000E+03 0. -1.
         -6    1    1    2    0  503  0.93918924639E+02 -0.10313641201E+03 -0.53725158156E+03  0.58110338648E+03  0.17200000000E+03 0. -1.
</event>
<event>
 4    1  0.4612011E+000  0.2238823E+03  0.7818608E-02  0.1131021E+00
         21   -1    0    0  503  502  0.00000000000E+00  0.00000000000E+00  0.17189900088E+03  0.17189900088E+03  0.00000000000E+00 0. -1.
         21   -1    0    0  501  503 -0.00000000000E+00 -0.00000000000E+00 -0.59248659421E+03  0.59248659421E+03  0.00000000000E+00 0. -1.
          6    1    1    2  501    0  0.89840908865E+02 -0.11165979185E+03 -0.48266108180E+03  0.53205734456E+03  0.17200000000E+03 0. -1.
         -6    1    1    2    0  502 -0.89840908865E+02  0.11165979185E+03  0.62073488464E+02  0.23232825052E+03  0.17200000000E+03 0. -1.
</event>
<event>
 4    1  0.4612011E+000  0.2319503E+03  0.7818608E-02  0.1125275E+00
         21   -1    0    0  501  502  0.00000000000E+00  0.00000000000E+00  0.98365607806E+02  0.98365607806E+02  0.00000000000E+00 0.  1.
         21   -1    0    0  502  503 -0.00000000000E+00 -0.00000000000E+00 -0.55089681580E+03  0.55089681580E+03  0.00000000000E+00 0. -1.
          6    1    1    2  501    0 -0.34477227470E+02 -0.15175066524E+03 -0.25374763319E+03  0.34378598715E+03  0.17200000000E+03 0. -1.
         -6    1    1    2    0  503  0.34477227470E+02  0.15175066524E+03 -0.19878357481E+03  0.30547643645E+03  0.17200000000E+03 0.  1.
</event>
<event>
 4    1  0.4612011E+000  0.2501822E+03  0.7818608E-02  0.1113190E+00
         21   -1    0    0  501  502  0.00000000000E+00  0.00000000000E+00  0.46193946281E+03  0.46193946281E+03  0.00000000000E+00 0. -1.
         21   -1    0    0  502  503 -0.00000000000E+00 -0.00000000000E+00 -0.15373053894E+03  0.15373053894E+03  0.00000000000E+00 0. -1.
          6    1    1    2  501    0  0.51729190398E+02 -0.17415860674E+03  0.26012272287E+03  0.36090852081E+03  0.17200000000E+03 0. -1.
         -6    1    1    2    0  503 -0.51729190398E+02  0.17415860674E+03  0.48086201005E+02  0.25476148094E+03  0.17200000000E+03 0. -1.
</event>
<event>
 4    1  0.4612011E+000  0.2983309E+03  0.7818608E-02  0.1086078E+00
         21   -1    0    0  503  502  0.00000000000E+00  0.00000000000E+00  0.16740965676E+04  0.16740965676E+04  0.00000000000E+00 0. -1.
         21   -1    0    0  501  503 -0.00000000000E+00 -0.00000000000E+00 -0.57551739107E+02  0.57551739107E+02  0.00000000000E+00 0. -1.
          6    1    1    2  501    0  0.20262431964E+03 -0.13550176078E+03  0.10473454304E+04  0.10890058736E+04  0.17200000000E+03 0. -1.
         -6    1    1    2    0  502 -0.20262431964E+03  0.13550176078E+03  0.56919939810E+03  0.64264243314E+03  0.17200000000E+03 0. -1.
</event>
<event>
 4    1  0.4612011E+000  0.2755392E+03  0.7818608E-02  0.1098151E+00
         21   -1    0    0  501  502  0.00000000000E+00  0.00000000000E+00  0.69326019747E+03  0.69326019747E+03  0.00000000000E+00 0.  1.
         21   -1    0    0  502  503 -0.00000000000E+00 -0.00000000000E+00 -0.12027647663E+03  0.12027647663E+03  0.00000000000E+00 0.  1.
          6    1    1    2  501    0  0.26819769904E+02  0.21358499251E+03  0.40816885763E+03  0.49246691810E+03  0.17200000000E+03 0.  1.
         -6    1    1    2    0  503 -0.26819769904E+02 -0.21358499251E+03  0.16481486322E+03  0.32106975601E+03  0.17200000000E+03 0.  1.
</event>
<event>
 4    1  0.4612011E+000  0.1933400E+03  0.7818608E-02  0.1155483E+00
         21   -1    0    0  501  502  0.00000000000E+00  0.00000000000E+00  0.43909240111E+03  0.43909240111E+03  0.00000000000E+00 0.  1.
         21   -1    0    0  502  503 -0.00000000000E+00 -0.00000000000E+00 -0.85229399314E+02  0.85229399314E+02  0.00000000000E+00 0. -1.
          6    1    1    2  501    0 -0.88022760541E+02  0.69522652769E+01  0.16802013580E+03  0.25614665018E+03  0.17200000000E+03 0. -1.
         -6    1    1    2    0  503  0.88022760541E+02 -0.69522652769E+01  0.18584286600E+03  0.26817515025E+03  0.17200000000E+03 0.  1.
</event>
<event>
 4    1  0.4612011E+000  0.2439082E+03  0.7818608E-02  0.1117216E+00
         21   -1    0    0  503  502  0.00000000000E+00  0.00000000000E+00  0.58659914521E+03  0.58659914521E+03  0.00000000000E+00 0. -1.
         21   -1    0    0  501  503 -0.00000000000E+00 -0.00000000000E+00 -0.10318002645E+03  0.10318002645E+03  0.00000000000E+00 0. -1.
          6    1    1    2  501    0 -0.12716229552E+03 -0.11720475893E+03  0.19662840759E+03  0.31329528498E+03  0.17200000000E+03 0. -1.
         -6    1    1    2    0  502  0.12716229552E+03  0.11720475893E+03  0.28679071117E+03  0.37648388668E+03  0.17200000000E+03 0. -1.
</event>
<event>
 4    1  0.4612011E+000  0.1768831E+03  0.7818608E-02  0.1170854E+00
         21   -1    0    0  503  502  0.00000000000E+00  0.00000000000E+00  0.85341541036E+03  0.85341541036E+03  0.00000000000E+00 0. -1.
         21   -1    0    0  501  503 -0.00000000000E+00 -0.00000000000E+00 -0.60625046964E+02  0.60625046964E+02  0.00000000000E+00 0. -1.
          6    1    1    2  501    0 -0.35348472824E+02 -0.21309708578E+02  0.10906347117E+03  0.20780389543E+03  0.17200000000E+03 0. -1.
         -6    1    1    2    0  502  0.35348472824E+02  0.21309708578E+02  0.68372689222E+03  0.70623656190E+03  0.17200000000E+03 0. -1.
</event>
<event>
 4    1  0.4612011E+000  0.2484593E+03  0.7818608E-02  0.1114282E+00
         21   -1    0    0  501  502  0.00000000000E+00  0.00000000000E+00  0.21172136880E+04  0.21172136880E+04  0.00000000000E+00 0.  1.
         21   -1    0    0  502  503 -0.00000000000E+00 -0.00000000000E+00 -0.93483860594E+02  0.93483860594E+02  0.00000000000E+00 0. -1.
          6    1    1    2  501    0 -0.83483739997E+02  0.15867726495E+03  0.19287745552E+04  0.19447116223E+04  0.17200000000E+03 0.  1.
         -6    1    1    2    0  503  0.83483739997E+02 -0.15867726495E+03  0.94955272234E+02  0.26598592629E+03  0.17200000000E+03 0. -1.
</event>
<event>
 4    1  0.4612011E+000  0.1801894E+03  0.7818608E-02  0.1167620E+00
         21   -1    0    0  503  502  0.00000000000E+00  0.00000000000E+00  0.86685366432E+02  0.86685366432E+02  0.00000000000E+00 0.  1.
         21   -1    0    0  501  503 -0.00000000000E+00 -0.00000000000E+00 -0.41577415540E+03  0.41577415540E+03  0.00000000000E+00 0.  1.
          6    1    1    2  501    0  0.36218694188E+02  0.39653660708E+02 -0.24364975438E+03  0.30304027690E+03  0.17200000000E+03 0.  1.
         -6    1    1    2    0  502 -0.36218694188E+02 -0.39653660708E+02 -0.85439034586E+02  0.19941924493E+03  0.17200000000E+03 0.  1.
</event>
<event>
 4    1  0.4612011E+000  0.2359054E+03  0.7818608E-02  0.1122551E+00
         21   -1    0    0  503  502  0.00000000000E+00  0.00000000000E+00  0.46348829407E+02  0.46348829407E+02  0.00000000000E+00 0. -1.
         21   -1    0    0  501  503 -0.00000000000E+00 -0.00000000000E+00 -0.12917550672E+04  0.12917550672E+04  0.00000000000E+00 0. -1.
          6    1    1    2  501    0 -0.15611812275E+03 -0.41164440307E+02 -0.80032821322E+03  0.83437199634E+03  0.17200000000E+03 0. -1.
         -6    1    1    2    0  502  0.15611812275E+03  0.41164440307E+02 -0.44507802460E+03  0.50373190029E+03  0.17200000000E+03 0. -1.
</event>
<event>
 4    1  0.4612011E+000  0.1823737E+03  0.7818608E-02  0.1165525E+00
         21   -1    0    0  501  502  0.00000000000E+00  0.00000000000E+00  0.20031924106E+03  0.20031924106E+03  0.00000000000E+00 0.  1.
         21   -1    0    0  502  503 -0.00000000000E+00 -0.00000000000E+00 -0.16804183081E+03  0.16804183081E+03  0.00000000000E+00 0.  1.
          6    1    1    2  501    0 -0.59472361506E+02  0.11798180939E+02 -0.39849742734E+01  0.18241721102E+03  0.17200000000E+03 0.  1.
         -6    1    1    2    0  503  0.59472361506E+02 -0.11798180939E+02  0.36262384520E+02  0.18594386085E+03  0.17200000000E+03 0.  1.
</event>
<event>
 4    1  0.4612011E+000  0.1767848E+03  0.7818608E-02  0.1170951E+00
         21   -1    0    0  503  502  0.00000000000E+00  0.00000000000E+00  0.18775577167E+04  0.18775577167E+04  0.00000000000E+00 0. -1.
         21   -1    0    0  501  503 -0.00000000000E+00 -0.00000000000E+00 -0.20229948508E+02  0.20229948508E+02  0.00000000000E+00 0. -1.
          6    1    1    2  501    0  0.21632515551E+02 -0.34654243726E+02  0.52924227420E+03  0.55798769443E+03  0.17200000000E+03 0.  1.
         -6    1    1    2    0  502 -0.21632515551E+02  0.34654243726E+02  0.13280854940E+04  0.13397999708E+04  0.17200000000E+03 0.  1.
</event>
<event>
 4    1  0.4612011E+000  0.3040205E+03  0.7818608E-02  0.1083248E+00
         21   -1    0    0  501  502  0.00000000000E+00  0.00000000000E+00  0.24189769761E+04  0.24189769761E+04  0.00000000000E+00 0. -1.
         21   -1    0    0  502  503 -0.00000000000E+00 -0.00000000000E+00 -0.23079004501E+03  0.23079004501E+03  0.00000000000E+00 0.  1.
          6    1    1    2  501    0 -0.17018777437E+03 -0.18406671706E+03  0.23043435336E+04  0.23243122759E+04  0.17200000000E+03 0. -1.
         -6    1    1    2    0  503  0.17018777437E+03  0.18406671706E+03 -0.11615660254E+03  0.32545474522E+03  0.17200000000E+03 0.  1.
</event>
<event>
 4    1  0.4612011E+000  0.2818592E+03  0.7818608E-02  0.1094678E+00
         21   -1    0    0  501  502  0.00000000000E+00  0.00000000000E+00  0.70624782775E+03  0.70624782775E+03  0.00000000000E+00 0.  1.
         21   -1    0    0  502  503 -0.00000000000E+00 -0.00000000000E+00 -0.11550981221E+03  0.11550981221E+03  0.00000000000E+00 0. -1.
          6    1    1    2  501    0 -0.12968435445E+03 -0.18177620639E+03  0.36182224454E+03  0.45865014732E+03  0.17200000000E+03 0.  1.
         -6    1    1    2    0  503  0.12968435445E+03  0.18177620639E+03  0.22891577099E+03  0.36310749264E+03  0.17200000000E+03 0.  1.
</event>
<event>
 4    1  0.4612011E+000  0.2325157E+03  0.7818608E-02  0.1124881E+00
         21   -1    0    0  501  502  0.00000000000E+00  0.00000000000E+00  0.59602286937E+03  0.59602286937E+03  0.00000000000E+00 0. -1.
         21   -1    0    0  502  503 -0.00000000000E+00 -0.00000000000E+00 -0.91844328748E+02  0.91844328748E+02  0.00000000000E+00 0.  1.
          6    1    1    2  501    0 -0.15613949821E+03  0.10001482453E+02  0.21381992525E+03  0.31588373333E+03  0.17200000000E+03 0.  1.
         -6    1    1    2    0  503  0.15613949821E+03 -0.10001482453E+02  0.29035861537E+03  0.37198346478E+03  0.17200000000E+03 0.  1.
</event>
<event>
 4    1  0.4612011E+000  0.2419040E+03  0.7818608E-02  0.1118531E+00
         21   -1    0    0  501  502  0.00000000000E+00  0.00000000000E+00  0.99388418166E+03  0.99388418166E+03  0.00000000000E+00 0. -1.
         21   -1    0    0  502  503 -0.00000000000E+00 -0.00000000000E+00 -0.18031043519E+03  0.18031043519E+03  0.00000000000E+00 0.  1.
          6    1    1    2  501    0 -0.17921933297E+02 -0.16915191480E+03  0.88858780421E+03  0.92092662670E+03  0.17200000000E+03 0. -1.
         -6    1    1    2    0  503  0.17921933297E+02  0.16915191480E+03 -0.75014057741E+02  0.25326799015E+03  0.17200000000E+03 0.  1.
</event>
<event>
 4    1  0.4612011E+000  0.1803455E+03  0.7818608E-02  0.1167469E+00
         21   -1    0    0  503  502  0.00000000000E+00  0.00000000000E+00  0.96749803727E+02  0.96749803727E+02  0.00000000000E+00 0. -1.
         21   -1    0    0  501  503 -0.00000000000E+00 -0.00000000000E+00 -0.56387271622E+03  0.56387271622E+03  0.00000000000E+00 0. -1.
          6    1    1    2  501    0 -0.54177029518E+02 -0.23094587188E+01 -0.44346314480E+03  0.47873170453E+03  0.17200000000E+03 0.  1.
         -6    1    1    2    0  502  0.54177029518E+02  0.23094587188E+01 -0.23659767697E+02  0.18189081542E+03  0.17200000000E+03 0.  1.
</event>
<event>
 4    1  0.4612011E+000  0.1978461E+03  0.7818608E-02  0.1151569E+00
         21   -1    0    0  501  502  0.00000000000E+00  0.00000000000E+00  0.17069453507E+03  0.17069453507E+03  0.00000000000E+00 0. -1.
         21   -1    0    0  502  503 -0.00000000000E+00 -0.00000000000E+00 -0.23083549271E+03  0.23083549271E+03  0.00000000000E+00 0. -1.
          6    1    1    2  501    0  0.50461103956E+02  0.83742314602E+02 -0.46355702085E+02  0.20320420612E+03  0.17200000000E+03 0. -1.
         -6    1    1    2    0  503 -0.50461103956E+02 -0.83742314602E+02 -0.13785255557E+02  0.19832582166E+03  0.17200000000E+03 0. -1.
</event>
<event>
 4    1  0.4612011E+000  0.1824266E+03  0.7818608E-02  0.1165475E+00
         21   -1    0    0  503  502  0.00000000000E+00  0.00000000000E+00  0.13209124674E+03  0.13209124674E+03  0.00000000000E+00 0. -1.
         21   -1    0    0  501  503 -0.00000000000E+00 -0.00000000000E+00 -0.25250175574E+03  0.25250175574E+03  0.00000000000E+00 0. -1.
          6    1    1    2  501    0  0.59108624480E+02 -0.14200260852E+02 -0.51160118296E+02  0.18946459986E+03  0.17200000000E+03 0. -1.
         -6    1    1    2    0  502 -0.59108624480E+02  0.14200260852E+02 -0.69250390709E+02  0.19512840262E+03  0.17200000000E+03 0. -1.
</event>
<event>
 4    1  0.4612011E+000  0.2351262E+03  0.7818608E-02  0.1123083E+00
         21   -1    0    0  503  502  0.00000000000E+00  0.00000000000E+00  0.16312524791E+03  0.16312524791E+03  0.00000000000E+00 0.  1.
         21   -1    0    0  501  503 -0.00000000000E+00 -0.00000000000E+00 -0.34818218915E+03  0.34818218915E+03  0.00000000000E+00 0.  1.
          6    1    1    2  501    0  0.16021310441E+03  0.56634009372E+01 -0.13425446577E+03  0.27075556230E+03  0.17200000000E+03 0.  1.
         -6    1    1    2    0  502 -0.16021310441E+03 -0.56634009372E+01 -0.50802475473E+02  0.24055187476E+03  0.17200000000E+03 0.  1.
</event>
<event>
 4    1  0.4612011E+000  0.1857162E+03  0.7818608E-02  0.1162383E+00
         21   -1    0    0  503  502  0.00000000000E+00  0.00000000000E+00  0.11044621516E+04  0.11044621516E+04  0.00000000000E+00 0.  1.
         21   -1    0    0  501  503 -0.00000000000E+00 -0.00000000000E+00 -0.31387255701E+02  0.31387255701E+02  0.00000000000E+00 0.  1.
          6    1    1    2  501    0  0.64520640979E+02  0.27269118936E+02  0.57694843941E+03  0.60610231785E+03  0.17200000000E+03 0. -1.
         -6    1    1    2    0  502 -0.64520640979E+02 -0.27269118936E+02  0.49612645651E+03  0.52974708948E+03  0.17200000000E+03 0. -1.
</event>
<event>
 4    1  0.4612011E+000  0.1958141E+03  0.7818608E-02  0.1153319E+00
         21   -1    0    0  503  502  0.00000000000E+00  0.00000000000E+00  0.97514451074E+02  0.97514451074E+02  0.00000000000E+00 0. -1.
         21   -1    0    0  501  503 -0.00000000000E+00 -0.00000000000E+00 -0.59788816846E+03  0.59788816846E+03  0.00000000000E+00 0. -1.
          6    1    1    2  501    0  0.92502179269E+02  0.14230469006E+02 -0.45362741035E+03  0.49408601158E+03  0.17200000000E+03 0. -1.
         -6    1    1    2    0  502 -0.92502179269E+02 -0.14230469006E+02 -0.46746307039E+02  0.20131660796E+03  0.17200000000E+03 0. -1.
</event>
<event>
 4    1  0.4612011E+000  0.1725879E+03  0.7818608E-02  0.1175176E+00
         21   -1    0    0  501  502  0.00000000000E+00  0.00000000000E+00  0.33231228736E+04  0.33231228736E+04  0.00000000000E+00 0. -1.
         21   -1    0    0  502  503 -0.00000000000E+00 -0.00000000000E+00 -0.92940850485E+01  0.92940850485E+01  0.00000000000E+00 0. -1.
          6    1    1    2  501    0 -0.13145122981E+02 -0.54563567854E+01  0.19711940010E+04  0.19787350393E+04  0.17200000000E+03 0. -1.
         -6    1    1    2    0  503  0.13145122981E+02  0.54563567854E+01  0.13426347875E+04  0.13536819194E+04  0.17200000000E+03 0. -1.
</event>
<event>
 4    1  0.4612011E+000  0.1936224E+03  0.7818608E-02  0.1155234E+00
         21   -1    0    0  501  502  0.00000000000E+00  0.00000000000E+00  0.26319763334E+03  0.26319763334E+03  0.00000000000E+00 0.  1.
         21   -1    0    0  502  503 -0.00000000000E+00 -0.00000000000E+00 -0.14267409583E+03  0.14267409583E+03  0.00000000000E+00 0.  1.
          6    1    1    2  501    0  0.36633460055E+02  0.81016169147E+02  0.52025505646E+02  0.20049010773E+03  0.17200000000E+03 0.  1.
         -6    1    1    2    0  503 -0.36633460055E+02 -0.81016169147E+02  0.68498031866E+02  0.20538162145E+03  0.17200000000E+03 0.  1.
</event>
<event>
 4    1  0.4612011E+000  0.2599877E+03  0.7818608E-02  0.1107151E+00
         21   -1    0    0  503  502  0.00000000000E+00  0.00000000000E+00  0.75863938270E+02  0.75863938270E+02  0.00000000000E+00 0.  1.
         21   -1    0    0  501  503 -0.00000000000E+00 -0.00000000000E+00 -0.90942278618E+03  0.90942278618E+03  0.00000000000E+00 0. -1.
          6    1    1    2  501    0 -0.18226302704E+03 -0.69208195723E+02 -0.34663208593E+03  0.43329826722E+03  0.17200000000E+03 0.  1.
         -6    1    1    2    0  502  0.18226302704E+03  0.69208195723E+02 -0.48692676198E+03  0.55198845723E+03  0.17200000000E+03 0. -1.
</event>
<event>
 4    1  0.4612011E+000  0.1894721E+03  0.7818608E-02  0.1158938E+00
         21   -1    0    0  501  502  0.00000000000E+00  0.00000000000E+00  0.10470335371E+03  0.10470335371E+03  0.00000000000E+00 0.  1.
         21   -1    0    0  502  503 -0.00000000000E+00 -0.00000000000E+00 -0.34419077059E+03  0.34419077059E+03  0.00000000000E+00 0.  1.
          6    1    1    2  501    0 -0.39783920589E+02  0.68796068264E+02 -0.10584111307E+03  0.21702995315E+03  0.17200000000E+03 0. -1.
         -6    1    1    2    0  503  0.39783920589E+02 -0.68796068264E+02 -0.13364630380E+03  0.23186417115E+03  0.17200000000E+03 0. -1.
</event>
<event>
 4    1  0.4612011E+000  0.2455971E+03  0.7818608E-02  0.1116119E+00
         21   -1    0    0  503  502  0.00000000000E+00  0.00000000000E+00  0.21176183978E+03  0.21176183978E+03  0.00000000000E+00 0.  1.
         21   -1    0    0  501  503 -0.00000000000E+00 -0.00000000000E+00 -0.15978066386E+04  0.15978066386E+04  0.00000000000E+00 0.  1.
          6    1    1    2  501    0  0.31994382039E+02  0.17236671266E+03 -0.15132039774E+04  0.15330049580E+04  0.17200000000E+03 0.  1.
         -6    1    1    2    0  502 -0.31994382039E+02 -0.17236671266E+03  0.12715917855E+03  0.27656352038E+03  0.17200000000E+03 0.  1.
</event>
<event>
 4    1  0.4612011E+000  0.1751888E+03  0.7818608E-02  0.1172542E+00
         21   -1    0    0  501  502  0.00000000000E+00  0.00000000000E+00  0.32564053412E+03  0.32564053412E+03  0.00000000000E+00 0. -1.
         21   -1    0    0  502  503 -0.00000000000E+00 -0.00000000000E+00 -0.18570179410E+03  0.18570179410E+03  0.00000000000E+00 0. -1.
          6    1    1    2  501    0  0.33225656070E+02 -0.17834687883E+01  0.24939043325E+03  0.30477321598E+03  0.17200000000E+03 0. -1.
         -6    1    1    2    0  503 -0.33225656070E+02  0.17834687883E+01 -0.10945169323E+03  0.20656911224E+03  0.17200000000E+03 0. -1.
</event>
<event>
 4    1  0.4612011E+000  0.2215243E+03  0.7818608E-02  0.1132752E+00
         21   -1    0    0  503  502  0.00000000000E+00  0.00000000000E+00  0.11674174951E+04  0.11674174951E+04  0.00000000000E+00 0. -1.
         21   -1    0    0  501  503 -0.00000000000E+00 -0.00000000000E+00 -0.71290361251E+02  0.71290361251E+02  0.00000000000E+00 0. -1.
          6    1    1    2  501    0  0.13551825333E+03  0.33523613645E+02  0.15130877359E+03  0.26826735661E+03  0.17200000000E+03 0. -1.
         -6    1    1    2    0  502 -0.13551825333E+03 -0.33523613645E+02  0.94481836027E+03  0.97044049975E+03  0.17200000000E+03 0. -1.
</event>
<event>
 4    1  0.4612011E+000  0.2030359E+03  0.7818608E-02  0.1147203E+00
         21   -1    0    0  501  502  0.00000000000E+00  0.00000000000E+00  0.85267174916E+03  0.85267174916E+03  0.00000000000E+00 0. -1.
         21   -1    0    0  502  503 -0.00000000000E+00 -0.00000000000E+00 -0.97444132968E+02  0.97444132968E+02  0.00000000000E+00 0. -1.
          6    1    1    2  501    0  0.47903586129E+02 -0.96668729223E+02  0.71482308959E+03  0.74309867864E+03  0.17200000000E+03 0. -1.
         -6    1    1    2    0  503 -0.47903586129E+02  0.96668729223E+02  0.40404526601E+02  0.20701720350E+03  0.17200000000E+03 0. -1.
</event>
<event>
 4    1  0.4612011E+000  0.1788740E+03  0.7818608E-02  0.1168897E+00
         21   -1    0    0  503  502  0.00000000000E+00  0.00000000000E+00  0.48290767510E+03  0.48290767510E+03  0.00000000000E+00 0.  1.
         21   -1    0    0  501  503 -0.00000000000E+00 -0.00000000000E+00 -0.66282968565E+02  0.66282968565E+02  0.00000000000E+00 0.  1.
          6    1    1    2  501    0 -0.39339699677E+02 -0.29398677344E+02  0.20285128280E+03  0.27045246742E+03  0.17200000000E+03 0.  1.
         -6    1    1    2    0  502  0.39339699677E+02  0.29398677344E+02  0.21377342374E+03  0.27873817625E+03  0.17200000000E+03 0.  1.
</event>
<event>
 4    1  0.4612011E+000  0.2802413E+03  0.7818608E-02  0.1095557E+00
         21   -1    0    0  503  502  0.00000000000E+00  0.00000000000E+00  0.28032153554E+03  0.28032153554E+03  0.00000000000E+00 0. -1.
         21   -1    0    0  501  503 -0.00000000000E+00 -0.00000000000E+00 -0.31694187466E+03  0.31694187466E+03  0.00000000000E+00 0. -1.
          6    1    1    2  501    0  0.19289190825E+03 -0.10836926198E+03 -0.12004194745E+03  0.30486924141E+03  0.17200000000E+03 0. -1.
         -6    1    1    2    0  502 -0.19289190825E+03  0.10836926198E+03  0.83421608323E+02  0.29239416880E+03  0.17200000000E+03 0. -1.
</event>
<event>
 4    1  0.4612011E+000  0.2597972E+03  0.7818608E-02  0.1107265E+00
         21   -1    0    0  501  502  0.00000000000E+00  0.00000000000E+00  0.82013437975E+02  0.82013437975E+02  0.00000000000E+00 0. -1.
         21   -1    0    0  502  503 -0.00000000000E+00 -0.00000000000E+00 -0.84851442363E+03  0.84851442363E+03  0.00000000000E+00 0. -1.
          6    1    1    2  501    0  0.18585857451E+03  0.58027445467E+02 -0.46397740357E+03  0.53176087217E+03  0.17200000000E+03 0. -1.
         -6    1    1    2    0  503 -0.18585857451E+03 -0.58027445467E+02 -0.30252358209E+03  0.39876698944E+03  0.17200000000E+03 0. -1.
</event>
<event>
 4    1  0.4612011E+000  0.1922821E+03  0.7818608E-02  0.1156419E+00
         21   -1    0    0  501  502  0.00000000000E+00  0.00000000000E+00  0.28907697829E+02  0.28907697829E+02  0.00000000000E+00 0.  1.
         21   -1    0    0  502  503 -0.00000000000E+00 -0.00000000000E+00 -0.12804270366E+04  0.12804270366E+04  0.00000000000E+00 0. -1.
          6    1    1    2  501    0 -0.68999142048E+02 -0.51259304177E+02 -0.64775976933E+03  0.67569602384E+03  0.17200000000E+03 0. -1.
         -6    1    1    2    0  503  0.68999142048E+02  0.51259304177E+02 -0.60375956943E+03  0.63363871058E+03  0.17200000000E+03 0.  1.
</event>
<event>
 4    1  0.4612011E+000  0.2069924E+03  0.7818608E-02  0.1143970E+00
         21   -1    0    0  501  502  0.00000000000E+00  0.00000000000E+00  0.12166814504E+03  0.12166814504E+03  0.00000000000E+00 0. -1.
         21   -1    0    0  502  503 -0.00000000000E+00 -0.00000000000E+00 -0.39563003134E+03  0.39563003134E+03  0.00000000000E+00 0. -1.
          6    1    1    2  501    0 -0.11506787625E+03 -0.46089082647E+01 -0.51238871422E+02  0.21323995902E+03  0.17200000000E+03 0. -1.
         -6    1    1    2    0  503  0.11506787625E+03  0.46089082647E+01 -0.22272301488E+03  0.30405821735E+03  0.17200000000E+03 0. -1.
</event>
<event>
 4    1  0.4612011E+000  0.2000368E+03  0.7818608E-02  0.1149708E+00
         21   -1    0    0  501  502  0.00000000000E+00  0.00000000000E+00  0.19746129596E+03  0.19746129596E+03  0.00000000000E+00 0.  1.
         21   -1    0    0  502  503 -0.00000000000E+00 -0.00000000000E+00 -0.21679047468E+03  0.21679047468E+03  0.00000000000E+00 0.  1.
          6    1    1    2  501    0  0.97074313037E+02 -0.31737745159E+02  0.43242079348E+02  0.20465723575E+03  0.17200000000E+03 0.  1.
         -6    1    1    2    0  503 -0.97074313037E+02  0.31737745159E+02 -0.62571258066E+02  0.20959453489E+03  0.17200000000E+03 0.  1.
</event>
<event>
 4    1  0.4612011E+000  0.1881321E+03  0.7818608E-02  0.1160157E+00
         21   -1    0    0  503  502  0.00000000000E+00  0.00000000000E+00  0.35329006145E+03  0.35329006145E+03  0.00000000000E+00 0.  1.
         21   -1    0    0  501  503 -0.00000000000E+00 -0.00000000000E+00 -0.29619139901E+03  0.29619139901E+03  0.00000000000E+00 0.  1.
          6    1    1    2  501    0  0.59794067729E+02 -0.47268884346E+02 -0.23562329897E+03  0.30151619688E+03  0.17200000000E+03 0.  1.
         -6    1    1    2    0  502 -0.59794067729E+02  0.47268884346E+02  0.29272196142E+03  0.34796526358E+03  0.17200000000E+03 0.  1.
</event>
<event>
 4    1  0.4612011E+000  0.2262199E+03  0.7818608E-02  0.1129329E+00
         21   -1    0    0  501  502  0.00000000000E+00  0.00000000000E+00  0.31231151426E+03  0.31231151426E+03  0.00000000000E+00 0.  1.
         21   -1    0    0  502  503 -0.00000000000E+00 -0.00000000000E+00 -0.47799713176E+03  0.47799713176E+03  0.00000000000E+00 0. -1.
          6    1    1    2  501    0  0.14666747088E+03 -0.89492568372E+01  0.23749896136E+03  0.32799572079E+03  0.17200000000E+03 0.  1.
         -6    1    1    2    0  503 -0.14666747088E+03  0.89492568372E+01 -0.40318457885E+03  0.46231292523E+03  0.17200000000E+03 0. -1.
</event>
<event>
 4    1  0.4612011E+000  0.1825255E+03  0.7818608E-02  0.1165381E+00
         21   -1    0    0  501  502  0.00000000000E+00  0.00000000000E+00  0.53468189729E+03  0.53468189729E+03  0.00000000000E+00 0.  1.
         21   -1    0    0  502  503 -0.00000000000E+00 -0.00000000000E+00 -0.74701542962E+02  0.74701542962E+02  0.00000000000E+00 0. -1.
          6    1    1    2  501    0  0.49012022302E+02  0.36460530238E+02  0.35409089825E+03  0.39836655585E+03  0.17200000000E+03 0.  1.
         -6    1    1    2    0  503 -0.49012022302E+02 -0.36460530238E+02  0.10588945608E+03  0.21101688441E+03  0.17200000000E+03 0. -1.
</event>
<event>
 4    1  0.4612011E+000  0.1973480E+03  0.7818608E-02  0.1151996E+00
         21   -1    0    0  503  502  0.00000000000E+00  0.00000000000E+00  0.93010485941E+03  0.93010485941E+03  0.00000000000E+00 0. -1.
         21   -1    0    0  501  503 -0.00000000000E+00 -0.00000000000E+00 -0.43783541279E+02  0.43783541279E+02  0.00000000000E+00 0.  1.
          6    1    1    2  501    0  0.82541368294E+02 -0.50489179548E+02  0.34144036790E+03  0.39437007945E+03  0.17200000000E+03 0.  1.
         -6    1    1    2    0  502 -0.82541368294E+02  0.50489179548E+02  0.54488095023E+03  0.57951832124E+03  0.17200000000E+03 0. -1.
</event>
<event>
 4    1  0.4612011E+000  0.2596455E+03  0.7818608E-02  0.1107356E+00
         21   -1    0    0  503  502  0.00000000000E+00  0.00000000000E+00  0.73259545902E+02  0.73259545902E+02  0.00000000000E+00 0. -1.
         21   -1    0    0  501  503 -0.00000000000E+00 -0.00000000000E+00 -0.12092322395E+04  0.12092322395E+04  0.00000000000E+00 0. -1.
          6    1    1    2  501    0  0.17894064473E+03 -0.76236705933E+02 -0.88147276076E+03  0.91891785140E+03  0.17200000000E+03 0. -1.
         -6    1    1    2    0  502 -0.17894064473E+03  0.76236705933E+02 -0.25449993284E+03  0.36357393400E+03  0.17200000000E+03 0. -1.
</event>
<event>
 4    1  0.4612011E+000  0.1771776E+03  0.7818608E-02  0.1170563E+00
         21   -1    0    0  501  502  0.00000000000E+00  0.00000000000E+00  0.20196208464E+03  0.20196208464E+03  0.00000000000E+00 0.  1.
         21   -1    0    0  502  503 -0.00000000000E+00 -0.00000000000E+00 -0.18031492123E+03  0.18031492123E+03  0.00000000000E+00 0.  1.
          6    1    1    2  501    0 -0.40640865095E+02 -0.12499010390E+02  0.81823841049E+02  0.19515902782E+03  0.17200000000E+03 0.  1.
         -6    1    1    2    0  503  0.40640865095E+02  0.12499010390E+02 -0.60176677641E+02  0.18711797805E+03  0.17200000000E+03 0.  1.
</event>
<event>
 4    1  0.4612011E+000  0.1855194E+03  0.7818608E-02  0.1162566E+00
         21   -1    0    0  501  502  0.00000000000E+00  0.00000000000E+00  0.11264147857E+03  0.11264147857E+03  0.00000000000E+00 0. -1.
         21   -1    0    0  502  503 -0.00000000000E+00 -0.00000000000E+00 -0.61410008472E+03  0.61410008472E+03  0.00000000000E+00 0. -1.
          6    1    1    2  501    0  0.60736525976E+02 -0.33830904364E+02  0.68400485685E+01  0.18564547380E+03  0.17200000000E+03 0. -1.
         -6    1    1    2    0  503 -0.60736525976E+02  0.33830904364E+02 -0.50829865471E+03  0.54109608949E+03  0.17200000000E+03 0. -1.
</event>
<event>
 4    1  0.4612011E+000  0.2804665E+03  0.7818608E-02  0.1095434E+00
         21   -1    0    0  501  502  0.00000000000E+00  0.00000000000E+00  0.22330671640E+03  0.22330671640E+03  0.00000000000E+00 0. -1.
         21   -1    0    0  502  503 -0.00000000000E+00 -0.00000000000E+00 -0.56105940078E+03  0.56105940078E+03  0.00000000000E+00 0.  1.
          6    1    1    2  501    0  0.62788860071E+02  0.21244998201E+03  0.70373560795E+02  0.28916063679E+03  0.17200000000E+03 0. -1.
         -6    1    1    2    0  503 -0.62788860071E+02 -0.21244998201E+03 -0.40812624517E+03  0.49520548039E+03  0.17200000000E+03 0.  1.
</event>
<event>
 4    1  0.4612011E+000  0.1804983E+03  0.7818608E-02  0.1167322E+00
         21   -1    0    0  503  502  0.00000000000E+00  0.00000000000E+00  0.10063026804E+03  0.10063026804E+03  0.00000000000E+00 0. -1.
         21   -1    0    0  501  503 -0.00000000000E+00 -0.00000000000E+00 -0.36050955613E+03  0.36050955613E+03  0.00000000000E+00 0. -1.
          6    1    1    2  501    0 -0.53977540791E+02  0.90582976170E+01 -0.20355957695E+03  0.27205905431E+03  0.17200000000E+03 0. -1.
         -6    1    1    2    0  502  0.53977540791E+02 -0.90582976170E+01 -0.56319711137E+02  0.18908076985E+03  0.17200000000E+03 0. -1.
</event>
<event>
 4    1  0.4612011E+000  0.2149045E+03  0.7818608E-02  0.1137740E+00
         21   -1    0    0  501  502  0.00000000000E+00  0.00000000000E+00  0.11853684362E+04  0.11853684362E+04  0.00000000000E+00 0. -1.
         21   -1    0    0  502  503 -0.00000000000E+00 -0.00000000000E+00 -0.46038078658E+02  0.46038078658E+02  0.00000000000E+00 0. -1.
          6    1    1    2  501    0 -0.27721194779E+02 -0.12582326604E+03  0.81105483669E+03  0.83904344765E+03  0.17200000000E+03 0. -1.
         -6    1    1    2    0  503  0.27721194779E+02  0.12582326604E+03  0.32827552082E+03  0.39236306718E+03  0.17200000000E+03 0. -1.
</event>
<event>
 4    1  0.4612011E+000  0.1944579E+03  0.7818608E-02  0.1154501E+00
         21   -1    0    0  503  502  0.00000000000E+00  0.00000000000E+00  0.71730853420E+02  0.71730853420E+02  0.00000000000E+00 0.  1.
         21   -1    0    0  501  503 -0.00000000000E+00 -0.00000000000E+00 -0.10790551159E+04  0.10790551159E+04  0.00000000000E+00 0.  1.
          6    1    1    2  501    0  0.82539908813E+02 -0.37643607364E+02 -0.91516200064E+03  0.93559358972E+03  0.17200000000E+03 0.  1.
         -6    1    1    2    0  502 -0.82539908813E+02  0.37643607364E+02 -0.92162261818E+02  0.21519237957E+03  0.17200000000E+03 0.  1.
</event>
<event>
 4    1  0.4612011E+000  0.1851742E+03  0.7818608E-02  0.1162887E+00
         21   -1    0    0  503  502  0.00000000000E+00  0.00000000000E+00  0.56700948782E+03  0.56700948782E+03  0.00000000000E+00 0.  1.
         21   -1    0    0  501  503 -0.00000000000E+00 -0.00000000000E+00 -0.93505263755E+02  0.93505263755E+02  0.00000000000E+00 0.  1.
          6    1    1    2  501    0 -0.61576170682E+02  0.30229879998E+02  0.40463328752E+02  0.18954353435E+03  0.17200000000E+03 0.  1.
         -6    1    1    2    0  502  0.61576170682E+02 -0.30229879998E+02  0.43304089532E+03  0.47097121723E+03  0.17200000000E+03 0.  1.
</event>
<event>
 4    1  0.4612011E+000  0.1721161E+03  0.7818608E-02  0.1175659E+00
         21   -1    0    0  501  502  0.00000000000E+00  0.00000000000E+00  0.54066764942E+02  0.54066764942E+02  0.00000000000E+00 0.  1.
         21   -1    0    0  502  503 -0.00000000000E+00 -0.00000000000E+00 -0.78805099512E+03  0.78805099512E+03  0.00000000000E+00 0.  1.
          6    1    1    2  501    0 -0.14419527859E+01 -0.61539070540E+01 -0.13456060735E+03  0.21847312615E+03  0.17200000000E+03 0.  1.
         -6    1    1    2    0  503  0.14419527859E+01  0.61539070540E+01 -0.59942362283E+03  0.62364463391E+03  0.17200000000E+03 0.  1.
</event>
<event>
 4    1  0.4612011E+000  0.1878815E+03  0.7818608E-02  0.1160386E+00
         21   -1    0    0  503  502  0.00000000000E+00  0.00000000000E+00  0.11657069876E+03  0.11657069876E+03  0.00000000000E+00 0.  1.
         21   -1    0    0  501  503 -0.00000000000E+00 -0.00000000000E+00 -0.50028645880E+03  0.50028645880E+03  0.00000000000E+00 0.  1.
          6    1    1    2  501    0  0.75397087285E+02  0.55433886393E+01 -0.38563233374E+03  0.42896590395E+03  0.17200000000E+03 0.  1.
         -6    1    1    2    0  502 -0.75397087285E+02 -0.55433886393E+01  0.19165737056E+01  0.18789125361E+03  0.17200000000E+03 0.  1.
</event>
<event>
 4    1  0.4612011E+000  0.2000294E+03  0.7818608E-02  0.1149714E+00
         21   -1    0    0  501  502  0.00000000000E+00  0.00000000000E+00  0.26274269789E+03  0.26274269789E+03  0.00000000000E+00 0. -1.
         21   -1    0    0  502  503 -0.00000000000E+00 -0.00000000000E+00 -0.19327342575E+03  0.19327342575E+03  0.00000000000E+00 0. -1.
          6    1    1    2  501    0  0.42192002274E+02  0.92992418905E+02  0.13973603544E+03  0.24400392339E+03  0.17200000000E+03 0. -1.
         -6    1    1    2    0  503 -0.42192002274E+02 -0.92992418905E+02 -0.70266763300E+02  0.21201220025E+03  0.17200000000E+03 0. -1.
</event>
<event>
 4    1  0.4612011E+000  0.3607002E+03  0.7818608E-02  0.1058307E+00
         21   -1    0    0  501  502  0.00000000000E+00  0.00000000000E+00  0.27940347157E+03  0.27940347157E+03  0.00000000000E+00 0.  1.
         21   -1    0    0  502  503 -0.00000000000E+00 -0.00000000000E+00 -0.63353485519E+03  0.63353485519E+03  0.00000000000E+00 0. -1.
          6    1    1    2  501    0 -0.32856742108E+02 -0.31534282635E+03  0.57913780556E+02  0.36531995512E+03  0.17200000000E+03 0.  1.
         -6    1    1    2    0  503  0.32856742108E+02  0.31534282635E+03 -0.41204516418E+03  0.54761837164E+03  0.17200000000E+03 0. -1.
</event>
<event>
 4    1  0.4612011E+000  0.1806812E+03  0.7818608E-02  0.1167145E+00
         21   -1    0    0  503  502  0.00000000000E+00  0.00000000000E+00  0.47037565023E+03  0.47037565023E+03  0.00000000000E+00 0.  1.
         21   -1    0    0  501  503 -0.00000000000E+00 -0.00000000000E+00 -0.69477515517E+02  0.69477515517E+02  0.00000000000E+00 0.  1.
          6    1    1    2  501    0 -0.54186774659E+02  0.11202787917E+02  0.19163794407E+03  0.26338339092E+03  0.17200000000E+03 0.  1.
         -6    1    1    2    0  502  0.54186774659E+02 -0.11202787917E+02  0.20926019065E+03  0.27646977483E+03  0.17200000000E+03 0.  1.
</event>
<event>
 4    1  0.4612011E+000  0.2885479E+03  0.7818608E-02  0.1091110E+00
         21   -1    0    0  503  502  0.00000000000E+00  0.00000000000E+00  0.53661035706E+03  0.53661035706E+03  0.00000000000E+00 0. -1.
         21   -1    0    0  501  503 -0.00000000000E+00 -0.00000000000E+00 -0.29661135604E+03  0.29661135604E+03  0.00000000000E+00 0. -1.
          6    1    1    2  501    0  0.12678682974E+03 -0.19390973815E+03 -0.16770185104E+03  0.33374211240E+03  0.17200000000E+03 0. -1.
         -6    1    1    2    0  502 -0.12678682974E+03  0.19390973815E+03  0.40770085206E+03  0.49947960070E+03  0.17200000000E+03 0. -1.
</event>
<event>
 4    1  0.4612011E+000  0.1928856E+03  0.7818608E-02  0.1155884E+00
         21   -1    0    0  503  502  0.00000000000E+00  0.00000000000E+00  0.56159035364E+02  0.56159035364E+02  0.00000000000E+00 0.  1.
         21   -1    0    0  501  503 -0.00000000000E+00 -0.00000000000E+00 -0.85792040293E+03  0.85792040293E+03  0.00000000000E+00 0.  1.
          6    1    1    2  501    0 -0.33856521476E+02  0.80464742157E+02 -0.61901587226E+03  0.64837141277E+03  0.17200000000E+03 0.  1.
         -6    1    1    2    0  502  0.33856521476E+02 -0.80464742157E+02 -0.18274549530E+03  0.26570802553E+03  0.17200000000E+03 0.  1.
</event>
<event>
 4    1  0.4612011E+000  0.2614376E+03  0.7818608E-02  0.1106283E+00
         21   -1    0    0  501  502  0.00000000000E+00  0.00000000000E+00  0.74158827840E+02  0.74158827840E+02  0.00000000000E+00 0. -1.
         21   -1    0    0  502  503 -0.00000000000E+00 -0.00000000000E+00 -0.92273938422E+03  0.92273938422E+03  0.00000000000E+00 0.  1.
          6    1    1    2  501    0 -0.18247876299E+03 -0.73939987052E+02 -0.44129596345E+03  0.51292470011E+03  0.17200000000E+03 0.  1.
         -6    1    1    2    0  503  0.18247876299E+03  0.73939987052E+02 -0.40728459293E+03  0.48397351195E+03  0.17200000000E+03 0.  1.
</event>
<event>
 4    1  0.4612011E+000  0.2083067E+03  0.7818608E-02  0.1142914E+00
         21   -1    0    0  501  502  0.00000000000E+00  0.00000000000E+00  0.68112919072E+03  0.68112919072E+03  0.00000000000E+00 0.  1.
         21   -1    0    0  502  503 -0.00000000000E+00 -0.00000000000E+00 -0.63708921946E+02  0.63708921946E+02  0.00000000000E+00 0. -1.
          6    1    1    2  501    0 -0.76468538054E+02 -0.89220300210E+02  0.31142567517E+03  0.37467005543E+03  0.17200000000E+03 0. -1.
         -6    1    1    2    0  503  0.76468538054E+02  0.89220300210E+02  0.30599459360E+03  0.37016805723E+03  0.17200000000E+03 0. -1.
</event>
<event>
 4    1  0.4612011E+000  0.2258673E+03  0.7818608E-02  0.1129583E+00
         21   -1    0    0  501  502  0.00000000000E+00  0.00000000000E+00  0.51646153368E+03  0.51646153368E+03  0.00000000000E+00 0. -1.
         21   -1    0    0  502  503 -0.00000000000E+00 -0.00000000000E+00 -0.98978184386E+02  0.98978184386E+02  0.00000000000E+00 0. -1.
          6    1    1    2  501    0  0.14089243190E+03 -0.39766208426E+02  0.22251404626E+03  0.31706234321E+03  0.17200000000E+03 0. -1.
         -6    1    1    2    0  503 -0.14089243190E+03  0.39766208426E+02  0.19496930303E+03  0.29837737486E+03  0.17200000000E+03 0. -1.
</event>
<event>
 4    1  0.4612011E+000  0.1771078E+03  0.7818608E-02  0.1170632E+00
         21   -1    0    0  501  502  0.00000000000E+00  0.00000000000E+00  0.56981162714E+02  0.56981162714E+02  0.00000000000E+00 0.  1.
         21   -1    0    0  502  503 -0.00000000000E+00 -0.00000000000E+00 -0.78582348652E+03  0.78582348652E+03  0.00000000000E+00 0.  1.
          6    1    1    2  501    0  0.38343040081E+02 -0.17691456464E+02 -0.13380884139E+03  0.22197293166E+03  0.17200000000E+03 0.  1.
         -6    1    1    2    0  503 -0.38343040081E+02  0.17691456464E+02 -0.59503348241E+03  0.62083171757E+03  0.17200000000E+03 0.  1.
</event>
<event>
 4    1  0.4612011E+000  0.1790447E+03  0.7818608E-02  0.1168731E+00
         21   -1    0    0  501  502  0.00000000000E+00  0.00000000000E+00  0.12522986386E+04  0.12522986386E+04  0.00000000000E+00 0.  1.
         21   -1    0    0  502  503 -0.00000000000E+00 -0.00000000000E+00 -0.30724480094E+02  0.30724480094E+02  0.00000000000E+00 0.  1.
          6    1    1    2  501    0 -0.48626679546E+02  0.10414557265E+02  0.87281584560E+03  0.89099075040E+03  0.17200000000E+03 0.  1.
         -6    1    1    2    0  503  0.48626679546E+02 -0.10414557265E+02  0.34875831287E+03  0.39203236825E+03  0.17200000000E+03 0.  1.
</event>
<event>
 4    1  0.4612011E+000  0.1918735E+03  0.7818608E-02  0.1156782E+00
         21   -1    0    0  503  502  0.00000000000E+00  0.00000000000E+00  0.40676442279E+03  0.40676442279E+03  0.00000000000E+00 0. -1.
         21   -1    0    0  501  503 -0.00000000000E+00 -0.00000000000E+00 -0.11017437757E+03  0.11017437757E+03  0.00000000000E+00 0. -1.
          6    1    1    2  501    0  0.65145633908E+02 -0.54657893663E+02  0.39092946700E+02  0.19581546782E+03  0.17200000000E+03 0. -1.
         -6    1    1    2    0  502 -0.65145633908E+02  0.54657893663E+02  0.25749709852E+03  0.32112333254E+03  0.17200000000E+03 0. -1.
</event>
<event>
 4    1  0.4612011E+000  0.1941720E+03  0.7818608E-02  0.1154751E+00
         21   -1    0    0  501  502  0.00000000000E+00  0.00000000000E+00  0.23709807833E+03  0.23709807833E+03  0.00000000000E+00 0.  1.
         21   -1    0    0  502  503 -0.00000000000E+00 -0.00000000000E+00 -0.22385921138E+03  0.22385921138E+03  0.00000000000E+00 0.  1.
          6    1    1    2  501    0 -0.87849416318E+02  0.20031536370E+02  0.13066175749E+03  0.23404118712E+03  0.17200000000E+03 0.  1.
         -6    1    1    2    0  503  0.87849416318E+02 -0.20031536370E+02 -0.11742289054E+03  0.22691610260E+03  0.17200000000E+03 0.  1.
</event>
<event>
 4    1  0.4612011E+000  0.1741180E+03  0.7818608E-02  0.1173620E+00
         21   -1    0    0  501  502  0.00000000000E+00  0.00000000000E+00  0.56318361764E+03  0.56318361764E+03  0.00000000000E+00 0. -1.
         21   -1    0    0  502  503 -0.00000000000E+00 -0.00000000000E+00 -0.84064899809E+02  0.84064899809E+02  0.00000000000E+00 0. -1.
          6    1    1    2  501    0 -0.23172643964E+02 -0.14003874432E+02  0.43363741533E+03  0.46728844186E+03  0.17200000000E+03 0. -1.
         -6    1    1    2    0  503  0.23172643964E+02  0.14003874432E+02  0.45481302504E+02  0.17996007559E+03  0.17200000000E+03 0. -1.
</event>
<event>
 4    1  0.4612011E+000  0.2211489E+03  0.7818608E-02  0.1133029E+00
         21   -1    0    0  503  502  0.00000000000E+00  0.00000000000E+00  0.39855634102E+03  0.39855634102E+03  0.00000000000E+00 0.  1.
         21   -1    0    0  501  503 -0.00000000000E+00 -0.00000000000E+00 -0.18317291156E+03  0.18317291156E+03  0.00000000000E+00 0.  1.
          6    1    1    2  501    0 -0.34109136739E+02  0.13475682648E+03 -0.59419243519E+02  0.22899231863E+03  0.17200000000E+03 0.  1.
         -6    1    1    2    0  502  0.34109136739E+02 -0.13475682648E+03  0.27480267298E+03  0.35273693395E+03  0.17200000000E+03 0.  1.
</event>
<event>
 4    1  0.4612011E+000  0.3382397E+03  0.7818608E-02  0.1067548E+00
         21   -1    0    0  503  502  0.00000000000E+00  0.00000000000E+00  0.21996589898E+03  0.21996589898E+03  0.00000000000E+00 0.  1.
         21   -1    0    0  501  503 -0.00000000000E+00 -0.00000000000E+00 -0.86349104115E+03  0.86349104115E+03  0.00000000000E+00 0.  1.
          6    1    1    2  501    0  0.54843645888E+02 -0.28603189129E+03 -0.66338158548E+03  0.74463494162E+03  0.17200000000E+03 0.  1.
         -6    1    1    2    0  502 -0.54843645888E+02  0.28603189129E+03  0.19856443319E+02  0.33882199850E+03  0.17200000000E+03 0.  1.
</event>
<event>
 4    1  0.4612011E+000  0.3274293E+03  0.7818608E-02  0.1072280E+00
         21   -1    0    0  503  502  0.00000000000E+00  0.00000000000E+00  0.23670400923E+03  0.23670400923E+03  0.00000000000E+00 0.  1.
         21   -1    0    0  501  503 -0.00000000000E+00 -0.00000000000E+00 -0.83865841964E+03  0.83865841964E+03  0.00000000000E+00 0. -1.
          6    1    1    2  501    0  0.17445762701E+03  0.21723365076E+03 -0.66562545682E+03  0.74179995377E+03  0.17200000000E+03 0. -1.
         -6    1    1    2    0  502 -0.17445762701E+03 -0.21723365076E+03  0.63671046416E+02  0.33356247510E+03  0.17200000000E+03 0.  1.
</event>
<event>
 4    1  0.4612011E+000  0.1781652E+03  0.7818608E-02  0.1169591E+00
         21   -1    0    0  501  502  0.00000000000E+00  0.00000000000E+00  0.14381932291E+04  0.14381932291E+04  0.00000000000E+00 0. -1.
         21   -1    0    0  502  503 -0.00000000000E+00 -0.00000000000E+00 -0.25359554207E+02  0.25359554207E+02  0.00000000000E+00 0. -1.
          6    1    1    2  501    0 -0.41001032200E+02  0.21857780404E+02  0.96992122199E+03  0.98614908815E+03  0.17200000000E+03 0.  1.
         -6    1    1    2    0  503  0.41001032200E+02 -0.21857780404E+02  0.44291245290E+03  0.47740369514E+03  0.17200000000E+03 0.  1.
</event>
<event>
 4    1  0.4612011E+000  0.2248977E+03  0.7818608E-02  0.1130283E+00
         21   -1    0    0  503  502  0.00000000000E+00  0.00000000000E+00  0.15896113999E+03  0.15896113999E+03  0.00000000000E+00 0. -1.
         21   -1    0    0  501  503 -0.00000000000E+00 -0.00000000000E+00 -0.38469398608E+03  0.38469398608E+03  0.00000000000E+00 0.  1.
          6    1    1    2  501    0  0.57918291084E+02 -0.13281734898E+03 -0.22589219199E+03  0.31875736703E+03  0.17200000000E+03 0. -1.
         -6    1    1    2    0  502 -0.57918291084E+02  0.13281734898E+03  0.15934590528E+00  0.22489775904E+03  0.17200000000E+03 0. -1.
</event>
<event>
 4    1  0.4612011E+000  0.1749083E+03  0.7818608E-02  0.1172824E+00
         21   -1    0    0  503  502  0.00000000000E+00  0.00000000000E+00  0.59615051587E+03  0.59615051587E+03  0.00000000000E+00 0.  1.
         21   -1    0    0  501  503 -0.00000000000E+00 -0.00000000000E+00 -0.53371036720E+02  0.53371036720E+02  0.00000000000E+00 0.  1.
          6    1    1    2  501    0 -0.23191515553E+02 -0.21704250496E+02  0.20768556698E+03  0.27152571815E+03  0.17200000000E+03 0.  1.
         -6    1    1    2    0  502  0.23191515553E+02  0.21704250496E+02  0.33509391217E+03  0.37799583444E+03  0.17200000000E+03 0.  1.
</event>
<event>
 4    1  0.4612011E+000  0.1794614E+03  0.7818608E-02  0.1168325E+00
         21   -1    0    0  503  502  0.00000000000E+00  0.00000000000E+00  0.21117696086E+03  0.21117696086E+03  0.00000000000E+00 0.  1.
         21   -1    0    0  501  503 -0.00000000000E+00 -0.00000000000E+00 -0.20547230475E+03  0.20547230475E+03  0.00000000000E+00 0.  1.
          6    1    1    2  501    0 -0.50487744820E+02 -0.85671263362E+01 -0.10291489717E+03  0.20687649477E+03  0.17200000000E+03 0.  1.
         -6    1    1    2    0  502  0.50487744820E+02  0.85671263362E+01  0.10861955328E+03  0.20977277084E+03  0.17200000000E+03 0.  1.
</event>
<event>
 4    1  0.4612011E+000  0.1900058E+03  0.7818608E-02  0.1158456E+00
         21   -1    0    0  501  502  0.00000000000E+00  0.00000000000E+00  0.20022920241E+03  0.20022920241E+03  0.00000000000E+00 0.  1.
         21   -1    0    0  502  503 -0.00000000000E+00 -0.00000000000E+00 -0.21331665642E+03  0.21331665642E+03  0.00000000000E+00 0. -1.
          6    1    1    2  501    0  0.18826815653E+02 -0.78509619697E+02  0.74799013001E+02  0.20419868197E+03  0.17200000000E+03 0.  1.
         -6    1    1    2    0  503 -0.18826815653E+02  0.78509619697E+02 -0.87886467009E+02  0.20934717685E+03  0.17200000000E+03 0. -1.
</event>
<event>
 4    1  0.4612011E+000  0.1810888E+03  0.7818608E-02  0.1166753E+00
         21   -1    0    0  501  502  0.00000000000E+00  0.00000000000E+00  0.34544661627E+02  0.34544661627E+02  0.00000000000E+00 0. -1.
         21   -1    0    0  502  503 -0.00000000000E+00 -0.00000000000E+00 -0.95893974696E+03  0.95893974696E+03  0.00000000000E+00 0. -1.
          6    1    1    2  501    0 -0.41756961628E+02  0.38281932007E+02 -0.51200926273E+03  0.54308989613E+03  0.17200000000E+03 0.  1.
         -6    1    1    2    0  503  0.41756961628E+02 -0.38281932007E+02 -0.41238582260E+03  0.45039451245E+03  0.17200000000E+03 0.  1.
</event>
<event>
 4    1  0.4612011E+000  0.1856044E+03  0.7818608E-02  0.1162487E+00
         21   -1    0    0  503  502  0.00000000000E+00  0.00000000000E+00  0.72041879999E+03  0.72041879999E+03  0.00000000000E+00 0.  1.
         21   -1    0    0  501  503 -0.00000000000E+00 -0.00000000000E+00 -0.26659431284E+03  0.26659431284E+03  0.00000000000E+00 0. -1.
          6    1    1    2  501    0 -0.44616042209E+02  0.53613379856E+02 -0.22014963271E+03  0.28794938185E+03  0.17200000000E+03 0. -1.
         -6    1    1    2    0  502  0.44616042209E+02 -0.53613379856E+02  0.67397411986E+03  0.69906373098E+03  0.17200000000E+03 0.  1.
</event>
<event>
 4    1  0.4612011E+000  0.2058481E+03  0.7818608E-02  0.1144897E+00
         21   -1    0    0  503  502  0.00000000000E+00  0.00000000000E+00  0.48021679109E+02  0.48021679109E+02  0.00000000000E+00 0.  1.
         21   -1    0    0  501  503 -0.00000000000E+00 -0.00000000000E+00 -0.88338417134E+03  0.88338417134E+03  0.00000000000E+00 0.  1.
          6    1    1    2  501    0 -0.11257155513E+03  0.10820859564E+02 -0.43337012448E+03  0.47977402058E+03  0.17200000000E+03 0.  1.
         -6    1    1    2    0  502  0.11257155513E+03 -0.10820859564E+02 -0.40199236775E+03  0.45163182987E+03  0.17200000000E+03 0.  1.
</event>
<event>
 4    1  0.4612011E+000  0.2161881E+03  0.7818608E-02  0.1136757E+00
         21   -1    0    0  501  502  0.00000000000E+00  0.00000000000E+00  0.83443834446E+02  0.83443834446E+02  0.00000000000E+00 0.  1.
         21   -1    0    0  502  503 -0.00000000000E+00 -0.00000000000E+00 -0.69748518111E+03  0.69748518111E+03  0.00000000000E+00 0.  1.
          6    1    1    2  501    0  0.11914145768E+03 -0.54393061584E+02 -0.48031184253E+03  0.52672265772E+03  0.17200000000E+03 0.  1.
         -6    1    1    2    0  503 -0.11914145768E+03  0.54393061584E+02 -0.13372950413E+03  0.25420635783E+03  0.17200000000E+03 0.  1.
</event>
<event>
 4    1  0.4612011E+000  0.1769141E+03  0.7818608E-02  0.1170823E+00
         21   -1    0    0  503  502  0.00000000000E+00  0.00000000000E+00  0.23756229357E+03  0.23756229357E+03  0.00000000000E+00 0.  1.
         21   -1    0    0  501  503 -0.00000000000E+00 -0.00000000000E+00 -0.19610646834E+03  0.19610646834E+03  0.00000000000E+00 0.  1.
          6    1    1    2  501    0 -0.65058570187E+01  0.40893399053E+02 -0.10348925939E+03  0.20496005238E+03  0.17200000000E+03 0. -1.
         -6    1    1    2    0  502  0.65058570187E+01 -0.40893399053E+02  0.14494508462E+03  0.22870870953E+03  0.17200000000E+03 0. -1.
</event>
<event>
 4    1  0.4612011E+000  0.3351902E+03  0.7818608E-02  0.1068863E+00
         21   -1    0    0  503  502  0.00000000000E+00  0.00000000000E+00  0.13552915987E+03  0.13552915987E+03  0.00000000000E+00 0. -1.
         21   -1    0    0  501  503 -0.00000000000E+00 -0.00000000000E+00 -0.18775837360E+04  0.18775837360E+04  0.00000000000E+00 0. -1.
          6    1    1    2  501    0 -0.17544824870E+03 -0.22800515633E+03 -0.16232421720E+04  0.16574883373E+04  0.17200000000E+03 0. -1.
         -6    1    1    2    0  502  0.17544824870E+03  0.22800515633E+03 -0.11881240413E+03  0.35562455857E+03  0.17200000000E+03 0. -1.
</event>
<event>
 4    1  0.4612011E+000  0.3056835E+03  0.7818608E-02  0.1082433E+00
         21   -1    0    0  503  502  0.00000000000E+00  0.00000000000E+00  0.56449802666E+03  0.56449802666E+03  0.00000000000E+00 0.  1.
         21   -1    0    0  501  503 -0.00000000000E+00 -0.00000000000E+00 -0.18735037595E+03  0.18735037595E+03  0.00000000000E+00 0. -1.
          6    1    1    2  501    0  0.10488247645E+03  0.22990885454E+03  0.60285988426E+02  0.31157152576E+03  0.17200000000E+03 0.  1.
         -6    1    1    2    0  502 -0.10488247645E+03 -0.22990885454E+03  0.31686166229E+03  0.44027687685E+03  0.17200000000E+03 0. -1.
</event>
<event>
 4    1  0.4612011E+000  0.2625502E+03  0.7818608E-02  0.1105621E+00
         21   -1    0    0  501  502  0.00000000000E+00  0.00000000000E+00  0.20782859441E+04  0.20782859441E+04  0.00000000000E+00 0. -1.
         21   -1    0    0  502  503 -0.00000000000E+00 -0.00000000000E+00 -0.51004845114E+02  0.51004845114E+02  0.00000000000E+00 0.  1.
          6    1    1    2  501    0 -0.68205009432E+02 -0.18627051804E+03  0.16432308717E+04  0.16640734139E+04  0.17200000000E+03 0. -1.
         -6    1    1    2    0  503  0.68205009432E+02  0.18627051804E+03  0.38405022732E+03  0.46521737533E+03  0.17200000000E+03 0.  1.
</event>
<event>
 4    1  0.4612011E+000  0.2063697E+03  0.7818608E-02  0.1144473E+00
         21   -1    0    0  501  502  0.00000000000E+00  0.00000000000E+00  0.58747153258E+02  0.58747153258E+02  0.00000000000E+00 0. -1.
         21   -1    0    0  502  503 -0.00000000000E+00 -0.00000000000E+00 -0.74954889355E+03  0.74954889355E+03  0.00000000000E+00 0. -1.
          6    1    1    2  501    0 -0.38973704165E+02 -0.10717050639E+03 -0.41862270148E+03  0.46672629372E+03  0.17200000000E+03 0. -1.
         -6    1    1    2    0  503  0.38973704165E+02  0.10717050639E+03 -0.27217903882E+03  0.34156975309E+03  0.17200000000E+03 0. -1.
</event>
<event>
 4    1  0.4612011E+000  0.1985215E+03  0.7818608E-02  0.1150992E+00
         21   -1    0    0  501  502  0.00000000000E+00  0.00000000000E+00  0.60318348042E+02  0.60318348042E+02  0.00000000000E+00 0. -1.
         21   -1    0    0  502  503 -0.00000000000E+00 -0.00000000000E+00 -0.95866997403E+03  0.95866997403E+03  0.00000000000E+00 0. -1.
          6    1    1    2  501    0 -0.90313556497E+02 -0.40868727017E+02 -0.16166045490E+03  0.25601737053E+03  0.17200000000E+03 0. -1.
         -6    1    1    2    0  503  0.90313556497E+02  0.40868727017E+02 -0.73669117109E+03  0.76297095154E+03  0.17200000000E+03 0. -1.
</event>
<event>
 4    1  0.4612011E+000  0.2189819E+03  0.7818608E-02  0.1134644E+00
         21   -1    0    0  503  502  0.00000000000E+00  0.00000000000E+00  0.32158158280E+03  0.32158158280E+03  0.00000000000E+00 0.  1.
         21   -1    0    0  501  503 -0.00000000000E+00 -0.00000000000E+00 -0.15470806372E+03  0.15470806372E+03  0.00000000000E+00 0.  1.
          6    1    1    2  501    0  0.12746268177E+03 -0.46068988819E+02  0.12871143109E+03  0.25400732168E+03  0.17200000000E+03 0.  1.
         -6    1    1    2    0  502 -0.12746268177E+03  0.46068988819E+02  0.38162087988E+02  0.22228232484E+03  0.17200000000E+03 0.  1.
</event>
<event>
 4    1  0.4612011E+000  0.1930221E+03  0.7818608E-02  0.1155763E+00
         21   -1    0    0  503  502  0.00000000000E+00  0.00000000000E+00  0.31294980017E+03  0.31294980017E+03  0.00000000000E+00 0.  1.
         21   -1    0    0  501  503 -0.00000000000E+00 -0.00000000000E+00 -0.18572608547E+03  0.18572608547E+03  0.00000000000E+00 0. -1.
          6    1    1    2  501    0  0.74365619498E+02  0.46295784217E+02 -0.85780334537E+02  0.21122455064E+03  0.17200000000E+03 0. -1.
         -6    1    1    2    0  502 -0.74365619498E+02 -0.46295784217E+02  0.21300404923E+03  0.28745133499E+03  0.17200000000E+03 0.  1.
</event>
<event>
 4    1  0.4612011E+000  0.1720043E+03  0.7818608E-02  0.1175774E+00
         21   -1    0    0  503  502  0.00000000000E+00  0.00000000000E+00  0.72554087434E+02  0.72554087434E+02  0.00000000000E+00 0.  1.
         21   -1    0    0  501  503 -0.00000000000E+00 -0.00000000000E+00 -0.41851503022E+03  0.41851503022E+03  0.00000000000E+00 0.  1.
          6    1    1    2  501    0  0.68331029884E+00 -0.10110381183E+01 -0.13364081254E+03  0.21781954891E+03  0.17200000000E+03 0.  1.
         -6    1    1    2    0  502 -0.68331029884E+00  0.10110381183E+01 -0.21232013024E+03  0.27324956874E+03  0.17200000000E+03 0.  1.
</event>
<event>
 4    1  0.4612011E+000  0.2151894E+03  0.7818608E-02  0.1137521E+00
         21   -1    0    0  503  502  0.00000000000E+00  0.00000000000E+00  0.11677145346E+04  0.11677145346E+04  0.00000000000E+00 0. -1.
         21   -1    0    0  501  503 -0.00000000000E+00 -0.00000000000E+00 -0.11571891900E+03  0.11571891900E+03  0.00000000000E+00 0. -1.
          6    1    1    2  501    0  0.12808610165E+03  0.17788026699E+02  0.57279004600E+01  0.21526558520E+03  0.17200000000E+03 0. -1.
         -6    1    1    2    0  502 -0.12808610165E+03 -0.17788026699E+02  0.10462677152E+04  0.10681678684E+04  0.17200000000E+03 0. -1.
</event>
<event>
 4    1  0.4612011E+000  0.1935066E+03  0.7818608E-02  0.1155336E+00
         21   -1    0    0  503  502  0.00000000000E+00  0.00000000000E+00  0.20008363264E+02  0.20008363264E+02  0.00000000000E+00 0.  1.
         21   -1    0    0  501  503 -0.00000000000E+00 -0.00000000000E+00 -0.21032642913E+04  0.21032642913E+04  0.00000000000E+00 0.  1.
          6    1    1    2  501    0  0.81933741944E+02 -0.33877185749E+02 -0.13940734161E+04  0.14074393384E+04  0.17200000000E+03 0.  1.
         -6    1    1    2    0  502 -0.81933741944E+02  0.33877185749E+02 -0.68918251200E+03  0.71583331623E+03  0.17200000000E+03 0.  1.
</event>
<event>
 4    1  0.4612011E+000  0.1996588E+03  0.7818608E-02  0.1150027E+00
         21   -1    0    0  501  502  0.00000000000E+00  0.00000000000E+00  0.79768026997E+02  0.79768026997E+02  0.00000000000E+00 0. -1.
         21   -1    0    0  502  503 -0.00000000000E+00 -0.00000000000E+00 -0.58061726788E+03  0.58061726788E+03  0.00000000000E+00 0. -1.
          6    1    1    2  501    0  0.55086263716E+02 -0.85118486227E+02 -0.12719279209E+03  0.23673119674E+03  0.17200000000E+03 0. -1.
         -6    1    1    2    0  503 -0.55086263716E+02  0.85118486227E+02 -0.37365644879E+03  0.42365409814E+03  0.17200000000E+03 0. -1.
</event>
<event>
 4    1  0.4612011E+000  0.2162721E+03  0.7818608E-02  0.1136693E+00
         21   -1    0    0  501  502  0.00000000000E+00  0.00000000000E+00  0.15068028710E+03  0.15068028710E+03  0.00000000000E+00 0.  1.
         21   -1    0    0  502  503 -0.00000000000E+00 -0.00000000000E+00 -0.98473769871E+03  0.98473769871E+03  0.00000000000E+00 0.  1.
          6    1    1    2  501    0  0.74551938261E+02  0.10784996218E+03  0.52756122090E+02  0.22261359855E+03  0.17200000000E+03 0.  1.
         -6    1    1    2    0  503 -0.74551938261E+02 -0.10784996218E+03 -0.88681353371E+03  0.91280438726E+03  0.17200000000E+03 0.  1.
</event>
<event>
 4    1  0.4612011E+000  0.2843914E+03  0.7818608E-02  0.1093314E+00
         21   -1    0    0  501  502  0.00000000000E+00  0.00000000000E+00  0.30134056206E+03  0.30134056206E+03  0.00000000000E+00 0. -1.
         21   -1    0    0  502  503 -0.00000000000E+00 -0.00000000000E+00 -0.32181843656E+03  0.32181843656E+03  0.00000000000E+00 0.  1.
          6    1    1    2  501    0  0.20966779155E+03 -0.85638260818E+02  0.11670930842E+03  0.30740780276E+03  0.17200000000E+03 0. -1.
         -6    1    1    2    0  503 -0.20966779155E+03  0.85638260818E+02 -0.13718718291E+03  0.31575119585E+03  0.17200000000E+03 0.  1.
</event>
<event>
 4    1  0.4612011E+000  0.1777814E+03  0.7818608E-02  0.1169968E+00
         21   -1    0    0  501  502  0.00000000000E+00  0.00000000000E+00  0.57487535724E+03  0.57487535724E+03  0.00000000000E+00 0.  1.
         21   -1    0    0  502  503 -0.00000000000E+00 -0.00000000000E+00 -0.55068181410E+02  0.55068181410E+02  0.00000000000E+00 0.  1.
          6    1    1    2  501    0  0.34252763801E+02 -0.29137019885E+02  0.27256089533E+03  0.32541613270E+03  0.17200000000E+03 0.  1.
         -6    1    1    2    0  503 -0.34252763801E+02  0.29137019885E+02  0.24724628050E+03  0.30452740595E+03  0.17200000000E+03 0.  1.
</event>
<event>
 4    1  0.4612011E+000  0.1889691E+03  0.7818608E-02  0.1159394E+00
         21   -1    0    0  503  502  0.00000000000E+00  0.00000000000E+00  0.39563672742E+03  0.39563672742E+03  0.00000000000E+00 0.  1.
         21   -1    0    0  501  503 -0.00000000000E+00 -0.00000000000E+00 -0.97726511507E+02  0.97726511507E+02  0.00000000000E+00 0.  1.
          6    1    1    2  501    0 -0.20179431873E+02 -0.75618224293E+02  0.80760251462E+02  0.20550314726E+03  0.17200000000E+03 0.  1.
         -6    1    1    2    0  502  0.20179431873E+02  0.75618224293E+02  0.21714996445E+03  0.28786009167E+03  0.17200000000E+03 0.  1.
</event>
<event>
 4    1  0.4612011E+000  0.2617583E+03  0.7818608E-02  0.1106091E+00
         21   -1    0    0  503  502  0.00000000000E+00  0.00000000000E+00  0.85987220829E+03  0.85987220829E+03  0.00000000000E+00 0.  1.
         21   -1    0    0  501  503 -0.00000000000E+00 -0.00000000000E+00 -0.87423247374E+02  0.87423247374E+02  0.00000000000E+00 0.  1.
          6    1    1    2  501    0 -0.10711995914E+03 -0.16570666700E+03  0.24529129155E+03  0.35872719836E+03  0.17200000000E+03 0.  1.
         -6    1    1    2    0  502  0.10711995914E+03  0.16570666700E+03  0.52715766936E+03  0.58856825730E+03  0.17200000000E+03 0.  1.
</event>
<event>
 4    1  0.4612011E+000  0.4805568E+03  0.7818608E-02  0.1018982E+00
         21   -1    0    0  501  502  0.00000000000E+00  0.00000000000E+00  0.72418285874E+03  0.72418285874E+03  0.00000000000E+00 0. -1.
         21   -1    0    0  502  503 -0.00000000000E+00 -0.00000000000E+00 -0.45345266231E+03  0.45345266231E+03  0.00000000000E+00 0.  1.
          6    1    1    2  501    0  0.27198428538E+02  0.44789628289E+03  0.45612261719E+03  0.66255767798E+03  0.17200000000E+03 0. -1.
         -6    1    1    2    0  503 -0.27198428538E+02 -0.44789628289E+03 -0.18539242076E+03  0.51507784306E+03  0.17200000000E+03 0.  1.
</event>
<event>
 4    1  0.4612011E+000  0.2446984E+03  0.7818608E-02  0.1116702E+00
         21   -1    0    0  503  502  0.00000000000E+00  0.00000000000E+00  0.13051909650E+04  0.13051909650E+04  0.00000000000E+00 0. -1.
         21   -1    0    0  501  503 -0.00000000000E+00 -0.00000000000E+00 -0.53386277942E+02  0.53386277942E+02  0.00000000000E+00 0.  1.
          6    1    1    2  501    0 -0.12048770759E+03  0.12560270398E+03  0.37112607810E+03  0.44453559225E+03  0.17200000000E+03 0.  1.
         -6    1    1    2    0  502  0.12048770759E+03 -0.12560270398E+03  0.88067860892E+03  0.91404165066E+03  0.17200000000E+03 0. -1.
</event>
<event>
 4    1  0.4612011E+000  0.1865036E+03  0.7818608E-02  0.1161653E+00
         21   -1    0    0  503  502  0.00000000000E+00  0.00000000000E+00  0.46448460809E+02  0.46448460809E+02  0.00000000000E+00 0. -1.
         21   -1    0    0  501  503 -0.00000000000E+00 -0.00000000000E+00 -0.16890426803E+04  0.16890426803E+04  0.00000000000E+00 0. -1.
          6    1    1    2  501    0 -0.49452026899E+01  0.71938500708E+02 -0.14687037951E+04  0.14804980380E+04  0.17200000000E+03 0. -1.
         -6    1    1    2    0  502  0.49452026899E+01 -0.71938500708E+02 -0.17389042438E+03  0.25499310305E+03  0.17200000000E+03 0. -1.
</event>
<event>
 4    1  0.4612011E+000  0.1829005E+03  0.7818608E-02  0.1165025E+00
         21   -1    0    0  501  502  0.00000000000E+00  0.00000000000E+00  0.20577052872E+03  0.20577052872E+03  0.00000000000E+00 0.  1.
         21   -1    0    0  502  503 -0.00000000000E+00 -0.00000000000E+00 -0.16416154668E+03  0.16416154668E+03  0.00000000000E+00 0.  1.
          6    1    1    2  501    0  0.35123948031E+02 -0.51331307205E+02  0.26054927428E+01  0.18291906248E+03  0.17200000000E+03 0. -1.
         -6    1    1    2    0  503 -0.35123948031E+02  0.51331307205E+02  0.39003489300E+02  0.18701301292E+03  0.17200000000E+03 0. -1.
</event>
<event>
 4    1  0.4612011E+000  0.2162625E+03  0.7818608E-02  0.1136701E+00
         21   -1    0    0  501  502  0.00000000000E+00  0.00000000000E+00  0.24158016106E+03  0.24158016106E+03  0.00000000000E+00 0. -1.
         21   -1    0    0  502  503 -0.00000000000E+00 -0.00000000000E+00 -0.38541290463E+03  0.38541290463E+03  0.00000000000E+00 0. -1.
          6    1    1    2  501    0 -0.52832439213E+02 -0.11997579663E+03  0.14924571867E+03  0.26276176082E+03  0.17200000000E+03 0. -1.
         -6    1    1    2    0  503  0.52832439213E+02  0.11997579663E+03 -0.29307846224E+03  0.36423130486E+03  0.17200000000E+03 0. -1.
</event>
<event>
 4    1  0.4612011E+000  0.1901199E+03  0.7818608E-02  0.1158353E+00
         21   -1    0    0  503  502  0.00000000000E+00  0.00000000000E+00  0.13792491176E+03  0.13792491176E+03  0.00000000000E+00 0.  1.
         21   -1    0    0  501  503 -0.00000000000E+00 -0.00000000000E+00 -0.46031644736E+03  0.46031644736E+03  0.00000000000E+00 0.  1.
          6    1    1    2  501    0 -0.20469085469E+02 -0.78374714124E+02 -0.35749748305E+03  0.40490743344E+03  0.17200000000E+03 0.  1.
         -6    1    1    2    0  502  0.20469085469E+02  0.78374714124E+02  0.35105947445E+02  0.19333392568E+03  0.17200000000E+03 0.  1.
</event>
<event>
 4    1  0.4612011E+000  0.1975606E+03  0.7818608E-02  0.1151814E+00
         21   -1    0    0  503  502  0.00000000000E+00  0.00000000000E+00  0.10834594711E+04  0.10834594711E+04  0.00000000000E+00 0. -1.
         21   -1    0    0  501  503 -0.00000000000E+00 -0.00000000000E+00 -0.38701958789E+02  0.38701958789E+02  0.00000000000E+00 0. -1.
          6    1    1    2  501    0 -0.51025414959E+02 -0.82719891623E+02  0.66997949910E+03  0.69850032402E+03  0.17200000000E+03 0. -1.
         -6    1    1    2    0  502  0.51025414959E+02  0.82719891623E+02  0.37477801323E+03  0.42366110589E+03  0.17200000000E+03 0. -1.
</event>
<event>
 4    1  0.4612011E+000  0.2533910E+03  0.7818608E-02  0.1111180E+00
         21   -1    0    0  501  502  0.00000000000E+00  0.00000000000E+00  0.53134748876E+03  0.53134748876E+03  0.00000000000E+00 0. -1.
         21   -1    0    0  502  503 -0.00000000000E+00 -0.00000000000E+00 -0.14095705784E+03  0.14095705784E+03  0.00000000000E+00 0. -1.
          6    1    1    2  501    0 -0.95052413456E+02  0.15996265241E+03  0.32219283279E+03  0.40989661254E+03  0.17200000000E+03 0. -1.
         -6    1    1    2    0  503  0.95052413456E+02 -0.15996265241E+03  0.68197598134E+02  0.26240793407E+03  0.17200000000E+03 0. -1.
</event>
<event>
 4    1  0.4612011E+000  0.2202638E+03  0.7818608E-02  0.1133687E+00
         21   -1    0    0  501  502  0.00000000000E+00  0.00000000000E+00  0.14623050240E+03  0.14623050240E+03  0.00000000000E+00 0. -1.
         21   -1    0    0  502  503 -0.00000000000E+00 -0.00000000000E+00 -0.35066485306E+03  0.35066485306E+03  0.00000000000E+00 0.  1.
          6    1    1    2  501    0 -0.10647539073E+03 -0.87149992450E+02 -0.15987568374E+03  0.27216973429E+03  0.17200000000E+03 0. -1.
         -6    1    1    2    0  503  0.10647539073E+03  0.87149992450E+02 -0.44558666919E+02  0.22472562117E+03  0.17200000000E+03 0. -1.
</event>
<event>
 4    1  0.4612011E+000  0.1917365E+03  0.7818608E-02  0.1156904E+00
         21   -1    0    0  503  502  0.00000000000E+00  0.00000000000E+00  0.54308178411E+02  0.54308178411E+02  0.00000000000E+00 0. -1.
         21   -1    0    0  501  503 -0.00000000000E+00 -0.00000000000E+00 -0.82794911428E+03  0.82794911428E+03  0.00000000000E+00 0. -1.
          6    1    1    2  501    0  0.56622271691E+02 -0.63030106135E+02 -0.57521934922E+03  0.60633338655E+03  0.17200000000E+03 0. -1.
         -6    1    1    2    0  502 -0.56622271691E+02  0.63030106135E+02 -0.19842158665E+03  0.27592390614E+03  0.17200000000E+03 0. -1.
</event>
<event>
 4    1  0.4612011E+000  0.2790627E+03  0.7818608E-02  0.1096202E+00
         21   -1    0    0  503  502  0.00000000000E+00  0.00000000000E+00  0.16760406426E+03  0.16760406426E+03  0.00000000000E+00 0. -1.
         21   -1    0    0  501  503 -0.00000000000E+00 -0.00000000000E+00 -0.56442570419E+03  0.56442570419E+03  0.00000000000E+00 0.  1.
          6    1    1    2  501    0  0.38750623641E+02  0.21631078652E+03 -0.35230568626E+03  0.44943883206E+03  0.17200000000E+03 0.  1.
         -6    1    1    2    0  502 -0.38750623641E+02 -0.21631078652E+03 -0.44515953675E+02  0.28259093639E+03  0.17200000000E+03 0. -1.
</event>
<event>
 4    1  0.4612011E+000  0.1833292E+03  0.7818608E-02  0.1164619E+00
         21   -1    0    0  503  502  0.00000000000E+00  0.00000000000E+00  0.63796863655E+03  0.63796863655E+03  0.00000000000E+00 0.  1.
         21   -1    0    0  501  503 -0.00000000000E+00 -0.00000000000E+00 -0.70662090616E+02  0.70662090616E+02  0.00000000000E+00 0.  1.
          6    1    1    2  501    0 -0.31814518613E+02 -0.54894654104E+02  0.10492619544E+03  0.21123232028E+03  0.17200000000E+03 0.  1.
         -6    1    1    2    0  502  0.31814518613E+02  0.54894654104E+02  0.46238035049E+03  0.49739840688E+03  0.17200000000E+03 0.  1.
</event>
<event>
 4    1  0.4612011E+000  0.1834392E+03  0.7818608E-02  0.1164515E+00
         21   -1    0    0  501  502  0.00000000000E+00  0.00000000000E+00  0.23213893673E+04  0.23213893673E+04  0.00000000000E+00 0.  1.
         21   -1    0    0  502  503 -0.00000000000E+00 -0.00000000000E+00 -0.16369595757E+02  0.16369595757E+02  0.00000000000E+00 0.  1.
          6    1    1    2  501    0  0.47557808787E+02  0.42475941751E+02  0.15479986104E+04  0.15588295766E+04  0.17200000000E+03 0.  1.
         -6    1    1    2    0  503 -0.47557808787E+02 -0.42475941751E+02  0.75702116106E+03  0.77892938646E+03  0.17200000000E+03 0.  1.
</event>
<event>
 4    1  0.4612011E+000  0.1993547E+03  0.7818608E-02  0.1150285E+00
         21   -1    0    0  501  502  0.00000000000E+00  0.00000000000E+00  0.39916155162E+03  0.39916155162E+03  0.00000000000E+00 0.  1.
         21   -1    0    0  502  503 -0.00000000000E+00 -0.00000000000E+00 -0.14974004636E+03  0.14974004636E+03  0.00000000000E+00 0.  1.
          6    1    1    2  501    0  0.89222576029E+02  0.46878927814E+02  0.28358070744E+03  0.34664148565E+03  0.17200000000E+03 0.  1.
         -6    1    1    2    0  503 -0.89222576029E+02 -0.46878927814E+02 -0.34159202175E+02  0.20226011233E+03  0.17200000000E+03 0.  1.
</event>
<event>
 4    1  0.4612011E+000  0.1756717E+03  0.7818608E-02  0.1172059E+00
         21   -1    0    0  503  502  0.00000000000E+00  0.00000000000E+00  0.69272458412E+02  0.69272458412E+02  0.00000000000E+00 0.  1.
         21   -1    0    0  501  503 -0.00000000000E+00 -0.00000000000E+00 -0.47310904340E+03  0.47310904340E+03  0.00000000000E+00 0.  1.
          6    1    1    2  501    0 -0.35295437151E+02  0.55491178803E+01 -0.26743562629E+03  0.31997245945E+03  0.17200000000E+03 0.  1.
         -6    1    1    2    0  502  0.35295437151E+02 -0.55491178803E+01 -0.13640095869E+03  0.22240904236E+03  0.17200000000E+03 0.  1.
</event>
<event>
 4    1  0.4612011E+000  0.2275802E+03  0.7818608E-02  0.1128355E+00
         21   -1    0    0  503  502  0.00000000000E+00  0.00000000000E+00  0.14387395601E+03  0.14387395601E+03  0.00000000000E+00 0. -1.
         21   -1    0    0  501  503 -0.00000000000E+00 -0.00000000000E+00 -0.38366279642E+03  0.38366279642E+03  0.00000000000E+00 0. -1.
          6    1    1    2  501    0  0.68463779997E+02  0.13236863883E+03 -0.54370375833E+02  0.23398479328E+03  0.17200000000E+03 0. -1.
         -6    1    1    2    0  502 -0.68463779997E+02 -0.13236863883E+03 -0.18541846457E+03  0.29355195915E+03  0.17200000000E+03 0. -1.
</event>
<event>
 4    1  0.4612011E+000  0.2030904E+03  0.7818608E-02  0.1147158E+00
         21   -1    0    0  501  502  0.00000000000E+00  0.00000000000E+00  0.51016449750E+03  0.51016449750E+03  0.00000000000E+00 0. -1.
         21   -1    0    0  502  503 -0.00000000000E+00 -0.00000000000E+00 -0.10097067700E+03  0.10097067700E+03  0.00000000000E+00 0. -1.
          6    1    1    2  501    0  0.37601978855E+02 -0.10123140988E+03  0.34100937462E+03  0.39690439748E+03  0.17200000000E+03 0. -1.
         -6    1    1    2    0  503 -0.37601978855E+02  0.10123140988E+03  0.68184445878E+02  0.21423077702E+03  0.17200000000E+03 0. -1.
</event>
<event>
 4    1  0.4612011E+000  0.1979600E+03  0.7818608E-02  0.1151472E+00
         21   -1    0    0  501  502  0.00000000000E+00  0.00000000000E+00  0.19692046350E+03  0.19692046350E+03  0.00000000000E+00 0.  1.
         21   -1    0    0  502  503 -0.00000000000E+00 -0.00000000000E+00 -0.26218069770E+03  0.26218069770E+03  0.00000000000E+00 0.  1.
          6    1    1    2  501    0 -0.96871752065E+02 -0.14833278147E+02  0.80051471977E+02  0.21353313713E+03  0.17200000000E+03 0.  1.
         -6    1    1    2    0  503  0.96871752065E+02  0.14833278147E+02 -0.14531170618E+03  0.24556802406E+03  0.17200000000E+03 0.  1.
</event>
<event>
 4    1  0.4612011E+000  0.2366880E+03  0.7818608E-02  0.1122019E+00
         21   -1    0    0  501  502  0.00000000000E+00  0.00000000000E+00  0.46802555853E+02  0.46802555853E+02  0.00000000000E+00 0.  1.
         21   -1    0    0  502  503 -0.00000000000E+00 -0.00000000000E+00 -0.13435301525E+04  0.13435301525E+04  0.00000000000E+00 0.  1.
          6    1    1    2  501    0  0.15885775326E+03 -0.34661536693E+02 -0.41876242074E+03  0.48102304823E+03  0.17200000000E+03 0.  1.
         -6    1    1    2    0  503 -0.15885775326E+03  0.34661536693E+02 -0.87796517589E+03  0.90930966012E+03  0.17200000000E+03 0.  1.
</event>
<event>
 4    1  0.4612011E+000  0.1803659E+03  0.7818608E-02  0.1167449E+00
         21   -1    0    0  501  502  0.00000000000E+00  0.00000000000E+00  0.32167982884E+03  0.32167982884E+03  0.00000000000E+00 0.  1.
         21   -1    0    0  502  503 -0.00000000000E+00 -0.00000000000E+00 -0.22016409584E+03  0.22016409584E+03  0.00000000000E+00 0.  1.
          6    1    1    2  501    0  0.55231987350E+01  0.54012611610E+02  0.24996480427E+03  0.30824385040E+03  0.17200000000E+03 0.  1.
         -6    1    1    2    0  503 -0.55231987350E+01 -0.54012611610E+02 -0.14844907127E+03  0.23360007427E+03  0.17200000000E+03 0.  1.
</event>
<event>
 4    1  0.4612011E+000  0.2382273E+03  0.7818608E-02  0.1120979E+00
         21   -1    0    0  503  502  0.00000000000E+00  0.00000000000E+00  0.29108217087E+02  0.29108217087E+02  0.00000000000E+00 0. -1.
         21   -1    0    0  501  503 -0.00000000000E+00 -0.00000000000E+00 -0.26266232931E+04  0.26266232931E+04  0.00000000000E+00 0.  1.
          6    1    1    2  501    0 -0.16475817408E+03  0.47945464854E+01 -0.19728593977E+04  0.19871905914E+04  0.17200000000E+03 0.  1.
         -6    1    1    2    0  502  0.16475817408E+03 -0.47945464854E+01 -0.62465567838E+03  0.66854091882E+03  0.17200000000E+03 0. -1.
</event>
<event>
 4    1  0.4612011E+000  0.1885689E+03  0.7818608E-02  0.1159758E+00
         21   -1    0    0  503  502  0.00000000000E+00  0.00000000000E+00  0.10085329614E+03  0.10085329614E+03  0.00000000000E+00 0.  1.
         21   -1    0    0  501  503 -0.00000000000E+00 -0.00000000000E+00 -0.57994622945E+03  0.57994622945E+03  0.00000000000E+00 0.  1.
          6    1    1    2  501    0  0.53179567840E+02  0.56090617924E+02 -0.45268616273E+03  0.49039064610E+03  0.17200000000E+03 0.  1.
         -6    1    1    2    0  502 -0.53179567840E+02 -0.56090617924E+02 -0.26406770586E+02  0.19040887949E+03  0.17200000000E+03 0.  1.
</event>
<event>
 4    1  0.4612011E+000  0.2587711E+03  0.7818608E-02  0.1107884E+00
         21   -1    0    0  501  502  0.00000000000E+00  0.00000000000E+00  0.98068330575E+02  0.98068330575E+02  0.00000000000E+00 0. -1.
         21   -1    0    0  502  503 -0.00000000000E+00 -0.00000000000E+00 -0.68643411732E+03  0.68643411732E+03  0.00000000000E+00 0. -1.
          6    1    1    2  501    0  0.39625934641E+02  0.18923075359E+03 -0.26569979576E+03  0.37088930190E+03  0.17200000000E+03 0. -1.
         -6    1    1    2    0  503 -0.39625934641E+02 -0.18923075359E+03 -0.32266599099E+03  0.41361314599E+03  0.17200000000E+03 0. -1.
</event>
<event>
 4    1  0.4612011E+000  0.1745865E+03  0.7818608E-02  0.1173148E+00
         21   -1    0    0  503  502  0.00000000000E+00  0.00000000000E+00  0.21423994939E+03  0.21423994939E+03  0.00000000000E+00 0.  1.
         21   -1    0    0  501  503 -0.00000000000E+00 -0.00000000000E+00 -0.15788273649E+03  0.15788273649E+03  0.00000000000E+00 0.  1.
          6    1    1    2  501    0  0.29637137269E+02  0.42508195387E+01 -0.30326680933E+02  0.17720083789E+03  0.17200000000E+03 0.  1.
         -6    1    1    2    0  502 -0.29637137269E+02 -0.42508195387E+01  0.86683893834E+02  0.19492184799E+03  0.17200000000E+03 0.  1.
</event>
<event>
 4    1  0.4612011E+000  0.1732219E+03  0.7818608E-02  0.1174529E+00
         21   -1    0    0  503  502  0.00000000000E+00  0.00000000000E+00  0.18608890862E+03  0.18608890862E+03  0.00000000000E+00 0.  1.
         21   -1    0    0  501  503 -0.00000000000E+00 -0.00000000000E+00 -0.18690755174E+03  0.18690755174E+03  0.00000000000E+00 0.  1.
          6    1    1    2  501    0 -0.84974357768E+01 -0.18698493718E+02 -0.69515075574E+02  0.18664990173E+03  0.17200000000E+03 0. -1.
         -6    1    1    2    0  502  0.84974357768E+01  0.18698493718E+02  0.68696432458E+02  0.18634655863E+03  0.17200000000E+03 0. -1.
</event>
<event>
 4    1  0.4612011E+000  0.2104625E+03  0.7818608E-02  0.1141200E+00
         21   -1    0    0  503  502  0.00000000000E+00  0.00000000000E+00  0.31014963523E+03  0.31014963523E+03  0.00000000000E+00 0. -1.
         21   -1    0    0  501  503 -0.00000000000E+00 -0.00000000000E+00 -0.17307085312E+03  0.17307085312E+03  0.00000000000E+00 0. -1.
          6    1    1    2  501    0 -0.95521896177E+02  0.74739847059E+02 -0.32478313964E+02  0.21295379373E+03  0.17200000000E+03 0. -1.
         -6    1    1    2    0  502  0.95521896177E+02 -0.74739847059E+02  0.16955709608E+03  0.27026669461E+03  0.17200000000E+03 0. -1.
</event>
<event>
 4    1  0.4612011E+000  0.2357079E+03  0.7818608E-02  0.1122686E+00
         21   -1    0    0  501  502  0.00000000000E+00  0.00000000000E+00  0.56306505539E+02  0.56306505539E+02  0.00000000000E+00 0. -1.
         21   -1    0    0  502  503 -0.00000000000E+00 -0.00000000000E+00 -0.10254357821E+04  0.10254357821E+04  0.00000000000E+00 0. -1.
          6    1    1    2  501    0 -0.20015127258E+02  0.15991747973E+03 -0.37945602022E+03  0.44670468648E+03  0.17200000000E+03 0.  1.
         -6    1    1    2    0  503  0.20015127258E+02 -0.15991747973E+03 -0.58967325635E+03  0.63503760117E+03  0.17200000000E+03 0.  1.
</event>
<event>
 4    1  0.4612011E+000  0.1754323E+03  0.7818608E-02  0.1172298E+00
         21   -1    0    0  503  502  0.00000000000E+00  0.00000000000E+00  0.42132417128E+02  0.42132417128E+02  0.00000000000E+00 0. -1.
         21   -1    0    0  501  503 -0.00000000000E+00 -0.00000000000E+00 -0.89529416097E+03  0.89529416097E+03  0.00000000000E+00 0. -1.
          6    1    1    2  501    0 -0.94099049230E+01 -0.33225757800E+02 -0.62769096746E+03  0.65174569268E+03  0.17200000000E+03 0. -1.
         -6    1    1    2    0  502  0.94099049230E+01  0.33225757800E+02 -0.22547077638E+03  0.28568088542E+03  0.17200000000E+03 0. -1.
</event>
<event>
 4    1  0.4612011E+000  0.2066138E+03  0.7818608E-02  0.1144276E+00
         21   -1    0    0  503  502  0.00000000000E+00  0.00000000000E+00  0.55620420325E+03  0.55620420325E+03  0.00000000000E+00 0. -1.
         21   -1    0    0  501  503 -0.00000000000E+00 -0.00000000000E+00 -0.96805956457E+02  0.96805956457E+02  0.00000000000E+00 0. -1.
          6    1    1    2  501    0  0.58570979709E+02 -0.98360016809E+02  0.81088689754E+02  0.22195636548E+03  0.17200000000E+03 0. -1.
         -6    1    1    2    0  502 -0.58570979709E+02  0.98360016809E+02  0.37830955704E+03  0.43105379423E+03  0.17200000000E+03 0. -1.
</event>
<event>
 4    1  0.4612011E+000  0.1778441E+03  0.7818608E-02  0.1169906E+00
         21   -1    0    0  503  502  0.00000000000E+00  0.00000000000E+00  0.85105674292E+03  0.85105674292E+03  0.00000000000E+00 0.  1.
         21   -1    0    0  501  503 -0.00000000000E+00 -0.00000000000E+00 -0.37415312433E+02  0.37415312433E+02  0.00000000000E+00 0.  1.
          6    1    1    2  501    0  0.29267864617E+02 -0.34466394072E+02  0.37040149578E+03  0.41088417869E+03  0.17200000000E+03 0.  1.
         -6    1    1    2    0  502 -0.29267864617E+02  0.34466394072E+02  0.44323993470E+03  0.47758787666E+03  0.17200000000E+03 0.  1.
</event>
<event>
 4    1  0.4612011E+000  0.2324619E+03  0.7818608E-02  0.1124919E+00
         21   -1    0    0  503  502  0.00000000000E+00  0.00000000000E+00  0.45158540686E+03  0.45158540686E+03  0.00000000000E+00 0. -1.
         21   -1    0    0  501  503 -0.00000000000E+00 -0.00000000000E+00 -0.40833702444E+03  0.40833702444E+03  0.00000000000E+00 0. -1.
          6    1    1    2  501    0  0.42941971117E+02  0.15036799750E+03 -0.33988800296E+03  0.41177955524E+03  0.17200000000E+03 0. -1.
         -6    1    1    2    0  502 -0.42941971117E+02 -0.15036799750E+03  0.38313638538E+03  0.44814287605E+03  0.17200000000E+03 0. -1.
</event>
<event>
 4    1  0.4612011E+000  0.1765323E+03  0.7818608E-02  0.1171202E+00
         21   -1    0    0  503  502  0.00000000000E+00  0.00000000000E+00  0.10160203133E+03  0.10160203133E+03  0.00000000000E+00 0. -1.
         21   -1    0    0  501  503 -0.00000000000E+00 -0.00000000000E+00 -0.13445990357E+04  0.13445990357E+04  0.00000000000E+00 0. -1.
          6    1    1    2  501    0 -0.38458760111E+02  0.10029149917E+02 -0.12567929607E+04  0.12691304921E+04  0.17200000000E+03 0. -1.
         -6    1    1    2    0  502  0.38458760111E+02 -0.10029149917E+02  0.13795956315E+02  0.17707057488E+03  0.17200000000E+03 0. -1.
</event>
<event>
 4    1  0.4612011E+000  0.1742323E+03  0.7818608E-02  0.1173505E+00
         21   -1    0    0  501  502  0.00000000000E+00  0.00000000000E+00  0.25697338603E+03  0.25697338603E+03  0.00000000000E+00 0. -1.
         21   -1    0    0  502  503 -0.00000000000E+00 -0.00000000000E+00 -0.23555347867E+03  0.23555347867E+03  0.00000000000E+00 0. -1.
          6    1    1    2  501    0  0.19511169139E+02  0.19804239295E+02  0.18458134216E+03  0.25382506868E+03  0.17200000000E+03 0. -1.
         -6    1    1    2    0  503 -0.19511169139E+02 -0.19804239295E+02 -0.16316143481E+03  0.23870179602E+03  0.17200000000E+03 0. -1.
</event>
<event>
 4    1  0.4612011E+000  0.2132161E+03  0.7818608E-02  0.1139044E+00
         21   -1    0    0  503  502  0.00000000000E+00  0.00000000000E+00  0.49794635571E+03  0.49794635571E+03  0.00000000000E+00 0. -1.
         21   -1    0    0  501  503 -0.00000000000E+00 -0.00000000000E+00 -0.92443261864E+02  0.92443261864E+02  0.00000000000E+00 0.  1.
          6    1    1    2  501    0 -0.85284125211E+02 -0.92756185018E+02  0.16988294263E+03  0.27261934280E+03  0.17200000000E+03 0. -1.
         -6    1    1    2    0  502  0.85284125211E+02  0.92756185018E+02  0.23562015122E+03  0.31777027478E+03  0.17200000000E+03 0. -1.
</event>
<event>
 4    1  0.4612011E+000  0.2032965E+03  0.7818608E-02  0.1146987E+00
         21   -1    0    0  503  502  0.00000000000E+00  0.00000000000E+00  0.61508716944E+03  0.61508716944E+03  0.00000000000E+00 0.  1.
         21   -1    0    0  501  503 -0.00000000000E+00 -0.00000000000E+00 -0.40233700993E+03  0.40233700993E+03  0.00000000000E+00 0. -1.
          6    1    1    2  501    0  0.99357230873E+02 -0.43285401049E+02 -0.35791870297E+03  0.41162517320E+03  0.17200000000E+03 0. -1.
         -6    1    1    2    0  502 -0.99357230873E+02  0.43285401049E+02  0.57066886249E+03  0.60579900618E+03  0.17200000000E+03 0.  1.
</event>
<event>
 4    1  0.4612011E+000  0.1899738E+03  0.7818608E-02  0.1158485E+00
         21   -1    0    0  503  502  0.00000000000E+00  0.00000000000E+00  0.15736596410E+03  0.15736596410E+03  0.00000000000E+00 0. -1.
         21   -1    0    0  501  503 -0.00000000000E+00 -0.00000000000E+00 -0.29551493154E+03  0.29551493154E+03  0.00000000000E+00 0. -1.
          6    1    1    2  501    0  0.43981192044E+02  0.67614316209E+02 -0.17623052329E+03  0.25912784171E+03  0.17200000000E+03 0. -1.
         -6    1    1    2    0  502 -0.43981192044E+02 -0.67614316209E+02  0.38081555857E+02  0.19375305393E+03  0.17200000000E+03 0. -1.
</event>
<event>
 4    1  0.4612011E+000  0.1967303E+03  0.7818608E-02  0.1152527E+00
         21   -1    0    0  501  502  0.00000000000E+00  0.00000000000E+00  0.38877160541E+03  0.38877160541E+03  0.00000000000E+00 0. -1.
         21   -1    0    0  502  503 -0.00000000000E+00 -0.00000000000E+00 -0.10454908826E+03  0.10454908826E+03  0.00000000000E+00 0.  1.
          6    1    1    2  501    0  0.20702115583E+02  0.93221390555E+02  0.19603977452E+03  0.27773080211E+03  0.17200000000E+03 0. -1.
         -6    1    1    2    0  503 -0.20702115583E+02 -0.93221390555E+02  0.88182742632E+02  0.21558989156E+03  0.17200000000E+03 0.  1.
</event>
<event>
 4    1  0.4612011E+000  0.2542920E+03  0.7818608E-02  0.1110622E+00
         21   -1    0    0  503  502  0.00000000000E+00  0.00000000000E+00  0.14076077497E+03  0.14076077497E+03  0.00000000000E+00 0.  1.
         21   -1    0    0  501  503 -0.00000000000E+00 -0.00000000000E+00 -0.75414549342E+03  0.75414549342E+03  0.00000000000E+00 0.  1.
          6    1    1    2  501    0  0.18719354379E+03  0.62458480799E+01 -0.58642886991E+03  0.63918952817E+03  0.17200000000E+03 0.  1.
         -6    1    1    2    0  502 -0.18719354379E+03 -0.62458480799E+01 -0.26955848535E+02  0.25571674021E+03  0.17200000000E+03 0.  1.
</event>
<event>
 4    1  0.4612011E+000  0.1841656E+03  0.7818608E-02  0.1163831E+00
         21   -1    0    0  503  502  0.00000000000E+00  0.00000000000E+00  0.36193421765E+03  0.36193421765E+03  0.00000000000E+00 0. -1.
         21   -1    0    0  501  503 -0.00000000000E+00 -0.00000000000E+00 -0.96016253667E+02  0.96016253667E+02  0.00000000000E+00 0. -1.
          6    1    1    2  501    0  0.23087586420E+02  0.61643495201E+02  0.16844385357E+03  0.24958022549E+03  0.17200000000E+03 0. -1.
         -6    1    1    2    0  502 -0.23087586420E+02 -0.61643495201E+02  0.97474110411E+02  0.20837024583E+03  0.17200000000E+03 0. -1.
</event>
<event>
 4    1  0.4612011E+000  0.2648781E+03  0.7818608E-02  0.1104247E+00
         21   -1    0    0  501  502  0.00000000000E+00  0.00000000000E+00  0.25475538491E+03  0.25475538491E+03  0.00000000000E+00 0.  1.
         21   -1    0    0  502  503 -0.00000000000E+00 -0.00000000000E+00 -0.27613124458E+03  0.27613124458E+03  0.00000000000E+00 0. -1.
          6    1    1    2  501    0  0.81577487727E+02 -0.18417796504E+03  0.29434103484E+01  0.26489445629E+03  0.17200000000E+03 0.  1.
         -6    1    1    2    0  503 -0.81577487727E+02  0.18417796504E+03 -0.24319270018E+02  0.26599217320E+03  0.17200000000E+03 0. -1.
</event>
<event>
 4    1  0.4612011E+000  0.1766429E+03  0.7818608E-02  0.1171092E+00
         21   -1    0    0  501  502  0.00000000000E+00  0.00000000000E+00  0.26783720265E+02  0.26783720265E+02  0.00000000000E+00 0.  1.
         21   -1    0    0  502  503 -0.00000000000E+00 -0.00000000000E+00 -0.14752897117E+04  0.14752897117E+04  0.00000000000E+00 0.  1.
          6    1    1    2  501    0  0.32151537932E+02  0.24186270304E+02 -0.10686941265E+04  0.10831942730E+04  0.17200000000E+03 0.  1.
         -6    1    1    2    0  503 -0.32151537932E+02 -0.24186270304E+02 -0.37981186494E+03  0.41887915897E+03  0.17200000000E+03 0.  1.
</event>
<event>
 4    1  0.4612011E+000  0.1824002E+03  0.7818608E-02  0.1165500E+00
         21   -1    0    0  503  502  0.00000000000E+00  0.00000000000E+00  0.50588426001E+03  0.50588426001E+03  0.00000000000E+00 0. -1.
         21   -1    0    0  501  503 -0.00000000000E+00 -0.00000000000E+00 -0.77185964630E+02  0.77185964630E+02  0.00000000000E+00 0. -1.
          6    1    1    2  501    0  0.21835041253E+02 -0.56648512215E+02  0.10220925356E+03  0.20908504125E+03  0.17200000000E+03 0. -1.
         -6    1    1    2    0  502 -0.21835041253E+02  0.56648512215E+02  0.32648904183E+03  0.37398518339E+03  0.17200000000E+03 0. -1.
</event>
<event>
 4    1  0.4612011E+000  0.2245954E+03  0.7818608E-02  0.1130503E+00
         21   -1    0    0  503  502  0.00000000000E+00  0.00000000000E+00  0.11771376560E+03  0.11771376560E+03  0.00000000000E+00 0. -1.
         21   -1    0    0  501  503 -0.00000000000E+00 -0.00000000000E+00 -0.46456203143E+03  0.46456203143E+03  0.00000000000E+00 0. -1.
          6    1    1    2  501    0  0.55764612864E+02  0.13322693407E+03 -0.25451291519E+03  0.33944061632E+03  0.17200000000E+03 0. -1.
         -6    1    1    2    0  502 -0.55764612864E+02 -0.13322693407E+03 -0.92335350646E+02  0.24283518071E+03  0.17200000000E+03 0. -1.
</event>
<event>
 4    1  0.4612011E+000  0.3034640E+03  0.7818608E-02  0.1083522E+00
         21   -1    0    0  501  502  0.00000000000E+00  0.00000000000E+00  0.55524830567E+03  0.55524830567E+03  0.00000000000E+00 0.  1.
         21   -1    0    0  502  503 -0.00000000000E+00 -0.00000000000E+00 -0.17296386538E+03  0.17296386538E+03  0.00000000000E+00 0. -1.
          6    1    1    2  501    0 -0.22562757226E+03 -0.10769666020E+03  0.26496133980E+03  0.40285839146E+03  0.17200000000E+03 0. -1.
         -6    1    1    2    0  503  0.22562757226E+03  0.10769666020E+03  0.11732310049E+03  0.32535377958E+03  0.17200000000E+03 0. -1.
</event>
<event>
 4    1  0.4612011E+000  0.1857117E+03  0.7818608E-02  0.1162387E+00
         21   -1    0    0  503  502  0.00000000000E+00  0.00000000000E+00  0.45258318658E+03  0.45258318658E+03  0.00000000000E+00 0.  1.
         21   -1    0    0  501  503 -0.00000000000E+00 -0.00000000000E+00 -0.11993286639E+03  0.11993286639E+03  0.00000000000E+00 0. -1.
          6    1    1    2  501    0  0.67011798494E+02 -0.20353088126E+02 -0.65253631934E+01  0.18582628904E+03  0.17200000000E+03 0. -1.
         -6    1    1    2    0  502 -0.67011798494E+02  0.20353088126E+02  0.33917568338E+03  0.38668976393E+03  0.17200000000E+03 0.  1.
</event>
<event>
 4    1  0.4612011E+000  0.1948226E+03  0.7818608E-02  0.1154182E+00
         21   -1    0    0  503  502  0.00000000000E+00  0.00000000000E+00  0.12213879361E+04  0.12213879361E+04  0.00000000000E+00 0. -1.
         21   -1    0    0  501  503 -0.00000000000E+00 -0.00000000000E+00 -0.43891160289E+02  0.43891160289E+02  0.00000000000E+00 0. -1.
          6    1    1    2  501    0 -0.90508553056E+02  0.13417451687E+02  0.24690264249E+03  0.31451031947E+03  0.17200000000E+03 0. -1.
         -6    1    1    2    0  502  0.90508553056E+02 -0.13417451687E+02  0.93059413331E+03  0.95076877691E+03  0.17200000000E+03 0. -1.
</event>
<event>
 4    1  0.4612011E+000  0.2328987E+03  0.7818608E-02  0.1124616E+00
         21   -1    0    0  501  502  0.00000000000E+00  0.00000000000E+00  0.26836085088E+03  0.26836085088E+03  0.00000000000E+00 0.  1.
         21   -1    0    0  502  503 -0.00000000000E+00 -0.00000000000E+00 -0.20382339808E+03  0.20382339808E+03  0.00000000000E+00 0. -1.
          6    1    1    2  501    0  0.19429264744E+01 -0.15701601145E+03  0.10702401118E+02  0.23314447067E+03  0.17200000000E+03 0. -1.
         -6    1    1    2    0  503 -0.19429264744E+01  0.15701601145E+03  0.53835051680E+02  0.23903977829E+03  0.17200000000E+03 0.  1.
</event>
<event>
 4    1  0.4612011E+000  0.1920202E+03  0.7818608E-02  0.1156652E+00
         21   -1    0    0  503  502  0.00000000000E+00  0.00000000000E+00  0.33779369364E+03  0.33779369364E+03  0.00000000000E+00 0. -1.
         21   -1    0    0  501  503 -0.00000000000E+00 -0.00000000000E+00 -0.10992349072E+03  0.10992349072E+03  0.00000000000E+00 0.  1.
          6    1    1    2  501    0  0.49621197006E+02  0.69465898742E+02  0.95214128889E+02  0.21433036327E+03  0.17200000000E+03 0.  1.
         -6    1    1    2    0  502 -0.49621197006E+02 -0.69465898742E+02  0.13265607403E+03  0.23338682109E+03  0.17200000000E+03 0. -1.
</event>
<event>
 4    1  0.4612011E+000  0.1797780E+03  0.7818608E-02  0.1168018E+00
         21   -1    0    0  503  502  0.00000000000E+00  0.00000000000E+00  0.10898814113E+03  0.10898814113E+03  0.00000000000E+00 0.  1.
         21   -1    0    0  501  503 -0.00000000000E+00 -0.00000000000E+00 -0.10127121510E+04  0.10127121510E+04  0.00000000000E+00 0.  1.
          6    1    1    2  501    0  0.43237391574E+02 -0.29438995694E+02 -0.92350171394E+03  0.94083768108E+03  0.17200000000E+03 0.  1.
         -6    1    1    2    0  502 -0.43237391574E+02  0.29438995694E+02  0.19777704064E+02  0.18086261105E+03  0.17200000000E+03 0.  1.
</event>
<event>
 4    1  0.4612011E+000  0.1725339E+03  0.7818608E-02  0.1175231E+00
         21   -1    0    0  501  502  0.00000000000E+00  0.00000000000E+00  0.10722300823E+03  0.10722300823E+03  0.00000000000E+00 0.  1.
         21   -1    0    0  502  503 -0.00000000000E+00 -0.00000000000E+00 -0.29380935002E+03  0.29380935002E+03  0.00000000000E+00 0.  1.
          6    1    1    2  501    0  0.51115125069E+01  0.12562780589E+02 -0.46234050735E+02  0.17862121504E+03  0.17200000000E+03 0.  1.
         -6    1    1    2    0  503 -0.51115125069E+01 -0.12562780589E+02 -0.14035229106E+03  0.22241114320E+03  0.17200000000E+03 0.  1.
</event>
<event>
 4    1  0.4612011E+000  0.1775385E+03  0.7818608E-02  0.1170207E+00
         21   -1    0    0  501  502  0.00000000000E+00  0.00000000000E+00  0.23904293641E+02  0.23904293641E+02  0.00000000000E+00 0.  1.
         21   -1    0    0  502  503 -0.00000000000E+00 -0.00000000000E+00 -0.19178102644E+04  0.19178102644E+04  0.00000000000E+00 0.  1.
          6    1    1    2  501    0 -0.34339208641E+02  0.27508648530E+02 -0.40426943209E+03  0.44153559394E+03  0.17200000000E+03 0.  1.
         -6    1    1    2    0  503  0.34339208641E+02 -0.27508648530E+02 -0.14896365387E+04  0.15001789641E+04  0.17200000000E+03 0.  1.
</event>
<event>
 4    1  0.4612011E+000  0.1833175E+03  0.7818608E-02  0.1164630E+00
         21   -1    0    0  501  502  0.00000000000E+00  0.00000000000E+00  0.18728985722E+03  0.18728985722E+03  0.00000000000E+00 0.  1.
         21   -1    0    0  502  503 -0.00000000000E+00 -0.00000000000E+00 -0.22923398848E+03  0.22923398848E+03  0.00000000000E+00 0. -1.
          6    1    1    2  501    0  0.60906069386E+02 -0.17656911425E+02  0.76102361111E+02  0.19848648613E+03  0.17200000000E+03 0.  1.
         -6    1    1    2    0  503 -0.60906069386E+02  0.17656911425E+02 -0.11804649237E+03  0.21803735958E+03  0.17200000000E+03 0. -1.
</event>
<event>
 4    1  0.4612011E+000  0.2762020E+03  0.7818608E-02  0.1097782E+00
         21   -1    0    0  503  502  0.00000000000E+00  0.00000000000E+00  0.14019307754E+03  0.14019307754E+03  0.00000000000E+00 0.  1.
         21   -1    0    0  501  503 -0.00000000000E+00 -0.00000000000E+00 -0.76342559683E+03  0.76342559683E+03  0.00000000000E+00 0.  1.
          6    1    1    2  501    0 -0.16821395714E+03 -0.13567461944E+03 -0.55375070629E+03  0.61881126562E+03  0.17200000000E+03 0.  1.
         -6    1    1    2    0  502  0.16821395714E+03  0.13567461944E+03 -0.69481813001E+02  0.28480740875E+03  0.17200000000E+03 0.  1.
</event>
<event>
 4    1  0.4612011E+000  0.6189672E+03  0.7818608E-02  0.9866818E-01
         21   -1    0    0  501  502  0.00000000000E+00  0.00000000000E+00  0.38957694503E+03  0.38957694503E+03  0.00000000000E+00 0. -1.
         21   -1    0    0  502  503 -0.00000000000E+00 -0.00000000000E+00 -0.10970105535E+04  0.10970105535E+04  0.00000000000E+00 0.  1.
          6    1    1    2  501    0 -0.46397972081E+03  0.37183226474E+03 -0.11454325052E+03  0.62947642583E+03  0.17200000000E+03 0. -1.
         -6    1    1    2    0  503  0.46397972081E+03 -0.37183226474E+03 -0.59289035798E+03  0.85711107274E+03  0.17200000000E+03 0.  1.
</event>
<event>
 4    1  0.4612011E+000  0.1939865E+03  0.7818608E-02  0.1154914E+00
         21   -1    0    0  501  502  0.00000000000E+00  0.00000000000E+00  0.49848509721E+03  0.49848509721E+03  0.00000000000E+00 0.  1.
         21   -1    0    0  502  503 -0.00000000000E+00 -0.00000000000E+00 -0.90065576533E+02  0.90065576533E+02  0.00000000000E+00 0. -1.
          6    1    1    2  501    0  0.45348172929E+02 -0.77397106509E+02  0.32259115923E+03  0.37642505881E+03  0.17200000000E+03 0.  1.
         -6    1    1    2    0  503 -0.45348172929E+02  0.77397106509E+02  0.85828361448E+02  0.21212561494E+03  0.17200000000E+03 0. -1.
</event>
<event>
 4    1  0.4612011E+000  0.1859300E+03  0.7818608E-02  0.1162184E+00
         21   -1    0    0  503  502  0.00000000000E+00  0.00000000000E+00  0.51422849784E+02  0.51422849784E+02  0.00000000000E+00 0. -1.
         21   -1    0    0  501  503 -0.00000000000E+00 -0.00000000000E+00 -0.87863767748E+03  0.87863767748E+03  0.00000000000E+00 0.  1.
          6    1    1    2  501    0  0.69464859696E+02  0.12672135746E+02 -0.63897890328E+03  0.66548026912E+03  0.17200000000E+03 0.  1.
         -6    1    1    2    0  502 -0.69464859696E+02 -0.12672135746E+02 -0.18823592442E+03  0.26458025814E+03  0.17200000000E+03 0. -1.
</event>
<event>
 4    1  0.4612011E+000  0.1962046E+03  0.7818608E-02  0.1152981E+00
         21   -1    0    0  501  502  0.00000000000E+00  0.00000000000E+00  0.10106019862E+03  0.10106019862E+03  0.00000000000E+00 0. -1.
         21   -1    0    0  502  503 -0.00000000000E+00 -0.00000000000E+00 -0.94080071537E+03  0.94080071537E+03  0.00000000000E+00 0.  1.
          6    1    1    2  501    0 -0.64335511899E+01 -0.94185304562E+02 -0.18008105773E+02  0.19702932282E+03  0.17200000000E+03 0. -1.
         -6    1    1    2    0  503  0.64335511899E+01  0.94185304562E+02 -0.82173241099E+03  0.84483159117E+03  0.17200000000E+03 0.  1.
</event>
<event>
 4    1  0.4612011E+000  0.1783957E+03  0.7818608E-02  0.1169365E+00
         21   -1    0    0  503  502  0.00000000000E+00  0.00000000000E+00  0.62346159673E+03  0.62346159673E+03  0.00000000000E+00 0.  1.
         21   -1    0    0  501  503 -0.00000000000E+00 -0.00000000000E+00 -0.60457001743E+02  0.60457001743E+02  0.00000000000E+00 0.  1.
          6    1    1    2  501    0 -0.43695747044E+02  0.18212885565E+02  0.14658234142E+03  0.23089263809E+03  0.17200000000E+03 0. -1.
         -6    1    1    2    0  502  0.43695747044E+02 -0.18212885565E+02  0.41642225357E+03  0.45302596038E+03  0.17200000000E+03 0. -1.
</event>
<event>
 4    1  0.4612011E+000  0.1881688E+03  0.7818608E-02  0.1160123E+00
         21   -1    0    0  501  502  0.00000000000E+00  0.00000000000E+00  0.53814431400E+02  0.53814431400E+02  0.00000000000E+00 0.  1.
         21   -1    0    0  502  503 -0.00000000000E+00 -0.00000000000E+00 -0.82939427852E+03  0.82939427852E+03  0.00000000000E+00 0.  1.
          6    1    1    2  501    0  0.76234664814E+02  0.34332418493E+01 -0.18701608465E+03  0.26529705461E+03  0.17200000000E+03 0.  1.
         -6    1    1    2    0  503 -0.76234664814E+02 -0.34332418493E+01 -0.58856376247E+03  0.61791165530E+03  0.17200000000E+03 0.  1.
</event>
<event>
 4    1  0.4612011E+000  0.1764874E+03  0.7818608E-02  0.1171246E+00
         21   -1    0    0  503  502  0.00000000000E+00  0.00000000000E+00  0.10295723284E+04  0.10295723284E+04  0.00000000000E+00 0. -1.
         21   -1    0    0  501  503 -0.00000000000E+00 -0.00000000000E+00 -0.37805168609E+02  0.37805168609E+02  0.00000000000E+00 0. -1.
          6    1    1    2  501    0  0.13799336598E+02  0.37059379989E+02  0.25735324773E+03  0.31205530512E+03  0.17200000000E+03 0. -1.
         -6    1    1    2    0  502 -0.13799336598E+02 -0.37059379989E+02  0.73441391210E+03  0.75532219193E+03  0.17200000000E+03 0. -1.
</event>
<event>
 4    1  0.4612011E+000  0.1758662E+03  0.7818608E-02  0.1171865E+00
         21   -1    0    0  503  502  0.00000000000E+00  0.00000000000E+00  0.15158909982E+03  0.15158909982E+03  0.00000000000E+00 0. -1.
         21   -1    0    0  501  503 -0.00000000000E+00 -0.00000000000E+00 -0.23990399827E+03  0.23990399827E+03  0.00000000000E+00 0. -1.
          6    1    1    2  501    0 -0.33705387911E+02  0.14451676697E+02 -0.11985085931E+03  0.21282183302E+03  0.17200000000E+03 0. -1.
         -6    1    1    2    0  502  0.33705387911E+02 -0.14451676697E+02  0.31535960863E+02  0.17867126507E+03  0.17200000000E+03 0. -1.
</event>
<event>
 4    1  0.4612011E+000  0.2024548E+03  0.7818608E-02  0.1147684E+00
         21   -1    0    0  501  502  0.00000000000E+00  0.00000000000E+00  0.42708744307E+03  0.42708744307E+03  0.00000000000E+00 0. -1.
         21   -1    0    0  502  503 -0.00000000000E+00 -0.00000000000E+00 -0.96011563331E+02  0.96011563331E+02  0.00000000000E+00 0. -1.
          6    1    1    2  501    0 -0.10666117090E+03  0.52277545977E+01  0.17092543679E+03  0.26495931713E+03  0.17200000000E+03 0. -1.
         -6    1    1    2    0  503  0.10666117090E+03 -0.52277545977E+01  0.16015044295E+03  0.25813968926E+03  0.17200000000E+03 0. -1.
</event>
<event>
 4    1  0.4612011E+000  0.1889929E+03  0.7818608E-02  0.1159373E+00
         21   -1    0    0  503  502  0.00000000000E+00  0.00000000000E+00  0.38041913960E+02  0.38041913960E+02  0.00000000000E+00 0.  1.
         21   -1    0    0  501  503 -0.00000000000E+00 -0.00000000000E+00 -0.10013839185E+04  0.10013839185E+04  0.00000000000E+00 0.  1.
          6    1    1    2  501    0 -0.15536458208E+02 -0.76765533553E+02 -0.61147153123E+03  0.64001231409E+03  0.17200000000E+03 0.  1.
         -6    1    1    2    0  502  0.15536458208E+02  0.76765533553E+02 -0.35187047333E+03  0.39941351839E+03  0.17200000000E+03 0.  1.
</event>
<event>
 4    1  0.4612011E+000  0.2179531E+03  0.7818608E-02  0.1135418E+00
         21   -1    0    0  503  502  0.00000000000E+00  0.00000000000E+00  0.70912590167E+02  0.70912590167E+02  0.00000000000E+00 0. -1.
         21   -1    0    0  501  503 -0.00000000000E+00 -0.00000000000E+00 -0.76012745733E+03  0.76012745733E+03  0.00000000000E+00 0. -1.
          6    1    1    2  501    0  0.89626730629E+02 -0.99431378940E+02 -0.48777513696E+03  0.53425474654E+03  0.17200000000E+03 0. -1.
         -6    1    1    2    0  502 -0.89626730629E+02  0.99431378940E+02 -0.20143973020E+03  0.29678530096E+03  0.17200000000E+03 0. -1.
</event>
<event>
 4    1  0.4612011E+000  0.1753995E+03  0.7818608E-02  0.1172331E+00
         21   -1    0    0  501  502  0.00000000000E+00  0.00000000000E+00  0.37231835690E+02  0.37231835690E+02  0.00000000000E+00 0.  1.
         21   -1    0    0  502  503 -0.00000000000E+00 -0.00000000000E+00 -0.14353989378E+04  0.14353989378E+04  0.00000000000E+00 0.  1.
          6    1    1    2  501    0 -0.32250386243E+02 -0.11869390439E+02 -0.21944003737E+03  0.28092507870E+03  0.17200000000E+03 0.  1.
         -6    1    1    2    0  503  0.32250386243E+02  0.11869390439E+02 -0.11787270647E+04  0.11917056948E+04  0.17200000000E+03 0.  1.
</event>
<event>
 4    1  0.4612011E+000  0.2258619E+03  0.7818608E-02  0.1129587E+00
         21   -1    0    0  501  502  0.00000000000E+00  0.00000000000E+00  0.51387232439E+02  0.51387232439E+02  0.00000000000E+00 0. -1.
         21   -1    0    0  502  503 -0.00000000000E+00 -0.00000000000E+00 -0.10397382371E+04  0.10397382371E+04  0.00000000000E+00 0.  1.
          6    1    1    2  501    0 -0.57649249378E+01  0.14627491339E+03 -0.37817087835E+03  0.44048473059E+03  0.17200000000E+03 0. -1.
         -6    1    1    2    0  503  0.57649249378E+01 -0.14627491339E+03 -0.61018012633E+03  0.65064073898E+03  0.17200000000E+03 0.  1.
</event>
<event>
 4    1  0.4612011E+000  0.2806401E+03  0.7818608E-02  0.1095340E+00
         21   -1    0    0  503  502  0.00000000000E+00  0.00000000000E+00  0.44430584666E+03  0.44430584666E+03  0.00000000000E+00 0. -1.
         21   -1    0    0  501  503 -0.00000000000E+00 -0.00000000000E+00 -0.29711128711E+03  0.29711128711E+03  0.00000000000E+00 0.  1.
          6    1    1    2  501    0  0.21067099741E+03 -0.69228403777E+02 -0.16184776749E+03  0.32396533902E+03  0.17200000000E+03 0.  1.
         -6    1    1    2    0  502 -0.21067099741E+03  0.69228403777E+02  0.30904232705E+03  0.41745179476E+03  0.17200000000E+03 0. -1.
</event>
<event>
 4    1  0.4612011E+000  0.1752048E+03  0.7818608E-02  0.1172526E+00
         21   -1    0    0  501  502  0.00000000000E+00  0.00000000000E+00  0.19522323842E+03  0.19522323842E+03  0.00000000000E+00 0.  1.
         21   -1    0    0  502  503 -0.00000000000E+00 -0.00000000000E+00 -0.29205518386E+03  0.29205518386E+03  0.00000000000E+00 0.  1.
          6    1    1    2  501    0 -0.11822005820E+01 -0.33336672449E+02  0.11711738994E+03  0.21074442900E+03  0.17200000000E+03 0.  1.
         -6    1    1    2    0  503  0.11822005820E+01  0.33336672449E+02 -0.21394933538E+03  0.27653399328E+03  0.17200000000E+03 0.  1.
</event>
<event>
 4    1  0.4612011E+000  0.3146170E+03  0.7818608E-02  0.1078154E+00
         21   -1    0    0  503  502  0.00000000000E+00  0.00000000000E+00  0.28663182561E+03  0.28663182561E+03  0.00000000000E+00 0.  1.
         21   -1    0    0  501  503 -0.00000000000E+00 -0.00000000000E+00 -0.63770464634E+03  0.63770464634E+03  0.00000000000E+00 0. -1.
          6    1    1    2  501    0  0.61013903026E+02 -0.25627561431E+03 -0.48847328545E+03  0.58102498866E+03  0.17200000000E+03 0. -1.
         -6    1    1    2    0  502 -0.61013903026E+02  0.25627561431E+03  0.13740046473E+03  0.34331148329E+03  0.17200000000E+03 0.  1.
</event>
<event>
 4    1  0.4612011E+000  0.2092840E+03  0.7818608E-02  0.1142134E+00
         21   -1    0    0  503  502  0.00000000000E+00  0.00000000000E+00  0.68704488673E+02  0.68704488673E+02  0.00000000000E+00 0.  1.
         21   -1    0    0  501  503 -0.00000000000E+00 -0.00000000000E+00 -0.65500022455E+03  0.65500022455E+03  0.00000000000E+00 0.  1.
          6    1    1    2  501    0  0.11079915322E+02 -0.11871401474E+03 -0.35227834750E+03  0.40975580037E+03  0.17200000000E+03 0.  1.
         -6    1    1    2    0  502 -0.11079915322E+02  0.11871401474E+03 -0.23401738838E+03  0.31394891286E+03  0.17200000000E+03 0.  1.
</event>
<event>
 4    1  0.4612011E+000  0.2428148E+03  0.7818608E-02  0.1117932E+00
         21   -1    0    0  501  502  0.00000000000E+00  0.00000000000E+00  0.44608216655E+03  0.44608216655E+03  0.00000000000E+00 0. -1.
         21   -1    0    0  502  503 -0.00000000000E+00 -0.00000000000E+00 -0.15979837227E+03  0.15979837227E+03  0.00000000000E+00 0. -1.
          6    1    1    2  501    0 -0.11807318785E+03  0.12423273179E+03  0.26910460057E+03  0.36245873611E+03  0.17200000000E+03 0. -1.
         -6    1    1    2    0  503  0.11807318785E+03 -0.12423273179E+03  0.17179193712E+02  0.24342180271E+03  0.17200000000E+03 0. -1.
</event>
<event>
 4    1  0.4612011E+000  0.1948115E+03  0.7818608E-02  0.1154192E+00
         21   -1    0    0  501  502  0.00000000000E+00  0.00000000000E+00  0.53741727422E+03  0.53741727422E+03  0.00000000000E+00 0.  1.
         21   -1    0    0  502  503 -0.00000000000E+00 -0.00000000000E+00 -0.70662792078E+02  0.70662792078E+02  0.00000000000E+00 0.  1.
          6    1    1    2  501    0 -0.69932230407E+01 -0.91206520774E+02  0.22575451373E+03  0.29818892513E+03  0.17200000000E+03 0. -1.
         -6    1    1    2    0  503  0.69932230407E+01  0.91206520774E+02  0.24099996841E+03  0.30989114117E+03  0.17200000000E+03 0. -1.
</event>
<event>
 4    1  0.4612011E+000  0.1741052E+03  0.7818608E-02  0.1173633E+00
         21   -1    0    0  501  502  0.00000000000E+00  0.00000000000E+00  0.31172794674E+02  0.31172794674E+02  0.00000000000E+00 0.  1.
         21   -1    0    0  502  503 -0.00000000000E+00 -0.00000000000E+00 -0.97505598897E+03  0.97505598897E+03  0.00000000000E+00 0.  1.
          6    1    1    2  501    0 -0.21692986396E+02 -0.16063901737E+02 -0.44571656039E+03  0.47851424932E+03  0.17200000000E+03 0. -1.
         -6    1    1    2    0  503  0.21692986396E+02  0.16063901737E+02 -0.49816663390E+03  0.52771453432E+03  0.17200000000E+03 0. -1.
</event>
<event>
 4    1  0.4612011E+000  0.1996617E+03  0.7818608E-02  0.1150025E+00
         21   -1    0    0  501  502  0.00000000000E+00  0.00000000000E+00  0.14005779987E+03  0.14005779987E+03  0.00000000000E+00 0. -1.
         21   -1    0    0  502  503 -0.00000000000E+00 -0.00000000000E+00 -0.73185158486E+03  0.73185158486E+03  0.00000000000E+00 0. -1.
          6    1    1    2  501    0  0.42428146854E+02 -0.92090458701E+02  0.44896142726E+02  0.20464716920E+03  0.17200000000E+03 0. -1.
         -6    1    1    2    0  503 -0.42428146854E+02  0.92090458701E+02 -0.63668992771E+03  0.66726221553E+03  0.17200000000E+03 0. -1.
</event>
<event>
 4    1  0.4612011E+000  0.2392395E+03  0.7818608E-02  0.1120300E+00
         21   -1    0    0  503  502  0.00000000000E+00  0.00000000000E+00  0.89466308537E+02  0.89466308537E+02  0.00000000000E+00 0. -1.
         21   -1    0    0  501  503 -0.00000000000E+00 -0.00000000000E+00 -0.64474876022E+03  0.64474876022E+03  0.00000000000E+00 0.  1.
          6    1    1    2  501    0 -0.16131531779E+03 -0.40359878460E+02 -0.30998429374E+03  0.39156840259E+03  0.17200000000E+03 0. -1.
         -6    1    1    2    0  502  0.16131531779E+03  0.40359878460E+02 -0.24529815794E+03  0.34264666616E+03  0.17200000000E+03 0.  1.
</event>
<event>
 4    1  0.4612011E+000  0.3158646E+03  0.7818608E-02  0.1077568E+00
         21   -1    0    0  501  502  0.00000000000E+00  0.00000000000E+00  0.20688533418E+04  0.20688533418E+04  0.00000000000E+00 0.  1.
         21   -1    0    0  502  503 -0.00000000000E+00 -0.00000000000E+00 -0.54932707987E+02  0.54932707987E+02  0.00000000000E+00 0. -1.
          6    1    1    2  501    0  0.16558093599E+03  0.20680768292E+03  0.63589346905E+03  0.71002180816E+03  0.17200000000E+03 0. -1.
         -6    1    1    2    0  503 -0.16558093599E+03 -0.20680768292E+03  0.13780271647E+04  0.14137642416E+04  0.17200000000E+03 0.  1.
</event>
<event>
 4    1  0.4612011E+000  0.2464501E+03  0.7818608E-02  0.1115569E+00
         21   -1    0    0  503  502  0.00000000000E+00  0.00000000000E+00  0.55359418071E+03  0.55359418071E+03  0.00000000000E+00 0. -1.
         21   -1    0    0  501  503 -0.00000000000E+00 -0.00000000000E+00 -0.26919080716E+03  0.26919080716E+03  0.00000000000E+00 0.  1.
          6    1    1    2  501    0 -0.12830350190E+03  0.12121005564E+03 -0.17444391298E+03  0.30194096271E+03  0.17200000000E+03 0.  1.
         -6    1    1    2    0  502  0.12830350190E+03 -0.12121005564E+03  0.45884728653E+03  0.52084402516E+03  0.17200000000E+03 0. -1.
</event>
<event>
 4    1  0.4612011E+000  0.1946878E+03  0.7818608E-02  0.1154300E+00
         21   -1    0    0  501  502  0.00000000000E+00  0.00000000000E+00  0.84245056494E+03  0.84245056494E+03  0.00000000000E+00 0. -1.
         21   -1    0    0  502  503 -0.00000000000E+00 -0.00000000000E+00 -0.67193644504E+03  0.67193644504E+03  0.00000000000E+00 0. -1.
          6    1    1    2  501    0 -0.16195123321E+02 -0.89761070171E+02  0.81666116688E+03  0.83954677847E+03  0.17200000000E+03 0. -1.
         -6    1    1    2    0  503  0.16195123321E+02  0.89761070171E+02 -0.64614704698E+03  0.67484023151E+03  0.17200000000E+03 0. -1.
</event>
<event>
 4    1  0.4612011E+000  0.1904807E+03  0.7818608E-02  0.1158028E+00
         21   -1    0    0  501  502  0.00000000000E+00  0.00000000000E+00  0.82630930894E+02  0.82630930894E+02  0.00000000000E+00 0.  1.
         21   -1    0    0  502  503 -0.00000000000E+00 -0.00000000000E+00 -0.48761359660E+03  0.48761359660E+03  0.00000000000E+00 0. -1.
          6    1    1    2  501    0 -0.75255438415E+02  0.32179575116E+02 -0.11255334927E+03  0.22124909604E+03  0.17200000000E+03 0.  1.
         -6    1    1    2    0  503  0.75255438415E+02 -0.32179575116E+02 -0.29242931644E+03  0.34899543146E+03  0.17200000000E+03 0. -1.
</event>
<event>
 4    1  0.4612011E+000  0.2265697E+03  0.7818608E-02  0.1129078E+00
         21   -1    0    0  501  502  0.00000000000E+00  0.00000000000E+00  0.42328847008E+02  0.42328847008E+02  0.00000000000E+00 0. -1.
         21   -1    0    0  502  503 -0.00000000000E+00 -0.00000000000E+00 -0.16441942230E+04  0.16441942230E+04  0.00000000000E+00 0. -1.
          6    1    1    2  501    0 -0.69459249785E+02 -0.13009698080E+03 -0.36896230139E+03  0.43297458544E+03  0.17200000000E+03 0. -1.
         -6    1    1    2    0  503  0.69459249785E+02  0.13009698080E+03 -0.12329030746E+04  0.12535484846E+04  0.17200000000E+03 0. -1.
</event>
<event>
 4    1  0.4612011E+000  0.3104706E+03  0.7818608E-02  0.1080121E+00
         21   -1    0    0  503  502  0.00000000000E+00  0.00000000000E+00  0.11122525898E+04  0.11122525898E+04  0.00000000000E+00 0.  1.
         21   -1    0    0  501  503 -0.00000000000E+00 -0.00000000000E+00 -0.10787674685E+03  0.10787674685E+03  0.00000000000E+00 0. -1.
          6    1    1    2  501    0  0.23936091356E+03 -0.97541355071E+02  0.23165935715E+03  0.38737323171E+03  0.17200000000E+03 0. -1.
         -6    1    1    2    0  502 -0.23936091356E+03  0.97541355071E+02  0.77271648580E+03  0.83275610494E+03  0.17200000000E+03 0.  1.
</event>
<event>
 4    1  0.4612011E+000  0.2071780E+03  0.7818608E-02  0.1143820E+00
         21   -1    0    0  501  502  0.00000000000E+00  0.00000000000E+00  0.38285172198E+03  0.38285172198E+03  0.00000000000E+00 0. -1.
         21   -1    0    0  502  503 -0.00000000000E+00 -0.00000000000E+00 -0.15480949102E+03  0.15480949102E+03  0.00000000000E+00 0. -1.
          6    1    1    2  501    0 -0.83067401024E+02  0.80240470575E+02  0.25520172995E+03  0.32871058577E+03  0.17200000000E+03 0. -1.
         -6    1    1    2    0  503  0.83067401024E+02 -0.80240470575E+02 -0.27159498987E+02  0.20895062722E+03  0.17200000000E+03 0. -1.
</event>
<event>
 4    1  0.4612011E+000  0.2441286E+03  0.7818608E-02  0.1117073E+00
         21   -1    0    0  503  502  0.00000000000E+00  0.00000000000E+00  0.81999495655E+03  0.81999495655E+03  0.00000000000E+00 0.  1.
         21   -1    0    0  501  503 -0.00000000000E+00 -0.00000000000E+00 -0.27551551713E+03  0.27551551713E+03  0.00000000000E+00 0.  1.
          6    1    1    2  501    0  0.16862996047E+03  0.39733199004E+02 -0.19774471548E+03  0.31416836756E+03  0.17200000000E+03 0.  1.
         -6    1    1    2    0  502 -0.16862996047E+03 -0.39733199004E+02  0.74222415491E+03  0.78134210612E+03  0.17200000000E+03 0.  1.
</event>
<event>
 4    1  0.4612011E+000  0.1804444E+03  0.7818608E-02  0.1167374E+00
         21   -1    0    0  501  502  0.00000000000E+00  0.00000000000E+00  0.14145081797E+03  0.14145081797E+03  0.00000000000E+00 0. -1.
         21   -1    0    0  502  503 -0.00000000000E+00 -0.00000000000E+00 -0.34389482353E+03  0.34389482353E+03  0.00000000000E+00 0. -1.
          6    1    1    2  501    0  0.16923744285E+02  0.51863030662E+02  0.38319324398E+02  0.18446831081E+03  0.17200000000E+03 0. -1.
         -6    1    1    2    0  503 -0.16923744285E+02 -0.51863030662E+02 -0.24076332996E+03  0.30087733069E+03  0.17200000000E+03 0. -1.
</event>
<event>
 4    1  0.4612011E+000  0.2126555E+03  0.7818608E-02  0.1139480E+00
         21   -1    0    0  503  502  0.00000000000E+00  0.00000000000E+00  0.56851526015E+03  0.56851526015E+03  0.00000000000E+00 0.  1.
         21   -1    0    0  501  503 -0.00000000000E+00 -0.00000000000E+00 -0.13467037142E+03  0.13467037142E+03  0.00000000000E+00 0.  1.
          6    1    1    2  501    0 -0.92677562180E+02 -0.83959598597E+02 -0.80250318178E+01  0.21280682758E+03  0.17200000000E+03 0.  1.
         -6    1    1    2    0  502  0.92677562180E+02  0.83959598597E+02  0.44186992055E+03  0.49037880400E+03  0.17200000000E+03 0.  1.
</event>
<event>
 4    1  0.4612011E+000  0.1798167E+03  0.7818608E-02  0.1167981E+00
         21   -1    0    0  501  502  0.00000000000E+00  0.00000000000E+00  0.37800308031E+03  0.37800308031E+03  0.00000000000E+00 0.  1.
         21   -1    0    0  502  503 -0.00000000000E+00 -0.00000000000E+00 -0.35610360865E+03  0.35610360865E+03  0.00000000000E+00 0.  1.
          6    1    1    2  501    0  0.52053803697E+02 -0.63596151331E+01  0.33089553485E+03  0.37659779363E+03  0.17200000000E+03 0.  1.
         -6    1    1    2    0  503 -0.52053803697E+02  0.63596151331E+01 -0.30899606318E+03  0.35750889533E+03  0.17200000000E+03 0.  1.
</event>
<event>
 4    1  0.4612011E+000  0.2191783E+03  0.7818608E-02  0.1134497E+00
         21   -1    0    0  501  502  0.00000000000E+00  0.00000000000E+00  0.21319895231E+03  0.21319895231E+03  0.00000000000E+00 0. -1.
         21   -1    0    0  502  503 -0.00000000000E+00 -0.00000000000E+00 -0.24836474568E+03  0.24836474568E+03  0.00000000000E+00 0.  1.
          6    1    1    2  501    0 -0.46544670242E+02  0.12762729414E+03  0.52706859869E+02  0.22542658586E+03  0.17200000000E+03 0.  1.
         -6    1    1    2    0  503  0.46544670242E+02 -0.12762729414E+03 -0.87872653237E+02  0.23613711213E+03  0.17200000000E+03 0.  1.
</event>
<event>
 4    1  0.4612011E+000  0.1922949E+03  0.7818608E-02  0.1156408E+00
         21   -1    0    0  501  502  0.00000000000E+00  0.00000000000E+00  0.27674807606E+03  0.27674807606E+03  0.00000000000E+00 0. -1.
         21   -1    0    0  502  503 -0.00000000000E+00 -0.00000000000E+00 -0.32298783204E+03  0.32298783204E+03  0.00000000000E+00 0.  1.
          6    1    1    2  501    0  0.47956099226E+02 -0.71369044293E+02  0.20649357535E+03  0.28216471182E+03  0.17200000000E+03 0. -1.
         -6    1    1    2    0  503 -0.47956099226E+02  0.71369044293E+02 -0.25273333133E+03  0.31757119627E+03  0.17200000000E+03 0.  1.
</event>
<event>
 4    1  0.4612011E+000  0.2880721E+03  0.7818608E-02  0.1091360E+00
         21   -1    0    0  503  502  0.00000000000E+00  0.00000000000E+00  0.16839604762E+03  0.16839604762E+03  0.00000000000E+00 0. -1.
         21   -1    0    0  501  503 -0.00000000000E+00 -0.00000000000E+00 -0.49566954656E+03  0.49566954656E+03  0.00000000000E+00 0. -1.
          6    1    1    2  501    0  0.20133813728E+03 -0.11342175853E+03 -0.18890095410E+03  0.34448383313E+03  0.17200000000E+03 0. -1.
         -6    1    1    2    0  502 -0.20133813728E+03  0.11342175853E+03 -0.13837254484E+03  0.31958176105E+03  0.17200000000E+03 0. -1.
</event>
<event>
 4    1  0.4612011E+000  0.2081764E+03  0.7818608E-02  0.1143018E+00
         21   -1    0    0  501  502  0.00000000000E+00  0.00000000000E+00  0.26477307798E+03  0.26477307798E+03  0.00000000000E+00 0.  1.
         21   -1    0    0  502  503 -0.00000000000E+00 -0.00000000000E+00 -0.18773505929E+03  0.18773505929E+03  0.00000000000E+00 0. -1.
          6    1    1    2  501    0 -0.11673004613E+03 -0.11292234103E+02  0.11951223814E+03  0.24004289885E+03  0.17200000000E+03 0.  1.
         -6    1    1    2    0  503  0.11673004613E+03  0.11292234103E+02 -0.42474219444E+02  0.21246523842E+03  0.17200000000E+03 0. -1.
</event>
<event>
 4    1  0.4612011E+000  0.2204707E+03  0.7818608E-02  0.1133533E+00
         21   -1    0    0  501  502  0.00000000000E+00  0.00000000000E+00  0.12964784615E+03  0.12964784615E+03  0.00000000000E+00 0.  1.
         21   -1    0    0  502  503 -0.00000000000E+00 -0.00000000000E+00 -0.37491940160E+03  0.37491940160E+03  0.00000000000E+00 0. -1.
          6    1    1    2  501    0  0.10140764178E+03  0.93486909053E+02 -0.12312250151E+03  0.25252022167E+03  0.17200000000E+03 0. -1.
         -6    1    1    2    0  503 -0.10140764178E+03 -0.93486909053E+02 -0.12214905393E+03  0.25204702607E+03  0.17200000000E+03 0.  1.
</event>
<event>
 4    1  0.4612011E+000  0.2010501E+03  0.7818608E-02  0.1148856E+00
         21   -1    0    0  503  502  0.00000000000E+00  0.00000000000E+00  0.27057252549E+03  0.27057252549E+03  0.00000000000E+00 0. -1.
         21   -1    0    0  501  503 -0.00000000000E+00 -0.00000000000E+00 -0.18302676742E+03  0.18302676742E+03  0.00000000000E+00 0. -1.
          6    1    1    2  501    0  0.27528628802E+02 -0.10039578450E+03 -0.53453657056E+02  0.20803469038E+03  0.17200000000E+03 0. -1.
         -6    1    1    2    0  502 -0.27528628802E+02  0.10039578450E+03  0.14099941512E+03  0.24556460253E+03  0.17200000000E+03 0. -1.
</event>
<event>
 4    1  0.4612011E+000  0.1881885E+03  0.7818608E-02  0.1160105E+00
         21   -1    0    0  501  502  0.00000000000E+00  0.00000000000E+00  0.59622331319E+03  0.59622331319E+03  0.00000000000E+00 0. -1.
         21   -1    0    0  502  503 -0.00000000000E+00 -0.00000000000E+00 -0.11859752649E+03  0.11859752649E+03  0.00000000000E+00 0. -1.
          6    1    1    2  501    0 -0.26318501147E+02  0.71681445004E+02  0.49132716125E+03  0.52613427226E+03  0.17200000000E+03 0. -1.
         -6    1    1    2    0  503  0.26318501147E+02 -0.71681445004E+02 -0.13701374544E+02  0.18868656742E+03  0.17200000000E+03 0. -1.
</event>
<event>
 4    1  0.4612011E+000  0.2260289E+03  0.7818608E-02  0.1129466E+00
         21   -1    0    0  501  502  0.00000000000E+00  0.00000000000E+00  0.51468961475E+03  0.51468961475E+03  0.00000000000E+00 0. -1.
         21   -1    0    0  502  503 -0.00000000000E+00 -0.00000000000E+00 -0.12389787712E+03  0.12389787712E+03  0.00000000000E+00 0. -1.
          6    1    1    2  501    0  0.14160122131E+03 -0.38133423435E+02  0.53017679775E+02  0.23216360229E+03  0.17200000000E+03 0. -1.
         -6    1    1    2    0  503 -0.14160122131E+03  0.38133423435E+02  0.33777405785E+03  0.40642388958E+03  0.17200000000E+03 0. -1.
</event>
<event>
 4    1  0.4612011E+000  0.1842506E+03  0.7818608E-02  0.1163752E+00
         21   -1    0    0  503  502  0.00000000000E+00  0.00000000000E+00  0.65929456865E+03  0.65929456865E+03  0.00000000000E+00 0. -1.
         21   -1    0    0  501  503 -0.00000000000E+00 -0.00000000000E+00 -0.52397164488E+02  0.52397164488E+02  0.00000000000E+00 0. -1.
          6    1    1    2  501    0 -0.32222075604E+02 -0.57671795930E+02  0.25667439706E+03  0.31595892820E+03  0.17200000000E+03 0. -1.
         -6    1    1    2    0  502  0.32222075604E+02  0.57671795930E+02  0.35022300710E+03  0.39573280494E+03  0.17200000000E+03 0. -1.
</event>
<event>
 4    1  0.4612011E+000  0.1995438E+03  0.7818608E-02  0.1150125E+00
         21   -1    0    0  503  502  0.00000000000E+00  0.00000000000E+00  0.73167269850E+02  0.73167269850E+02  0.00000000000E+00 0.  1.
         21   -1    0    0  501  503 -0.00000000000E+00 -0.00000000000E+00 -0.71124114937E+03  0.71124114937E+03  0.00000000000E+00 0. -1.
          6    1    1    2  501    0 -0.17596543859E+02 -0.99619629616E+02 -0.50910717579E+03  0.54681608005E+03  0.17200000000E+03 0. -1.
         -6    1    1    2    0  502  0.17596543859E+02  0.99619629616E+02 -0.12896670373E+03  0.23759233917E+03  0.17200000000E+03 0.  1.
</event>
<event>
 4    1  0.4612011E+000  0.1751619E+03  0.7818608E-02  0.1172569E+00
         21   -1    0    0  503  502  0.00000000000E+00  0.00000000000E+00  0.88692806162E+02  0.88692806162E+02  0.00000000000E+00 0. -1.
         21   -1    0    0  501  503 -0.00000000000E+00 -0.00000000000E+00 -0.41887517940E+03  0.41887517940E+03  0.00000000000E+00 0. -1.
          6    1    1    2  501    0 -0.14956225798E+02 -0.29563803435E+02 -0.27099542450E+03  0.32267666055E+03  0.17200000000E+03 0. -1.
         -6    1    1    2    0  502  0.14956225798E+02  0.29563803435E+02 -0.59186948738E+02  0.18489132501E+03  0.17200000000E+03 0. -1.
</event>
<event>
 4    1  0.4612011E+000  0.1821921E+03  0.7818608E-02  0.1165698E+00
         21   -1    0    0  503  502  0.00000000000E+00  0.00000000000E+00  0.38879280511E+03  0.38879280511E+03  0.00000000000E+00 0. -1.
         21   -1    0    0  501  503 -0.00000000000E+00 -0.00000000000E+00 -0.29088330459E+03  0.29088330459E+03  0.00000000000E+00 0. -1.
          6    1    1    2  501    0  0.41688421760E+02 -0.43267246299E+02 -0.23668927442E+03  0.29869012662E+03  0.17200000000E+03 0. -1.
         -6    1    1    2    0  502 -0.41688421760E+02  0.43267246299E+02  0.33459877495E+03  0.38098598308E+03  0.17200000000E+03 0. -1.
</event>
<event>
 4    1  0.4612011E+000  0.2272538E+03  0.7818608E-02  0.1128588E+00
         21   -1    0    0  503  502  0.00000000000E+00  0.00000000000E+00  0.11776857737E+04  0.11776857737E+04  0.00000000000E+00 0. -1.
         21   -1    0    0  501  503 -0.00000000000E+00 -0.00000000000E+00 -0.18034943686E+03  0.18034943686E+03  0.00000000000E+00 0. -1.
          6    1    1    2  501    0  0.12993745956E+03 -0.71948077254E+02 -0.92056839871E+02  0.24519121311E+03  0.17200000000E+03 0. -1.
         -6    1    1    2    0  502 -0.12993745956E+03  0.71948077254E+02  0.10893931767E+04  0.11128439975E+04  0.17200000000E+03 0. -1.
</event>
<event>
 4    1  0.4612011E+000  0.1749265E+03  0.7818608E-02  0.1172806E+00
         21   -1    0    0  503  502  0.00000000000E+00  0.00000000000E+00  0.33935991437E+03  0.33935991437E+03  0.00000000000E+00 0.  1.
         21   -1    0    0  501  503 -0.00000000000E+00 -0.00000000000E+00 -0.12055058351E+03  0.12055058351E+03  0.00000000000E+00 0.  1.
          6    1    1    2  501    0  0.20954444723E+02  0.24003791110E+02 -0.60399925349E+01  0.17503071802E+03  0.17200000000E+03 0.  1.
         -6    1    1    2    0  502 -0.20954444723E+02 -0.24003791110E+02  0.22484932339E+03  0.28487977986E+03  0.17200000000E+03 0.  1.
</event>
<event>
 4    1  0.4612011E+000  0.2023156E+03  0.7818608E-02  0.1147800E+00
         21   -1    0    0  503  502  0.00000000000E+00  0.00000000000E+00  0.39288797665E+03  0.39288797665E+03  0.00000000000E+00 0. -1.
         21   -1    0    0  501  503 -0.00000000000E+00 -0.00000000000E+00 -0.10552378151E+03  0.10552378151E+03  0.00000000000E+00 0. -1.
          6    1    1    2  501    0 -0.96829542929E+02  0.44403338458E+02  0.11557460132E+03  0.23300022601E+03  0.17200000000E+03 0. -1.
         -6    1    1    2    0  502  0.96829542929E+02 -0.44403338458E+02  0.17178959383E+03  0.26541153215E+03  0.17200000000E+03 0. -1.
</event>
<event>
 4    1  0.4612011E+000  0.1725106E+03  0.7818608E-02  0.1175255E+00
         21   -1    0    0  501  502  0.00000000000E+00  0.00000000000E+00  0.17325998019E+02  0.17325998019E+02  0.00000000000E+00 0. -1.
         21   -1    0    0  502  503 -0.00000000000E+00 -0.00000000000E+00 -0.17864127144E+04  0.17864127144E+04  0.00000000000E+00 0. -1.
          6    1    1    2  501    0  0.47981261589E+00 -0.13254444270E+02 -0.70759536703E+03  0.72832074937E+03  0.17200000000E+03 0. -1.
         -6    1    1    2    0  503 -0.47981261589E+00  0.13254444270E+02 -0.10614913494E+04  0.10754179631E+04  0.17200000000E+03 0. -1.
</event>
<event>
 4    1  0.4612011E+000  0.3119134E+03  0.7818608E-02  0.1079432E+00
         21   -1    0    0  503  502  0.00000000000E+00  0.00000000000E+00  0.10660810836E+04  0.10660810836E+04  0.00000000000E+00 0.  1.
         21   -1    0    0  501  503 -0.00000000000E+00 -0.00000000000E+00 -0.10543518260E+03  0.10543518260E+03  0.00000000000E+00 0. -1.
          6    1    1    2  501    0 -0.19570861717E+03 -0.17147616792E+03  0.69510540439E+03  0.76188021514E+03  0.17200000000E+03 0.  1.
         -6    1    1    2    0  502  0.19570861717E+03  0.17147616792E+03  0.26554049663E+03  0.40963605108E+03  0.17200000000E+03 0. -1.
</event>
<event>
 4    1  0.4612011E+000  0.2834480E+03  0.7818608E-02  0.1093820E+00
         21   -1    0    0  503  502  0.00000000000E+00  0.00000000000E+00  0.14521351133E+03  0.14521351133E+03  0.00000000000E+00 0. -1.
         21   -1    0    0  501  503 -0.00000000000E+00 -0.00000000000E+00 -0.67271224798E+03  0.67271224798E+03  0.00000000000E+00 0. -1.
          6    1    1    2  501    0  0.99405103734E+02  0.20218162096E+03 -0.43607183731E+03  0.52009751951E+03  0.17200000000E+03 0. -1.
         -6    1    1    2    0  502 -0.99405103734E+02 -0.20218162096E+03 -0.91426899342E+02  0.29782823980E+03  0.17200000000E+03 0. -1.
</event>
<event>
 4    1  0.4612011E+000  0.1751839E+03  0.7818608E-02  0.1172547E+00
         21   -1    0    0  503  502  0.00000000000E+00  0.00000000000E+00  0.61545042718E+03  0.61545042718E+03  0.00000000000E+00 0.  1.
         21   -1    0    0  501  503 -0.00000000000E+00 -0.00000000000E+00 -0.58161824766E+02  0.58161824766E+02  0.00000000000E+00 0.  1.
          6    1    1    2  501    0 -0.30938960672E+02 -0.12172972416E+02  0.15143513158E+03  0.23156424513E+03  0.17200000000E+03 0.  1.
         -6    1    1    2    0  502  0.30938960672E+02  0.12172972416E+02  0.40585347084E+03  0.44204800682E+03  0.17200000000E+03 0.  1.
</event>
<event>
 4    1  0.4612011E+000  0.2122405E+03  0.7818608E-02  0.1139804E+00
         21   -1    0    0  503  502  0.00000000000E+00  0.00000000000E+00  0.57637321186E+03  0.57637321186E+03  0.00000000000E+00 0.  1.
         21   -1    0    0  501  503 -0.00000000000E+00 -0.00000000000E+00 -0.87805472034E+02  0.87805472034E+02  0.00000000000E+00 0. -1.
          6    1    1    2  501    0 -0.87718539939E+02  0.88133325612E+02  0.13418447316E+03  0.25110057381E+03  0.17200000000E+03 0. -1.
         -6    1    1    2    0  502  0.87718539939E+02 -0.88133325612E+02  0.35438326667E+03  0.41307811008E+03  0.17200000000E+03 0.  1.
</event>
<event>
 4    1  0.4612011E+000  0.2493427E+03  0.7818608E-02  0.1113721E+00
         21   -1    0    0  501  502  0.00000000000E+00  0.00000000000E+00  0.46606279767E+03  0.46606279767E+03  0.00000000000E+00 0.  1.
         21   -1    0    0  502  503 -0.00000000000E+00 -0.00000000000E+00 -0.13362923389E+03  0.13362923389E+03  0.00000000000E+00 0.  1.
          6    1    1    2  501    0  0.89919166806E+01  0.18029673998E+03  0.15373931271E+03  0.29292924963E+03  0.17200000000E+03 0.  1.
         -6    1    1    2    0  503 -0.89919166806E+01 -0.18029673998E+03  0.17869425108E+03  0.30676278194E+03  0.17200000000E+03 0.  1.
</event>
<event>
 4    1  0.4612011E+000  0.1741264E+03  0.7818608E-02  0.1173612E+00
         21   -1    0    0  501  502  0.00000000000E+00  0.00000000000E+00  0.52702692816E+03  0.52702692816E+03  0.00000000000E+00 0.  1.
         21   -1    0    0  502  503 -0.00000000000E+00 -0.00000000000E+00 -0.10759319610E+03  0.10759319610E+03  0.00000000000E+00 0.  1.
          6    1    1    2  501    0  0.17771078922E+02  0.20498692871E+02  0.42616283591E+03  0.46036373702E+03  0.17200000000E+03 0.  1.
         -6    1    1    2    0  503 -0.17771078922E+02 -0.20498692871E+02 -0.67291038431E+01  0.17425638724E+03  0.17200000000E+03 0.  1.
</event>
<event>
 4    1  0.4612011E+000  0.1788815E+03  0.7818608E-02  0.1168890E+00
         21   -1    0    0  503  502  0.00000000000E+00  0.00000000000E+00  0.19777766657E+02  0.19777766657E+02  0.00000000000E+00 0.  1.
         21   -1    0    0  501  503 -0.00000000000E+00 -0.00000000000E+00 -0.21818192748E+04  0.21818192748E+04  0.00000000000E+00 0.  1.
          6    1    1    2  501    0  0.29870009036E+02  0.39017545023E+02 -0.16406549464E+04  0.16503779080E+04  0.17200000000E+03 0.  1.
         -6    1    1    2    0  502 -0.29870009036E+02 -0.39017545023E+02 -0.52138656175E+03  0.55121913341E+03  0.17200000000E+03 0.  1.
</event>
<event>
 4    1  0.4612011E+000  0.1948253E+03  0.7818608E-02  0.1154180E+00
         21   -1    0    0  501  502  0.00000000000E+00  0.00000000000E+00  0.55299477238E+02  0.55299477238E+02  0.00000000000E+00 0.  1.
         21   -1    0    0  502  503 -0.00000000000E+00 -0.00000000000E+00 -0.69309197415E+03  0.69309197415E+03  0.00000000000E+00 0.  1.
          6    1    1    2  501    0  0.15279174384E+02 -0.90218909479E+02 -0.35569773203E+03  0.40555860411E+03  0.17200000000E+03 0. -1.
         -6    1    1    2    0  503 -0.15279174384E+02  0.90218909479E+02 -0.28209476488E+03  0.34283284727E+03  0.17200000000E+03 0. -1.
</event>
<event>
 4    1  0.4612011E+000  0.2050096E+03  0.7818608E-02  0.1145580E+00
         21   -1    0    0  501  502  0.00000000000E+00  0.00000000000E+00  0.30906828746E+03  0.30906828746E+03  0.00000000000E+00 0. -1.
         21   -1    0    0  502  503 -0.00000000000E+00 -0.00000000000E+00 -0.16105746788E+03  0.16105746788E+03  0.00000000000E+00 0. -1.
          6    1    1    2  501    0  0.95996073671E+02  0.56830332998E+02  0.16674907582E+03  0.26426158858E+03  0.17200000000E+03 0. -1.
         -6    1    1    2    0  503 -0.95996073671E+02 -0.56830332998E+02 -0.18738256248E+02  0.20586416676E+03  0.17200000000E+03 0. -1.
</event>
<event>
 4    1  0.4612011E+000  0.1794018E+03  0.7818608E-02  0.1168383E+00
         21   -1    0    0  501  502  0.00000000000E+00  0.00000000000E+00  0.15001861078E+03  0.15001861078E+03  0.00000000000E+00 0.  1.
         21   -1    0    0  502  503 -0.00000000000E+00 -0.00000000000E+00 -0.22823183268E+03  0.22823183268E+03  0.00000000000E+00 0.  1.
          6    1    1    2  501    0  0.36712177232E+01  0.50867833540E+02  0.72156610551E+01  0.17954687436E+03  0.17200000000E+03 0.  1.
         -6    1    1    2    0  503 -0.36712177232E+01 -0.50867833540E+02 -0.85428882961E+02  0.19870356910E+03  0.17200000000E+03 0.  1.
</event>
<event>
 4    1  0.4612011E+000  0.3279842E+03  0.7818608E-02  0.1072032E+00
         21   -1    0    0  503  502  0.00000000000E+00  0.00000000000E+00  0.16286561293E+03  0.16286561293E+03  0.00000000000E+00 0.  1.
         21   -1    0    0  501  503 -0.00000000000E+00 -0.00000000000E+00 -0.72726072941E+03  0.72726072941E+03  0.00000000000E+00 0. -1.
          6    1    1    2  501    0  0.13008370957E+03  0.24711906275E+03 -0.41703789969E+03  0.53056028164E+03  0.17200000000E+03 0. -1.
         -6    1    1    2    0  502 -0.13008370957E+03 -0.24711906275E+03 -0.14735721678E+03  0.35956606070E+03  0.17200000000E+03 0.  1.
</event>
<event>
 4    1  0.4612011E+000  0.3192488E+03  0.7818608E-02  0.1075996E+00
         21   -1    0    0  501  502  0.00000000000E+00  0.00000000000E+00  0.52094854978E+03  0.52094854978E+03  0.00000000000E+00 0. -1.
         21   -1    0    0  502  503 -0.00000000000E+00 -0.00000000000E+00 -0.21456137059E+03  0.21456137059E+03  0.00000000000E+00 0.  1.
          6    1    1    2  501    0  0.18740189748E+03 -0.19291531845E+03  0.26239489991E+03  0.41324432818E+03  0.17200000000E+03 0. -1.
         -6    1    1    2    0  503 -0.18740189748E+03  0.19291531845E+03  0.43992279283E+02  0.32226559219E+03  0.17200000000E+03 0.  1.
</event>
<event>
 4    1  0.4612011E+000  0.2249836E+03  0.7818608E-02  0.1130221E+00
         21   -1    0    0  503  502  0.00000000000E+00  0.00000000000E+00  0.12472151387E+04  0.12472151387E+04  0.00000000000E+00 0.  1.
         21   -1    0    0  501  503 -0.00000000000E+00 -0.00000000000E+00 -0.64914302118E+02  0.64914302118E+02  0.00000000000E+00 0.  1.
          6    1    1    2  501    0  0.46476599189E+02  0.13738110256E+03  0.18950252003E+03  0.29415786019E+03  0.17200000000E+03 0.  1.
         -6    1    1    2    0  502 -0.46476599189E+02 -0.13738110256E+03  0.99279831657E+03  0.10179715806E+04  0.17200000000E+03 0.  1.
</event>
<event>
 4    1  0.4612011E+000  0.1812408E+03  0.7818608E-02  0.1166608E+00
         21   -1    0    0  501  502  0.00000000000E+00  0.00000000000E+00  0.23425306794E+03  0.23425306794E+03  0.00000000000E+00 0. -1.
         21   -1    0    0  502  503 -0.00000000000E+00 -0.00000000000E+00 -0.22171149271E+03  0.22171149271E+03  0.00000000000E+00 0. -1.
          6    1    1    2  501    0  0.48454611041E+02  0.30272030734E+02  0.14448368340E+03  0.23178390787E+03  0.17200000000E+03 0. -1.
         -6    1    1    2    0  503 -0.48454611041E+02 -0.30272030734E+02 -0.13194210818E+03  0.22418065279E+03  0.17200000000E+03 0. -1.
</event>
<event>
 4    1  0.4612011E+000  0.1798379E+03  0.7818608E-02  0.1167960E+00
         21   -1    0    0  503  502  0.00000000000E+00  0.00000000000E+00  0.17449933890E+03  0.17449933890E+03  0.00000000000E+00 0. -1.
         21   -1    0    0  501  503 -0.00000000000E+00 -0.00000000000E+00 -0.20249365539E+03  0.20249365539E+03  0.00000000000E+00 0. -1.
          6    1    1    2  501    0  0.32962987378E+02 -0.40879238990E+02 -0.68860035565E+02  0.19257044222E+03  0.17200000000E+03 0. -1.
         -6    1    1    2    0  502 -0.32962987378E+02  0.40879238990E+02  0.40865719082E+02  0.18442255207E+03  0.17200000000E+03 0. -1.
</event>
<event>
 4    1  0.4612011E+000  0.2298106E+03  0.7818608E-02  0.1126773E+00
         21   -1    0    0  503  502  0.00000000000E+00  0.00000000000E+00  0.85046539418E+02  0.85046539418E+02  0.00000000000E+00 0.  1.
         21   -1    0    0  501  503 -0.00000000000E+00 -0.00000000000E+00 -0.73079710796E+03  0.73079710796E+03  0.00000000000E+00 0.  1.
          6    1    1    2  501    0 -0.98982008449E+02 -0.11589414930E+03 -0.48099915860E+03  0.53307887073E+03  0.17200000000E+03 0.  1.
         -6    1    1    2    0  502  0.98982008449E+02  0.11589414930E+03 -0.16475140994E+03  0.28276477665E+03  0.17200000000E+03 0.  1.
</event>
<event>
 4    1  0.4612011E+000  0.1841891E+03  0.7818608E-02  0.1163809E+00
         21   -1    0    0  501  502  0.00000000000E+00  0.00000000000E+00  0.45677998023E+03  0.45677998023E+03  0.00000000000E+00 0.  1.
         21   -1    0    0  502  503 -0.00000000000E+00 -0.00000000000E+00 -0.36909805958E+03  0.36909805958E+03  0.00000000000E+00 0.  1.
          6    1    1    2  501    0 -0.65358963875E+02 -0.83573248605E+01  0.41290225212E+03  0.45212156423E+03  0.17200000000E+03 0.  1.
         -6    1    1    2    0  503  0.65358963875E+02  0.83573248605E+01 -0.32522033147E+03  0.37375647558E+03  0.17200000000E+03 0.  1.
</event>
<event>
 4    1  0.4612011E+000  0.1761298E+03  0.7818608E-02  0.1171602E+00
         21   -1    0    0  501  502  0.00000000000E+00  0.00000000000E+00  0.48096051760E+03  0.48096051760E+03  0.00000000000E+00 0. -1.
         21   -1    0    0  502  503 -0.00000000000E+00 -0.00000000000E+00 -0.75904891703E+02  0.75904891703E+02  0.00000000000E+00 0. -1.
          6    1    1    2  501    0  0.33985299157E+02  0.16813499388E+02  0.31045757059E+03  0.35693920695E+03  0.17200000000E+03 0. -1.
         -6    1    1    2    0  503 -0.33985299157E+02 -0.16813499388E+02  0.94598055310E+02  0.19992620236E+03  0.17200000000E+03 0. -1.
</event>
<event>
 4    1  0.4612011E+000  0.3425738E+03  0.7818608E-02  0.1065705E+00
         21   -1    0    0  501  502  0.00000000000E+00  0.00000000000E+00  0.43508449348E+03  0.43508449348E+03  0.00000000000E+00 0.  1.
         21   -1    0    0  502  503 -0.00000000000E+00 -0.00000000000E+00 -0.28836574535E+03  0.28836574535E+03  0.00000000000E+00 0. -1.
          6    1    1    2  501    0  0.27700545020E+03 -0.10507500025E+03  0.16530726902E+03  0.38037253885E+03  0.17200000000E+03 0.  1.
         -6    1    1    2    0  503 -0.27700545020E+03  0.10507500025E+03 -0.18588520886E+02  0.34307769998E+03  0.17200000000E+03 0. -1.
</event>
<event>
 4    1  0.4612011E+000  0.1863654E+03  0.7818608E-02  0.1161781E+00
         21   -1    0    0  503  502  0.00000000000E+00  0.00000000000E+00  0.13167467955E+03  0.13167467955E+03  0.00000000000E+00 0.  1.
         21   -1    0    0  501  503 -0.00000000000E+00 -0.00000000000E+00 -0.26909996904E+03  0.26909996904E+03  0.00000000000E+00 0.  1.
          6    1    1    2  501    0  0.69033393393E+02  0.19556589111E+02 -0.96909566245E+02  0.21005602493E+03  0.17200000000E+03 0.  1.
         -6    1    1    2    0  502 -0.69033393393E+02 -0.19556589111E+02 -0.40515723238E+02  0.19071862366E+03  0.17200000000E+03 0.  1.
</event>
<event>
 4    1  0.4612011E+000  0.2053785E+03  0.7818608E-02  0.1145279E+00
         21   -1    0    0  501  502  0.00000000000E+00  0.00000000000E+00  0.33774292281E+03  0.33774292281E+03  0.00000000000E+00 0.  1.
         21   -1    0    0  502  503 -0.00000000000E+00 -0.00000000000E+00 -0.19739869929E+03  0.19739869929E+03  0.00000000000E+00 0.  1.
          6    1    1    2  501    0 -0.20593133887E+02 -0.11032790472E+03  0.23234009146E+03  0.31010037379E+03  0.17200000000E+03 0.  1.
         -6    1    1    2    0  503  0.20593133887E+02  0.11032790472E+03 -0.91995867945E+02  0.22504124831E+03  0.17200000000E+03 0.  1.
</event>
<event>
 4    1  0.4612011E+000  0.1962589E+03  0.7818608E-02  0.1152934E+00
         21   -1    0    0  501  502  0.00000000000E+00  0.00000000000E+00  0.94518485483E+02  0.94518485483E+02  0.00000000000E+00 0. -1.
         21   -1    0    0  502  503 -0.00000000000E+00 -0.00000000000E+00 -0.47960704431E+03  0.47960704431E+03  0.00000000000E+00 0. -1.
          6    1    1    2  501    0  0.58973631976E+02  0.73862353597E+02 -0.81247400493E+02  0.21241157368E+03  0.17200000000E+03 0. -1.
         -6    1    1    2    0  503 -0.58973631976E+02 -0.73862353597E+02 -0.30384115833E+03  0.36171395611E+03  0.17200000000E+03 0. -1.
</event>
<event>
 4    1  0.4612011E+000  0.2293926E+03  0.7818608E-02  0.1127068E+00
         21   -1    0    0  503  502  0.00000000000E+00  0.00000000000E+00  0.25487921042E+03  0.25487921042E+03  0.00000000000E+00 0. -1.
         21   -1    0    0  501  503 -0.00000000000E+00 -0.00000000000E+00 -0.44843492916E+03  0.44843492916E+03  0.00000000000E+00 0.  1.
          6    1    1    2  501    0 -0.14672620412E+03 -0.38837937920E+02 -0.35509887657E+03  0.42274836077E+03  0.17200000000E+03 0.  1.
         -6    1    1    2    0  502  0.14672620412E+03  0.38837937920E+02  0.16154315782E+03  0.28056577880E+03  0.17200000000E+03 0. -1.
</event>
<event>
 4    1  0.4612011E+000  0.1917311E+03  0.7818608E-02  0.1156909E+00
         21   -1    0    0  503  502  0.00000000000E+00  0.00000000000E+00  0.41357606621E+03  0.41357606621E+03  0.00000000000E+00 0.  1.
         21   -1    0    0  501  503 -0.00000000000E+00 -0.00000000000E+00 -0.91829479281E+02  0.91829479281E+02  0.00000000000E+00 0.  1.
          6    1    1    2  501    0 -0.39835301706E+01 -0.84622273548E+02  0.11562446718E+03  0.22389688498E+03  0.17200000000E+03 0.  1.
         -6    1    1    2    0  502  0.39835301706E+01  0.84622273548E+02  0.20612211975E+03  0.28150866051E+03  0.17200000000E+03 0.  1.
</event>
<event>
 4    1  0.4612011E+000  0.2329579E+03  0.7818608E-02  0.1124575E+00
         21   -1    0    0  501  502  0.00000000000E+00  0.00000000000E+00  0.71395012551E+02  0.71395012551E+02  0.00000000000E+00 0.  1.
         21   -1    0    0  502  503 -0.00000000000E+00 -0.00000000000E+00 -0.10117274762E+04  0.10117274762E+04  0.00000000000E+00 0.  1.
          6    1    1    2  501    0  0.12434760990E+03 -0.96036643669E+02 -0.20009988672E+03  0.30709824109E+03  0.17200000000E+03 0.  1.
         -6    1    1    2    0  503 -0.12434760990E+03  0.96036643669E+02 -0.74023257691E+03  0.77602424765E+03  0.17200000000E+03 0.  1.
</event>
<event>
 4    1  0.4612011E+000  0.1997563E+03  0.7818608E-02  0.1149945E+00
         21   -1    0    0  503  502  0.00000000000E+00  0.00000000000E+00  0.68799834447E+03  0.68799834447E+03  0.00000000000E+00 0. -1.
         21   -1    0    0  501  503 -0.00000000000E+00 -0.00000000000E+00 -0.57946140393E+03  0.57946140393E+03  0.00000000000E+00 0. -1.
          6    1    1    2  501    0  0.95782198655E+01  0.10112782537E+03 -0.54691054089E+03  0.58224884636E+03  0.17200000000E+03 0. -1.
         -6    1    1    2    0  502 -0.95782198655E+01 -0.10112782537E+03  0.65544748143E+03  0.68521090204E+03  0.17200000000E+03 0. -1.
</event>
<event>
 4    1  0.4612011E+000  0.2080201E+03  0.7818608E-02  0.1143144E+00
         21   -1    0    0  501  502  0.00000000000E+00  0.00000000000E+00  0.85996486466E+03  0.85996486466E+03  0.00000000000E+00 0. -1.
         21   -1    0    0  502  503 -0.00000000000E+00 -0.00000000000E+00 -0.10131631106E+03  0.10131631106E+03  0.00000000000E+00 0.  1.
          6    1    1    2  501    0 -0.70096380425E+01 -0.11678703938E+03  0.72032516317E+03  0.74976042060E+03  0.17200000000E+03 0. -1.
         -6    1    1    2    0  503  0.70096380425E+01  0.11678703938E+03  0.38323390426E+02  0.21152075512E+03  0.17200000000E+03 0.  1.
</event>
<event>
 4    1  0.4612011E+000  0.1935056E+03  0.7818608E-02  0.1155337E+00
         21   -1    0    0  503  502  0.00000000000E+00  0.00000000000E+00  0.41383391820E+02  0.41383391820E+02  0.00000000000E+00 0. -1.
         21   -1    0    0  501  503 -0.00000000000E+00 -0.00000000000E+00 -0.12105190917E+04  0.12105190917E+04  0.00000000000E+00 0.  1.
          6    1    1    2  501    0 -0.72647549282E+02 -0.50820610091E+02 -0.89912807975E+03  0.91971501272E+03  0.17200000000E+03 0. -1.
         -6    1    1    2    0  502  0.72647549282E+02  0.50820610091E+02 -0.27000762012E+03  0.33218747079E+03  0.17200000000E+03 0.  1.
</event>
<event>
 4    1  0.4612011E+000  0.2136008E+03  0.7818608E-02  0.1138746E+00
         21   -1    0    0  503  502  0.00000000000E+00  0.00000000000E+00  0.10826472503E+04  0.10826472503E+04  0.00000000000E+00 0. -1.
         21   -1    0    0  501  503 -0.00000000000E+00 -0.00000000000E+00 -0.64880730233E+02  0.64880730233E+02  0.00000000000E+00 0.  1.
          6    1    1    2  501    0 -0.16954475324E+02 -0.12551428406E+03  0.16921476216E+03  0.27250490907E+03  0.17200000000E+03 0.  1.
         -6    1    1    2    0  502  0.16954475324E+02  0.12551428406E+03  0.84855175790E+03  0.87502307145E+03  0.17200000000E+03 0.  1.
</event>
<event>
 4    1  0.4612011E+000  0.2052518E+03  0.7818608E-02  0.1145382E+00
         21   -1    0    0  503  502  0.00000000000E+00  0.00000000000E+00  0.67576012205E+03  0.67576012205E+03  0.00000000000E+00 0.  1.
         21   -1    0    0  501  503 -0.00000000000E+00 -0.00000000000E+00 -0.13617331644E+03  0.13617331644E+03  0.00000000000E+00 0.  1.
          6    1    1    2  501    0  0.33785690657E+02 -0.10678403622E+03 -0.29133116032E+02  0.20730904885E+03  0.17200000000E+03 0.  1.
         -6    1    1    2    0  502 -0.33785690657E+02  0.10678403622E+03  0.56871992163E+03  0.60462438964E+03  0.17200000000E+03 0.  1.
</event>
<event>
 4    1  0.4612011E+000  0.2583668E+03  0.7818608E-02  0.1108128E+00
         21   -1    0    0  503  502  0.00000000000E+00  0.00000000000E+00  0.99510062443E+03  0.99510062443E+03  0.00000000000E+00 0. -1.
         21   -1    0    0  501  503 -0.00000000000E+00 -0.00000000000E+00 -0.67979065355E+02  0.67979065355E+02  0.00000000000E+00 0.  1.
          6    1    1    2  501    0 -0.13207090246E+03  0.14045166295E+03  0.40250209760E+03  0.47829000771E+03  0.17200000000E+03 0.  1.
         -6    1    1    2    0  502  0.13207090246E+03 -0.14045166295E+03  0.52461946148E+03  0.58478968208E+03  0.17200000000E+03 0.  1.
</event>
<event>
 4    1  0.4612011E+000  0.1836939E+03  0.7818608E-02  0.1164275E+00
         21   -1    0    0  503  502  0.00000000000E+00  0.00000000000E+00  0.49965820170E+03  0.49965820170E+03  0.00000000000E+00 0. -1.
         21   -1    0    0  501  503 -0.00000000000E+00 -0.00000000000E+00 -0.69834365494E+02  0.69834365494E+02  0.00000000000E+00 0. -1.
          6    1    1    2  501    0 -0.54334259812E+02  0.34745186399E+02  0.16322126359E+03  0.24573282372E+03  0.17200000000E+03 0.  1.
         -6    1    1    2    0  502  0.54334259812E+02 -0.34745186399E+02  0.26660257262E+03  0.32375974347E+03  0.17200000000E+03 0.  1.
</event>
<event>
 4    1  0.4612011E+000  0.1806087E+03  0.7818608E-02  0.1167215E+00
         21   -1    0    0  501  502  0.00000000000E+00  0.00000000000E+00  0.42943698371E+03  0.42943698371E+03  0.00000000000E+00 0. -1.
         21   -1    0    0  502  503 -0.00000000000E+00 -0.00000000000E+00 -0.22566275532E+03  0.22566275532E+03  0.00000000000E+00 0. -1.
          6    1    1    2  501    0 -0.55088390414E+02  0.87805801241E+00  0.36867381706E+03  0.41053609479E+03  0.17200000000E+03 0. -1.
         -6    1    1    2    0  503  0.55088390414E+02 -0.87805801241E+00 -0.16489958866E+03  0.24456364424E+03  0.17200000000E+03 0. -1.
</event>
<event>
 4    1  0.4612011E+000  0.2209775E+03  0.7818608E-02  0.1133156E+00
         21   -1    0    0  503  502  0.00000000000E+00  0.00000000000E+00  0.17914403916E+03  0.17914403916E+03  0.00000000000E+00 0. -1.
         21   -1    0    0  501  503 -0.00000000000E+00 -0.00000000000E+00 -0.36692550641E+03  0.36692550641E+03  0.00000000000E+00 0. -1.
          6    1    1    2  501    0  0.13542968223E+02 -0.13807114798E+03 -0.23233978465E+03  0.32064439715E+03  0.17200000000E+03 0. -1.
         -6    1    1    2    0  502 -0.13542968223E+02  0.13807114798E+03  0.44558317403E+02  0.22542514842E+03  0.17200000000E+03 0. -1.
</event>
<event>
 4    1  0.4612011E+000  0.2174302E+03  0.7818608E-02  0.1135814E+00
         21   -1    0    0  503  502  0.00000000000E+00  0.00000000000E+00  0.64630051980E+03  0.64630051980E+03  0.00000000000E+00 0.  1.
         21   -1    0    0  501  503 -0.00000000000E+00 -0.00000000000E+00 -0.75150479753E+02  0.75150479753E+02  0.00000000000E+00 0.  1.
          6    1    1    2  501    0  0.80698541531E+02  0.10573390655E+03  0.22669868049E+03  0.31411495561E+03  0.17200000000E+03 0.  1.
         -6    1    1    2    0  502 -0.80698541531E+02 -0.10573390655E+03  0.34445135956E+03  0.40733604395E+03  0.17200000000E+03 0.  1.
</event>
<event>
 4    1  0.4612011E+000  0.1759340E+03  0.7818608E-02  0.1171797E+00
         21   -1    0    0  501  502  0.00000000000E+00  0.00000000000E+00  0.84117178903E+02  0.84117178903E+02  0.00000000000E+00 0.  1.
         21   -1    0    0  502  503 -0.00000000000E+00 -0.00000000000E+00 -0.11636474912E+04  0.11636474912E+04  0.00000000000E+00 0.  1.
          6    1    1    2  501    0 -0.36967172590E+02  0.14827682474E+01 -0.23871784452E+02  0.17754614201E+03  0.17200000000E+03 0.  1.
         -6    1    1    2    0  503  0.36967172590E+02 -0.14827682474E+01 -0.10556585278E+04  0.10702185281E+04  0.17200000000E+03 0.  1.
</event>
<event>
 4    1  0.4612011E+000  0.1757331E+03  0.7818608E-02  0.1171998E+00
         21   -1    0    0  503  502  0.00000000000E+00  0.00000000000E+00  0.15484045318E+03  0.15484045318E+03  0.00000000000E+00 0. -1.
         21   -1    0    0  501  503 -0.00000000000E+00 -0.00000000000E+00 -0.32889951861E+03  0.32889951861E+03  0.00000000000E+00 0. -1.
          6    1    1    2  501    0 -0.15841946567E+01 -0.35994463544E+02 -0.23877280121E+03  0.29647016996E+03  0.17200000000E+03 0. -1.
         -6    1    1    2    0  502  0.15841946567E+01  0.35994463544E+02  0.64713735785E+02  0.18726980183E+03  0.17200000000E+03 0. -1.
</event>
<event>
 4    1  0.4612011E+000  0.1855814E+03  0.7818608E-02  0.1162508E+00
         21   -1    0    0  501  502  0.00000000000E+00  0.00000000000E+00  0.21948843427E+03  0.21948843427E+03  0.00000000000E+00 0. -1.
         21   -1    0    0  502  503 -0.00000000000E+00 -0.00000000000E+00 -0.18993890802E+03  0.18993890802E+03  0.00000000000E+00 0. -1.
          6    1    1    2  501    0 -0.92996103373E+01 -0.69064875949E+02  0.10013816624E+03  0.21087458875E+03  0.17200000000E+03 0.  1.
         -6    1    1    2    0  503  0.92996103373E+01  0.69064875949E+02 -0.70588639992E+02  0.19855275354E+03  0.17200000000E+03 0.  1.
</event>
<event>
 4    1  0.4612011E+000  0.1742251E+03  0.7818608E-02  0.1173512E+00
         21   -1    0    0  503  502  0.00000000000E+00  0.00000000000E+00  0.19858069877E+03  0.19858069877E+03  0.00000000000E+00 0.  1.
         21   -1    0    0  501  503 -0.00000000000E+00 -0.00000000000E+00 -0.15437074830E+03  0.15437074830E+03  0.00000000000E+00 0.  1.
          6    1    1    2  501    0  0.21377700122E+02  0.17702715525E+02  0.39582139118E+02  0.17866487606E+03  0.17200000000E+03 0.  1.
         -6    1    1    2    0  502 -0.21377700122E+02 -0.17702715525E+02  0.46278113533E+01  0.17428657102E+03  0.17200000000E+03 0.  1.
</event>
<event>
 4    1  0.4612011E+000  0.2779961E+03  0.7818608E-02  0.1096788E+00
         21   -1    0    0  503  502  0.00000000000E+00  0.00000000000E+00  0.11260351871E+04  0.11260351871E+04  0.00000000000E+00 0.  1.
         21   -1    0    0  501  503 -0.00000000000E+00 -0.00000000000E+00 -0.70651320055E+02  0.70651320055E+02  0.00000000000E+00 0. -1.
          6    1    1    2  501    0  0.14826664061E+03 -0.16035848900E+03  0.62885277606E+03  0.68755920157E+03  0.17200000000E+03 0. -1.
         -6    1    1    2    0  502 -0.14826664061E+03  0.16035848900E+03  0.42653109101E+03  0.50912730560E+03  0.17200000000E+03 0. -1.
</event>
<event>
 4    1  0.4612011E+000  0.1882042E+03  0.7818608E-02  0.1160091E+00
         21   -1    0    0  501  502  0.00000000000E+00  0.00000000000E+00  0.74693083653E+02  0.74693083653E+02  0.00000000000E+00 0. -1.
         21   -1    0    0  502  503 -0.00000000000E+00 -0.00000000000E+00 -0.10734324120E+04  0.10734324120E+04  0.00000000000E+00 0. -1.
          6    1    1    2  501    0 -0.74918677624E+02  0.14966862749E+02 -0.70462710406E+02  0.20096220738E+03  0.17200000000E+03 0. -1.
         -6    1    1    2    0  503  0.74918677624E+02 -0.14966862749E+02 -0.92827661797E+03  0.94716328831E+03  0.17200000000E+03 0. -1.
</event>
<event>
 4    1  0.4612011E+000  0.1779060E+03  0.7818608E-02  0.1169845E+00
         21   -1    0    0  503  502  0.00000000000E+00  0.00000000000E+00  0.39753809299E+03  0.39753809299E+03  0.00000000000E+00 0.  1.
         21   -1    0    0  501  503 -0.00000000000E+00 -0.00000000000E+00 -0.14309903880E+03  0.14309903880E+03  0.00000000000E+00 0.  1.
          6    1    1    2  501    0  0.39983536038E+02  0.21630478665E+02 -0.52827073093E+02  0.18558356720E+03  0.17200000000E+03 0. -1.
         -6    1    1    2    0  502 -0.39983536038E+02 -0.21630478665E+02  0.30726612728E+03  0.35505356460E+03  0.17200000000E+03 0. -1.
</event>
<event>
 4    1  0.4612011E+000  0.2101084E+03  0.7818608E-02  0.1141480E+00
         21   -1    0    0  503  502  0.00000000000E+00  0.00000000000E+00  0.23854709733E+03  0.23854709733E+03  0.00000000000E+00 0. -1.
         21   -1    0    0  501  503 -0.00000000000E+00 -0.00000000000E+00 -0.18507397192E+03  0.18507397192E+03  0.00000000000E+00 0.  1.
          6    1    1    2  501    0  0.66058583989E+02  0.10098426968E+03  0.28567676059E+02  0.21204167363E+03  0.17200000000E+03 0. -1.
         -6    1    1    2    0  502 -0.66058583989E+02 -0.10098426968E+03  0.24905449349E+02  0.21157939562E+03  0.17200000000E+03 0.  1.
</event>
<event>
 4    1  0.4612011E+000  0.1834710E+03  0.7818608E-02  0.1164485E+00
         21   -1    0    0  503  502  0.00000000000E+00  0.00000000000E+00  0.15227489725E+03  0.15227489725E+03  0.00000000000E+00 0.  1.
         21   -1    0    0  501  503 -0.00000000000E+00 -0.00000000000E+00 -0.23806901139E+03  0.23806901139E+03  0.00000000000E+00 0.  1.
          6    1    1    2  501    0 -0.49701911042E+02  0.40091281487E+02  0.92741029233E+01  0.18370519807E+03  0.17200000000E+03 0.  1.
         -6    1    1    2    0  502  0.49701911042E+02 -0.40091281487E+02 -0.95068217066E+02  0.20663871058E+03  0.17200000000E+03 0.  1.
</event>
<event>
 4    1  0.4612011E+000  0.2140557E+03  0.7818608E-02  0.1138394E+00
         21   -1    0    0  501  502  0.00000000000E+00  0.00000000000E+00  0.73712426819E+03  0.73712426819E+03  0.00000000000E+00 0. -1.
         21   -1    0    0  502  503 -0.00000000000E+00 -0.00000000000E+00 -0.62205587406E+02  0.62205587406E+02  0.00000000000E+00 0. -1.
          6    1    1    2  501    0  0.12537672995E+03  0.22726943425E+02  0.32667117921E+03  0.39055588294E+03  0.17200000000E+03 0. -1.
         -6    1    1    2    0  503 -0.12537672995E+03 -0.22726943425E+02  0.34824750157E+03  0.40877397265E+03  0.17200000000E+03 0. -1.
</event>
<event>
 4    1  0.4612011E+000  0.1915232E+03  0.7818608E-02  0.1157095E+00
         21   -1    0    0  503  502  0.00000000000E+00  0.00000000000E+00  0.25545270448E+03  0.25545270448E+03  0.00000000000E+00 0. -1.
         21   -1    0    0  501  503 -0.00000000000E+00 -0.00000000000E+00 -0.14533072241E+03  0.14533072241E+03  0.00000000000E+00 0. -1.
          6    1    1    2  501    0 -0.13497691583E+02  0.83156070584E+02  0.33146046724E+02  0.19437021420E+03  0.17200000000E+03 0. -1.
         -6    1    1    2    0  502  0.13497691583E+02 -0.83156070584E+02  0.76975935344E+02  0.20641321270E+03  0.17200000000E+03 0. -1.
</event>
<event>
 4    1  0.4612011E+000  0.2934101E+03  0.7818608E-02  0.1088582E+00
         21   -1    0    0  503  502  0.00000000000E+00  0.00000000000E+00  0.52320519743E+02  0.52320519743E+02  0.00000000000E+00 0.  1.
         21   -1    0    0  501  503 -0.00000000000E+00 -0.00000000000E+00 -0.16889247738E+04  0.16889247738E+04  0.00000000000E+00 0. -1.
          6    1    1    2  501    0  0.17092274587E+03  0.16519961068E+03 -0.95802509663E+03  0.10019488920E+04  0.17200000000E+03 0. -1.
         -6    1    1    2    0  502 -0.17092274587E+03 -0.16519961068E+03 -0.67857915738E+03  0.73929640149E+03  0.17200000000E+03 0. -1.
</event>
<event>
 4    1  0.4612011E+000  0.2086126E+03  0.7818608E-02  0.1142669E+00
         21   -1    0    0  501  502  0.00000000000E+00  0.00000000000E+00  0.91462937649E+03  0.91462937649E+03  0.00000000000E+00 0.  1.
         21   -1    0    0  502  503 -0.00000000000E+00 -0.00000000000E+00 -0.66603746028E+02  0.66603746028E+02  0.00000000000E+00 0. -1.
          6    1    1    2  501    0 -0.10721662772E+03 -0.49394470811E+02  0.68620908124E+03  0.71721832254E+03  0.17200000000E+03 0.  1.
         -6    1    1    2    0  503  0.10721662772E+03  0.49394470811E+02  0.16181654922E+03  0.26401479998E+03  0.17200000000E+03 0. -1.
</event>
<event>
 4    1  0.4612011E+000  0.2871180E+03  0.7818608E-02  0.1091864E+00
         21   -1    0    0  503  502  0.00000000000E+00  0.00000000000E+00  0.14907866660E+04  0.14907866660E+04  0.00000000000E+00 0. -1.
         21   -1    0    0  501  503 -0.00000000000E+00 -0.00000000000E+00 -0.70811429512E+02  0.70811429512E+02  0.00000000000E+00 0. -1.
          6    1    1    2  501    0 -0.22989032857E+03 -0.17773200174E+01  0.10754553220E+04  0.11131221279E+04  0.17200000000E+03 0. -1.
         -6    1    1    2    0  502  0.22989032857E+03  0.17773200174E+01  0.34451991451E+03  0.44847596762E+03  0.17200000000E+03 0. -1.
</event>
<event>
 4    1  0.4612011E+000  0.2330193E+03  0.7818608E-02  0.1124533E+00
         21   -1    0    0  501  502  0.00000000000E+00  0.00000000000E+00  0.55328337196E+02  0.55328337196E+02  0.00000000000E+00 0. -1.
         21   -1    0    0  502  503 -0.00000000000E+00 -0.00000000000E+00 -0.12459509018E+04  0.12459509018E+04  0.00000000000E+00 0.  1.
          6    1    1    2  501    0 -0.10947136630E+03  0.11282733256E+03 -0.29548955265E+03  0.37631378229E+03  0.17200000000E+03 0. -1.
         -6    1    1    2    0  503  0.10947136630E+03 -0.11282733256E+03 -0.89513301191E+03  0.92496545666E+03  0.17200000000E+03 0.  1.
</event>
<event>
 4    1  0.4612011E+000  0.1883460E+03  0.7818608E-02  0.1159962E+00
         21   -1    0    0  501  502  0.00000000000E+00  0.00000000000E+00  0.15991507300E+03  0.15991507300E+03  0.00000000000E+00 0.  1.
         21   -1    0    0  502  503 -0.00000000000E+00 -0.00000000000E+00 -0.29134672943E+03  0.29134672943E+03  0.00000000000E+00 0.  1.
          6    1    1    2  501    0  0.69455248858E+02 -0.32652261531E+02  0.44497333188E+02  0.19353091339E+03  0.17200000000E+03 0.  1.
         -6    1    1    2    0  503 -0.69455248858E+02  0.32652261531E+02 -0.17592898961E+03  0.25773088904E+03  0.17200000000E+03 0.  1.
</event>
<event>
 4    1  0.4612011E+000  0.2152470E+03  0.7818608E-02  0.1137477E+00
         21   -1    0    0  503  502  0.00000000000E+00  0.00000000000E+00  0.65628234877E+02  0.65628234877E+02  0.00000000000E+00 0.  1.
         21   -1    0    0  501  503 -0.00000000000E+00 -0.00000000000E+00 -0.76945385408E+03  0.76945385408E+03  0.00000000000E+00 0.  1.
          6    1    1    2  501    0 -0.12860082782E+03  0.14459834535E+02 -0.23197518739E+03  0.31645496883E+03  0.17200000000E+03 0.  1.
         -6    1    1    2    0  502  0.12860082782E+03 -0.14459834535E+02 -0.47185043182E+03  0.51862712013E+03  0.17200000000E+03 0.  1.
</event>
<event>
 4    1  0.4612011E+000  0.2431340E+03  0.7818608E-02  0.1117722E+00
         21   -1    0    0  503  502  0.00000000000E+00  0.00000000000E+00  0.80099186830E+03  0.80099186830E+03  0.00000000000E+00 0.  1.
         21   -1    0    0  501  503 -0.00000000000E+00 -0.00000000000E+00 -0.73963482214E+02  0.73963482214E+02  0.00000000000E+00 0.  1.
          6    1    1    2  501    0 -0.12502771234E+03  0.11789066617E+03  0.34302045477E+03  0.42044877264E+03  0.17200000000E+03 0.  1.
         -6    1    1    2    0  502  0.12502771234E+03 -0.11789066617E+03  0.38400793132E+03  0.45450657788E+03  0.17200000000E+03 0.  1.
</event>
<event>
 4    1  0.4612011E+000  0.2391566E+03  0.7818608E-02  0.1120356E+00
         21   -1    0    0  501  502  0.00000000000E+00  0.00000000000E+00  0.23003092125E+03  0.23003092125E+03  0.00000000000E+00 0. -1.
         21   -1    0    0  502  503 -0.00000000000E+00 -0.00000000000E+00 -0.35808653931E+03  0.35808653931E+03  0.00000000000E+00 0. -1.
          6    1    1    2  501    0  0.16590836534E+03  0.92890102816E+01  0.98539275309E+02  0.25866167126E+03  0.17200000000E+03 0. -1.
         -6    1    1    2    0  503 -0.16590836534E+03 -0.92890102816E+01 -0.22659489336E+03  0.32945578930E+03  0.17200000000E+03 0. -1.
</event>
<event>
 4    1  0.4612011E+000  0.5740182E+03  0.7818608E-02  0.9960826E-01
         21   -1    0    0  501  502  0.00000000000E+00  0.00000000000E+00  0.21618655757E+03  0.21618655757E+03  0.00000000000E+00 0.  1.
         21   -1    0    0  502  503 -0.00000000000E+00 -0.00000000000E+00 -0.15634694215E+04  0.15634694215E+04  0.00000000000E+00 0. -1.
          6    1    1    2  501    0  0.49652536078E+03 -0.23103134087E+03 -0.53249734883E+03  0.78297531307E+03  0.17200000000E+03 0. -1.
         -6    1    1    2    0  503 -0.49652536078E+03  0.23103134087E+03 -0.81478551506E+03  0.99668066597E+03  0.17200000000E+03 0.  1.
</event>
<event>
 4    1  0.4612011E+000  0.1731787E+03  0.7818608E-02  0.1174573E+00
         21   -1    0    0  501  502  0.00000000000E+00  0.00000000000E+00  0.80735931455E+03  0.80735931455E+03  0.00000000000E+00 0.  1.
         21   -1    0    0  502  503 -0.00000000000E+00 -0.00000000000E+00 -0.52654963673E+02  0.52654963673E+02  0.00000000000E+00 0.  1.
          6    1    1    2  501    0 -0.17845262519E+02  0.94032266242E+01  0.14398747138E+03  0.22521826298E+03  0.17200000000E+03 0.  1.
         -6    1    1    2    0  503  0.17845262519E+02 -0.94032266242E+01  0.61071687950E+03  0.63479601524E+03  0.17200000000E+03 0.  1.
</event>
<event>
 4    1  0.4612011E+000  0.1977590E+03  0.7818608E-02  0.1151644E+00
         21   -1    0    0  501  502  0.00000000000E+00  0.00000000000E+00  0.11631472822E+03  0.11631472822E+03  0.00000000000E+00 0.  1.
         21   -1    0    0  502  503 -0.00000000000E+00 -0.00000000000E+00 -0.35839345036E+03  0.35839345036E+03  0.00000000000E+00 0.  1.
          6    1    1    2  501    0  0.92314710639E+02  0.31664065271E+02 -0.62015794019E+02  0.20725486131E+03  0.17200000000E+03 0.  1.
         -6    1    1    2    0  503 -0.92314710639E+02 -0.31664065271E+02 -0.18006292812E+03  0.26745331726E+03  0.17200000000E+03 0.  1.
</event>
<event>
 4    1  0.4612011E+000  0.2270391E+03  0.7818608E-02  0.1128741E+00
         21   -1    0    0  503  502  0.00000000000E+00  0.00000000000E+00  0.16735945193E+04  0.16735945193E+04  0.00000000000E+00 0.  1.
         21   -1    0    0  501  503 -0.00000000000E+00 -0.00000000000E+00 -0.38557233087E+02  0.38557233087E+02  0.00000000000E+00 0.  1.
          6    1    1    2  501    0  0.89836538443E+02  0.11786503624E+03  0.43353585407E+03  0.48938748162E+03  0.17200000000E+03 0.  1.
         -6    1    1    2    0  502 -0.89836538443E+02 -0.11786503624E+03  0.12015014321E+04  0.12227642707E+04  0.17200000000E+03 0.  1.
</event>
<event>
 4    1  0.4612011E+000  0.1837605E+03  0.7818608E-02  0.1164212E+00
         21   -1    0    0  501  502  0.00000000000E+00  0.00000000000E+00  0.61675440341E+03  0.61675440341E+03  0.00000000000E+00 0.  1.
         21   -1    0    0  502  503 -0.00000000000E+00 -0.00000000000E+00 -0.67320656933E+02  0.67320656933E+02  0.00000000000E+00 0.  1.
          6    1    1    2  501    0  0.53622586755E+02 -0.36173572118E+02  0.42251251083E+03  0.46074367162E+03  0.17200000000E+03 0.  1.
         -6    1    1    2    0  503 -0.53622586755E+02  0.36173572118E+02  0.12692123564E+03  0.22333138872E+03  0.17200000000E+03 0.  1.
</event>
<event>
 4    1  0.4612011E+000  0.2861587E+03  0.7818608E-02  0.1092372E+00
         21   -1    0    0  503  502  0.00000000000E+00  0.00000000000E+00  0.46650091466E+02  0.46650091466E+02  0.00000000000E+00 0.  1.
         21   -1    0    0  501  503 -0.00000000000E+00 -0.00000000000E+00 -0.25353280009E+04  0.25353280009E+04  0.00000000000E+00 0. -1.
          6    1    1    2  501    0 -0.22869241343E+03 -0.16094047619E+01 -0.19603986204E+04  0.19811737837E+04  0.17200000000E+03 0. -1.
         -6    1    1    2    0  502  0.22869241343E+03  0.16094047619E+01 -0.52827928896E+03  0.60080430865E+03  0.17200000000E+03 0.  1.
</event>
<event>
 4    1  0.4612011E+000  0.1734957E+03  0.7818608E-02  0.1174251E+00
         21   -1    0    0  501  502  0.00000000000E+00  0.00000000000E+00  0.15771123103E+03  0.15771123103E+03  0.00000000000E+00 0. -1.
         21   -1    0    0  502  503 -0.00000000000E+00 -0.00000000000E+00 -0.54863541083E+03  0.54863541083E+03  0.00000000000E+00 0. -1.
          6    1    1    2  501    0 -0.95331315743E+00 -0.22712556147E+02  0.89739014428E+02  0.19533013010E+03  0.17200000000E+03 0. -1.
         -6    1    1    2    0  503  0.95331315743E+00  0.22712556147E+02 -0.48066319422E+03  0.51101651176E+03  0.17200000000E+03 0. -1.
</event>
<event>
 4    1  0.4612011E+000  0.2905249E+03  0.7818608E-02  0.1090075E+00
         21   -1    0    0  503  502  0.00000000000E+00  0.00000000000E+00  0.18523014183E+03  0.18523014183E+03  0.00000000000E+00 0. -1.
         21   -1    0    0  501  503 -0.00000000000E+00 -0.00000000000E+00 -0.74041334913E+03  0.74041334913E+03  0.00000000000E+00 0.  1.
          6    1    1    2  501    0  0.12778974839E+03 -0.19618999065E+03 -0.56460334873E+03  0.63496588383E+03  0.17200000000E+03 0.  1.
         -6    1    1    2    0  502 -0.12778974839E+03  0.19618999065E+03  0.94201414377E+01  0.29067760713E+03  0.17200000000E+03 0. -1.
</event>
<event>
 4    1  0.4612011E+000  0.3178509E+03  0.7818608E-02  0.1076643E+00
         21   -1    0    0  501  502  0.00000000000E+00  0.00000000000E+00  0.63072083008E+02  0.63072083008E+02  0.00000000000E+00 0. -1.
         21   -1    0    0  502  503 -0.00000000000E+00 -0.00000000000E+00 -0.21393074863E+04  0.21393074863E+04  0.00000000000E+00 0. -1.
          6    1    1    2  501    0  0.70893217908E+02  0.25771952587E+03 -0.48614747722E+03  0.58083437568E+03  0.17200000000E+03 0. -1.
         -6    1    1    2    0  503 -0.70893217908E+02 -0.25771952587E+03 -0.15900879261E+04  0.16215451937E+04  0.17200000000E+03 0. -1.
</event>
<event>
 4    1  0.4612011E+000  0.1747008E+03  0.7818608E-02  0.1173032E+00
         21   -1    0    0  501  502  0.00000000000E+00  0.00000000000E+00  0.76765897525E+02  0.76765897525E+02  0.00000000000E+00 0.  1.
         21   -1    0    0  502  503 -0.00000000000E+00 -0.00000000000E+00 -0.70848686640E+03  0.70848686640E+03  0.00000000000E+00 0.  1.
          6    1    1    2  501    0 -0.88881529907E+01 -0.29280928674E+02 -0.55766279926E+02  0.18338552294E+03  0.17200000000E+03 0.  1.
         -6    1    1    2    0  503  0.88881529907E+01  0.29280928674E+02 -0.57595468895E+03  0.60186724099E+03  0.17200000000E+03 0.  1.
</event>
<event>
 4    1  0.4612011E+000  0.1991120E+03  0.7818608E-02  0.1150490E+00
         21   -1    0    0  501  502  0.00000000000E+00  0.00000000000E+00  0.49327816793E+02  0.49327816793E+02  0.00000000000E+00 0.  1.
         21   -1    0    0  502  503 -0.00000000000E+00 -0.00000000000E+00 -0.86477917095E+03  0.86477917095E+03  0.00000000000E+00 0. -1.
          6    1    1    2  501    0 -0.59134181759E+02  0.81023129027E+02 -0.28627470962E+03  0.34871020671E+03  0.17200000000E+03 0.  1.
         -6    1    1    2    0  503  0.59134181759E+02 -0.81023129027E+02 -0.52917664453E+03  0.56539678104E+03  0.17200000000E+03 0. -1.
</event>
<event>
 4    1  0.4612011E+000  0.1979032E+03  0.7818608E-02  0.1151520E+00
         21   -1    0    0  501  502  0.00000000000E+00  0.00000000000E+00  0.21493015329E+03  0.21493015329E+03  0.00000000000E+00 0. -1.
         21   -1    0    0  502  503 -0.00000000000E+00 -0.00000000000E+00 -0.23430369275E+03  0.23430369275E+03  0.00000000000E+00 0.  1.
          6    1    1    2  501    0 -0.60181673094E+02 -0.77200023420E+02  0.96209913543E+02  0.22005005080E+03  0.17200000000E+03 0. -1.
         -6    1    1    2    0  503  0.60181673094E+02  0.77200023420E+02 -0.11558345300E+03  0.22918379524E+03  0.17200000000E+03 0.  1.
</event>
<event>
 4    1  0.4612011E+000  0.2322825E+03  0.7818608E-02  0.1125043E+00
         21   -1    0    0  503  502  0.00000000000E+00  0.00000000000E+00  0.10250209725E+04  0.10250209725E+04  0.00000000000E+00 0.  1.
         21   -1    0    0  501  503 -0.00000000000E+00 -0.00000000000E+00 -0.12507451097E+03  0.12507451097E+03  0.00000000000E+00 0.  1.
          6    1    1    2  501    0  0.12498871236E+03 -0.93535994184E+02  0.12352440635E+02  0.23261071174E+03  0.17200000000E+03 0.  1.
         -6    1    1    2    0  502 -0.12498871236E+03  0.93535994184E+02  0.88759402085E+03  0.91748477169E+03  0.17200000000E+03 0.  1.
</event>
<event>
 4    1  0.4612011E+000  0.1756736E+03  0.7818608E-02  0.1172057E+00
         21   -1    0    0  501  502  0.00000000000E+00  0.00000000000E+00  0.87407005156E+02  0.87407005156E+02  0.00000000000E+00 0.  1.
         21   -1    0    0  502  503 -0.00000000000E+00 -0.00000000000E+00 -0.36025108998E+03  0.36025108998E+03  0.00000000000E+00 0.  1.
          6    1    1    2  501    0  0.33755279687E+02 -0.11739227283E+02 -0.16801263162E+03  0.24308326300E+03  0.17200000000E+03 0.  1.
         -6    1    1    2    0  503 -0.33755279687E+02  0.11739227283E+02 -0.10483145320E+03  0.20457483214E+03  0.17200000000E+03 0.  1.
</event>
<event>
 4    1  0.4612011E+000  0.1923559E+03  0.7818608E-02  0.1156353E+00
         21   -1    0    0  501  502  0.00000000000E+00  0.00000000000E+00  0.13262252204E+03  0.13262252204E+03  0.00000000000E+00 0. -1.
         21   -1    0    0  502  503 -0.00000000000E+00 -0.00000000000E+00 -0.29646525983E+03  0.29646525983E+03  0.00000000000E+00 0. -1.
          6    1    1    2  501    0  0.86105110681E+02 -0.16469340302E+01 -0.13400477352E+03  0.23443140106E+03  0.17200000000E+03 0. -1.
         -6    1    1    2    0  503 -0.86105110681E+02  0.16469340302E+01 -0.29837964275E+02  0.19465638081E+03  0.17200000000E+03 0. -1.
</event>
<event>
 4    1  0.4612011E+000  0.2469579E+03  0.7818608E-02  0.1115243E+00
         21   -1    0    0  501  502  0.00000000000E+00  0.00000000000E+00  0.22224973776E+03  0.22224973776E+03  0.00000000000E+00 0.  1.
         21   -1    0    0  502  503 -0.00000000000E+00 -0.00000000000E+00 -0.32040498562E+03  0.32040498562E+03  0.00000000000E+00 0.  1.
          6    1    1    2  501    0 -0.19499688089E+02 -0.17613615069E+03  0.53720644960E+02  0.25273323705E+03  0.17200000000E+03 0.  1.
         -6    1    1    2    0  503  0.19499688089E+02  0.17613615069E+03 -0.15187589282E+03  0.28992148633E+03  0.17200000000E+03 0.  1.
</event>
<event>
 4    1  0.4612011E+000  0.2002916E+03  0.7818608E-02  0.1149493E+00
         21   -1    0    0  503  502  0.00000000000E+00  0.00000000000E+00  0.55396034258E+03  0.55396034258E+03  0.00000000000E+00 0.  1.
         21   -1    0    0  501  503 -0.00000000000E+00 -0.00000000000E+00 -0.15757280759E+03  0.15757280759E+03  0.00000000000E+00 0. -1.
          6    1    1    2  501    0 -0.95793093029E+02 -0.36829659342E+02 -0.63340684311E+02  0.21006851922E+03  0.17200000000E+03 0. -1.
         -6    1    1    2    0  502  0.95793093029E+02  0.36829659342E+02  0.45972821930E+03  0.50146463096E+03  0.17200000000E+03 0.  1.
</event>
<event>
 4    1  0.4612011E+000  0.1951233E+03  0.7818608E-02  0.1153920E+00
         21   -1    0    0  501  502  0.00000000000E+00  0.00000000000E+00  0.12502746194E+03  0.12502746194E+03  0.00000000000E+00 0. -1.
         21   -1    0    0  502  503 -0.00000000000E+00 -0.00000000000E+00 -0.38448559519E+03  0.38448559519E+03  0.00000000000E+00 0. -1.
          6    1    1    2  501    0  0.90860505209E+02 -0.15280034936E+02 -0.13546131924E+02  0.19559296655E+03  0.17200000000E+03 0. -1.
         -6    1    1    2    0  503 -0.90860505209E+02  0.15280034936E+02 -0.24591200133E+03  0.31392009058E+03  0.17200000000E+03 0. -1.
</event>
<event>
 4    1  0.4612011E+000  0.2288781E+03  0.7818608E-02  0.1127432E+00
         21   -1    0    0  503  502  0.00000000000E+00  0.00000000000E+00  0.12171296221E+03  0.12171296221E+03  0.00000000000E+00 0. -1.
         21   -1    0    0  501  503 -0.00000000000E+00 -0.00000000000E+00 -0.43133609680E+03  0.43133609680E+03  0.00000000000E+00 0.  1.
          6    1    1    2  501    0  0.45273551373E+02 -0.14405381633E+03 -0.16769718336E+03  0.28373850948E+03  0.17200000000E+03 0.  1.
         -6    1    1    2    0  502 -0.45273551373E+02  0.14405381633E+03 -0.14192595123E+03  0.26931054953E+03  0.17200000000E+03 0. -1.
</event>
<event>
 4    1  0.4612011E+000  0.1919016E+03  0.7818608E-02  0.1156757E+00
         21   -1    0    0  503  502  0.00000000000E+00  0.00000000000E+00  0.33882437952E+03  0.33882437952E+03  0.00000000000E+00 0. -1.
         21   -1    0    0  501  503 -0.00000000000E+00 -0.00000000000E+00 -0.19840060354E+03  0.19840060354E+03  0.00000000000E+00 0.  1.
          6    1    1    2  501    0  0.71788785155E+02 -0.45701332833E+02 -0.11041431212E+03  0.22139910076E+03  0.17200000000E+03 0.  1.
         -6    1    1    2    0  502 -0.71788785155E+02  0.45701332833E+02  0.25083808809E+03  0.31582588230E+03  0.17200000000E+03 0. -1.
</event>
<event>
 4    1  0.4612011E+000  0.1770632E+03  0.7818608E-02  0.1170676E+00
         21   -1    0    0  501  502  0.00000000000E+00  0.00000000000E+00  0.76891808042E+03  0.76891808042E+03  0.00000000000E+00 0. -1.
         21   -1    0    0  502  503 -0.00000000000E+00 -0.00000000000E+00 -0.63749824954E+02  0.63749824954E+02  0.00000000000E+00 0. -1.
          6    1    1    2  501    0 -0.32561458761E+02  0.26591591923E+02  0.10263933761E+03  0.20466117116E+03  0.17200000000E+03 0. -1.
         -6    1    1    2    0  503  0.32561458761E+02 -0.26591591923E+02  0.60252891786E+03  0.62800673421E+03  0.17200000000E+03 0. -1.
</event>
<event>
 4    1  0.4612011E+000  0.2417190E+03  0.7818608E-02  0.1118653E+00
         21   -1    0    0  501  502  0.00000000000E+00  0.00000000000E+00  0.61664928730E+03  0.61664928730E+03  0.00000000000E+00 0.  1.
         21   -1    0    0  502  503 -0.00000000000E+00 -0.00000000000E+00 -0.55963276186E+03  0.55963276186E+03  0.00000000000E+00 0.  1.
          6    1    1    2  501    0 -0.14276723922E+03 -0.91987000949E+02  0.56455319626E+03  0.61412409523E+03  0.17200000000E+03 0.  1.
         -6    1    1    2    0  503  0.14276723922E+03  0.91987000949E+02 -0.50753667082E+03  0.56215795393E+03  0.17200000000E+03 0.  1.
</event>
<event>
 4    1  0.4612011E+000  0.2783400E+03  0.7818608E-02  0.1096599E+00
         21   -1    0    0  503  502  0.00000000000E+00  0.00000000000E+00  0.69700430833E+03  0.69700430833E+03  0.00000000000E+00 0.  1.
         21   -1    0    0  501  503 -0.00000000000E+00 -0.00000000000E+00 -0.24236412900E+03  0.24236412900E+03  0.00000000000E+00 0. -1.
          6    1    1    2  501    0  0.21673362223E+03  0.30260290764E+02 -0.11826853601E+03  0.30242452747E+03  0.17200000000E+03 0. -1.
         -6    1    1    2    0  502 -0.21673362223E+03 -0.30260290764E+02  0.57290871534E+03  0.63694390986E+03  0.17200000000E+03 0.  1.
</event>
<event>
 4    1  0.4612011E+000  0.2325301E+03  0.7818608E-02  0.1124872E+00
         21   -1    0    0  503  502  0.00000000000E+00  0.00000000000E+00  0.45201244953E+02  0.45201244953E+02  0.00000000000E+00 0. -1.
         21   -1    0    0  501  503 -0.00000000000E+00 -0.00000000000E+00 -0.14105315092E+04  0.14105315092E+04  0.00000000000E+00 0.  1.
          6    1    1    2  501    0 -0.15449985628E+03 -0.24820346275E+02 -0.96638613342E+03  0.99396801459E+03  0.17200000000E+03 0. -1.
         -6    1    1    2    0  502  0.15449985628E+03  0.24820346275E+02 -0.39894413088E+03  0.46176473961E+03  0.17200000000E+03 0. -1.
</event>
<event>
 4    1  0.4612011E+000  0.1745689E+03  0.7818608E-02  0.1173165E+00
         21   -1    0    0  503  502  0.00000000000E+00  0.00000000000E+00  0.62543791686E+03  0.62543791686E+03  0.00000000000E+00 0. -1.
         21   -1    0    0  501  503 -0.00000000000E+00 -0.00000000000E+00 -0.90145482775E+02  0.90145482775E+02  0.00000000000E+00 0. -1.
          6    1    1    2  501    0  0.26039756406E+02  0.14568121948E+02  0.25115235214E+02  0.17636630668E+03  0.17200000000E+03 0. -1.
         -6    1    1    2    0  502 -0.26039756406E+02 -0.14568121948E+02  0.51017719887E+03  0.53921709296E+03  0.17200000000E+03 0. -1.
</event>
<event>
 4    1  0.4612011E+000  0.2042125E+03  0.7818608E-02  0.1146233E+00
         21   -1    0    0  501  502  0.00000000000E+00  0.00000000000E+00  0.49996250493E+03  0.49996250493E+03  0.00000000000E+00 0.  1.
         21   -1    0    0  502  503 -0.00000000000E+00 -0.00000000000E+00 -0.10281112061E+03  0.10281112061E+03  0.00000000000E+00 0. -1.
          6    1    1    2  501    0  0.10489416511E+03  0.33405802175E+02  0.32949338174E+03  0.38764496914E+03  0.17200000000E+03 0.  1.
         -6    1    1    2    0  503 -0.10489416511E+03 -0.33405802175E+02  0.67658002582E+02  0.21512865641E+03  0.17200000000E+03 0. -1.
</event>
<event>
 4    1  0.4612011E+000  0.2104924E+03  0.7818608E-02  0.1141177E+00
         21   -1    0    0  503  502  0.00000000000E+00  0.00000000000E+00  0.42994900963E+03  0.42994900963E+03  0.00000000000E+00 0.  1.
         21   -1    0    0  501  503 -0.00000000000E+00 -0.00000000000E+00 -0.22566409754E+03  0.22566409754E+03  0.00000000000E+00 0.  1.
          6    1    1    2  501    0 -0.59689364219E+02  0.10564197378E+03 -0.13948890438E+03  0.25251574460E+03  0.17200000000E+03 0.  1.
         -6    1    1    2    0  502  0.59689364219E+02 -0.10564197378E+03  0.34377381647E+03  0.40309736257E+03  0.17200000000E+03 0.  1.
</event>
<event>
 4    1  0.4612011E+000  0.2068044E+03  0.7818608E-02  0.1144122E+00
         21   -1    0    0  503  502  0.00000000000E+00  0.00000000000E+00  0.53914514333E+03  0.53914514333E+03  0.00000000000E+00 0. -1.
         21   -1    0    0  501  503 -0.00000000000E+00 -0.00000000000E+00 -0.10116948514E+03  0.10116948514E+03  0.00000000000E+00 0.  1.
          6    1    1    2  501    0 -0.70699256435E+02 -0.90474696975E+02  0.70222134250E+02  0.21840147388E+03  0.17200000000E+03 0.  1.
         -6    1    1    2    0  502  0.70699256435E+02  0.90474696975E+02  0.36775352393E+03  0.42191315459E+03  0.17200000000E+03 0. -1.
</event>
<event>
 4    1  0.4612011E+000  0.2045316E+03  0.7818608E-02  0.1145971E+00
         21   -1    0    0  501  502  0.00000000000E+00  0.00000000000E+00  0.16494505277E+03  0.16494505277E+03  0.00000000000E+00 0.  1.
         21   -1    0    0  502  503 -0.00000000000E+00 -0.00000000000E+00 -0.42376579724E+03  0.42376579724E+03  0.00000000000E+00 0. -1.
          6    1    1    2  501    0  0.10672643485E+03 -0.29302775664E+02  0.57107776967E+02  0.21235461556E+03  0.17200000000E+03 0.  1.
         -6    1    1    2    0  503 -0.10672643485E+03  0.29302775664E+02 -0.31592852143E+03  0.37635623445E+03  0.17200000000E+03 0.  1.
</event>
<event>
 4    1  0.4612011E+000  0.1802642E+03  0.7818608E-02  0.1167548E+00
         21   -1    0    0  503  502  0.00000000000E+00  0.00000000000E+00  0.34013942653E+02  0.34013942653E+02  0.00000000000E+00 0. -1.
         21   -1    0    0  501  503 -0.00000000000E+00 -0.00000000000E+00 -0.12722977195E+04  0.12722977195E+04  0.00000000000E+00 0. -1.
          6    1    1    2  501    0  0.53393245042E+02  0.77687351892E+01 -0.94514130187E+03  0.96217839945E+03  0.17200000000E+03 0. -1.
         -6    1    1    2    0  502 -0.53393245042E+02 -0.77687351892E+01 -0.29314247496E+03  0.34413326269E+03  0.17200000000E+03 0. -1.
</event>
<event>
 4    1  0.4612011E+000  0.2375958E+03  0.7818608E-02  0.1121405E+00
         21   -1    0    0  503  502  0.00000000000E+00  0.00000000000E+00  0.19396028564E+03  0.19396028564E+03  0.00000000000E+00 0. -1.
         21   -1    0    0  501  503 -0.00000000000E+00 -0.00000000000E+00 -0.33345899039E+03  0.33345899039E+03  0.00000000000E+00 0. -1.
          6    1    1    2  501    0  0.12989862330E+03 -0.99970596526E+02 -0.16379603589E+03  0.28858432715E+03  0.17200000000E+03 0. -1.
         -6    1    1    2    0  502 -0.12989862330E+03  0.99970596526E+02  0.24297331138E+02  0.23883494888E+03  0.17200000000E+03 0. -1.
</event>
<event>
 4    1  0.4612011E+000  0.1761703E+03  0.7818608E-02  0.1171562E+00
         21   -1    0    0  501  502  0.00000000000E+00  0.00000000000E+00  0.43153740191E+03  0.43153740191E+03  0.00000000000E+00 0. -1.
         21   -1    0    0  502  503 -0.00000000000E+00 -0.00000000000E+00 -0.96300028219E+02  0.96300028219E+02  0.00000000000E+00 0. -1.
          6    1    1    2  501    0 -0.15348734374E+02 -0.34876788335E+02  0.30041258717E+03  0.34825808898E+03  0.17200000000E+03 0. -1.
         -6    1    1    2    0  503  0.15348734374E+02  0.34876788335E+02  0.34824786525E+02  0.17957934115E+03  0.17200000000E+03 0. -1.
</event>
<event>
 4    1  0.4612011E+000  0.3991997E+03  0.7818608E-02  0.1044057E+00
         21   -1    0    0  501  502  0.00000000000E+00  0.00000000000E+00  0.80379793773E+03  0.80379793773E+03  0.00000000000E+00 0. -1.
         21   -1    0    0  502  503 -0.00000000000E+00 -0.00000000000E+00 -0.19846373282E+03  0.19846373282E+03  0.00000000000E+00 0.  1.
          6    1    1    2  501    0 -0.56783825124E+02 -0.35574146932E+03  0.31875181066E+03  0.51084548798E+03  0.17200000000E+03 0. -1.
         -6    1    1    2    0  503  0.56783825124E+02  0.35574146932E+03  0.28658239425E+03  0.49141618257E+03  0.17200000000E+03 0.  1.
</event>
<event>
 4    1  0.4612011E+000  0.2487339E+03  0.7818608E-02  0.1114108E+00
         21   -1    0    0  501  502  0.00000000000E+00  0.00000000000E+00  0.12837577590E+04  0.12837577590E+04  0.00000000000E+00 0. -1.
         21   -1    0    0  502  503 -0.00000000000E+00 -0.00000000000E+00 -0.48389082493E+02  0.48389082493E+02  0.00000000000E+00 0. -1.
          6    1    1    2  501    0 -0.89113856804E+02 -0.15602335352E+03  0.66004841461E+03  0.70535982019E+03  0.17200000000E+03 0. -1.
         -6    1    1    2    0  503  0.89113856804E+02  0.15602335352E+03  0.57532026194E+03  0.62678702133E+03  0.17200000000E+03 0. -1.
</event>
<event>
 4    1  0.4612011E+000  0.1799981E+03  0.7818608E-02  0.1167805E+00
         21   -1    0    0  503  502  0.00000000000E+00  0.00000000000E+00  0.47521810934E+02  0.47521810934E+02  0.00000000000E+00 0.  1.
         21   -1    0    0  501  503 -0.00000000000E+00 -0.00000000000E+00 -0.68348625357E+03  0.68348625357E+03  0.00000000000E+00 0.  1.
          6    1    1    2  501    0  0.26651005649E+02  0.45880578268E+02 -0.29970705432E+03  0.34960495130E+03  0.17200000000E+03 0.  1.
         -6    1    1    2    0  502 -0.26651005649E+02 -0.45880578268E+02 -0.33625738831E+03  0.38140311320E+03  0.17200000000E+03 0.  1.
</event>
<event>
 4    1  0.4612011E+000  0.2980722E+03  0.7818608E-02  0.1086208E+00
         21   -1    0    0  503  502  0.00000000000E+00  0.00000000000E+00  0.41813234153E+03  0.41813234153E+03  0.00000000000E+00 0. -1.
         21   -1    0    0  501  503 -0.00000000000E+00 -0.00000000000E+00 -0.71594235518E+03  0.71594235518E+03  0.00000000000E+00 0.  1.
          6    1    1    2  501    0  0.12936275329E+03  0.20622394668E+03 -0.62440858406E+03  0.69190542559E+03  0.17200000000E+03 0.  1.
         -6    1    1    2    0  502 -0.12936275329E+03 -0.20622394668E+03  0.32659857041E+03  0.44216927111E+03  0.17200000000E+03 0. -1.
</event>
<event>
 4    1  0.4612011E+000  0.1815921E+03  0.7818608E-02  0.1166271E+00
         21   -1    0    0  503  502  0.00000000000E+00  0.00000000000E+00  0.77478864695E+02  0.77478864695E+02  0.00000000000E+00 0.  1.
         21   -1    0    0  501  503 -0.00000000000E+00 -0.00000000000E+00 -0.43502508141E+03  0.43502508141E+03  0.00000000000E+00 0. -1.
          6    1    1    2  501    0  0.58097124352E+02 -0.40534207052E+01 -0.21647333796E+03  0.28255337925E+03  0.17200000000E+03 0. -1.
         -6    1    1    2    0  502 -0.58097124352E+02  0.40534207052E+01 -0.14107287876E+03  0.22995056686E+03  0.17200000000E+03 0.  1.
</event>
<event>
 4    1  0.4612011E+000  0.1981311E+03  0.7818608E-02  0.1151325E+00
         21   -1    0    0  503  502  0.00000000000E+00  0.00000000000E+00  0.62439333164E+03  0.62439333164E+03  0.00000000000E+00 0. -1.
         21   -1    0    0  501  503 -0.00000000000E+00 -0.00000000000E+00 -0.21936366086E+03  0.21936366086E+03  0.00000000000E+00 0. -1.
          6    1    1    2  501    0  0.60644011939E-01  0.98345994296E+02 -0.15381541212E+03  0.25082886452E+03  0.17200000000E+03 0. -1.
         -6    1    1    2    0  502 -0.60644011939E-01 -0.98345994296E+02  0.55884508290E+03  0.59292812798E+03  0.17200000000E+03 0. -1.
</event>
<event>
 4    1  0.4612011E+000  0.2151342E+03  0.7818608E-02  0.1137564E+00
         21   -1    0    0  501  502  0.00000000000E+00  0.00000000000E+00  0.53039917145E+03  0.53039917145E+03  0.00000000000E+00 0. -1.
         21   -1    0    0  502  503 -0.00000000000E+00 -0.00000000000E+00 -0.89105159329E+02  0.89105159329E+02  0.00000000000E+00 0. -1.
          6    1    1    2  501    0  0.11633888281E+01 -0.12921833016E+03  0.17607543127E+03  0.27800231622E+03  0.17200000000E+03 0.  1.
         -6    1    1    2    0  503 -0.11633888281E+01  0.12921833016E+03  0.26521858085E+03  0.34150201456E+03  0.17200000000E+03 0.  1.
</event>
<event>
 4    1  0.4612011E+000  0.1823388E+03  0.7818608E-02  0.1165559E+00
         21   -1    0    0  501  502  0.00000000000E+00  0.00000000000E+00  0.10764585621E+03  0.10764585621E+03  0.00000000000E+00 0.  1.
         21   -1    0    0  502  503 -0.00000000000E+00 -0.00000000000E+00 -0.47118282934E+03  0.47118282934E+03  0.00000000000E+00 0.  1.
          6    1    1    2  501    0  0.21901297036E+02  0.56425007297E+02 -0.11898850403E+02  0.18272665624E+03  0.17200000000E+03 0.  1.
         -6    1    1    2    0  503 -0.21901297036E+02 -0.56425007297E+02 -0.35163812273E+03  0.39610202930E+03  0.17200000000E+03 0.  1.
</event>
<event>
 4    1  0.4612011E+000  0.2127519E+03  0.7818608E-02  0.1139405E+00
         21   -1    0    0  503  502  0.00000000000E+00  0.00000000000E+00  0.50444194961E+03  0.50444194961E+03  0.00000000000E+00 0. -1.
         21   -1    0    0  501  503 -0.00000000000E+00 -0.00000000000E+00 -0.15724196283E+03  0.15724196283E+03  0.00000000000E+00 0.  1.
          6    1    1    2  501    0 -0.71191831481E+01 -0.12501469738E+03 -0.43184450352E+02  0.21709042835E+03  0.17200000000E+03 0.  1.
         -6    1    1    2    0  502  0.71191831481E+01  0.12501469738E+03  0.39038443714E+03  0.44459348409E+03  0.17200000000E+03 0. -1.
</event>
<event>
 4    1  0.4612011E+000  0.1725465E+03  0.7818608E-02  0.1175218E+00
         21   -1    0    0  501  502  0.00000000000E+00  0.00000000000E+00  0.52143938281E+03  0.52143938281E+03  0.00000000000E+00 0.  1.
         21   -1    0    0  502  503 -0.00000000000E+00 -0.00000000000E+00 -0.60973884124E+02  0.60973884124E+02  0.00000000000E+00 0.  1.
          6    1    1    2  501    0  0.11500760939E+02  0.74857126050E+01  0.30366810896E+03  0.34926583542E+03  0.17200000000E+03 0. -1.
         -6    1    1    2    0  503 -0.11500760939E+02 -0.74857126050E+01  0.15679738973E+03  0.23314743151E+03  0.17200000000E+03 0. -1.
</event>
<event>
 4    1  0.4612011E+000  0.1782843E+03  0.7818608E-02  0.1169474E+00
         21   -1    0    0  501  502  0.00000000000E+00  0.00000000000E+00  0.57388812273E+02  0.57388812273E+02  0.00000000000E+00 0.  1.
         21   -1    0    0  502  503 -0.00000000000E+00 -0.00000000000E+00 -0.67038080488E+03  0.67038080488E+03  0.00000000000E+00 0.  1.
          6    1    1    2  501    0 -0.40273988762E+02 -0.24068454706E+02 -0.15478831551E+03  0.23610317088E+03  0.17200000000E+03 0.  1.
         -6    1    1    2    0  503  0.40273988762E+02  0.24068454706E+02 -0.45820367710E+03  0.49166644627E+03  0.17200000000E+03 0.  1.
</event>
<event>
 4    1  0.4612011E+000  0.1838329E+03  0.7818608E-02  0.1164144E+00
         21   -1    0    0  501  502  0.00000000000E+00  0.00000000000E+00  0.16261712142E+03  0.16261712142E+03  0.00000000000E+00 0.  1.
         21   -1    0    0  502  503 -0.00000000000E+00 -0.00000000000E+00 -0.42681231990E+03  0.42681231990E+03  0.00000000000E+00 0.  1.
          6    1    1    2  501    0  0.45445636414E+02 -0.46316532087E+02  0.79008718982E+02  0.20009224045E+03  0.17200000000E+03 0.  1.
         -6    1    1    2    0  503 -0.45445636414E+02  0.46316532087E+02 -0.34320391746E+03  0.38933720086E+03  0.17200000000E+03 0.  1.
</event>
<event>
 4    1  0.4612011E+000  0.2153962E+03  0.7818608E-02  0.1137363E+00
         21   -1    0    0  503  502  0.00000000000E+00  0.00000000000E+00  0.30345436619E+03  0.30345436619E+03  0.00000000000E+00 0.  1.
         21   -1    0    0  501  503 -0.00000000000E+00 -0.00000000000E+00 -0.15407694446E+03  0.15407694446E+03  0.00000000000E+00 0.  1.
          6    1    1    2  501    0  0.12897783513E+03  0.13275483781E+02  0.54620597537E+02  0.22221370367E+03  0.17200000000E+03 0.  1.
         -6    1    1    2    0  502 -0.12897783513E+03 -0.13275483781E+02  0.94756824189E+02  0.23531760698E+03  0.17200000000E+03 0.  1.
</event>
<event>
 4    1  0.4612011E+000  0.2384555E+03  0.7818608E-02  0.1120826E+00
         21   -1    0    0  501  502  0.00000000000E+00  0.00000000000E+00  0.14166075509E+03  0.14166075509E+03  0.00000000000E+00 0.  1.
         21   -1    0    0  502  503 -0.00000000000E+00 -0.00000000000E+00 -0.47386572637E+03  0.47386572637E+03  0.00000000000E+00 0.  1.
          6    1    1    2  501    0  0.16025666757E+03  0.39935253055E+02 -0.45740503529E+02  0.24280283689E+03  0.17200000000E+03 0.  1.
         -6    1    1    2    0  503 -0.16025666757E+03 -0.39935253055E+02 -0.28646446775E+03  0.37272364457E+03  0.17200000000E+03 0.  1.
</event>
<event>
 4    1  0.4612011E+000  0.1774039E+03  0.7818608E-02  0.1170339E+00
         21   -1    0    0  501  502  0.00000000000E+00  0.00000000000E+00  0.30977648249E+03  0.30977648249E+03  0.00000000000E+00 0.  1.
         21   -1    0    0  502  503 -0.00000000000E+00 -0.00000000000E+00 -0.12919241939E+03  0.12919241939E+03  0.00000000000E+00 0.  1.
          6    1    1    2  501    0 -0.24878153852E+02 -0.35626239743E+02  0.19173199208E+03  0.26121506136E+03  0.17200000000E+03 0.  1.
         -6    1    1    2    0  503  0.24878153852E+02  0.35626239743E+02 -0.11147928978E+02  0.17775384052E+03  0.17200000000E+03 0.  1.
</event>
<event>
 4    1  0.4612011E+000  0.1799620E+03  0.7818608E-02  0.1167840E+00
         21   -1    0    0  501  502  0.00000000000E+00  0.00000000000E+00  0.12675935018E+04  0.12675935018E+04  0.00000000000E+00 0. -1.
         21   -1    0    0  502  503 -0.00000000000E+00 -0.00000000000E+00 -0.39519390539E+02  0.39519390539E+02  0.00000000000E+00 0. -1.
          6    1    1    2  501    0  0.30670849612E+02 -0.43146587957E+02  0.10026122847E+04  0.10186352254E+04  0.17200000000E+03 0. -1.
         -6    1    1    2    0  503 -0.30670849612E+02  0.43146587957E+02  0.22546182658E+03  0.28847766692E+03  0.17200000000E+03 0. -1.
</event>
<event>
 4    1  0.4612011E+000  0.1945918E+03  0.7818608E-02  0.1154384E+00
         21   -1    0    0  503  502  0.00000000000E+00  0.00000000000E+00  0.12899753400E+03  0.12899753400E+03  0.00000000000E+00 0. -1.
         21   -1    0    0  501  503 -0.00000000000E+00 -0.00000000000E+00 -0.30039790544E+03  0.30039790544E+03  0.00000000000E+00 0.  1.
          6    1    1    2  501    0 -0.73790993956E+02  0.53262324365E+02 -0.53261556785E+02  0.20174929843E+03  0.17200000000E+03 0. -1.
         -6    1    1    2    0  502  0.73790993956E+02 -0.53262324365E+02 -0.11813881466E+03  0.22764614101E+03  0.17200000000E+03 0.  1.
</event>
<event>
 4    1  0.4612011E+000  0.2012837E+03  0.7818608E-02  0.1148660E+00
         21   -1    0    0  501  502  0.00000000000E+00  0.00000000000E+00  0.77807626073E+02  0.77807626073E+02  0.00000000000E+00 0. -1.
         21   -1    0    0  502  503 -0.00000000000E+00 -0.00000000000E+00 -0.13014919295E+04  0.13014919295E+04  0.00000000000E+00 0. -1.
          6    1    1    2  501    0 -0.73910089013E+01 -0.10429045306E+03 -0.77680094807E+02  0.21575292059E+03  0.17200000000E+03 0. -1.
         -6    1    1    2    0  503  0.73910089013E+01  0.10429045306E+03 -0.11460042086E+04  0.11635466350E+04  0.17200000000E+03 0. -1.
</event>
<event>
 4    1  0.4612011E+000  0.3011160E+03  0.7818608E-02  0.1084684E+00
         21   -1    0    0  501  502  0.00000000000E+00  0.00000000000E+00  0.36987804537E+03  0.36987804537E+03  0.00000000000E+00 0. -1.
         21   -1    0    0  502  503 -0.00000000000E+00 -0.00000000000E+00 -0.25022851033E+03  0.25022851033E+03  0.00000000000E+00 0.  1.
          6    1    1    2  501    0  0.10053493593E+03 -0.22578650028E+03  0.10405188506E+03  0.31858689840E+03  0.17200000000E+03 0. -1.
         -6    1    1    2    0  503 -0.10053493593E+03  0.22578650028E+03  0.15597649972E+02  0.30151965729E+03  0.17200000000E+03 0. -1.
</event>
<event>
 4    1  0.4612011E+000  0.2573718E+03  0.7818608E-02  0.1108733E+00
         21   -1    0    0  501  502  0.00000000000E+00  0.00000000000E+00  0.58210375877E+03  0.58210375877E+03  0.00000000000E+00 0. -1.
         21   -1    0    0  502  503 -0.00000000000E+00 -0.00000000000E+00 -0.11387013717E+03  0.11387013717E+03  0.00000000000E+00 0.  1.
          6    1    1    2  501    0  0.14143270775E+03  0.12904672312E+03  0.24307917651E+03  0.35401660077E+03  0.17200000000E+03 0.  1.
         -6    1    1    2    0  503 -0.14143270775E+03 -0.12904672312E+03  0.22515444509E+03  0.34195729516E+03  0.17200000000E+03 0. -1.
</event>
<event>
 4    1  0.4612011E+000  0.2031645E+03  0.7818608E-02  0.1147096E+00
         21   -1    0    0  503  502  0.00000000000E+00  0.00000000000E+00  0.15651579347E+03  0.15651579347E+03  0.00000000000E+00 0.  1.
         21   -1    0    0  501  503 -0.00000000000E+00 -0.00000000000E+00 -0.34474600409E+03  0.34474600409E+03  0.00000000000E+00 0. -1.
          6    1    1    2  501    0  0.92324040530E+01  0.10773388322E+03 -0.21562344152E+03  0.29625883179E+03  0.17200000000E+03 0. -1.
         -6    1    1    2    0  502 -0.92324040530E+01 -0.10773388322E+03  0.27393230903E+02  0.20500296578E+03  0.17200000000E+03 0.  1.
</event>
<event>
 4    1  0.4612011E+000  0.2006116E+03  0.7818608E-02  0.1149224E+00
         21   -1    0    0  503  502  0.00000000000E+00  0.00000000000E+00  0.44891585751E+03  0.44891585751E+03  0.00000000000E+00 0. -1.
         21   -1    0    0  501  503 -0.00000000000E+00 -0.00000000000E+00 -0.90738641641E+02  0.90738641641E+02  0.00000000000E+00 0. -1.
          6    1    1    2  501    0 -0.10191472766E+03  0.16564599198E+02  0.14952418682E+03  0.25020487626E+03  0.17200000000E+03 0. -1.
         -6    1    1    2    0  502  0.10191472766E+03 -0.16564599198E+02  0.20865302905E+03  0.28944962289E+03  0.17200000000E+03 0. -1.
</event>
<event>
 4    1  0.4612011E+000  0.2014922E+03  0.7818608E-02  0.1148486E+00
         21   -1    0    0  503  502  0.00000000000E+00  0.00000000000E+00  0.16898411386E+03  0.16898411386E+03  0.00000000000E+00 0. -1.
         21   -1    0    0  501  503 -0.00000000000E+00 -0.00000000000E+00 -0.26165421201E+03  0.26165421201E+03  0.00000000000E+00 0. -1.
          6    1    1    2  501    0 -0.24448414502E+02  0.10206547894E+03 -0.10791356195E+03  0.22857039138E+03  0.17200000000E+03 0. -1.
         -6    1    1    2    0  502  0.24448414502E+02 -0.10206547894E+03  0.15243463801E+02  0.20206793449E+03  0.17200000000E+03 0. -1.
</event>
<event>
 4    1  0.4612011E+000  0.1733429E+03  0.7818608E-02  0.1174406E+00
         21   -1    0    0  503  502  0.00000000000E+00  0.00000000000E+00  0.19957269324E+03  0.19957269324E+03  0.00000000000E+00 0. -1.
         21   -1    0    0  501  503 -0.00000000000E+00 -0.00000000000E+00 -0.22171791834E+03  0.22171791834E+03  0.00000000000E+00 0. -1.
          6    1    1    2  501    0 -0.20729851671E+02  0.58340583837E+01 -0.13040587213E+03  0.21691808240E+03  0.17200000000E+03 0. -1.
         -6    1    1    2    0  502  0.20729851671E+02 -0.58340583837E+01  0.10826064703E+03  0.20437252918E+03  0.17200000000E+03 0. -1.
</event>
<event>
 4    1  0.4612011E+000  0.2332510E+03  0.7818608E-02  0.1124372E+00
         21   -1    0    0  501  502  0.00000000000E+00  0.00000000000E+00  0.43235629147E+02  0.43235629147E+02  0.00000000000E+00 0. -1.
         21   -1    0    0  502  503 -0.00000000000E+00 -0.00000000000E+00 -0.20558607109E+04  0.20558607109E+04  0.00000000000E+00 0.  1.
          6    1    1    2  501    0 -0.11641542543E+03 -0.10615768800E+03 -0.35262388601E+03  0.42278790307E+03  0.17200000000E+03 0. -1.
         -6    1    1    2    0  503  0.11641542543E+03  0.10615768800E+03 -0.16600011957E+04  0.16763084369E+04  0.17200000000E+03 0.  1.
</event>
<event>
 4    1  0.4612011E+000  0.1788477E+03  0.7818608E-02  0.1168923E+00
         21   -1    0    0  503  502  0.00000000000E+00  0.00000000000E+00  0.53227472750E+02  0.53227472750E+02  0.00000000000E+00 0. -1.
         21   -1    0    0  501  503 -0.00000000000E+00 -0.00000000000E+00 -0.63541009006E+03  0.63541009006E+03  0.00000000000E+00 0. -1.
          6    1    1    2  501    0  0.48980046494E+02 -0.18556825223E+01 -0.37128834065E+03  0.41211833303E+03  0.17200000000E+03 0.  1.
         -6    1    1    2    0  502 -0.48980046494E+02  0.18556825223E+01 -0.21089427665E+03  0.27651922978E+03  0.17200000000E+03 0.  1.
</event>
<event>
 4    1  0.4612011E+000  0.1748020E+03  0.7818608E-02  0.1172931E+00
         21   -1    0    0  501  502  0.00000000000E+00  0.00000000000E+00  0.16568811474E+04  0.16568811474E+04  0.00000000000E+00 0. -1.
         21   -1    0    0  502  503 -0.00000000000E+00 -0.00000000000E+00 -0.23594692801E+02  0.23594692801E+02  0.00000000000E+00 0. -1.
          6    1    1    2  501    0  0.11655714510E+02 -0.28911356629E+02  0.12093102640E+04  0.12218784870E+04  0.17200000000E+03 0. -1.
         -6    1    1    2    0  503 -0.11655714510E+02  0.28911356629E+02  0.42397619054E+03  0.45859735321E+03  0.17200000000E+03 0. -1.
</event>
<event>
 4    1  0.4612011E+000  0.1745081E+03  0.7818608E-02  0.1173226E+00
         21   -1    0    0  503  502  0.00000000000E+00  0.00000000000E+00  0.94596278676E+01  0.94596278676E+01  0.00000000000E+00 0. -1.
         21   -1    0    0  501  503 -0.00000000000E+00 -0.00000000000E+00 -0.41348312516E+04  0.41348312516E+04  0.00000000000E+00 0. -1.
          6    1    1    2  501    0 -0.21309276716E+02  0.20371462527E+02 -0.30377549339E+04  0.30427632376E+04  0.17200000000E+03 0. -1.
         -6    1    1    2    0  502  0.21309276716E+02 -0.20371462527E+02 -0.10876166899E+04  0.11015276419E+04  0.17200000000E+03 0. -1.
</event>
<event>
 4    1  0.4612011E+000  0.2104217E+03  0.7818608E-02  0.1141232E+00
         21   -1    0    0  501  502  0.00000000000E+00  0.00000000000E+00  0.64513740306E+02  0.64513740306E+02  0.00000000000E+00 0. -1.
         21   -1    0    0  502  503 -0.00000000000E+00 -0.00000000000E+00 -0.10707785384E+04  0.10707785384E+04  0.00000000000E+00 0. -1.
          6    1    1    2  501    0 -0.12096672719E+03 -0.77676346765E+01 -0.16299786171E+03  0.26616834552E+03  0.17200000000E+03 0. -1.
         -6    1    1    2    0  503  0.12096672719E+03  0.77676346765E+01 -0.84326693642E+03  0.86912393322E+03  0.17200000000E+03 0. -1.
</event>
<event>
 4    1  0.4612011E+000  0.1721683E+03  0.7818608E-02  0.1175605E+00
         21   -1    0    0  503  502  0.00000000000E+00  0.00000000000E+00  0.19487711744E+03  0.19487711744E+03  0.00000000000E+00 0. -1.
         21   -1    0    0  501  503 -0.00000000000E+00 -0.00000000000E+00 -0.16999649226E+03  0.16999649226E+03  0.00000000000E+00 0. -1.
          6    1    1    2  501    0 -0.65819291851E+01 -0.38224122288E+01 -0.46743985304E+02  0.17840104481E+03  0.17200000000E+03 0. -1.
         -6    1    1    2    0  502  0.65819291851E+01  0.38224122288E+01  0.71624610482E+02  0.18647256488E+03  0.17200000000E+03 0. -1.
</event>
<event>
 4    1  0.4612011E+000  0.2745374E+03  0.7818608E-02  0.1098710E+00
         21   -1    0    0  503  502  0.00000000000E+00  0.00000000000E+00  0.17331611020E+03  0.17331611020E+03  0.00000000000E+00 0.  1.
         21   -1    0    0  501  503 -0.00000000000E+00 -0.00000000000E+00 -0.43579881981E+03  0.43579881981E+03  0.00000000000E+00 0. -1.
          6    1    1    2  501    0 -0.14403624433E+03  0.15824145801E+03 -0.11721707763E+03  0.29851405662E+03  0.17200000000E+03 0.  1.
         -6    1    1    2    0  502  0.14403624433E+03 -0.15824145801E+03 -0.14526563198E+03  0.31060087339E+03  0.17200000000E+03 0.  1.
</event>
<event>
 4    1  0.4612011E+000  0.2299595E+03  0.7818608E-02  0.1126668E+00
         21   -1    0    0  501  502  0.00000000000E+00  0.00000000000E+00  0.64267840881E+03  0.64267840881E+03  0.00000000000E+00 0. -1.
         21   -1    0    0  502  503 -0.00000000000E+00 -0.00000000000E+00 -0.86846350067E+02  0.86846350067E+02  0.00000000000E+00 0. -1.
          6    1    1    2  501    0  0.99455728400E+02 -0.11578399630E+03  0.36153135900E+03  0.42846971801E+03  0.17200000000E+03 0. -1.
         -6    1    1    2    0  503 -0.99455728400E+02  0.11578399630E+03  0.19430069974E+03  0.30105504086E+03  0.17200000000E+03 0. -1.
</event>
<event>
 4    1  0.4612011E+000  0.2149765E+03  0.7818608E-02  0.1137685E+00
         21   -1    0    0  501  502  0.00000000000E+00  0.00000000000E+00  0.35895921191E+02  0.35895921191E+02  0.00000000000E+00 0. -1.
         21   -1    0    0  502  503 -0.00000000000E+00 -0.00000000000E+00 -0.25862936713E+04  0.25862936713E+04  0.00000000000E+00 0. -1.
          6    1    1    2  501    0 -0.11747073734E+03  0.53211976799E+02 -0.34608183183E+03  0.40741566358E+03  0.17200000000E+03 0. -1.
         -6    1    1    2    0  503  0.11747073734E+03 -0.53211976799E+02 -0.22043159183E+04  0.22147739290E+04  0.17200000000E+03 0. -1.
</event>
<event>
 4    1  0.4612011E+000  0.2794955E+03  0.7818608E-02  0.1095965E+00
         21   -1    0    0  503  502  0.00000000000E+00  0.00000000000E+00  0.15429244097E+04  0.15429244097E+04  0.00000000000E+00 0.  1.
         21   -1    0    0  501  503 -0.00000000000E+00 -0.00000000000E+00 -0.84930886797E+02  0.84930886797E+02  0.00000000000E+00 0.  1.
          6    1    1    2  501    0  0.20802205824E+03 -0.72529569899E+02  0.21173795550E+03  0.35064323325E+03  0.17200000000E+03 0.  1.
         -6    1    1    2    0  502 -0.20802205824E+03  0.72529569899E+02  0.12462555674E+04  0.12772120633E+04  0.17200000000E+03 0.  1.
</event>
<event>
 4    1  0.4612011E+000  0.2141661E+03  0.7818608E-02  0.1138309E+00
         21   -1    0    0  501  502  0.00000000000E+00  0.00000000000E+00  0.75482003455E+02  0.75482003455E+02  0.00000000000E+00 0.  1.
         21   -1    0    0  502  503 -0.00000000000E+00 -0.00000000000E+00 -0.67447864939E+03  0.67447864939E+03  0.00000000000E+00 0.  1.
          6    1    1    2  501    0 -0.89751431800E+02 -0.90707182657E+02 -0.18147023955E+03  0.28071081265E+03  0.17200000000E+03 0.  1.
         -6    1    1    2    0  503  0.89751431800E+02  0.90707182657E+02 -0.41752640638E+03  0.46924984019E+03  0.17200000000E+03 0.  1.
</event>
<event>
 4    1  0.4612011E+000  0.1995388E+03  0.7818608E-02  0.1150129E+00
         21   -1    0    0  501  502  0.00000000000E+00  0.00000000000E+00  0.10883910676E+03  0.10883910676E+03  0.00000000000E+00 0. -1.
         21   -1    0    0  502  503 -0.00000000000E+00 -0.00000000000E+00 -0.15939076149E+04  0.15939076149E+04  0.00000000000E+00 0.  1.
          6    1    1    2  501    0 -0.10026409719E+03 -0.13372967213E+02  0.47792493956E+01  0.19959600863E+03  0.17200000000E+03 0. -1.
         -6    1    1    2    0  503  0.10026409719E+03  0.13372967213E+02 -0.14898477575E+04  0.15031507130E+04  0.17200000000E+03 0.  1.
</event>
<event>
 4    1  0.4612011E+000  0.1774855E+03  0.7818608E-02  0.1170259E+00
         21   -1    0    0  503  502  0.00000000000E+00  0.00000000000E+00  0.30047096905E+02  0.30047096905E+02  0.00000000000E+00 0. -1.
         21   -1    0    0  501  503 -0.00000000000E+00 -0.00000000000E+00 -0.19035377394E+04  0.19035377394E+04  0.00000000000E+00 0. -1.
          6    1    1    2  501    0  0.44359970849E+01  0.43559573365E+02 -0.15847419406E+04  0.15946498464E+04  0.17200000000E+03 0.  1.
         -6    1    1    2    0  502 -0.44359970849E+01 -0.43559573365E+02 -0.28874870192E+03  0.33893498988E+03  0.17200000000E+03 0.  1.
</event>
<event>
 4    1  0.4612011E+000  0.2792824E+03  0.7818608E-02  0.1096082E+00
         21   -1    0    0  503  502  0.00000000000E+00  0.00000000000E+00  0.11117590638E+04  0.11117590638E+04  0.00000000000E+00 0.  1.
         21   -1    0    0  501  503 -0.00000000000E+00 -0.00000000000E+00 -0.75170796314E+02  0.75170796314E+02  0.00000000000E+00 0. -1.
          6    1    1    2  501    0  0.14907326714E+03  0.16183885902E+03  0.36503870873E+03  0.45962149008E+03  0.17200000000E+03 0. -1.
         -6    1    1    2    0  502 -0.14907326714E+03 -0.16183885902E+03  0.67154955876E+03  0.72730837005E+03  0.17200000000E+03 0.  1.
</event>
<event>
 4    1  0.4612011E+000  0.1846484E+03  0.7818608E-02  0.1163379E+00
         21   -1    0    0  503  502  0.00000000000E+00  0.00000000000E+00  0.52408750677E+03  0.52408750677E+03  0.00000000000E+00 0. -1.
         21   -1    0    0  501  503 -0.00000000000E+00 -0.00000000000E+00 -0.65239692968E+02  0.65239692968E+02  0.00000000000E+00 0. -1.
          6    1    1    2  501    0 -0.59879531107E+02  0.30421889159E+02  0.21378926089E+03  0.28249052667E+03  0.17200000000E+03 0. -1.
         -6    1    1    2    0  502  0.59879531107E+02 -0.30421889159E+02  0.24505855292E+03  0.30683667307E+03  0.17200000000E+03 0. -1.
</event>
<event>
 4    1  0.4612011E+000  0.2162961E+03  0.7818608E-02  0.1136675E+00
         21   -1    0    0  501  502  0.00000000000E+00  0.00000000000E+00  0.15550678163E+03  0.15550678163E+03  0.00000000000E+00 0. -1.
         21   -1    0    0  502  503 -0.00000000000E+00 -0.00000000000E+00 -0.33372292512E+03  0.33372292512E+03  0.00000000000E+00 0. -1.
          6    1    1    2  501    0  0.13004363873E+03  0.16990259106E+02 -0.16588264401E+03  0.27258222330E+03  0.17200000000E+03 0. -1.
         -6    1    1    2    0  503 -0.13004363873E+03 -0.16990259106E+02 -0.12333499479E+02  0.21664748345E+03  0.17200000000E+03 0. -1.
</event>
<event>
 4    1  0.4612011E+000  0.2116920E+03  0.7818608E-02  0.1140233E+00
         21   -1    0    0  503  502  0.00000000000E+00  0.00000000000E+00  0.87886710587E+02  0.87886710587E+02  0.00000000000E+00 0. -1.
         21   -1    0    0  501  503 -0.00000000000E+00 -0.00000000000E+00 -0.54411823146E+03  0.54411823146E+03  0.00000000000E+00 0.  1.
          6    1    1    2  501    0 -0.28944348910E+02 -0.11996553709E+03 -0.14887156824E+03  0.25879769948E+03  0.17200000000E+03 0. -1.
         -6    1    1    2    0  502  0.28944348910E+02  0.11996553709E+03 -0.30735995264E+03  0.37320724257E+03  0.17200000000E+03 0.  1.
</event>
<event>
 4    1  0.4612011E+000  0.2013964E+03  0.7818608E-02  0.1148566E+00
         21   -1    0    0  501  502  0.00000000000E+00  0.00000000000E+00  0.81631587825E+02  0.81631587825E+02  0.00000000000E+00 0. -1.
         21   -1    0    0  502  503 -0.00000000000E+00 -0.00000000000E+00 -0.49959941264E+03  0.49959941264E+03  0.00000000000E+00 0. -1.
          6    1    1    2  501    0  0.10464320710E+03 -0.51282614659E+01 -0.18751377101E+03  0.27517615118E+03  0.17200000000E+03 0. -1.
         -6    1    1    2    0  503 -0.10464320710E+03  0.51282614659E+01 -0.23045405380E+03  0.30605484929E+03  0.17200000000E+03 0. -1.
</event>
<event>
 4    1  0.4612011E+000  0.1946745E+03  0.7818608E-02  0.1154312E+00
         21   -1    0    0  503  502  0.00000000000E+00  0.00000000000E+00  0.41237213527E+02  0.41237213527E+02  0.00000000000E+00 0.  1.
         21   -1    0    0  501  503 -0.00000000000E+00 -0.00000000000E+00 -0.11512310688E+04  0.11512310688E+04  0.00000000000E+00 0.  1.
          6    1    1    2  501    0  0.91182047693E+02 -0.94517305456E-01 -0.82277135175E+03  0.84548854044E+03  0.17200000000E+03 0.  1.
         -6    1    1    2    0  502 -0.91182047693E+02  0.94517305456E-01 -0.28722250357E+03  0.34697974193E+03  0.17200000000E+03 0.  1.
</event>
<event>
 4    1  0.4612011E+000  0.3418955E+03  0.7818608E-02  0.1065991E+00
         21   -1    0    0  503  502  0.00000000000E+00  0.00000000000E+00  0.10186245858E+04  0.10186245858E+04  0.00000000000E+00 0.  1.
         21   -1    0    0  501  503 -0.00000000000E+00 -0.00000000000E+00 -0.49167857421E+03  0.49167857421E+03  0.00000000000E+00 0. -1.
          6    1    1    2  501    0  0.23378103404E+03 -0.18070690848E+03 -0.39770740435E+03  0.52446519248E+03  0.17200000000E+03 0. -1.
         -6    1    1    2    0  502 -0.23378103404E+03  0.18070690848E+03  0.92465341598E+03  0.98583796758E+03  0.17200000000E+03 0.  1.
</event>
<event>
 4    1  0.4612011E+000  0.2209416E+03  0.7818608E-02  0.1133183E+00
         21   -1    0    0  501  502  0.00000000000E+00  0.00000000000E+00  0.11021534508E+03  0.11021534508E+03  0.00000000000E+00 0. -1.
         21   -1    0    0  502  503 -0.00000000000E+00 -0.00000000000E+00 -0.49046078602E+03  0.49046078602E+03  0.00000000000E+00 0. -1.
          6    1    1    2  501    0 -0.13867239987E+03 -0.10850364303E+01 -0.96604090783E+02  0.24113805619E+03  0.17200000000E+03 0. -1.
         -6    1    1    2    0  503  0.13867239987E+03  0.10850364303E+01 -0.28364135016E+03  0.35953807491E+03  0.17200000000E+03 0. -1.
</event>
<event>
 4    1  0.4612011E+000  0.2426206E+03  0.7818608E-02  0.1118059E+00
         21   -1    0    0  503  502  0.00000000000E+00  0.00000000000E+00  0.73846628927E+03  0.73846628927E+03  0.00000000000E+00 0.  1.
         21   -1    0    0  501  503 -0.00000000000E+00 -0.00000000000E+00 -0.68097436345E+03  0.68097436345E+03  0.00000000000E+00 0. -1.
          6    1    1    2  501    0  0.29153071539E+02  0.16861445312E+03 -0.63814344270E+03  0.68270915392E+03  0.17200000000E+03 0. -1.
         -6    1    1    2    0  502 -0.29153071539E+02 -0.16861445312E+03  0.69563536853E+03  0.73673149880E+03  0.17200000000E+03 0.  1.
</event>
<event>
 4    1  0.4612011E+000  0.2109961E+03  0.7818608E-02  0.1140780E+00
         21   -1    0    0  503  502  0.00000000000E+00  0.00000000000E+00  0.35654002632E+03  0.35654002632E+03  0.00000000000E+00 0.  1.
         21   -1    0    0  501  503 -0.00000000000E+00 -0.00000000000E+00 -0.26589333004E+03  0.26589333004E+03  0.00000000000E+00 0. -1.
          6    1    1    2  501    0 -0.67203695600E+02 -0.10207368958E+03 -0.18133008613E+03  0.27820850983E+03  0.17200000000E+03 0. -1.
         -6    1    1    2    0  502  0.67203695600E+02  0.10207368958E+03  0.27197678241E+03  0.34422484654E+03  0.17200000000E+03 0.  1.
</event>
<event>
 4    1  0.4612011E+000  0.1763244E+03  0.7818608E-02  0.1171408E+00
         21   -1    0    0  503  502  0.00000000000E+00  0.00000000000E+00  0.15336705897E+03  0.15336705897E+03  0.00000000000E+00 0. -1.
         21   -1    0    0  501  503 -0.00000000000E+00 -0.00000000000E+00 -0.44458284974E+03  0.44458284974E+03  0.00000000000E+00 0. -1.
          6    1    1    2  501    0  0.13699525916E+01 -0.38786824768E+02 -0.36612620364E+03  0.40637260186E+03  0.17200000000E+03 0. -1.
         -6    1    1    2    0  502 -0.13699525916E+01  0.38786824768E+02  0.74910412875E+02  0.19157730686E+03  0.17200000000E+03 0. -1.
</event>
<event>
 4    1  0.4612011E+000  0.2266190E+03  0.7818608E-02  0.1129042E+00
         21   -1    0    0  501  502  0.00000000000E+00  0.00000000000E+00  0.22765244761E+04  0.22765244761E+04  0.00000000000E+00 0.  1.
         21   -1    0    0  502  503 -0.00000000000E+00 -0.00000000000E+00 -0.23378093501E+02  0.23378093501E+02  0.00000000000E+00 0. -1.
          6    1    1    2  501    0  0.14750952332E+03 -0.36225889926E+01  0.13418185715E+04  0.13608208044E+04  0.17200000000E+03 0. -1.
         -6    1    1    2    0  503 -0.14750952332E+03  0.36225889926E+01  0.91132781110E+03  0.93908176529E+03  0.17200000000E+03 0.  1.
</event>
<event>
 4    1  0.4612011E+000  0.2829200E+03  0.7818608E-02  0.1094105E+00
         21   -1    0    0  503  502  0.00000000000E+00  0.00000000000E+00  0.22850403890E+03  0.22850403890E+03  0.00000000000E+00 0. -1.
         21   -1    0    0  501  503 -0.00000000000E+00 -0.00000000000E+00 -0.55636433528E+03  0.55636433528E+03  0.00000000000E+00 0.  1.
          6    1    1    2  501    0  0.33912074762E+02 -0.22205791403E+03 -0.40276309098E+03  0.49220102951E+03  0.17200000000E+03 0.  1.
         -6    1    1    2    0  502 -0.33912074762E+02  0.22205791403E+03  0.74902794593E+02  0.29266734467E+03  0.17200000000E+03 0. -1.
</event>
<event>
 4    1  0.4612011E+000  0.1847520E+03  0.7818608E-02  0.1163282E+00
         21   -1    0    0  503  502  0.00000000000E+00  0.00000000000E+00  0.12616899028E+04  0.12616899028E+04  0.00000000000E+00 0.  1.
         21   -1    0    0  501  503 -0.00000000000E+00 -0.00000000000E+00 -0.38486270952E+02  0.38486270952E+02  0.00000000000E+00 0.  1.
          6    1    1    2  501    0  0.30246777758E+02 -0.60286334856E+02  0.25728456043E+03  0.31674698858E+03  0.17200000000E+03 0.  1.
         -6    1    1    2    0  502 -0.30246777758E+02  0.60286334856E+02  0.96591907146E+03  0.98342918522E+03  0.17200000000E+03 0.  1.
</event>
<event>
 4    1  0.4612011E+000  0.1738649E+03  0.7818608E-02  0.1173876E+00
         21   -1    0    0  503  502  0.00000000000E+00  0.00000000000E+00  0.63280154301E+03  0.63280154301E+03  0.00000000000E+00 0.  1.
         21   -1    0    0  501  503 -0.00000000000E+00 -0.00000000000E+00 -0.15395109062E+03  0.15395109062E+03  0.00000000000E+00 0.  1.
          6    1    1    2  501    0  0.19386074430E+02 -0.16406342299E+02 -0.87268073526E+02  0.19453715482E+03  0.17200000000E+03 0. -1.
         -6    1    1    2    0  502 -0.19386074430E+02  0.16406342299E+02  0.56611852592E+03  0.59221547880E+03  0.17200000000E+03 0. -1.
</event>
<event>
 4    1  0.4612011E+000  0.1844577E+03  0.7818608E-02  0.1163557E+00
         21   -1    0    0  501  502  0.00000000000E+00  0.00000000000E+00  0.11906531138E+03  0.11906531138E+03  0.00000000000E+00 0.  1.
         21   -1    0    0  502  503 -0.00000000000E+00 -0.00000000000E+00 -0.73234925983E+03  0.73234925983E+03  0.00000000000E+00 0.  1.
          6    1    1    2  501    0  0.66060941018E+02 -0.87508249966E+01  0.25790901785E+02  0.18625196772E+03  0.17200000000E+03 0.  1.
         -6    1    1    2    0  503 -0.66060941018E+02  0.87508249966E+01 -0.63907485024E+03  0.66516260349E+03  0.17200000000E+03 0.  1.
</event>
<event>
 4    1  0.4612011E+000  0.1766035E+03  0.7818608E-02  0.1171131E+00
         21   -1    0    0  501  502  0.00000000000E+00  0.00000000000E+00  0.11402234529E+03  0.11402234529E+03  0.00000000000E+00 0. -1.
         21   -1    0    0  502  503 -0.00000000000E+00 -0.00000000000E+00 -0.28392877719E+03  0.28392877719E+03  0.00000000000E+00 0. -1.
          6    1    1    2  501    0 -0.19039150940E+02 -0.35246306620E+02 -0.12302810771E+03  0.21523175111E+03  0.17200000000E+03 0. -1.
         -6    1    1    2    0  503  0.19039150940E+02  0.35246306620E+02 -0.46878324193E+02  0.18271937138E+03  0.17200000000E+03 0. -1.
</event>
<event>
 4    1  0.4612011E+000  0.1845245E+03  0.7818608E-02  0.1163495E+00
         21   -1    0    0  503  502  0.00000000000E+00  0.00000000000E+00  0.10114511377E+03  0.10114511377E+03  0.00000000000E+00 0. -1.
         21   -1    0    0  501  503 -0.00000000000E+00 -0.00000000000E+00 -0.70996685053E+03  0.70996685053E+03  0.00000000000E+00 0. -1.
          6    1    1    2  501    0 -0.62461786556E+02 -0.23745191922E+02 -0.59849895860E+03  0.62629890018E+03  0.17200000000E+03 0. -1.
         -6    1    1    2    0  502  0.62461786556E+02  0.23745191922E+02 -0.10322778162E+02  0.18481306412E+03  0.17200000000E+03 0. -1.
</event>
<event>
 4    1  0.4612011E+000  0.1879977E+03  0.7818608E-02  0.1160280E+00
         21   -1    0    0  503  502  0.00000000000E+00  0.00000000000E+00  0.15731470103E+03  0.15731470103E+03  0.00000000000E+00 0.  1.
         21   -1    0    0  501  503 -0.00000000000E+00 -0.00000000000E+00 -0.22553628034E+03  0.22553628034E+03  0.00000000000E+00 0.  1.
          6    1    1    2  501    0  0.52627035235E+02  0.54676593438E+02 -0.46007505974E+02  0.19354540892E+03  0.17200000000E+03 0.  1.
         -6    1    1    2    0  502 -0.52627035235E+02 -0.54676593438E+02 -0.22214073337E+02  0.18930557245E+03  0.17200000000E+03 0.  1.
</event>
<event>
 4    1  0.4612011E+000  0.2539302E+03  0.7818608E-02  0.1110846E+00
         21   -1    0    0  501  502  0.00000000000E+00  0.00000000000E+00  0.23070827469E+03  0.23070827469E+03  0.00000000000E+00 0.  1.
         21   -1    0    0  502  503 -0.00000000000E+00 -0.00000000000E+00 -0.42006391816E+03  0.42006391816E+03  0.00000000000E+00 0. -1.
          6    1    1    2  501    0  0.17711127312E+03 -0.59398384509E+02  0.93554519212E+02  0.27061599955E+03  0.17200000000E+03 0.  1.
         -6    1    1    2    0  503 -0.17711127312E+03  0.59398384509E+02 -0.28291016268E+03  0.38015619329E+03  0.17200000000E+03 0. -1.
</event>
<event>
 4    1  0.4612011E+000  0.2000446E+03  0.7818608E-02  0.1149701E+00
         21   -1    0    0  503  502  0.00000000000E+00  0.00000000000E+00  0.50860893071E+02  0.50860893071E+02  0.00000000000E+00 0. -1.
         21   -1    0    0  501  503 -0.00000000000E+00 -0.00000000000E+00 -0.87609549140E+03  0.87609549140E+03  0.00000000000E+00 0.  1.
          6    1    1    2  501    0  0.96684061648E+02  0.32955267732E+02 -0.56057722867E+03  0.59520138336E+03  0.17200000000E+03 0.  1.
         -6    1    1    2    0  502 -0.96684061648E+02 -0.32955267732E+02 -0.26465736966E+03  0.33175500111E+03  0.17200000000E+03 0. -1.
</event>
<event>
 4    1  0.4612011E+000  0.2639371E+03  0.7818608E-02  0.1104801E+00
         21   -1    0    0  503  502  0.00000000000E+00  0.00000000000E+00  0.10492887843E+04  0.10492887843E+04  0.00000000000E+00 0.  1.
         21   -1    0    0  501  503 -0.00000000000E+00 -0.00000000000E+00 -0.96345710331E+02  0.96345710331E+02  0.00000000000E+00 0. -1.
          6    1    1    2  501    0 -0.17249504872E+03  0.10160833085E+03  0.15707061451E+03  0.30713836080E+03  0.17200000000E+03 0. -1.
         -6    1    1    2    0  502  0.17249504872E+03 -0.10160833085E+03  0.79587245947E+03  0.83849613384E+03  0.17200000000E+03 0.  1.
</event>
<event>
 4    1  0.4612011E+000  0.1967978E+03  0.7818608E-02  0.1152469E+00
         21   -1    0    0  501  502  0.00000000000E+00  0.00000000000E+00  0.10028215136E+03  0.10028215136E+03  0.00000000000E+00 0.  1.
         21   -1    0    0  502  503 -0.00000000000E+00 -0.00000000000E+00 -0.38857822931E+03  0.38857822931E+03  0.00000000000E+00 0.  1.
          6    1    1    2  501    0  0.83298781932E+02 -0.46975475111E+02 -0.12504229930E+03  0.23316294505E+03  0.17200000000E+03 0.  1.
         -6    1    1    2    0  503 -0.83298781932E+02  0.46975475111E+02 -0.16325377866E+03  0.25569743562E+03  0.17200000000E+03 0.  1.
</event>
<event>
 4    1  0.4612011E+000  0.1720831E+03  0.7818608E-02  0.1175693E+00
         21   -1    0    0  503  502  0.00000000000E+00  0.00000000000E+00  0.35955591891E+03  0.35955591891E+03  0.00000000000E+00 0.  1.
         21   -1    0    0  501  503 -0.00000000000E+00 -0.00000000000E+00 -0.84724265708E+02  0.84724265708E+02  0.00000000000E+00 0.  1.
          6    1    1    2  501    0  0.37276787657E+01  0.38336275026E+01  0.17453359095E+03  0.24510113557E+03  0.17200000000E+03 0.  1.
         -6    1    1    2    0  502 -0.37276787657E+01 -0.38336275026E+01  0.10029806226E+03  0.19917904905E+03  0.17200000000E+03 0.  1.
</event>
<event>
 4    1  0.4612011E+000  0.2666526E+03  0.7818608E-02  0.1103211E+00
         21   -1    0    0  503  502  0.00000000000E+00  0.00000000000E+00  0.10958846917E+03  0.10958846917E+03  0.00000000000E+00 0. -1.
         21   -1    0    0  501  503 -0.00000000000E+00 -0.00000000000E+00 -0.20307248424E+04  0.20307248424E+04  0.00000000000E+00 0. -1.
          6    1    1    2  501    0 -0.15784089453E+03  0.12886378690E+03 -0.18433639993E+04  0.18625505248E+04  0.17200000000E+03 0. -1.
         -6    1    1    2    0  502  0.15784089453E+03 -0.12886378690E+03 -0.77772373928E+02  0.27776278676E+03  0.17200000000E+03 0. -1.
</event>
<event>
 4    1  0.4612011E+000  0.1893371E+03  0.7818608E-02  0.1159061E+00
         21   -1    0    0  501  502  0.00000000000E+00  0.00000000000E+00  0.27826643982E+03  0.27826643982E+03  0.00000000000E+00 0. -1.
         21   -1    0    0  502  503 -0.00000000000E+00 -0.00000000000E+00 -0.15442478927E+03  0.15442478927E+03  0.00000000000E+00 0. -1.
          6    1    1    2  501    0 -0.79071303459E+02 -0.35007665829E+01 -0.26160086364E+02  0.19113575415E+03  0.17200000000E+03 0. -1.
         -6    1    1    2    0  503  0.79071303459E+02  0.35007665829E+01  0.15000173690E+03  0.24155547494E+03  0.17200000000E+03 0. -1.
</event>
<event>
 4    1  0.4612011E+000  0.1767064E+03  0.7818608E-02  0.1171029E+00
         21   -1    0    0  503  502  0.00000000000E+00  0.00000000000E+00  0.40902007945E+03  0.40902007945E+03  0.00000000000E+00 0. -1.
         21   -1    0    0  501  503 -0.00000000000E+00 -0.00000000000E+00 -0.93376618911E+02  0.93376618911E+02  0.00000000000E+00 0. -1.
          6    1    1    2  501    0 -0.40484417211E+02 -0.14752108285E+01  0.50528676611E+02  0.18378876855E+03  0.17200000000E+03 0. -1.
         -6    1    1    2    0  502  0.40484417211E+02  0.14752108285E+01  0.26511478393E+03  0.31860792982E+03  0.17200000000E+03 0. -1.
</event>
<event>
 4    1  0.4612011E+000  0.4492877E+03  0.7818608E-02  0.1027935E+00
         21   -1    0    0  503  502  0.00000000000E+00  0.00000000000E+00  0.40481400765E+03  0.40481400765E+03  0.00000000000E+00 0.  1.
         21   -1    0    0  501  503 -0.00000000000E+00 -0.00000000000E+00 -0.51429229304E+03  0.51429229304E+03  0.00000000000E+00 0. -1.
          6    1    1    2  501    0  0.40821379849E+03  0.75079427640E+02 -0.13489180517E+03  0.46910044216E+03  0.17200000000E+03 0. -1.
         -6    1    1    2    0  502 -0.40821379849E+03 -0.75079427640E+02  0.25413519775E+02  0.45000585854E+03  0.17200000000E+03 0.  1.
</event>
<event>
 4    1  0.4612011E+000  0.2499934E+03  0.7818608E-02  0.1113309E+00
         21   -1    0    0  501  502  0.00000000000E+00  0.00000000000E+00  0.73225537550E+03  0.73225537550E+03  0.00000000000E+00 0.  1.
         21   -1    0    0  502  503 -0.00000000000E+00 -0.00000000000E+00 -0.13311209175E+03  0.13311209175E+03  0.00000000000E+00 0. -1.
          6    1    1    2  501    0  0.16249205172E+03 -0.80678635069E+02  0.55875760413E+03  0.61213296693E+03  0.17200000000E+03 0.  1.
         -6    1    1    2    0  503 -0.16249205172E+03  0.80678635069E+02  0.40385679617E+02  0.25323450031E+03  0.17200000000E+03 0. -1.
</event>
<event>
 4    1  0.4612011E+000  0.3413298E+03  0.7818608E-02  0.1066231E+00
         21   -1    0    0  503  502  0.00000000000E+00  0.00000000000E+00  0.97238401095E+03  0.97238401095E+03  0.00000000000E+00 0.  1.
         21   -1    0    0  501  503 -0.00000000000E+00 -0.00000000000E+00 -0.39516258870E+03  0.39516258870E+03  0.00000000000E+00 0. -1.
          6    1    1    2  501    0 -0.26523737113E+03 -0.12872903472E+03 -0.28216436191E+03  0.44285748786E+03  0.17200000000E+03 0. -1.
         -6    1    1    2    0  502  0.26523737113E+03  0.12872903472E+03  0.85938578417E+03  0.92468911178E+03  0.17200000000E+03 0.  1.
</event>
<event>
 4    1  0.4612011E+000  0.1827571E+03  0.7818608E-02  0.1165161E+00
         21   -1    0    0  501  502  0.00000000000E+00  0.00000000000E+00  0.12663831322E+03  0.12663831322E+03  0.00000000000E+00 0.  1.
         21   -1    0    0  502  503 -0.00000000000E+00 -0.00000000000E+00 -0.26631384951E+03  0.26631384951E+03  0.00000000000E+00 0.  1.
          6    1    1    2  501    0 -0.46704846950E+02 -0.40432727190E+02 -0.50538920615E+02  0.18961627212E+03  0.17200000000E+03 0. -1.
         -6    1    1    2    0  503  0.46704846950E+02  0.40432727190E+02 -0.89136615675E+02  0.20333589061E+03  0.17200000000E+03 0. -1.
</event>
<event>
 4    1  0.4612011E+000  0.2169934E+03  0.7818608E-02  0.1136145E+00
         21   -1    0    0  503  502  0.00000000000E+00  0.00000000000E+00  0.16515660490E+03  0.16515660490E+03  0.00000000000E+00 0. -1.
         21   -1    0    0  501  503 -0.00000000000E+00 -0.00000000000E+00 -0.34791136881E+03  0.34791136881E+03  0.00000000000E+00 0.  1.
          6    1    1    2  501    0 -0.12899793567E+03  0.29354206443E+02 -0.20037825190E+03  0.29536008646E+03  0.17200000000E+03 0.  1.
         -6    1    1    2    0  502  0.12899793567E+03 -0.29354206443E+02  0.17623487982E+02  0.21770788725E+03  0.17200000000E+03 0. -1.
</event>
<event>
 4    1  0.4612011E+000  0.1797292E+03  0.7818608E-02  0.1168065E+00
         21   -1    0    0  501  502  0.00000000000E+00  0.00000000000E+00  0.27915548028E+03  0.27915548028E+03  0.00000000000E+00 0.  1.
         21   -1    0    0  502  503 -0.00000000000E+00 -0.00000000000E+00 -0.44873776322E+03  0.44873776322E+03  0.00000000000E+00 0.  1.
          6    1    1    2  501    0 -0.50456196894E+02 -0.13144168054E+02  0.22873810702E+03  0.29090156164E+03  0.17200000000E+03 0.  1.
         -6    1    1    2    0  503  0.50456196894E+02  0.13144168054E+02 -0.39832038996E+03  0.43699168186E+03  0.17200000000E+03 0.  1.
</event>
<event>
 4    1  0.4612011E+000  0.3558216E+03  0.7818608E-02  0.1060251E+00
         21   -1    0    0  501  502  0.00000000000E+00  0.00000000000E+00  0.40548334087E+03  0.40548334087E+03  0.00000000000E+00 0. -1.
         21   -1    0    0  502  503 -0.00000000000E+00 -0.00000000000E+00 -0.10046010268E+04  0.10046010268E+04  0.00000000000E+00 0.  1.
          6    1    1    2  501    0 -0.20840680990E+02 -0.31079045492E+03  0.28574838411E+03  0.45635641759E+03  0.17200000000E+03 0. -1.
         -6    1    1    2    0  503  0.20840680990E+02  0.31079045492E+03 -0.88486607001E+03  0.95372795005E+03  0.17200000000E+03 0.  1.
</event>
<event>
 4    1  0.4612011E+000  0.2506486E+03  0.7818608E-02  0.1112896E+00
         21   -1    0    0  503  502  0.00000000000E+00  0.00000000000E+00  0.17350418122E+03  0.17350418122E+03  0.00000000000E+00 0. -1.
         21   -1    0    0  501  503 -0.00000000000E+00 -0.00000000000E+00 -0.37832926779E+03  0.37832926779E+03  0.00000000000E+00 0. -1.
          6    1    1    2  501    0  0.10447332333E+03 -0.14941901429E+03 -0.15957105938E+03  0.29713236127E+03  0.17200000000E+03 0. -1.
         -6    1    1    2    0  502 -0.10447332333E+03  0.14941901429E+03 -0.45254027184E+02  0.25470108774E+03  0.17200000000E+03 0. -1.
</event>
<event>
 4    1  0.4612011E+000  0.2254971E+03  0.7818608E-02  0.1129850E+00
         21   -1    0    0  503  502  0.00000000000E+00  0.00000000000E+00  0.20098402558E+03  0.20098402558E+03  0.00000000000E+00 0. -1.
         21   -1    0    0  501  503 -0.00000000000E+00 -0.00000000000E+00 -0.53311760659E+03  0.53311760659E+03  0.00000000000E+00 0. -1.
          6    1    1    2  501    0  0.13400921572E+03 -0.57501923347E+02 -0.43213007724E+03  0.48742727124E+03  0.17200000000E+03 0. -1.
         -6    1    1    2    0  502 -0.13400921572E+03  0.57501923347E+02  0.99996496232E+02  0.24667436094E+03  0.17200000000E+03 0. -1.
</event>
<event>
 4    1  0.4612011E+000  0.1975783E+03  0.7818608E-02  0.1151798E+00
         21   -1    0    0  503  502  0.00000000000E+00  0.00000000000E+00  0.51713102656E+03  0.51713102656E+03  0.00000000000E+00 0. -1.
         21   -1    0    0  501  503 -0.00000000000E+00 -0.00000000000E+00 -0.93793684439E+02  0.93793684439E+02  0.00000000000E+00 0. -1.
          6    1    1    2  501    0  0.68772275282E+02  0.68728019440E+02  0.76721323543E+02  0.21195123965E+03  0.17200000000E+03 0. -1.
         -6    1    1    2    0  502 -0.68772275282E+02 -0.68728019440E+02  0.34661601857E+03  0.39897347134E+03  0.17200000000E+03 0. -1.
</event>
<event>
 4    1  0.4612011E+000  0.1915601E+03  0.7818608E-02  0.1157062E+00
         21   -1    0    0  503  502  0.00000000000E+00  0.00000000000E+00  0.67549971677E+03  0.67549971677E+03  0.00000000000E+00 0. -1.
         21   -1    0    0  501  503 -0.00000000000E+00 -0.00000000000E+00 -0.55173402389E+02  0.55173402389E+02  0.00000000000E+00 0.  1.
          6    1    1    2  501    0  0.81158669014E+02 -0.22902799639E+02  0.26481037435E+03  0.32683298816E+03  0.17200000000E+03 0.  1.
         -6    1    1    2    0  502 -0.81158669014E+02  0.22902799639E+02  0.35551594004E+03  0.40384013100E+03  0.17200000000E+03 0. -1.
</event>
<event>
 4    1  0.4612011E+000  0.1812050E+03  0.7818608E-02  0.1166642E+00
         21   -1    0    0  501  502  0.00000000000E+00  0.00000000000E+00  0.24271871474E+02  0.24271871474E+02  0.00000000000E+00 0. -1.
         21   -1    0    0  502  503 -0.00000000000E+00 -0.00000000000E+00 -0.15602582691E+04  0.15602582691E+04  0.00000000000E+00 0. -1.
          6    1    1    2  501    0  0.27576526811E+02  0.49907955974E+02 -0.10568785445E+04  0.10723001104E+04  0.17200000000E+03 0. -1.
         -6    1    1    2    0  503 -0.27576526811E+02 -0.49907955974E+02 -0.47910785308E+03  0.51223003014E+03  0.17200000000E+03 0. -1.
</event>
<event>
 4    1  0.4612011E+000  0.1842455E+03  0.7818608E-02  0.1163756E+00
         21   -1    0    0  503  502  0.00000000000E+00  0.00000000000E+00  0.22886042729E+03  0.22886042729E+03  0.00000000000E+00 0.  1.
         21   -1    0    0  501  503 -0.00000000000E+00 -0.00000000000E+00 -0.17600016891E+03  0.17600016891E+03  0.00000000000E+00 0.  1.
          6    1    1    2  501    0 -0.26222275969E+02  0.60619964088E+02 -0.53837662482E+02  0.19195020632E+03  0.17200000000E+03 0.  1.
         -6    1    1    2    0  502  0.26222275969E+02 -0.60619964088E+02  0.10669792087E+03  0.21291038988E+03  0.17200000000E+03 0.  1.
</event>
<event>
 4    1  0.4612011E+000  0.2256226E+03  0.7818608E-02  0.1129759E+00
         21   -1    0    0  503  502  0.00000000000E+00  0.00000000000E+00  0.92099402496E+02  0.92099402496E+02  0.00000000000E+00 0.  1.
         21   -1    0    0  501  503 -0.00000000000E+00 -0.00000000000E+00 -0.55576152013E+03  0.55576152013E+03  0.00000000000E+00 0. -1.
          6    1    1    2  501    0  0.14223730529E+03 -0.33016648011E+02 -0.20788317181E+03  0.30679140011E+03  0.17200000000E+03 0. -1.
         -6    1    1    2    0  502 -0.14223730529E+03  0.33016648011E+02 -0.25577894583E+03  0.34106952252E+03  0.17200000000E+03 0.  1.
</event>
<event>
 4    1  0.4612011E+000  0.1822876E+03  0.7818608E-02  0.1165607E+00
         21   -1    0    0  501  502  0.00000000000E+00  0.00000000000E+00  0.17525626786E+02  0.17525626786E+02  0.00000000000E+00 0. -1.
         21   -1    0    0  502  503 -0.00000000000E+00 -0.00000000000E+00 -0.18962206383E+04  0.18962206383E+04  0.00000000000E+00 0. -1.
          6    1    1    2  501    0 -0.56552065113E+02  0.21133337199E+02 -0.94944571732E+03  0.96678639014E+03  0.17200000000E+03 0. -1.
         -6    1    1    2    0  503  0.56552065113E+02 -0.21133337199E+02 -0.92924929422E+03  0.94695987498E+03  0.17200000000E+03 0. -1.
</event>
<event>
 4    1  0.4612011E+000  0.1769354E+03  0.7818608E-02  0.1170802E+00
         21   -1    0    0  503  502  0.00000000000E+00  0.00000000000E+00  0.61882320814E+03  0.61882320814E+03  0.00000000000E+00 0.  1.
         21   -1    0    0  501  503 -0.00000000000E+00 -0.00000000000E+00 -0.79519632078E+02  0.79519632078E+02  0.00000000000E+00 0.  1.
          6    1    1    2  501    0 -0.11154962639E+01 -0.41483818628E+02  0.59044035821E+02  0.18652707499E+03  0.17200000000E+03 0.  1.
         -6    1    1    2    0  502  0.11154962639E+01  0.41483818628E+02  0.48025954024E+03  0.51181576522E+03  0.17200000000E+03 0.  1.
</event>
<event>
 4    1  0.4612011E+000  0.2032788E+03  0.7818608E-02  0.1147002E+00
         21   -1    0    0  501  502  0.00000000000E+00  0.00000000000E+00  0.12316649558E+04  0.12316649558E+04  0.00000000000E+00 0. -1.
         21   -1    0    0  502  503 -0.00000000000E+00 -0.00000000000E+00 -0.36048188825E+02  0.36048188825E+02  0.00000000000E+00 0. -1.
          6    1    1    2  501    0 -0.40197367702E+02  0.10061042569E+03  0.76467407984E+03  0.79123241498E+03  0.17200000000E+03 0. -1.
         -6    1    1    2    0  503  0.40197367702E+02 -0.10061042569E+03  0.43094268709E+03  0.47648072960E+03  0.17200000000E+03 0. -1.
</event>
<event>
 4    1  0.4612011E+000  0.2226653E+03  0.7818608E-02  0.1131911E+00
         21   -1    0    0  503  502  0.00000000000E+00  0.00000000000E+00  0.16961741020E+03  0.16961741020E+03  0.00000000000E+00 0.  1.
         21   -1    0    0  501  503 -0.00000000000E+00 -0.00000000000E+00 -0.30386373085E+03  0.30386373085E+03  0.00000000000E+00 0.  1.
          6    1    1    2  501    0  0.10154032552E+03  0.98414519467E+02 -0.11329809033E+03  0.24983256917E+03  0.17200000000E+03 0.  1.
         -6    1    1    2    0  502 -0.10154032552E+03 -0.98414519467E+02 -0.20948230322E+02  0.22364857188E+03  0.17200000000E+03 0.  1.
</event>
<event>
 4    1  0.4612011E+000  0.2013913E+03  0.7818608E-02  0.1148570E+00
         21   -1    0    0  501  502  0.00000000000E+00  0.00000000000E+00  0.49399985045E+03  0.49399985045E+03  0.00000000000E+00 0. -1.
         21   -1    0    0  502  503 -0.00000000000E+00 -0.00000000000E+00 -0.11155135717E+03  0.11155135717E+03  0.00000000000E+00 0. -1.
          6    1    1    2  501    0  0.10427222571E+03  0.10087547148E+02  0.34679221001E+03  0.40102779528E+03  0.17200000000E+03 0. -1.
         -6    1    1    2    0  503 -0.10427222571E+03 -0.10087547148E+02  0.35656283267E+02  0.20452341235E+03  0.17200000000E+03 0. -1.
</event>
<event>
 4    1  0.4612011E+000  0.2801961E+03  0.7818608E-02  0.1095582E+00
         21   -1    0    0  501  502  0.00000000000E+00  0.00000000000E+00  0.36669723100E+03  0.36669723100E+03  0.00000000000E+00 0.  1.
         21   -1    0    0  502  503 -0.00000000000E+00 -0.00000000000E+00 -0.62244612199E+03  0.62244612199E+03  0.00000000000E+00 0.  1.
          6    1    1    2  501    0  0.89198434923E+02 -0.20240920115E+03  0.27270865361E+03  0.39099853613E+03  0.17200000000E+03 0.  1.
         -6    1    1    2    0  503 -0.89198434923E+02  0.20240920115E+03 -0.52845754459E+03  0.59814481687E+03  0.17200000000E+03 0.  1.
</event>
<event>
 4    1  0.4612011E+000  0.1876055E+03  0.7818608E-02  0.1160639E+00
         21   -1    0    0  501  502  0.00000000000E+00  0.00000000000E+00  0.27781634451E+03  0.27781634451E+03  0.00000000000E+00 0. -1.
         21   -1    0    0  502  503 -0.00000000000E+00 -0.00000000000E+00 -0.16947598209E+03  0.16947598209E+03  0.00000000000E+00 0.  1.
          6    1    1    2  501    0 -0.63694354847E+01  0.74640840701E+02  0.16654562546E+03  0.25086504374E+03  0.17200000000E+03 0. -1.
         -6    1    1    2    0  503  0.63694354847E+01 -0.74640840701E+02 -0.58205263030E+02  0.19642728286E+03  0.17200000000E+03 0.  1.
</event>
<event>
 4    1  0.4612011E+000  0.1764891E+03  0.7818608E-02  0.1171245E+00
         21   -1    0    0  503  502  0.00000000000E+00  0.00000000000E+00  0.76455759135E+02  0.76455759135E+02  0.00000000000E+00 0.  1.
         21   -1    0    0  501  503 -0.00000000000E+00 -0.00000000000E+00 -0.40745703109E+03  0.40745703109E+03  0.00000000000E+00 0.  1.
          6    1    1    2  501    0  0.36412378754E+02  0.15444450113E+02 -0.16274380147E+03  0.24007069226E+03  0.17200000000E+03 0. -1.
         -6    1    1    2    0  502 -0.36412378754E+02 -0.15444450113E+02 -0.16825747049E+03  0.24384209797E+03  0.17200000000E+03 0. -1.
</event>
<event>
 4    1  0.4612011E+000  0.1872725E+03  0.7818608E-02  0.1160945E+00
         21   -1    0    0  503  502  0.00000000000E+00  0.00000000000E+00  0.31358109166E+02  0.31358109166E+02  0.00000000000E+00 0.  1.
         21   -1    0    0  501  503 -0.00000000000E+00 -0.00000000000E+00 -0.11336495083E+04  0.11336495083E+04  0.00000000000E+00 0.  1.
          6    1    1    2  501    0 -0.42660956958E+02 -0.60555968079E+02 -0.61870016045E+03  0.64642158926E+03  0.17200000000E+03 0.  1.
         -6    1    1    2    0  502  0.42660956958E+02  0.60555968079E+02 -0.48359123867E+03  0.51858602820E+03  0.17200000000E+03 0.  1.
</event>
<event>
 4    1  0.4612011E+000  0.2194720E+03  0.7818608E-02  0.1134277E+00
         21   -1    0    0  503  502  0.00000000000E+00  0.00000000000E+00  0.17117460694E+03  0.17117460694E+03  0.00000000000E+00 0.  1.
         21   -1    0    0  501  503 -0.00000000000E+00 -0.00000000000E+00 -0.49461653474E+03  0.49461653474E+03  0.00000000000E+00 0.  1.
          6    1    1    2  501    0  0.84240469789E+02  0.10717974651E+03 -0.38028947325E+03  0.43907634676E+03  0.17200000000E+03 0.  1.
         -6    1    1    2    0  502 -0.84240469789E+02 -0.10717974651E+03  0.56847545453E+02  0.22671479492E+03  0.17200000000E+03 0.  1.
</event>
<event>
 4    1  0.4612011E+000  0.2215408E+03  0.7818608E-02  0.1132740E+00
         21   -1    0    0  501  502  0.00000000000E+00  0.00000000000E+00  0.21775548020E+03  0.21775548020E+03  0.00000000000E+00 0.  1.
         21   -1    0    0  502  503 -0.00000000000E+00 -0.00000000000E+00 -0.22631019920E+03  0.22631019920E+03  0.00000000000E+00 0. -1.
          6    1    1    2  501    0 -0.11367295592E+03  0.81085097022E+02  0.98657119028E+01  0.22176038000E+03  0.17200000000E+03 0. -1.
         -6    1    1    2    0  503  0.11367295592E+03 -0.81085097022E+02 -0.18420430912E+02  0.22230529940E+03  0.17200000000E+03 0. -1.
</event>
<event>
 4    1  0.4612011E+000  0.1903937E+03  0.7818608E-02  0.1158107E+00
         21   -1    0    0  503  502  0.00000000000E+00  0.00000000000E+00  0.88478346220E+03  0.88478346220E+03  0.00000000000E+00 0. -1.
         21   -1    0    0  501  503 -0.00000000000E+00 -0.00000000000E+00 -0.66056802755E+02  0.66056802755E+02  0.00000000000E+00 0. -1.
          6    1    1    2  501    0  0.62376352133E+01  0.81405537886E+02  0.11638224630E+03  0.22314702988E+03  0.17200000000E+03 0. -1.
         -6    1    1    2    0  502 -0.62376352133E+01 -0.81405537886E+02  0.70234441315E+03  0.72769323508E+03  0.17200000000E+03 0. -1.
</event>
<event>
 4    1  0.4612011E+000  0.1803835E+03  0.7818608E-02  0.1167432E+00
         21   -1    0    0  501  502  0.00000000000E+00  0.00000000000E+00  0.70176501232E+02  0.70176501232E+02  0.00000000000E+00 0. -1.
         21   -1    0    0  502  503 -0.00000000000E+00 -0.00000000000E+00 -0.46394671081E+03  0.46394671081E+03  0.00000000000E+00 0. -1.
          6    1    1    2  501    0  0.37250716867E+01 -0.54224949785E+02 -0.19027670921E+03  0.26218971644E+03  0.17200000000E+03 0. -1.
         -6    1    1    2    0  503 -0.37250716867E+01  0.54224949785E+02 -0.20349350037E+03  0.27193349560E+03  0.17200000000E+03 0. -1.
</event>
<event>
 4    1  0.4612011E+000  0.1760544E+03  0.7818608E-02  0.1171677E+00
         21   -1    0    0  503  502  0.00000000000E+00  0.00000000000E+00  0.44017434077E+03  0.44017434077E+03  0.00000000000E+00 0. -1.
         21   -1    0    0  501  503 -0.00000000000E+00 -0.00000000000E+00 -0.85508970618E+02  0.85508970618E+02  0.00000000000E+00 0.  1.
          6    1    1    2  501    0 -0.31693607659E+02  0.20166073082E+02  0.66904233064E+02  0.18833834361E+03  0.17200000000E+03 0.  1.
         -6    1    1    2    0  502  0.31693607659E+02 -0.20166073082E+02  0.28776113708E+03  0.33734496778E+03  0.17200000000E+03 0. -1.
</event>
<event>
 4    1  0.4612011E+000  0.1894250E+03  0.7818608E-02  0.1158981E+00
         21   -1    0    0  501  502  0.00000000000E+00  0.00000000000E+00  0.14863235428E+04  0.14863235428E+04  0.00000000000E+00 0.  1.
         21   -1    0    0  502  503 -0.00000000000E+00 -0.00000000000E+00 -0.39371950057E+02  0.39371950057E+02  0.00000000000E+00 0.  1.
          6    1    1    2  501    0 -0.73102795343E+02 -0.30883650109E+02  0.11979398113E+04  0.12128238166E+04  0.17200000000E+03 0.  1.
         -6    1    1    2    0  503  0.73102795343E+02  0.30883650109E+02  0.24901178146E+03  0.31287167631E+03  0.17200000000E+03 0.  1.
</event>
<event>
 4    1  0.4612011E+000  0.1764442E+03  0.7818608E-02  0.1171289E+00
         21   -1    0    0  501  502  0.00000000000E+00  0.00000000000E+00  0.17577490618E+04  0.17577490618E+04  0.00000000000E+00 0.  1.
         21   -1    0    0  502  503 -0.00000000000E+00 -0.00000000000E+00 -0.18457714753E+02  0.18457714753E+02  0.00000000000E+00 0. -1.
          6    1    1    2  501    0  0.74833784429E+01  0.38633679547E+02  0.10482019333E+04  0.10629486606E+04  0.17200000000E+03 0.  1.
         -6    1    1    2    0  503 -0.74833784429E+01 -0.38633679547E+02  0.69108941379E+03  0.71325811598E+03  0.17200000000E+03 0.  1.
</event>
<event>
 4    1  0.4612011E+000  0.1963551E+03  0.7818608E-02  0.1152851E+00
         21   -1    0    0  503  502  0.00000000000E+00  0.00000000000E+00  0.18122670192E+03  0.18122670192E+03  0.00000000000E+00 0. -1.
         21   -1    0    0  501  503 -0.00000000000E+00 -0.00000000000E+00 -0.22513996108E+03  0.22513996108E+03  0.00000000000E+00 0.  1.
          6    1    1    2  501    0 -0.61293865800E+02 -0.72210615670E+02 -0.69628426588E+02  0.20833489576E+03  0.17200000000E+03 0.  1.
         -6    1    1    2    0  502  0.61293865800E+02  0.72210615670E+02  0.25715167424E+02  0.19803176724E+03  0.17200000000E+03 0. -1.
</event>
<event>
 4    1  0.4612011E+000  0.2499760E+03  0.7818608E-02  0.1113320E+00
         21   -1    0    0  501  502  0.00000000000E+00  0.00000000000E+00  0.10199420823E+03  0.10199420823E+03  0.00000000000E+00 0. -1.
         21   -1    0    0  502  503 -0.00000000000E+00 -0.00000000000E+00 -0.69031954415E+03  0.69031954415E+03  0.00000000000E+00 0.  1.
          6    1    1    2  501    0  0.18037542025E+03  0.19202233457E+02 -0.16129088039E+03  0.29749414464E+03  0.17200000000E+03 0. -1.
         -6    1    1    2    0  503 -0.18037542025E+03 -0.19202233457E+02 -0.42703445553E+03  0.49481960775E+03  0.17200000000E+03 0.  1.
</event>
<event>
 4    1  0.4612011E+000  0.1796233E+03  0.7818608E-02  0.1168168E+00
         21   -1    0    0  503  502  0.00000000000E+00  0.00000000000E+00  0.30224926220E+02  0.30224926220E+02  0.00000000000E+00 0.  1.
         21   -1    0    0  501  503 -0.00000000000E+00 -0.00000000000E+00 -0.17167467424E+04  0.17167467424E+04  0.00000000000E+00 0.  1.
          6    1    1    2  501    0  0.51263180672E+02 -0.72549089233E+01 -0.13804335072E+04  0.13920708370E+04  0.17200000000E+03 0.  1.
         -6    1    1    2    0  502 -0.51263180672E+02  0.72549089233E+01 -0.30608830896E+03  0.35490083161E+03  0.17200000000E+03 0.  1.
</event>
<event>
 4    1  0.4612011E+000  0.2155150E+03  0.7818608E-02  0.1137272E+00
         21   -1    0    0  501  502  0.00000000000E+00  0.00000000000E+00  0.47440228443E+03  0.47440228443E+03  0.00000000000E+00 0. -1.
         21   -1    0    0  502  503 -0.00000000000E+00 -0.00000000000E+00 -0.98122498366E+02  0.98122498366E+02  0.00000000000E+00 0. -1.
          6    1    1    2  501    0 -0.69186500144E+02  0.10989063079E+03  0.17468641684E+03  0.27742037915E+03  0.17200000000E+03 0. -1.
         -6    1    1    2    0  503  0.69186500144E+02 -0.10989063079E+03  0.20159336923E+03  0.29510440365E+03  0.17200000000E+03 0. -1.
</event>
<event>
 4    1  0.4612011E+000  0.1890810E+03  0.7818608E-02  0.1159293E+00
         21   -1    0    0  501  502  0.00000000000E+00  0.00000000000E+00  0.67352543202E+03  0.67352543202E+03  0.00000000000E+00 0.  1.
         21   -1    0    0  502  503 -0.00000000000E+00 -0.00000000000E+00 -0.26762357430E+03  0.26762357430E+03  0.00000000000E+00 0.  1.
          6    1    1    2  501    0  0.70280974593E+02 -0.35045742214E+02  0.62428116638E+03  0.65228720219E+03  0.17200000000E+03 0.  1.
         -6    1    1    2    0  503 -0.70280974593E+02  0.35045742214E+02 -0.21837930866E+03  0.28886180413E+03  0.17200000000E+03 0.  1.
</event>
<event>
 4    1  0.4612011E+000  0.1913061E+03  0.7818608E-02  0.1157289E+00
         21   -1    0    0  501  502  0.00000000000E+00  0.00000000000E+00  0.17995087772E+03  0.17995087772E+03  0.00000000000E+00 0.  1.
         21   -1    0    0  502  503 -0.00000000000E+00 -0.00000000000E+00 -0.30784425461E+03  0.30784425461E+03  0.00000000000E+00 0.  1.
          6    1    1    2  501    0  0.80233565581E+02 -0.24012543982E+02  0.78132415665E+02  0.20664632030E+03  0.17200000000E+03 0.  1.
         -6    1    1    2    0  503 -0.80233565581E+02  0.24012543982E+02 -0.20602579255E+03  0.28114881204E+03  0.17200000000E+03 0.  1.
</event>
<event>
 4    1  0.4612011E+000  0.2338538E+03  0.7818608E-02  0.1123956E+00
         21   -1    0    0  503  502  0.00000000000E+00  0.00000000000E+00  0.19600884355E+04  0.19600884355E+04  0.00000000000E+00 0.  1.
         21   -1    0    0  501  503 -0.00000000000E+00 -0.00000000000E+00 -0.67119281678E+02  0.67119281678E+02  0.00000000000E+00 0.  1.
          6    1    1    2  501    0 -0.15778355756E+03 -0.14419747910E+02  0.17168160250E+03  0.29010714021E+03  0.17200000000E+03 0.  1.
         -6    1    1    2    0  502  0.15778355756E+03  0.14419747910E+02  0.17212875514E+04  0.17371005770E+04  0.17200000000E+03 0.  1.
</event>
<event>
 4    1  0.4612011E+000  0.1886237E+03  0.7818608E-02  0.1159709E+00
         21   -1    0    0  503  502  0.00000000000E+00  0.00000000000E+00  0.41116922655E+03  0.41116922655E+03  0.00000000000E+00 0.  1.
         21   -1    0    0  501  503 -0.00000000000E+00 -0.00000000000E+00 -0.24460261510E+03  0.24460261510E+03  0.00000000000E+00 0.  1.
          6    1    1    2  501    0  0.36472513716E+02  0.68298308599E+02 -0.18030073000E+03  0.26093534918E+03  0.17200000000E+03 0.  1.
         -6    1    1    2    0  502 -0.36472513716E+02 -0.68298308599E+02  0.34686734146E+03  0.39483649247E+03  0.17200000000E+03 0.  1.
</event>
<event>
 4    1  0.4612011E+000  0.2105699E+03  0.7818608E-02  0.1141115E+00
         21   -1    0    0  501  502  0.00000000000E+00  0.00000000000E+00  0.18797466209E+03  0.18797466209E+03  0.00000000000E+00 0. -1.
         21   -1    0    0  502  503 -0.00000000000E+00 -0.00000000000E+00 -0.44596269085E+03  0.44596269085E+03  0.00000000000E+00 0.  1.
          6    1    1    2  501    0  0.45509550683E+02  0.11262579307E+03  0.88556933737E+02  0.22843383940E+03  0.17200000000E+03 0. -1.
         -6    1    1    2    0  503 -0.45509550683E+02 -0.11262579307E+03 -0.34654496250E+03  0.40550351355E+03  0.17200000000E+03 0.  1.
</event>
<event>
 4    1  0.4612011E+000  0.3944958E+03  0.7818608E-02  0.1045702E+00
         21   -1    0    0  503  502  0.00000000000E+00  0.00000000000E+00  0.73223902726E+03  0.73223902726E+03  0.00000000000E+00 0.  1.
         21   -1    0    0  501  503 -0.00000000000E+00 -0.00000000000E+00 -0.23913479671E+03  0.23913479671E+03  0.00000000000E+00 0.  1.
          6    1    1    2  501    0  0.27848460898E+03  0.22020279756E+03  0.84569544615E+02  0.40345874308E+03  0.17200000000E+03 0.  1.
         -6    1    1    2    0  502 -0.27848460898E+03 -0.22020279756E+03  0.40853468593E+03  0.56791508089E+03  0.17200000000E+03 0.  1.
</event>
<event>
 4    1  0.4612011E+000  0.1782078E+03  0.7818608E-02  0.1169549E+00
         21   -1    0    0  501  502  0.00000000000E+00  0.00000000000E+00  0.34467347616E+03  0.34467347616E+03  0.00000000000E+00 0. -1.
         21   -1    0    0  502  503 -0.00000000000E+00 -0.00000000000E+00 -0.15601168330E+03  0.15601168330E+03  0.00000000000E+00 0.  1.
          6    1    1    2  501    0  0.40233384644E+02 -0.23565047048E+02  0.25451229924E+03  0.31070009196E+03  0.17200000000E+03 0. -1.
         -6    1    1    2    0  503 -0.40233384644E+02  0.23565047048E+02 -0.65850506371E+02  0.18998506750E+03  0.17200000000E+03 0.  1.
</event>
<event>
 4    1  0.4612011E+000  0.1972059E+03  0.7818608E-02  0.1152118E+00
         21   -1    0    0  503  502  0.00000000000E+00  0.00000000000E+00  0.10449062705E+03  0.10449062705E+03  0.00000000000E+00 0.  1.
         21   -1    0    0  501  503 -0.00000000000E+00 -0.00000000000E+00 -0.46371516520E+03  0.46371516520E+03  0.00000000000E+00 0.  1.
          6    1    1    2  501    0  0.85415912891E+02 -0.44836283055E+02 -0.30583126556E+03  0.36389962001E+03  0.17200000000E+03 0.  1.
         -6    1    1    2    0  502 -0.85415912891E+02  0.44836283055E+02 -0.53393272592E+02  0.20430617223E+03  0.17200000000E+03 0.  1.
</event>
<event>
 4    1  0.4612011E+000  0.1855183E+03  0.7818608E-02  0.1162567E+00
         21   -1    0    0  503  502  0.00000000000E+00  0.00000000000E+00  0.13733107608E+03  0.13733107608E+03  0.00000000000E+00 0. -1.
         21   -1    0    0  501  503 -0.00000000000E+00 -0.00000000000E+00 -0.39880225376E+03  0.39880225376E+03  0.00000000000E+00 0. -1.
          6    1    1    2  501    0 -0.29857995109E+01  0.69455985853E+02 -0.29414284605E+03  0.34776006506E+03  0.17200000000E+03 0. -1.
         -6    1    1    2    0  502  0.29857995109E+01 -0.69455985853E+02  0.32671668361E+02  0.18837326478E+03  0.17200000000E+03 0. -1.
</event>
<event>
 4    1  0.4612011E+000  0.1887923E+03  0.7818608E-02  0.1159555E+00
         21   -1    0    0  503  502  0.00000000000E+00  0.00000000000E+00  0.10064183282E+04  0.10064183282E+04  0.00000000000E+00 0. -1.
         21   -1    0    0  501  503 -0.00000000000E+00 -0.00000000000E+00 -0.83380915108E+02  0.83380915108E+02  0.00000000000E+00 0. -1.
          6    1    1    2  501    0 -0.72017894792E+02 -0.29528883054E+02  0.48234771603E+02  0.19485667886E+03  0.17200000000E+03 0. -1.
         -6    1    1    2    0  502  0.72017894792E+02  0.29528883054E+02  0.87480264151E+03  0.89494256447E+03  0.17200000000E+03 0. -1.
</event>
<event>
 4    1  0.4612011E+000  0.1790987E+03  0.7818608E-02  0.1168678E+00
         21   -1    0    0  503  502  0.00000000000E+00  0.00000000000E+00  0.15206223663E+03  0.15206223663E+03  0.00000000000E+00 0.  1.
         21   -1    0    0  501  503 -0.00000000000E+00 -0.00000000000E+00 -0.22247468965E+03  0.22247468965E+03  0.00000000000E+00 0.  1.
          6    1    1    2  501    0  0.49856613853E+02 -0.25832692214E+01 -0.77842999911E+02  0.19528412086E+03  0.17200000000E+03 0. -1.
         -6    1    1    2    0  502 -0.49856613853E+02  0.25832692214E+01  0.74305468828E+01  0.17925280542E+03  0.17200000000E+03 0. -1.
</event>
<event>
 4    1  0.4612011E+000  0.2457043E+03  0.7818608E-02  0.1116050E+00
         21   -1    0    0  501  502  0.00000000000E+00  0.00000000000E+00  0.33163560477E+03  0.33163560477E+03  0.00000000000E+00 0.  1.
         21   -1    0    0  502  503 -0.00000000000E+00 -0.00000000000E+00 -0.18672011628E+03  0.18672011628E+03  0.00000000000E+00 0. -1.
          6    1    1    2  501    0 -0.18849243657E+02 -0.17444577775E+03  0.11349475624E+03  0.27065048135E+03  0.17200000000E+03 0.  1.
         -6    1    1    2    0  503  0.18849243657E+02  0.17444577775E+03  0.31420732256E+02  0.24770523970E+03  0.17200000000E+03 0. -1.
</event>
<event>
 4    1  0.4612011E+000  0.2259371E+03  0.7818608E-02  0.1129533E+00
         21   -1    0    0  501  502  0.00000000000E+00  0.00000000000E+00  0.28491784132E+03  0.28491784132E+03  0.00000000000E+00 0.  1.
         21   -1    0    0  502  503 -0.00000000000E+00 -0.00000000000E+00 -0.32157258557E+03  0.32157258557E+03  0.00000000000E+00 0.  1.
          6    1    1    2  501    0  0.91423866179E+02  0.11447810668E+03  0.18347192150E+03  0.29104897560E+03  0.17200000000E+03 0.  1.
         -6    1    1    2    0  503 -0.91423866179E+02 -0.11447810668E+03 -0.22012666575E+03  0.31544145129E+03  0.17200000000E+03 0.  1.
</event>
<event>
 4    1  0.4612011E+000  0.2016022E+03  0.7818608E-02  0.1148394E+00
         21   -1    0    0  503  502  0.00000000000E+00  0.00000000000E+00  0.54938233767E+03  0.54938233767E+03  0.00000000000E+00 0.  1.
         21   -1    0    0  501  503 -0.00000000000E+00 -0.00000000000E+00 -0.12966005049E+03  0.12966005049E+03  0.00000000000E+00 0.  1.
          6    1    1    2  501    0  0.10464371978E+03  0.10447896302E+02 -0.12629863432E+02  0.20199747542E+03  0.17200000000E+03 0.  1.
         -6    1    1    2    0  502 -0.10464371978E+03 -0.10447896302E+02  0.43235215061E+03  0.47704491274E+03  0.17200000000E+03 0.  1.
</event>
<event>
 4    1  0.4612011E+000  0.1764317E+03  0.7818608E-02  0.1171302E+00
         21   -1    0    0  503  502  0.00000000000E+00  0.00000000000E+00  0.37783252645E+02  0.37783252645E+02  0.00000000000E+00 0.  1.
         21   -1    0    0  501  503 -0.00000000000E+00 -0.00000000000E+00 -0.85257242946E+03  0.85257242946E+03  0.00000000000E+00 0. -1.
          6    1    1    2  501    0  0.35102699873E+02  0.17662036693E+02 -0.32569957462E+03  0.37041646830E+03  0.17200000000E+03 0.  1.
         -6    1    1    2    0  502 -0.35102699873E+02 -0.17662036693E+02 -0.48908960219E+03  0.51993921380E+03  0.17200000000E+03 0. -1.
</event>
<event>
 4    1  0.4612011E+000  0.1934936E+03  0.7818608E-02  0.1155348E+00
         21   -1    0    0  501  502  0.00000000000E+00  0.00000000000E+00  0.18113282782E+02  0.18113282782E+02  0.00000000000E+00 0.  1.
         21   -1    0    0  502  503 -0.00000000000E+00 -0.00000000000E+00 -0.21042722507E+04  0.21042722507E+04  0.00000000000E+00 0. -1.
          6    1    1    2  501    0  0.73980526769E+02  0.48812435919E+02 -0.90180641917E+03  0.92233106307E+03  0.17200000000E+03 0.  1.
         -6    1    1    2    0  503 -0.73980526769E+02 -0.48812435919E+02 -0.11843525488E+04  0.12000544705E+04  0.17200000000E+03 0.  1.
</event>
<event>
 4    1  0.4612011E+000  0.1757292E+03  0.7818608E-02  0.1172002E+00
         21   -1    0    0  501  502  0.00000000000E+00  0.00000000000E+00  0.53856962149E+03  0.53856962149E+03  0.00000000000E+00 0. -1.
         21   -1    0    0  502  503 -0.00000000000E+00 -0.00000000000E+00 -0.84409540543E+02  0.84409540543E+02  0.00000000000E+00 0. -1.
          6    1    1    2  501    0  0.28309499206E+02  0.22255535785E+02  0.40348093837E+03  0.44008817781E+03  0.17200000000E+03 0. -1.
         -6    1    1    2    0  503 -0.28309499206E+02 -0.22255535785E+02  0.50679142577E+02  0.18289098422E+03  0.17200000000E+03 0. -1.
</event>
<event>
 4    1  0.4612011E+000  0.2713840E+03  0.7818608E-02  0.1100490E+00
         21   -1    0    0  503  502  0.00000000000E+00  0.00000000000E+00  0.12931751420E+03  0.12931751420E+03  0.00000000000E+00 0.  1.
         21   -1    0    0  501  503 -0.00000000000E+00 -0.00000000000E+00 -0.65342908364E+03  0.65342908364E+03  0.00000000000E+00 0.  1.
          6    1    1    2  501    0  0.15612349332E+03 -0.14032366701E+03 -0.40230134675E+03  0.48527894070E+03  0.17200000000E+03 0.  1.
         -6    1    1    2    0  502 -0.15612349332E+03  0.14032366701E+03 -0.12181022269E+03  0.29746765714E+03  0.17200000000E+03 0.  1.
</event>
<event>
 4    1  0.4612011E+000  0.2465956E+03  0.7818608E-02  0.1115475E+00
         21   -1    0    0  503  502  0.00000000000E+00  0.00000000000E+00  0.13225530903E+04  0.13225530903E+04  0.00000000000E+00 0.  1.
         21   -1    0    0  501  503 -0.00000000000E+00 -0.00000000000E+00 -0.25551649083E+03  0.25551649083E+03  0.00000000000E+00 0.  1.
          6    1    1    2  501    0 -0.30993317513E+02  0.17396777219E+03 -0.18100729133E+03  0.30589705949E+03  0.17200000000E+03 0.  1.
         -6    1    1    2    0  502  0.30993317513E+02 -0.17396777219E+03  0.12480438908E+04  0.12721725216E+04  0.17200000000E+03 0.  1.
</event>
<event>
 4    1  0.4612011E+000  0.1766291E+03  0.7818608E-02  0.1171106E+00
         21   -1    0    0  501  502  0.00000000000E+00  0.00000000000E+00  0.99019341617E+02  0.99019341617E+02  0.00000000000E+00 0.  1.
         21   -1    0    0  502  503 -0.00000000000E+00 -0.00000000000E+00 -0.32049883335E+03  0.32049883335E+03  0.00000000000E+00 0.  1.
          6    1    1    2  501    0 -0.34050707931E+02 -0.21316302138E+02 -0.83435074645E+02  0.19534392012E+03  0.17200000000E+03 0. -1.
         -6    1    1    2    0  503  0.34050707931E+02  0.21316302138E+02 -0.13804441709E+03  0.22417425485E+03  0.17200000000E+03 0. -1.
</event>
<event>
 4    1  0.4612011E+000  0.2951869E+03  0.7818608E-02  0.1087672E+00
         21   -1    0    0  503  502  0.00000000000E+00  0.00000000000E+00  0.10606399464E+04  0.10606399464E+04  0.00000000000E+00 0.  1.
         21   -1    0    0  501  503 -0.00000000000E+00 -0.00000000000E+00 -0.88166166555E+02  0.88166166555E+02  0.00000000000E+00 0. -1.
          6    1    1    2  501    0  0.18082642475E+03  0.15764864563E+03  0.33623419312E+03  0.44742454557E+03  0.17200000000E+03 0. -1.
         -6    1    1    2    0  502 -0.18082642475E+03 -0.15764864563E+03  0.63623958676E+03  0.70138156742E+03  0.17200000000E+03 0.  1.
</event>
<event>
 4    1  0.4612011E+000  0.1814333E+03  0.7818608E-02  0.1166423E+00
         21   -1    0    0  501  502  0.00000000000E+00  0.00000000000E+00  0.58437424389E+03  0.58437424389E+03  0.00000000000E+00 0. -1.
         21   -1    0    0  502  503 -0.00000000000E+00 -0.00000000000E+00 -0.71802563294E+02  0.71802563294E+02  0.00000000000E+00 0. -1.
          6    1    1    2  501    0  0.87885194962E+01 -0.57068467952E+02  0.40858450977E+03  0.44705631606E+03  0.17200000000E+03 0. -1.
         -6    1    1    2    0  503 -0.87885194962E+01  0.57068467952E+02  0.10398717082E+03  0.20912049112E+03  0.17200000000E+03 0. -1.
</event>
<event>
 4    1  0.4612011E+000  0.2045146E+03  0.7818608E-02  0.1145985E+00
         21   -1    0    0  503  502  0.00000000000E+00  0.00000000000E+00  0.33669586155E+03  0.33669586155E+03  0.00000000000E+00 0.  1.
         21   -1    0    0  501  503 -0.00000000000E+00 -0.00000000000E+00 -0.20308716958E+03  0.20308716958E+03  0.00000000000E+00 0.  1.
          6    1    1    2  501    0 -0.44002475855E+02 -0.10151839804E+03 -0.10137824687E+03  0.22826246288E+03  0.17200000000E+03 0.  1.
         -6    1    1    2    0  502  0.44002475855E+02  0.10151839804E+03  0.23498693884E+03  0.31152056825E+03  0.17200000000E+03 0.  1.
</event>
<event>
 4    1  0.4612011E+000  0.1746364E+03  0.7818608E-02  0.1173097E+00
         21   -1    0    0  501  502  0.00000000000E+00  0.00000000000E+00  0.22866775999E+03  0.22866775999E+03  0.00000000000E+00 0. -1.
         21   -1    0    0  502  503 -0.00000000000E+00 -0.00000000000E+00 -0.28390312331E+03  0.28390312331E+03  0.00000000000E+00 0. -1.
          6    1    1    2  501    0  0.29815587398E+02  0.49909395450E+01  0.15899965568E+03  0.23617529345E+03  0.17200000000E+03 0. -1.
         -6    1    1    2    0  503 -0.29815587398E+02 -0.49909395450E+01 -0.21423501899E+03  0.27639558986E+03  0.17200000000E+03 0. -1.
</event>
<event>
 4    1  0.4612011E+000  0.1798397E+03  0.7818608E-02  0.1167958E+00
         21   -1    0    0  501  502  0.00000000000E+00  0.00000000000E+00  0.71881988758E+03  0.71881988758E+03  0.00000000000E+00 0.  1.
         21   -1    0    0  502  503 -0.00000000000E+00 -0.00000000000E+00 -0.62120547221E+02  0.62120547221E+02  0.00000000000E+00 0.  1.
          6    1    1    2  501    0 -0.74322380196E+01  0.51991284744E+02  0.53337598167E+03  0.56287855678E+03  0.17200000000E+03 0.  1.
         -6    1    1    2    0  503  0.74322380196E+01 -0.51991284744E+02  0.12332335869E+03  0.21806187803E+03  0.17200000000E+03 0.  1.
</event>
<event>
 4    1  0.4612011E+000  0.2085475E+03  0.7818608E-02  0.1142721E+00
         21   -1    0    0  503  502  0.00000000000E+00  0.00000000000E+00  0.63026885162E+02  0.63026885162E+02  0.00000000000E+00 0. -1.
         21   -1    0    0  501  503 -0.00000000000E+00 -0.00000000000E+00 -0.96803052880E+03  0.96803052880E+03  0.00000000000E+00 0.  1.
          6    1    1    2  501    0 -0.10862878643E+03  0.45911344451E+02 -0.72875737706E+03  0.75801014466E+03  0.17200000000E+03 0.  1.
         -6    1    1    2    0  502  0.10862878643E+03 -0.45911344451E+02 -0.17624626657E+03  0.27304726930E+03  0.17200000000E+03 0.  1.
</event>
<event>
 4    1  0.4612011E+000  0.2743452E+03  0.7818608E-02  0.1098818E+00
         21   -1    0    0  501  502  0.00000000000E+00  0.00000000000E+00  0.26361312819E+03  0.26361312819E+03  0.00000000000E+00 0. -1.
         21   -1    0    0  502  503 -0.00000000000E+00 -0.00000000000E+00 -0.31904208997E+03  0.31904208997E+03  0.00000000000E+00 0.  1.
          6    1    1    2  501    0  0.15162758556E+03  0.15063315957E+03  0.66726655850E+02  0.28234326637E+03  0.17200000000E+03 0. -1.
         -6    1    1    2    0  503 -0.15162758556E+03 -0.15063315957E+03 -0.12215561763E+03  0.30031195179E+03  0.17200000000E+03 0. -1.
</event>
<event>
 4    1  0.4612011E+000  0.2054322E+03  0.7818608E-02  0.1145235E+00
         21   -1    0    0  501  502  0.00000000000E+00  0.00000000000E+00  0.76768124073E+03  0.76768124073E+03  0.00000000000E+00 0. -1.
         21   -1    0    0  502  503 -0.00000000000E+00 -0.00000000000E+00 -0.61627272354E+02  0.61627272354E+02  0.00000000000E+00 0.  1.
          6    1    1    2  501    0 -0.93396517330E+02  0.62413929852E+02  0.48927229871E+03  0.53065034663E+03  0.17200000000E+03 0. -1.
         -6    1    1    2    0  503  0.93396517330E+02 -0.62413929852E+02  0.21678166966E+03  0.29865816646E+03  0.17200000000E+03 0.  1.
</event>
<event>
 4    1  0.4612011E+000  0.1861267E+03  0.7818608E-02  0.1162002E+00
         21   -1    0    0  503  502  0.00000000000E+00  0.00000000000E+00  0.27063397070E+03  0.27063397070E+03  0.00000000000E+00 0.  1.
         21   -1    0    0  501  503 -0.00000000000E+00 -0.00000000000E+00 -0.36918256466E+03  0.36918256466E+03  0.00000000000E+00 0.  1.
          6    1    1    2  501    0  0.68235134336E+02  0.20077994485E+02 -0.30784012999E+03  0.35973421446E+03  0.17200000000E+03 0.  1.
         -6    1    1    2    0  502 -0.68235134336E+02 -0.20077994485E+02  0.20929153603E+03  0.28008232089E+03  0.17200000000E+03 0.  1.
</event>
<event>
 4    1  0.4612011E+000  0.1851175E+03  0.7818608E-02  0.1162940E+00
         21   -1    0    0  503  502  0.00000000000E+00  0.00000000000E+00  0.30748556074E+02  0.30748556074E+02  0.00000000000E+00 0. -1.
         21   -1    0    0  501  503 -0.00000000000E+00 -0.00000000000E+00 -0.14437468150E+04  0.14437468150E+04  0.00000000000E+00 0. -1.
          6    1    1    2  501    0  0.64502828554E+02  0.22888206727E+02 -0.35441582046E+03  0.39984879478E+03  0.17200000000E+03 0. -1.
         -6    1    1    2    0  502 -0.64502828554E+02 -0.22888206727E+02 -0.10585824385E+04  0.10746465763E+04  0.17200000000E+03 0. -1.
</event>
<event>
 4    1  0.4612011E+000  0.1878295E+03  0.7818608E-02  0.1160434E+00
         21   -1    0    0  501  502  0.00000000000E+00  0.00000000000E+00  0.28365369739E+03  0.28365369739E+03  0.00000000000E+00 0. -1.
         21   -1    0    0  502  503 -0.00000000000E+00 -0.00000000000E+00 -0.21174423084E+03  0.21174423084E+03  0.00000000000E+00 0. -1.
          6    1    1    2  501    0  0.73912955957E+02  0.15257868729E+02  0.19506319648E+03  0.27079434676E+03  0.17200000000E+03 0. -1.
         -6    1    1    2    0  503 -0.73912955957E+02 -0.15257868729E+02 -0.12315372993E+03  0.22460358148E+03  0.17200000000E+03 0. -1.
</event>
<event>
 4    1  0.4612011E+000  0.2045228E+03  0.7818608E-02  0.1145978E+00
         21   -1    0    0  501  502  0.00000000000E+00  0.00000000000E+00  0.11254730142E+03  0.11254730142E+03  0.00000000000E+00 0.  1.
         21   -1    0    0  502  503 -0.00000000000E+00 -0.00000000000E+00 -0.68135333005E+03  0.68135333005E+03  0.00000000000E+00 0. -1.
          6    1    1    2  501    0 -0.47472147890E+02 -0.99959867689E+02 -0.16785625314E+02  0.20521047047E+03  0.17200000000E+03 0.  1.
         -6    1    1    2    0  503  0.47472147890E+02  0.99959867689E+02 -0.55202040332E+03  0.58869016100E+03  0.17200000000E+03 0. -1.
</event>
<event>
 4    1  0.4612011E+000  0.2163023E+03  0.7818608E-02  0.1136670E+00
         21   -1    0    0  501  502  0.00000000000E+00  0.00000000000E+00  0.29561025343E+02  0.29561025343E+02  0.00000000000E+00 0. -1.
         21   -1    0    0  502  503 -0.00000000000E+00 -0.00000000000E+00 -0.16869125235E+04  0.16869125235E+04  0.00000000000E+00 0.  1.
          6    1    1    2  501    0  0.24812482194E+02 -0.12879067162E+03 -0.61537702484E+03  0.65228489104E+03  0.17200000000E+03 0. -1.
         -6    1    1    2    0  503 -0.24812482194E+02  0.12879067162E+03 -0.10419744734E+04  0.10641886578E+04  0.17200000000E+03 0. -1.
</event>
<event>
 4    1  0.4612011E+000  0.2151561E+03  0.7818608E-02  0.1137547E+00
         21   -1    0    0  503  502  0.00000000000E+00  0.00000000000E+00  0.11140909880E+04  0.11140909880E+04  0.00000000000E+00 0. -1.
         21   -1    0    0  501  503 -0.00000000000E+00 -0.00000000000E+00 -0.41787110365E+02  0.41787110365E+02  0.00000000000E+00 0.  1.
          6    1    1    2  501    0 -0.11797511375E+03 -0.52820765992E+02  0.57954802275E+03  0.61819743728E+03  0.17200000000E+03 0.  1.
         -6    1    1    2    0  502  0.11797511375E+03  0.52820765992E+02  0.49275585492E+03  0.53768066112E+03  0.17200000000E+03 0.  1.
</event>
<event>
 4    1  0.4612011E+000  0.2080172E+03  0.7818608E-02  0.1143146E+00
         21   -1    0    0  501  502  0.00000000000E+00  0.00000000000E+00  0.73542529620E+02  0.73542529620E+02  0.00000000000E+00 0. -1.
         21   -1    0    0  502  503 -0.00000000000E+00 -0.00000000000E+00 -0.66727754385E+03  0.66727754385E+03  0.00000000000E+00 0.  1.
          6    1    1    2  501    0  0.11154131733E+03 -0.35294040197E+02 -0.16950123057E+03  0.26833151494E+03  0.17200000000E+03 0. -1.
         -6    1    1    2    0  503 -0.11154131733E+03  0.35294040197E+02 -0.42423378366E+03  0.47248855854E+03  0.17200000000E+03 0.  1.
</event>
<event>
 4    1  0.4612011E+000  0.2287052E+03  0.7818608E-02  0.1127554E+00
         21   -1    0    0  501  502  0.00000000000E+00  0.00000000000E+00  0.25374409925E+03  0.25374409925E+03  0.00000000000E+00 0. -1.
         21   -1    0    0  502  503 -0.00000000000E+00 -0.00000000000E+00 -0.47406620541E+03  0.47406620541E+03  0.00000000000E+00 0.  1.
          6    1    1    2  501    0  0.64356431842E+02 -0.13630972133E+03  0.16341532564E+03  0.28108834750E+03  0.17200000000E+03 0. -1.
         -6    1    1    2    0  503 -0.64356431842E+02  0.13630972133E+03 -0.38373743180E+03  0.44672195716E+03  0.17200000000E+03 0.  1.
</event>
<event>
 4    1  0.4612011E+000  0.2160921E+03  0.7818608E-02  0.1136831E+00
         21   -1    0    0  501  502  0.00000000000E+00  0.00000000000E+00  0.30949383452E+03  0.30949383452E+03  0.00000000000E+00 0. -1.
         21   -1    0    0  502  503 -0.00000000000E+00 -0.00000000000E+00 -0.17338683037E+03  0.17338683037E+03  0.00000000000E+00 0.  1.
          6    1    1    2  501    0 -0.11851879486E+03  0.55363273963E+02  0.15504537170E+03  0.26596026795E+03  0.17200000000E+03 0. -1.
         -6    1    1    2    0  503  0.11851879486E+03 -0.55363273963E+02 -0.18938367553E+02  0.21692039693E+03  0.17200000000E+03 0.  1.
</event>
<event>
 4    1  0.4612011E+000  0.2084439E+03  0.7818608E-02  0.1142804E+00
         21   -1    0    0  501  502  0.00000000000E+00  0.00000000000E+00  0.18168859151E+03  0.18168859151E+03  0.00000000000E+00 0. -1.
         21   -1    0    0  502  503 -0.00000000000E+00 -0.00000000000E+00 -0.47739060260E+03  0.47739060260E+03  0.00000000000E+00 0. -1.
          6    1    1    2  501    0 -0.95878186378E+02  0.68353808159E+02  0.84951891230E+02  0.22509041192E+03  0.17200000000E+03 0. -1.
         -6    1    1    2    0  503  0.95878186378E+02 -0.68353808159E+02 -0.38065390232E+03  0.43398878219E+03  0.17200000000E+03 0. -1.
</event>
<event>
 4    1  0.4612011E+000  0.1759903E+03  0.7818608E-02  0.1171741E+00
         21   -1    0    0  501  502  0.00000000000E+00  0.00000000000E+00  0.70842442624E+02  0.70842442624E+02  0.00000000000E+00 0.  1.
         21   -1    0    0  502  503 -0.00000000000E+00 -0.00000000000E+00 -0.46199032137E+03  0.46199032137E+03  0.00000000000E+00 0.  1.
          6    1    1    2  501    0 -0.35841507579E+02 -0.10196028353E+02 -0.13386418493E+03  0.22111579018E+03  0.17200000000E+03 0. -1.
         -6    1    1    2    0  503  0.35841507579E+02  0.10196028353E+02 -0.25728369381E+03  0.31171697381E+03  0.17200000000E+03 0. -1.
</event>
<event>
 4    1  0.4612011E+000  0.1922999E+03  0.7818608E-02  0.1156403E+00
         21   -1    0    0  503  502  0.00000000000E+00  0.00000000000E+00  0.82111536125E+02  0.82111536125E+02  0.00000000000E+00 0. -1.
         21   -1    0    0  501  503 -0.00000000000E+00 -0.00000000000E+00 -0.12823027653E+04  0.12823027653E+04  0.00000000000E+00 0. -1.
          6    1    1    2  501    0 -0.47148668100E+02  0.71918445367E+02 -0.11495975996E+04  0.11655702041E+04  0.17200000000E+03 0. -1.
         -6    1    1    2    0  502  0.47148668100E+02 -0.71918445367E+02 -0.50593629578E+02  0.19884409733E+03  0.17200000000E+03 0. -1.
</event>
<event>
 4    1  0.4612011E+000  0.2440644E+03  0.7818608E-02  0.1117115E+00
         21   -1    0    0  501  502  0.00000000000E+00  0.00000000000E+00  0.18767741908E+03  0.18767741908E+03  0.00000000000E+00 0.  1.
         21   -1    0    0  502  503 -0.00000000000E+00 -0.00000000000E+00 -0.63343024633E+03  0.63343024633E+03  0.00000000000E+00 0.  1.
          6    1    1    2  501    0  0.17314127775E+03  0.23466724625E+01  0.67118363887E+02  0.25312503571E+03  0.17200000000E+03 0.  1.
         -6    1    1    2    0  503 -0.17314127775E+03 -0.23466724625E+01 -0.51287119114E+03  0.56798262970E+03  0.17200000000E+03 0.  1.
</event>
<event>
 4    1  0.4612011E+000  0.1763584E+03  0.7818608E-02  0.1171375E+00
         21   -1    0    0  503  502  0.00000000000E+00  0.00000000000E+00  0.30682437313E+03  0.30682437313E+03  0.00000000000E+00 0.  1.
         21   -1    0    0  501  503 -0.00000000000E+00 -0.00000000000E+00 -0.22103175654E+03  0.22103175654E+03  0.00000000000E+00 0.  1.
          6    1    1    2  501    0 -0.23609476114E+02  0.30997822281E+02 -0.15129910355E+03  0.23236542575E+03  0.17200000000E+03 0.  1.
         -6    1    1    2    0  502  0.23609476114E+02 -0.30997822281E+02  0.23709172014E+03  0.29549070393E+03  0.17200000000E+03 0.  1.
</event>
<event>
 4    1  0.4612011E+000  0.1914247E+03  0.7818608E-02  0.1157183E+00
         21   -1    0    0  501  502  0.00000000000E+00  0.00000000000E+00  0.26259426470E+03  0.26259426470E+03  0.00000000000E+00 0. -1.
         21   -1    0    0  502  503 -0.00000000000E+00 -0.00000000000E+00 -0.16097876584E+03  0.16097876584E+03  0.00000000000E+00 0. -1.
          6    1    1    2  501    0 -0.83793033441E+02 -0.61772336557E+01  0.12808902512E+03  0.23032635330E+03  0.17200000000E+03 0. -1.
         -6    1    1    2    0  503  0.83793033441E+02  0.61772336557E+01 -0.26473526266E+02  0.19324667723E+03  0.17200000000E+03 0. -1.
</event>
<event>
 4    1  0.4612011E+000  0.1775371E+03  0.7818608E-02  0.1170208E+00
         21   -1    0    0  503  502  0.00000000000E+00  0.00000000000E+00  0.18310219837E+03  0.18310219837E+03  0.00000000000E+00 0.  1.
         21   -1    0    0  501  503 -0.00000000000E+00 -0.00000000000E+00 -0.17509019042E+03  0.17509019042E+03  0.00000000000E+00 0.  1.
          6    1    1    2  501    0  0.43992264846E+02  0.32592096656E+00 -0.19237134465E+02  0.17857629443E+03  0.17200000000E+03 0.  1.
         -6    1    1    2    0  502 -0.43992264846E+02 -0.32592096656E+00  0.27249142421E+02  0.17961609436E+03  0.17200000000E+03 0.  1.
</event>
<event>
 4    1  0.4612011E+000  0.1763830E+03  0.7818608E-02  0.1171350E+00
         21   -1    0    0  501  502  0.00000000000E+00  0.00000000000E+00  0.67389385995E+03  0.67389385995E+03  0.00000000000E+00 0.  1.
         21   -1    0    0  502  503 -0.00000000000E+00 -0.00000000000E+00 -0.86104245088E+02  0.86104245088E+02  0.00000000000E+00 0.  1.
          6    1    1    2  501    0  0.25786625030E+02  0.29360272029E+02  0.55269511502E+03  0.58015762149E+03  0.17200000000E+03 0.  1.
         -6    1    1    2    0  503 -0.25786625030E+02 -0.29360272029E+02  0.35094499841E+02  0.17984048355E+03  0.17200000000E+03 0.  1.
</event>
<event>
 4    1  0.4612011E+000  0.2586967E+03  0.7818608E-02  0.1107929E+00
         21   -1    0    0  501  502  0.00000000000E+00  0.00000000000E+00  0.60415438601E+03  0.60415438601E+03  0.00000000000E+00 0. -1.
         21   -1    0    0  502  503 -0.00000000000E+00 -0.00000000000E+00 -0.11093654805E+03  0.11093654805E+03  0.00000000000E+00 0. -1.
          6    1    1    2  501    0  0.52985369192E+02 -0.18582935444E+03  0.23288093678E+03  0.34807690104E+03  0.17200000000E+03 0.  1.
         -6    1    1    2    0  503 -0.52985369192E+02  0.18582935444E+03  0.26033690118E+03  0.36701403302E+03  0.17200000000E+03 0.  1.
</event>
<event>
 4    1  0.4612011E+000  0.1773046E+03  0.7818608E-02  0.1170437E+00
         21   -1    0    0  501  502  0.00000000000E+00  0.00000000000E+00  0.81604918355E+03  0.81604918355E+03  0.00000000000E+00 0. -1.
         21   -1    0    0  502  503 -0.00000000000E+00 -0.00000000000E+00 -0.41545622427E+02  0.41545622427E+02  0.00000000000E+00 0.  1.
          6    1    1    2  501    0 -0.32419184498E+02 -0.28318414842E+02  0.50290490971E+03  0.53324505094E+03  0.17200000000E+03 0. -1.
         -6    1    1    2    0  503  0.32419184498E+02  0.28318414842E+02  0.27159865142E+03  0.32434975504E+03  0.17200000000E+03 0.  1.
</event>
<event>
 4    1  0.4612011E+000  0.1782271E+03  0.7818608E-02  0.1169530E+00
         21   -1    0    0  503  502  0.00000000000E+00  0.00000000000E+00  0.75785640508E+02  0.75785640508E+02  0.00000000000E+00 0. -1.
         21   -1    0    0  501  503 -0.00000000000E+00 -0.00000000000E+00 -0.58000534145E+03  0.58000534145E+03  0.00000000000E+00 0. -1.
          6    1    1    2  501    0 -0.39277742603E+02 -0.25261816037E+02 -0.42479253189E+03  0.46066646890E+03  0.17200000000E+03 0. -1.
         -6    1    1    2    0  502  0.39277742603E+02  0.25261816037E+02 -0.79427169046E+02  0.19512451306E+03  0.17200000000E+03 0. -1.
</event>
<event>
 4    1  0.4612011E+000  0.1724761E+03  0.7818608E-02  0.1175290E+00
         21   -1    0    0  501  502  0.00000000000E+00  0.00000000000E+00  0.19975738270E+03  0.19975738270E+03  0.00000000000E+00 0. -1.
         21   -1    0    0  502  503 -0.00000000000E+00 -0.00000000000E+00 -0.17613150267E+03  0.17613150267E+03  0.00000000000E+00 0. -1.
          6    1    1    2  501    0  0.83868700271E+01 -0.96772782828E+01  0.85685379709E+02  0.19258757385E+03  0.17200000000E+03 0.  1.
         -6    1    1    2    0  503 -0.83868700271E+01  0.96772782828E+01 -0.62059499680E+02  0.18330131152E+03  0.17200000000E+03 0.  1.
</event>
<event>
 4    1  0.4612011E+000  0.2020498E+03  0.7818608E-02  0.1148021E+00
         21   -1    0    0  503  502  0.00000000000E+00  0.00000000000E+00  0.51441587824E+02  0.51441587824E+02  0.00000000000E+00 0.  1.
         21   -1    0    0  501  503 -0.00000000000E+00 -0.00000000000E+00 -0.17884960600E+04  0.17884960600E+04  0.00000000000E+00 0.  1.
          6    1    1    2  501    0  0.85568296996E+01  0.10567356599E+03 -0.15546749832E+04  0.15677494778E+04  0.17200000000E+03 0.  1.
         -6    1    1    2    0  502 -0.85568296996E+01 -0.10567356599E+03 -0.18237948900E+03  0.27218817001E+03  0.17200000000E+03 0.  1.
</event>
<event>
 4    1  0.4612011E+000  0.2247164E+03  0.7818608E-02  0.1130415E+00
         21   -1    0    0  503  502  0.00000000000E+00  0.00000000000E+00  0.58940386200E+03  0.58940386200E+03  0.00000000000E+00 0. -1.
         21   -1    0    0  501  503 -0.00000000000E+00 -0.00000000000E+00 -0.96157698669E+02  0.96157698669E+02  0.00000000000E+00 0.  1.
          6    1    1    2  501    0  0.14378853764E+03  0.15437335712E+02  0.35979825737E+03  0.42420778034E+03  0.17200000000E+03 0. -1.
         -6    1    1    2    0  502 -0.14378853764E+03 -0.15437335712E+02  0.13344790596E+03  0.26135378033E+03  0.17200000000E+03 0.  1.
</event>
<event>
 4    1  0.4612011E+000  0.1965446E+03  0.7818608E-02  0.1152688E+00
         21   -1    0    0  503  502  0.00000000000E+00  0.00000000000E+00  0.13256170888E+04  0.13256170888E+04  0.00000000000E+00 0. -1.
         21   -1    0    0  501  503 -0.00000000000E+00 -0.00000000000E+00 -0.85577509315E+02  0.85577509315E+02  0.00000000000E+00 0. -1.
          6    1    1    2  501    0  0.93750359091E+02  0.16020415057E+02  0.47016348255E+02  0.20208988231E+03  0.17200000000E+03 0. -1.
         -6    1    1    2    0  502 -0.93750359091E+02 -0.16020415057E+02  0.11930232312E+04  0.12091047158E+04  0.17200000000E+03 0. -1.
</event>
<event>
 4    1  0.4612011E+000  0.2186975E+03  0.7818608E-02  0.1134858E+00
         21   -1    0    0  503  502  0.00000000000E+00  0.00000000000E+00  0.79660816826E+03  0.79660816826E+03  0.00000000000E+00 0. -1.
         21   -1    0    0  501  503 -0.00000000000E+00 -0.00000000000E+00 -0.60738731906E+02  0.60738731906E+02  0.00000000000E+00 0. -1.
          6    1    1    2  501    0 -0.65944083168E+02 -0.11788117606E+03  0.32196671727E+03  0.38921865424E+03  0.17200000000E+03 0. -1.
         -6    1    1    2    0  502  0.65944083168E+02  0.11788117606E+03  0.41390271908E+03  0.46812824593E+03  0.17200000000E+03 0. -1.
</event>
<event>
 4    1  0.4612011E+000  0.1832162E+03  0.7818608E-02  0.1164726E+00
         21   -1    0    0  501  502  0.00000000000E+00  0.00000000000E+00  0.36021006298E+02  0.36021006298E+02  0.00000000000E+00 0. -1.
         21   -1    0    0  502  503 -0.00000000000E+00 -0.00000000000E+00 -0.16998013489E+04  0.16998013489E+04  0.00000000000E+00 0. -1.
          6    1    1    2  501    0  0.48287263312E+02 -0.40651033568E+02 -0.24854257047E+03  0.30877431186E+03  0.17200000000E+03 0. -1.
         -6    1    1    2    0  503 -0.48287263312E+02  0.40651033568E+02 -0.14152377721E+04  0.14270480433E+04  0.17200000000E+03 0. -1.
</event>
<event>
 4    1  0.4612011E+000  0.2645995E+03  0.7818608E-02  0.1104411E+00
         21   -1    0    0  503  502  0.00000000000E+00  0.00000000000E+00  0.29976455798E+03  0.29976455798E+03  0.00000000000E+00 0.  1.
         21   -1    0    0  501  503 -0.00000000000E+00 -0.00000000000E+00 -0.40252620707E+03  0.40252620707E+03  0.00000000000E+00 0.  1.
          6    1    1    2  501    0  0.19140299838E+03 -0.61593601544E+02 -0.27888552239E+03  0.38443466823E+03  0.17200000000E+03 0.  1.
         -6    1    1    2    0  502 -0.19140299838E+03  0.61593601544E+02  0.17612387330E+03  0.31785609682E+03  0.17200000000E+03 0.  1.
</event>
<event>
 4    1  0.4612011E+000  0.1875039E+03  0.7818608E-02  0.1160732E+00
         21   -1    0    0  503  502  0.00000000000E+00  0.00000000000E+00  0.17305804509E+03  0.17305804509E+03  0.00000000000E+00 0. -1.
         21   -1    0    0  501  503 -0.00000000000E+00 -0.00000000000E+00 -0.40215677176E+03  0.40215677176E+03  0.00000000000E+00 0. -1.
          6    1    1    2  501    0 -0.61891379404E+02 -0.41751413136E+02 -0.31686530962E+03  0.36818656654E+03  0.17200000000E+03 0. -1.
         -6    1    1    2    0  502  0.61891379404E+02  0.41751413136E+02  0.87766582952E+02  0.20702825031E+03  0.17200000000E+03 0. -1.
</event>
<event>
 4    1  0.4612011E+000  0.2228296E+03  0.7818608E-02  0.1131791E+00
         21   -1    0    0  503  502  0.00000000000E+00  0.00000000000E+00  0.68754714575E+02  0.68754714575E+02  0.00000000000E+00 0.  1.
         21   -1    0    0  501  503 -0.00000000000E+00 -0.00000000000E+00 -0.16031318250E+04  0.16031318250E+04  0.00000000000E+00 0.  1.
          6    1    1    2  501    0 -0.65939856279E+02 -0.12538322381E+03 -0.13868710212E+04  0.14046580534E+04  0.17200000000E+03 0.  1.
         -6    1    1    2    0  502  0.65939856279E+02  0.12538322381E+03 -0.14750608914E+03  0.26722848612E+03  0.17200000000E+03 0.  1.
</event>
<event>
 4    1  0.4612011E+000  0.2811992E+03  0.7818608E-02  0.1095036E+00
         21   -1    0    0  501  502  0.00000000000E+00  0.00000000000E+00  0.60002910817E+03  0.60002910817E+03  0.00000000000E+00 0. -1.
         21   -1    0    0  502  503 -0.00000000000E+00 -0.00000000000E+00 -0.25204594932E+03  0.25204594932E+03  0.00000000000E+00 0. -1.
          6    1    1    2  501    0 -0.16764700759E+02  0.22182859739E+03  0.46828183989E+03  0.54622418784E+03  0.17200000000E+03 0. -1.
         -6    1    1    2    0  503  0.16764700759E+02 -0.22182859739E+03 -0.12029868103E+03  0.30585086965E+03  0.17200000000E+03 0. -1.
</event>
<event>
 4    1  0.4612011E+000  0.1730882E+03  0.7818608E-02  0.1174665E+00
         21   -1    0    0  503  502  0.00000000000E+00  0.00000000000E+00  0.11297179996E+03  0.11297179996E+03  0.00000000000E+00 0. -1.
         21   -1    0    0  501  503 -0.00000000000E+00 -0.00000000000E+00 -0.85400026002E+03  0.85400026002E+03  0.00000000000E+00 0. -1.
          6    1    1    2  501    0 -0.95304668424E+00 -0.19354962571E+02 -0.77197293448E+03  0.79113951642E+03  0.17200000000E+03 0. -1.
         -6    1    1    2    0  502  0.95304668424E+00  0.19354962571E+02  0.30944474421E+02  0.17583254355E+03  0.17200000000E+03 0. -1.
</event>
<event>
 4    1  0.4612011E+000  0.2548252E+03  0.7818608E-02  0.1110293E+00
         21   -1    0    0  503  502  0.00000000000E+00  0.00000000000E+00  0.23383355271E+03  0.23383355271E+03  0.00000000000E+00 0. -1.
         21   -1    0    0  501  503 -0.00000000000E+00 -0.00000000000E+00 -0.78212577728E+03  0.78212577728E+03  0.00000000000E+00 0.  1.
          6    1    1    2  501    0 -0.77714344696E+02 -0.17120851706E+03 -0.68209533941E+03  0.72814142014E+03  0.17200000000E+03 0.  1.
         -6    1    1    2    0  502  0.77714344696E+02  0.17120851706E+03  0.13380311484E+03  0.28781790984E+03  0.17200000000E+03 0. -1.
</event>
<event>
 4    1  0.4612011E+000  0.3460867E+03  0.7818608E-02  0.1064233E+00
         21   -1    0    0  503  502  0.00000000000E+00  0.00000000000E+00  0.18755597178E+03  0.18755597178E+03  0.00000000000E+00 0. -1.
         21   -1    0    0  501  503 -0.00000000000E+00 -0.00000000000E+00 -0.17139178343E+04  0.17139178343E+04  0.00000000000E+00 0.  1.
          6    1    1    2  501    0 -0.20938116662E+03 -0.21529407225E+03 -0.15162430429E+04  0.15552392021E+04  0.17200000000E+03 0.  1.
         -6    1    1    2    0  502  0.20938116662E+03  0.21529407225E+03 -0.10118819572E+02  0.34623460398E+03  0.17200000000E+03 0. -1.
</event>
<event>
 4    1  0.4612011E+000  0.2494771E+03  0.7818608E-02  0.1113636E+00
         21   -1    0    0  501  502  0.00000000000E+00  0.00000000000E+00  0.11560788886E+04  0.11560788886E+04  0.00000000000E+00 0.  1.
         21   -1    0    0  502  503 -0.00000000000E+00 -0.00000000000E+00 -0.54248732466E+02  0.54248732466E+02  0.00000000000E+00 0. -1.
          6    1    1    2  501    0 -0.42800623708E+02 -0.17556460186E+03  0.49813868029E+03  0.55711845026E+03  0.17200000000E+03 0. -1.
         -6    1    1    2    0  503  0.42800623708E+02  0.17556460186E+03  0.60369147579E+03  0.65320917076E+03  0.17200000000E+03 0. -1.
</event>
<event>
 4    1  0.4612011E+000  0.2072760E+03  0.7818608E-02  0.1143741E+00
         21   -1    0    0  501  502  0.00000000000E+00  0.00000000000E+00  0.67116601697E+03  0.67116601697E+03  0.00000000000E+00 0. -1.
         21   -1    0    0  502  503 -0.00000000000E+00 -0.00000000000E+00 -0.26164421659E+03  0.26164421659E+03  0.00000000000E+00 0. -1.
          6    1    1    2  501    0  0.13358800162E+02  0.11489503257E+03  0.61011591311E+03  0.64436383626E+03  0.17200000000E+03 0. -1.
         -6    1    1    2    0  503 -0.13358800162E+02 -0.11489503257E+03 -0.20059411274E+03  0.28844639730E+03  0.17200000000E+03 0. -1.
</event>
<event>
 4    1  0.4612011E+000  0.2067594E+03  0.7818608E-02  0.1144158E+00
         21   -1    0    0  503  502  0.00000000000E+00  0.00000000000E+00  0.13808595560E+03  0.13808595560E+03  0.00000000000E+00 0. -1.
         21   -1    0    0  501  503 -0.00000000000E+00 -0.00000000000E+00 -0.53153489935E+03  0.53153489935E+03  0.00000000000E+00 0.  1.
          6    1    1    2  501    0  0.10762542958E+03  0.39776920718E+02 -0.41307595639E+03  0.46193201043E+03  0.17200000000E+03 0.  1.
         -6    1    1    2    0  502 -0.10762542958E+03 -0.39776920718E+02  0.19627012637E+02  0.20768884452E+03  0.17200000000E+03 0. -1.
</event>
<event>
 4    1  0.4612011E+000  0.2334712E+03  0.7818608E-02  0.1124220E+00
         21   -1    0    0  503  502  0.00000000000E+00  0.00000000000E+00  0.15626415592E+03  0.15626415592E+03  0.00000000000E+00 0.  1.
         21   -1    0    0  501  503 -0.00000000000E+00 -0.00000000000E+00 -0.39983035577E+03  0.39983035577E+03  0.00000000000E+00 0. -1.
          6    1    1    2  501    0 -0.47832102851E+02 -0.15045568624E+03 -0.22109223134E+03  0.32154408460E+03  0.17200000000E+03 0. -1.
         -6    1    1    2    0  502  0.47832102851E+02  0.15045568624E+03 -0.22473968514E+02  0.23455042708E+03  0.17200000000E+03 0.  1.
</event>
<event>
 4    1  0.4612011E+000  0.3878640E+03  0.7818608E-02  0.1048065E+00
         21   -1    0    0  503  502  0.00000000000E+00  0.00000000000E+00  0.50270285402E+03  0.50270285402E+03  0.00000000000E+00 0.  1.
         21   -1    0    0  501  503 -0.00000000000E+00 -0.00000000000E+00 -0.29942231628E+03  0.29942231628E+03  0.00000000000E+00 0.  1.
          6    1    1    2  501    0  0.19916887418E+03 -0.28493203585E+03  0.11099824933E+03  0.40343415429E+03  0.17200000000E+03 0.  1.
         -6    1    1    2    0  502 -0.19916887418E+03  0.28493203585E+03  0.92282288406E+02  0.39869101601E+03  0.17200000000E+03 0.  1.
</event>
<event>
 4    1  0.4612011E+000  0.1721063E+03  0.7818608E-02  0.1175669E+00
         21   -1    0    0  501  502  0.00000000000E+00  0.00000000000E+00  0.23879751216E+03  0.23879751216E+03  0.00000000000E+00 0.  1.
         21   -1    0    0  502  503 -0.00000000000E+00 -0.00000000000E+00 -0.13493621104E+03  0.13493621104E+03  0.00000000000E+00 0.  1.
          6    1    1    2  501    0  0.56252202549E+01  0.22215744290E+01 -0.11693487354E+01  0.17211027242E+03  0.17200000000E+03 0. -1.
         -6    1    1    2    0  503 -0.56252202549E+01 -0.22215744290E+01  0.10503064986E+03  0.20162345078E+03  0.17200000000E+03 0. -1.
</event>
<event>
 4    1  0.4612011E+000  0.2119812E+03  0.7818608E-02  0.1140007E+00
         21   -1    0    0  503  502  0.00000000000E+00  0.00000000000E+00  0.57908786808E+02  0.57908786808E+02  0.00000000000E+00 0. -1.
         21   -1    0    0  501  503 -0.00000000000E+00 -0.00000000000E+00 -0.93421648519E+03  0.93421648519E+03  0.00000000000E+00 0.  1.
          6    1    1    2  501    0  0.79193974202E+02  0.95290725779E+02 -0.64231227548E+03  0.67638825183E+03  0.17200000000E+03 0.  1.
         -6    1    1    2    0  502 -0.79193974202E+02 -0.95290725779E+02 -0.23399542289E+03  0.31573702017E+03  0.17200000000E+03 0. -1.
</event>
<event>
 4    1  0.4612011E+000  0.1859889E+03  0.7818608E-02  0.1162130E+00
         21   -1    0    0  503  502  0.00000000000E+00  0.00000000000E+00  0.13778329928E+03  0.13778329928E+03  0.00000000000E+00 0. -1.
         21   -1    0    0  501  503 -0.00000000000E+00 -0.00000000000E+00 -0.27925440895E+03  0.27925440895E+03  0.00000000000E+00 0. -1.
          6    1    1    2  501    0 -0.65867379068E+02 -0.25872068977E+02 -0.13699179417E+03  0.23099486412E+03  0.17200000000E+03 0. -1.
         -6    1    1    2    0  502  0.65867379068E+02  0.25872068977E+02 -0.44793154971E+01  0.18604284411E+03  0.17200000000E+03 0. -1.
</event>
<event>
 4    1  0.4612011E+000  0.1816137E+03  0.7818608E-02  0.1166250E+00
         21   -1    0    0  503  502  0.00000000000E+00  0.00000000000E+00  0.13018009156E+03  0.13018009156E+03  0.00000000000E+00 0.  1.
         21   -1    0    0  501  503 -0.00000000000E+00 -0.00000000000E+00 -0.25426421200E+03  0.25426421200E+03  0.00000000000E+00 0.  1.
          6    1    1    2  501    0  0.35000422106E+02  0.46631571704E+02 -0.73451066269E+02  0.19590454860E+03  0.17200000000E+03 0.  1.
         -6    1    1    2    0  502 -0.35000422106E+02 -0.46631571704E+02 -0.50633054171E+02  0.18853975496E+03  0.17200000000E+03 0.  1.
</event>
<event>
 4    1  0.4612011E+000  0.2121935E+03  0.7818608E-02  0.1139841E+00
         21   -1    0    0  503  502  0.00000000000E+00  0.00000000000E+00  0.43852630679E+03  0.43852630679E+03  0.00000000000E+00 0.  1.
         21   -1    0    0  501  503 -0.00000000000E+00 -0.00000000000E+00 -0.11532792279E+03  0.11532792279E+03  0.00000000000E+00 0.  1.
          6    1    1    2  501    0  0.84753598811E+02 -0.90878485698E+02  0.69876101205E+02  0.22340264366E+03  0.17200000000E+03 0.  1.
         -6    1    1    2    0  502 -0.84753598811E+02  0.90878485698E+02  0.25332228280E+03  0.33045158592E+03  0.17200000000E+03 0.  1.
</event>
<event>
 4    1  0.4612011E+000  0.2428944E+03  0.7818608E-02  0.1117880E+00
         21   -1    0    0  503  502  0.00000000000E+00  0.00000000000E+00  0.71339471515E+03  0.71339471515E+03  0.00000000000E+00 0. -1.
         21   -1    0    0  501  503 -0.00000000000E+00 -0.00000000000E+00 -0.87022995098E+02  0.87022995098E+02  0.00000000000E+00 0. -1.
          6    1    1    2  501    0  0.17118258883E+03 -0.10498533152E+02  0.22398578447E+03  0.33040479652E+03  0.17200000000E+03 0. -1.
         -6    1    1    2    0  502 -0.17118258883E+03  0.10498533152E+02  0.40238593558E+03  0.47001291373E+03  0.17200000000E+03 0. -1.
</event>
<event>
 4    1  0.4612011E+000  0.2311749E+03  0.7818608E-02  0.1125816E+00
         21   -1    0    0  503  502  0.00000000000E+00  0.00000000000E+00  0.37688427769E+03  0.37688427769E+03  0.00000000000E+00 0. -1.
         21   -1    0    0  501  503 -0.00000000000E+00 -0.00000000000E+00 -0.20971004709E+03  0.20971004709E+03  0.00000000000E+00 0.  1.
          6    1    1    2  501    0  0.88130054570E+02  0.12685010449E+03 -0.83317405718E+02  0.24573083979E+03  0.17200000000E+03 0.  1.
         -6    1    1    2    0  502 -0.88130054570E+02 -0.12685010449E+03  0.25049163632E+03  0.34086348498E+03  0.17200000000E+03 0.  1.
</event>
<event>
 4    1  0.4612011E+000  0.1881871E+03  0.7818608E-02  0.1160107E+00
         21   -1    0    0  501  502  0.00000000000E+00  0.00000000000E+00  0.12002279286E+03  0.12002279286E+03  0.00000000000E+00 0.  1.
         21   -1    0    0  502  503 -0.00000000000E+00 -0.00000000000E+00 -0.42017060130E+03  0.42017060130E+03  0.00000000000E+00 0.  1.
          6    1    1    2  501    0  0.39057991679E+02  0.65611494769E+02 -0.26911373090E+01  0.18820636860E+03  0.17200000000E+03 0.  1.
         -6    1    1    2    0  503 -0.39057991679E+02 -0.65611494769E+02 -0.29745667113E+03  0.35198702556E+03  0.17200000000E+03 0.  1.
</event>
<event>
 4    1  0.4612011E+000  0.1999833E+03  0.7818608E-02  0.1149753E+00
         21   -1    0    0  503  502  0.00000000000E+00  0.00000000000E+00  0.35758639678E+03  0.35758639678E+03  0.00000000000E+00 0.  1.
         21   -1    0    0  501  503 -0.00000000000E+00 -0.00000000000E+00 -0.22295316612E+03  0.22295316612E+03  0.00000000000E+00 0. -1.
          6    1    1    2  501    0 -0.10130023939E+03  0.12148767641E+02 -0.13759803958E+03  0.24274791771E+03  0.17200000000E+03 0. -1.
         -6    1    1    2    0  502  0.10130023939E+03 -0.12148767641E+02  0.27223127024E+03  0.33779164518E+03  0.17200000000E+03 0.  1.
</event>
<event>
 4    1  0.4612011E+000  0.2059829E+03  0.7818608E-02  0.1144787E+00
         21   -1    0    0  501  502  0.00000000000E+00  0.00000000000E+00  0.47252473802E+02  0.47252473802E+02  0.00000000000E+00 0. -1.
         21   -1    0    0  502  503 -0.00000000000E+00 -0.00000000000E+00 -0.10409314043E+04  0.10409314043E+04  0.00000000000E+00 0. -1.
          6    1    1    2  501    0 -0.10991998327E+03  0.27614231379E+02 -0.29516712418E+03  0.35993413244E+03  0.17200000000E+03 0. -1.
         -6    1    1    2    0  503  0.10991998327E+03 -0.27614231379E+02 -0.69851180635E+03  0.72824974570E+03  0.17200000000E+03 0. -1.
</event>
<event>
 4    1  0.4612011E+000  0.1826126E+03  0.7818608E-02  0.1165298E+00
         21   -1    0    0  501  502  0.00000000000E+00  0.00000000000E+00  0.80760304026E+03  0.80760304026E+03  0.00000000000E+00 0.  1.
         21   -1    0    0  502  503 -0.00000000000E+00 -0.00000000000E+00 -0.65141539603E+02  0.65141539603E+02  0.00000000000E+00 0.  1.
          6    1    1    2  501    0 -0.23623628087E+02  0.56615294622E+02  0.63527101206E+03  0.66099669148E+03  0.17200000000E+03 0.  1.
         -6    1    1    2    0  503  0.23623628087E+02 -0.56615294622E+02  0.10719048860E+03  0.21174788839E+03  0.17200000000E+03 0.  1.
</event>
<event>
 4    1  0.4612011E+000  0.3510301E+03  0.7818608E-02  0.1062193E+00
         21   -1    0    0  503  502  0.00000000000E+00  0.00000000000E+00  0.48221010304E+03  0.48221010304E+03  0.00000000000E+00 0.  1.
         21   -1    0    0  501  503 -0.00000000000E+00 -0.00000000000E+00 -0.37225620595E+03  0.37225620595E+03  0.00000000000E+00 0. -1.
          6    1    1    2  501    0 -0.21210301136E+03 -0.22056846066E+03 -0.18425360252E+03  0.39644863893E+03  0.17200000000E+03 0. -1.
         -6    1    1    2    0  502  0.21210301136E+03  0.22056846066E+03  0.29420749961E+03  0.45801767006E+03  0.17200000000E+03 0.  1.
</event>
<event>
 4    1  0.4612011E+000  0.1756095E+03  0.7818608E-02  0.1172121E+00
         21   -1    0    0  503  502  0.00000000000E+00  0.00000000000E+00  0.64973987334E+02  0.64973987334E+02  0.00000000000E+00 0. -1.
         21   -1    0    0  501  503 -0.00000000000E+00 -0.00000000000E+00 -0.55193199440E+03  0.55193199440E+03  0.00000000000E+00 0. -1.
          6    1    1    2  501    0  0.25201959753E+02  0.24890683510E+02 -0.35891414394E+03  0.39957233090E+03  0.17200000000E+03 0. -1.
         -6    1    1    2    0  502 -0.25201959753E+02 -0.24890683510E+02 -0.12804386313E+03  0.21733365084E+03  0.17200000000E+03 0. -1.
</event>
<event>
 4    1  0.4612011E+000  0.2569786E+03  0.7818608E-02  0.1108972E+00
         21   -1    0    0  503  502  0.00000000000E+00  0.00000000000E+00  0.35969693939E+03  0.35969693939E+03  0.00000000000E+00 0. -1.
         21   -1    0    0  501  503 -0.00000000000E+00 -0.00000000000E+00 -0.19148097852E+03  0.19148097852E+03  0.00000000000E+00 0.  1.
          6    1    1    2  501    0  0.16145098607E+03 -0.10191948786E+03  0.14004114629E+03  0.29265940197E+03  0.17200000000E+03 0. -1.
         -6    1    1    2    0  502 -0.16145098607E+03  0.10191948786E+03  0.28174814590E+02  0.25851851594E+03  0.17200000000E+03 0.  1.
</event>
<event>
 4    1  0.4612011E+000  0.1816837E+03  0.7818608E-02  0.1166183E+00
         21   -1    0    0  503  502  0.00000000000E+00  0.00000000000E+00  0.32753349948E+02  0.32753349948E+02  0.00000000000E+00 0. -1.
         21   -1    0    0  501  503 -0.00000000000E+00 -0.00000000000E+00 -0.10091582317E+04  0.10091582317E+04  0.00000000000E+00 0. -1.
          6    1    1    2  501    0 -0.43741353068E+02  0.38880093353E+02 -0.46912078198E+03  0.50307382730E+03  0.17200000000E+03 0. -1.
         -6    1    1    2    0  502  0.43741353068E+02 -0.38880093353E+02 -0.50728409973E+03  0.53883775431E+03  0.17200000000E+03 0. -1.
</event>
<event>
 4    1  0.4612011E+000  0.2632120E+03  0.7818608E-02  0.1105229E+00
         21   -1    0    0  501  502  0.00000000000E+00  0.00000000000E+00  0.20848271560E+03  0.20848271560E+03  0.00000000000E+00 0. -1.
         21   -1    0    0  502  503 -0.00000000000E+00 -0.00000000000E+00 -0.33332634453E+03  0.33332634453E+03  0.00000000000E+00 0.  1.
          6    1    1    2  501    0  0.15502290793E+03  0.12515777040E+03 -0.77392145437E+02  0.27435399332E+03  0.17200000000E+03 0.  1.
         -6    1    1    2    0  503 -0.15502290793E+03 -0.12515777040E+03 -0.47451483486E+02  0.26745506681E+03  0.17200000000E+03 0. -1.
</event>
<event>
 4    1  0.4612011E+000  0.2376752E+03  0.7818608E-02  0.1121351E+00
         21   -1    0    0  501  502  0.00000000000E+00  0.00000000000E+00  0.41832638169E+03  0.41832638169E+03  0.00000000000E+00 0.  1.
         21   -1    0    0  502  503 -0.00000000000E+00 -0.00000000000E+00 -0.19301144755E+03  0.19301144755E+03  0.00000000000E+00 0. -1.
          6    1    1    2  501    0 -0.63098139581E+02  0.15140721724E+03 -0.54866990361E+02  0.24392602830E+03  0.17200000000E+03 0. -1.
         -6    1    1    2    0  503  0.63098139581E+02 -0.15140721724E+03  0.28018192451E+03  0.36741180094E+03  0.17200000000E+03 0.  1.
</event>
<event>
 4    1  0.4612011E+000  0.1822424E+03  0.7818608E-02  0.1165650E+00
         21   -1    0    0  501  502  0.00000000000E+00  0.00000000000E+00  0.11187677711E+03  0.11187677711E+03  0.00000000000E+00 0.  1.
         21   -1    0    0  502  503 -0.00000000000E+00 -0.00000000000E+00 -0.44912097795E+03  0.44912097795E+03  0.00000000000E+00 0.  1.
          6    1    1    2  501    0 -0.28223360915E+02  0.53214021573E+02 -0.53030855564E+01  0.18231953518E+03  0.17200000000E+03 0.  1.
         -6    1    1    2    0  503  0.28223360915E+02 -0.53214021573E+02 -0.33194111529E+03  0.37867821988E+03  0.17200000000E+03 0.  1.
</event>
<event>
 4    1  0.4612011E+000  0.2977564E+03  0.7818608E-02  0.1086368E+00
         21   -1    0    0  503  502  0.00000000000E+00  0.00000000000E+00  0.74574371497E+03  0.74574371497E+03  0.00000000000E+00 0.  1.
         21   -1    0    0  501  503 -0.00000000000E+00 -0.00000000000E+00 -0.18456730786E+03  0.18456730786E+03  0.00000000000E+00 0.  1.
          6    1    1    2  501    0 -0.93628229497E+02  0.22429590792E+03  0.31029871625E+01  0.29777261157E+03  0.17200000000E+03 0.  1.
         -6    1    1    2    0  502  0.93628229497E+02 -0.22429590792E+03  0.55807341995E+03  0.63253841127E+03  0.17200000000E+03 0.  1.
</event>
<event>
 4    1  0.4612011E+000  0.2192166E+03  0.7818608E-02  0.1134468E+00
         21   -1    0    0  501  502  0.00000000000E+00  0.00000000000E+00  0.37607673691E+03  0.37607673691E+03  0.00000000000E+00 0.  1.
         21   -1    0    0  502  503 -0.00000000000E+00 -0.00000000000E+00 -0.16787211084E+03  0.16787211084E+03  0.00000000000E+00 0.  1.
          6    1    1    2  501    0 -0.13565249283E+03 -0.83869279746E+01  0.23701179106E+03  0.32284753131E+03  0.17200000000E+03 0.  1.
         -6    1    1    2    0  503  0.13565249283E+03  0.83869279746E+01 -0.28807164988E+02  0.22110131643E+03  0.17200000000E+03 0.  1.
</event>
<event>
 4    1  0.4612011E+000  0.2583487E+03  0.7818608E-02  0.1108139E+00
         21   -1    0    0  501  502  0.00000000000E+00  0.00000000000E+00  0.14307338078E+04  0.14307338078E+04  0.00000000000E+00 0.  1.
         21   -1    0    0  502  503 -0.00000000000E+00 -0.00000000000E+00 -0.13245909854E+03  0.13245909854E+03  0.00000000000E+00 0. -1.
          6    1    1    2  501    0 -0.18993671320E+03  0.32925676155E+02  0.12782201107E+04  0.13040669870E+04  0.17200000000E+03 0.  1.
         -6    1    1    2    0  503  0.18993671320E+03 -0.32925676155E+02  0.20054598604E+02  0.25912591938E+03  0.17200000000E+03 0. -1.
</event>
<event>
 4    1  0.4612011E+000  0.2462146E+03  0.7818608E-02  0.1115721E+00
         21   -1    0    0  501  502  0.00000000000E+00  0.00000000000E+00  0.14384221587E+03  0.14384221587E+03  0.00000000000E+00 0. -1.
         21   -1    0    0  502  503 -0.00000000000E+00 -0.00000000000E+00 -0.42166802576E+03  0.42166802576E+03  0.00000000000E+00 0.  1.
          6    1    1    2  501    0 -0.14046308279E+03  0.10633791546E+03 -0.13241485933E+03  0.27956273869E+03  0.17200000000E+03 0.  1.
         -6    1    1    2    0  503  0.14046308279E+03 -0.10633791546E+03 -0.14541095056E+03  0.28594750294E+03  0.17200000000E+03 0. -1.
</event>
<event>
 4    1  0.4612011E+000  0.2650874E+03  0.7818608E-02  0.1104125E+00
         21   -1    0    0  503  502  0.00000000000E+00  0.00000000000E+00  0.12439528673E+04  0.12439528673E+04  0.00000000000E+00 0. -1.
         21   -1    0    0  501  503 -0.00000000000E+00 -0.00000000000E+00 -0.86327187622E+02  0.86327187622E+02  0.00000000000E+00 0.  1.
          6    1    1    2  501    0  0.12992370598E+03  0.15429564885E+03  0.18777770756E+03  0.32485655925E+03  0.17200000000E+03 0.  1.
         -6    1    1    2    0  502 -0.12992370598E+03 -0.15429564885E+03  0.96984797216E+03  0.10054234957E+04  0.17200000000E+03 0. -1.
</event>
<event>
 4    1  0.4612011E+000  0.2043959E+03  0.7818608E-02  0.1146082E+00
         21   -1    0    0  501  502  0.00000000000E+00  0.00000000000E+00  0.36442829970E+03  0.36442829970E+03  0.00000000000E+00 0.  1.
         21   -1    0    0  502  503 -0.00000000000E+00 -0.00000000000E+00 -0.37261780389E+03  0.37261780389E+03  0.00000000000E+00 0.  1.
          6    1    1    2  501    0 -0.11008115322E+03 -0.87081789321E+01  0.30254247415E+03  0.36511592863E+03  0.17200000000E+03 0.  1.
         -6    1    1    2    0  503  0.11008115322E+03  0.87081789321E+01 -0.31073197835E+03  0.37193017496E+03  0.17200000000E+03 0.  1.
</event>
<event>
 4    1  0.4612011E+000  0.3140103E+03  0.7818608E-02  0.1078439E+00
         21   -1    0    0  501  502  0.00000000000E+00  0.00000000000E+00  0.93672954386E+02  0.93672954386E+02  0.00000000000E+00 0. -1.
         21   -1    0    0  502  503 -0.00000000000E+00 -0.00000000000E+00 -0.12658507353E+04  0.12658507353E+04  0.00000000000E+00 0.  1.
          6    1    1    2  501    0  0.24325777393E+02 -0.26158497607E+03 -0.30710065265E+03  0.43921891354E+03  0.17200000000E+03 0. -1.
         -6    1    1    2    0  503 -0.24325777393E+02  0.26158497607E+03 -0.86507712822E+03  0.92030477611E+03  0.17200000000E+03 0.  1.
</event>
<event>
 4    1  0.4612011E+000  0.2160090E+03  0.7818608E-02  0.1136894E+00
         21   -1    0    0  501  502  0.00000000000E+00  0.00000000000E+00  0.27734682939E+02  0.27734682939E+02  0.00000000000E+00 0. -1.
         21   -1    0    0  502  503 -0.00000000000E+00 -0.00000000000E+00 -0.19115197278E+04  0.19115197278E+04  0.00000000000E+00 0. -1.
          6    1    1    2  501    0 -0.96984420543E+02  0.87578019763E+02 -0.60617124194E+03  0.64350871162E+03  0.17200000000E+03 0. -1.
         -6    1    1    2    0  503  0.96984420543E+02 -0.87578019763E+02 -0.12776138029E+04  0.12957456991E+04  0.17200000000E+03 0. -1.
</event>
<event>
 4    1  0.4612011E+000  0.1970419E+03  0.7818608E-02  0.1152259E+00
         21   -1    0    0  503  502  0.00000000000E+00  0.00000000000E+00  0.42862299231E+02  0.42862299231E+02  0.00000000000E+00 0. -1.
         21   -1    0    0  501  503 -0.00000000000E+00 -0.00000000000E+00 -0.90593730623E+03  0.90593730623E+03  0.00000000000E+00 0. -1.
          6    1    1    2  501    0 -0.24675768715E+02 -0.92911789098E+02 -0.43695389090E+03  0.47932681637E+03  0.17200000000E+03 0.  1.
         -6    1    1    2    0  502  0.24675768715E+02  0.92911789098E+02 -0.42612111609E+03  0.46947278909E+03  0.17200000000E+03 0.  1.
</event>
<event>
 4    1  0.4612011E+000  0.2440749E+03  0.7818608E-02  0.1117108E+00
         21   -1    0    0  501  502  0.00000000000E+00  0.00000000000E+00  0.14947438507E+03  0.14947438507E+03  0.00000000000E+00 0.  1.
         21   -1    0    0  502  503 -0.00000000000E+00 -0.00000000000E+00 -0.42342561365E+03  0.42342561365E+03  0.00000000000E+00 0.  1.
          6    1    1    2  501    0  0.92835506447E+02  0.14618522389E+03 -0.67541271036E+02  0.25324765396E+03  0.17200000000E+03 0.  1.
         -6    1    1    2    0  503 -0.92835506447E+02 -0.14618522389E+03 -0.20640995754E+03  0.31965234477E+03  0.17200000000E+03 0.  1.
</event>
<event>
 4    1  0.4612011E+000  0.1946826E+03  0.7818608E-02  0.1154304E+00
         21   -1    0    0  501  502  0.00000000000E+00  0.00000000000E+00  0.39366723969E+03  0.39366723969E+03  0.00000000000E+00 0. -1.
         21   -1    0    0  502  503 -0.00000000000E+00 -0.00000000000E+00 -0.24102872588E+03  0.24102872588E+03  0.00000000000E+00 0. -1.
          6    1    1    2  501    0  0.69287701276E+02 -0.59300386230E+02  0.32224974658E+03  0.37649199264E+03  0.17200000000E+03 0. -1.
         -6    1    1    2    0  503 -0.69287701276E+02  0.59300386230E+02 -0.16961123277E+03  0.25820397293E+03  0.17200000000E+03 0. -1.
</event>
<event>
 4    1  0.4612011E+000  0.1860700E+03  0.7818608E-02  0.1162054E+00
         21   -1    0    0  503  502  0.00000000000E+00  0.00000000000E+00  0.21355370620E+03  0.21355370620E+03  0.00000000000E+00 0. -1.
         21   -1    0    0  501  503 -0.00000000000E+00 -0.00000000000E+00 -0.17314997400E+03  0.17314997400E+03  0.00000000000E+00 0. -1.
          6    1    1    2  501    0  0.54768852427E+01 -0.70767490626E+02 -0.28591315566E+02  0.18825381092E+03  0.17200000000E+03 0. -1.
         -6    1    1    2    0  502 -0.54768852427E+01  0.70767490626E+02  0.68995047761E+02  0.19844986928E+03  0.17200000000E+03 0. -1.
</event>
<event>
 4    1  0.4612011E+000  0.2419872E+03  0.7818608E-02  0.1118476E+00
         21   -1    0    0  503  502  0.00000000000E+00  0.00000000000E+00  0.87796472488E+03  0.87796472488E+03  0.00000000000E+00 0. -1.
         21   -1    0    0  501  503 -0.00000000000E+00 -0.00000000000E+00 -0.93059514260E+02  0.93059514260E+02  0.00000000000E+00 0.  1.
          6    1    1    2  501    0  0.91613682912E+02  0.14345993043E+03  0.13404150061E+03  0.27663141980E+03  0.17200000000E+03 0.  1.
         -6    1    1    2    0  502 -0.91613682912E+02 -0.14345993043E+03  0.65086371002E+03  0.69439281934E+03  0.17200000000E+03 0. -1.
</event>
<event>
 4    1  0.4612011E+000  0.1776717E+03  0.7818608E-02  0.1170076E+00
         21   -1    0    0  501  502  0.00000000000E+00  0.00000000000E+00  0.54773920147E+02  0.54773920147E+02  0.00000000000E+00 0. -1.
         21   -1    0    0  502  503 -0.00000000000E+00 -0.00000000000E+00 -0.63356906353E+03  0.63356906353E+03  0.00000000000E+00 0. -1.
          6    1    1    2  501    0  0.87056311557E+01 -0.43674264780E+02 -0.18593878383E+03  0.25717787765E+03  0.17200000000E+03 0. -1.
         -6    1    1    2    0  503 -0.87056311557E+01  0.43674264780E+02 -0.39285635955E+03  0.43116510603E+03  0.17200000000E+03 0. -1.
</event>
<event>
 4    1  0.4612011E+000  0.1768322E+03  0.7818608E-02  0.1170904E+00
         21   -1    0    0  503  502  0.00000000000E+00  0.00000000000E+00  0.10158179989E+03  0.10158179989E+03  0.00000000000E+00 0. -1.
         21   -1    0    0  501  503 -0.00000000000E+00 -0.00000000000E+00 -0.47630957748E+03  0.47630957748E+03  0.00000000000E+00 0. -1.
          6    1    1    2  501    0 -0.40953755173E+02 -0.29040751173E+01 -0.35921358501E+03  0.40037987384E+03  0.17200000000E+03 0. -1.
         -6    1    1    2    0  502  0.40953755173E+02  0.29040751173E+01 -0.15514192574E+02  0.17751150353E+03  0.17200000000E+03 0. -1.
</event>
<event>
 4    1  0.4612011E+000  0.3479167E+03  0.7818608E-02  0.1063473E+00
         21   -1    0    0  501  502  0.00000000000E+00  0.00000000000E+00  0.17296493811E+03  0.17296493811E+03  0.00000000000E+00 0.  1.
         21   -1    0    0  502  503 -0.00000000000E+00 -0.00000000000E+00 -0.72085891689E+03  0.72085891689E+03  0.00000000000E+00 0. -1.
          6    1    1    2  501    0  0.19579570693E+03  0.23049098429E+03 -0.19761523271E+03  0.40012227243E+03  0.17200000000E+03 0.  1.
         -6    1    1    2    0  503 -0.19579570693E+03 -0.23049098429E+03 -0.35027874607E+03  0.49370158258E+03  0.17200000000E+03 0. -1.
</event>
<event>
 4    1  0.4612011E+000  0.1823300E+03  0.7818608E-02  0.1165567E+00
         21   -1    0    0  501  502  0.00000000000E+00  0.00000000000E+00  0.12124537999E+04  0.12124537999E+04  0.00000000000E+00 0.  1.
         21   -1    0    0  502  503 -0.00000000000E+00 -0.00000000000E+00 -0.27420349868E+02  0.27420349868E+02  0.00000000000E+00 0. -1.
          6    1    1    2  501    0 -0.23972784063E+02  0.55547462687E+02  0.58809358541E+03  0.61570957455E+03  0.17200000000E+03 0.  1.
         -6    1    1    2    0  503  0.23972784063E+02 -0.55547462687E+02  0.59693986461E+03  0.62416457521E+03  0.17200000000E+03 0.  1.
</event>
<event>
 4    1  0.4612011E+000  0.1927508E+03  0.7818608E-02  0.1156003E+00
         21   -1    0    0  503  502  0.00000000000E+00  0.00000000000E+00  0.38346633576E+03  0.38346633576E+03  0.00000000000E+00 0. -1.
         21   -1    0    0  501  503 -0.00000000000E+00 -0.00000000000E+00 -0.10242012094E+03  0.10242012094E+03  0.00000000000E+00 0.  1.
          6    1    1    2  501    0 -0.47355632053E+02  0.72981589268E+02  0.84055318828E+02  0.21028115675E+03  0.17200000000E+03 0.  1.
         -6    1    1    2    0  502  0.47355632053E+02 -0.72981589268E+02  0.19699089599E+03  0.27560529995E+03  0.17200000000E+03 0. -1.
</event>
<event>
 4    1  0.4612011E+000  0.3919178E+03  0.7818608E-02  0.1046615E+00
         21   -1    0    0  503  502  0.00000000000E+00  0.00000000000E+00  0.18739385693E+03  0.18739385693E+03  0.00000000000E+00 0. -1.
         21   -1    0    0  501  503 -0.00000000000E+00 -0.00000000000E+00 -0.12112133684E+04  0.12112133684E+04  0.00000000000E+00 0.  1.
          6    1    1    2  501    0  0.27657008071E+03  0.21800119140E+03 -0.90951316256E+03  0.99036039999E+03  0.17200000000E+03 0.  1.
         -6    1    1    2    0  502 -0.27657008071E+03 -0.21800119140E+03 -0.11430634890E+03  0.40824682534E+03  0.17200000000E+03 0. -1.
</event>
<event>
 4    1  0.4612011E+000  0.2835949E+03  0.7818608E-02  0.1093742E+00
         21   -1    0    0  503  502  0.00000000000E+00  0.00000000000E+00  0.20449600715E+03  0.20449600715E+03  0.00000000000E+00 0.  1.
         21   -1    0    0  501  503 -0.00000000000E+00 -0.00000000000E+00 -0.39705307295E+03  0.39705307295E+03  0.00000000000E+00 0.  1.
          6    1    1    2  501    0 -0.11287823473E+03  0.19519369111E+03 -0.12556275828E+03  0.31014847927E+03  0.17200000000E+03 0.  1.
         -6    1    1    2    0  502  0.11287823473E+03 -0.19519369111E+03 -0.66994307528E+02  0.29140060083E+03  0.17200000000E+03 0.  1.
</event>
<event>
 4    1  0.4612011E+000  0.2372595E+03  0.7818608E-02  0.1121632E+00
         21   -1    0    0  501  502  0.00000000000E+00  0.00000000000E+00  0.26652522716E+03  0.26652522716E+03  0.00000000000E+00 0. -1.
         21   -1    0    0  502  503 -0.00000000000E+00 -0.00000000000E+00 -0.64958305296E+03  0.64958305296E+03  0.00000000000E+00 0. -1.
          6    1    1    2  501    0 -0.16342582227E+03  0.25235371048E+00  0.18476115193E+03  0.30071372820E+03  0.17200000000E+03 0. -1.
         -6    1    1    2    0  503  0.16342582227E+03 -0.25235371048E+00 -0.56781897773E+03  0.61539455192E+03  0.17200000000E+03 0. -1.
</event>
<event>
 4    1  0.4612011E+000  0.1820356E+03  0.7818608E-02  0.1165847E+00
         21   -1    0    0  501  502  0.00000000000E+00  0.00000000000E+00  0.12955382127E+03  0.12955382127E+03  0.00000000000E+00 0.  1.
         21   -1    0    0  502  503 -0.00000000000E+00 -0.00000000000E+00 -0.38453768332E+03  0.38453768332E+03  0.00000000000E+00 0.  1.
          6    1    1    2  501    0 -0.57274458961E+02 -0.16510293726E+02  0.21249432984E+02  0.18327163406E+03  0.17200000000E+03 0.  1.
         -6    1    1    2    0  503  0.57274458961E+02  0.16510293726E+02 -0.27623329504E+03  0.33081987053E+03  0.17200000000E+03 0.  1.
</event>
<event>
 4    1  0.4612011E+000  0.2277958E+03  0.7818608E-02  0.1128201E+00
         21   -1    0    0  503  502  0.00000000000E+00  0.00000000000E+00  0.14391942352E+03  0.14391942352E+03  0.00000000000E+00 0. -1.
         21   -1    0    0  501  503 -0.00000000000E+00 -0.00000000000E+00 -0.36337411914E+03  0.36337411914E+03  0.00000000000E+00 0. -1.
          6    1    1    2  501    0  0.56598945981E+02  0.13821528276E+03 -0.87387043765E+02  0.24398237742E+03  0.17200000000E+03 0. -1.
         -6    1    1    2    0  502 -0.56598945981E+02 -0.13821528276E+03 -0.13206765186E+03  0.26331116524E+03  0.17200000000E+03 0. -1.
</event>
<event>
 4    1  0.4612011E+000  0.3891707E+03  0.7818608E-02  0.1047595E+00
         21   -1    0    0  501  502  0.00000000000E+00  0.00000000000E+00  0.13073989632E+04  0.13073989632E+04  0.00000000000E+00 0. -1.
         21   -1    0    0  502  503 -0.00000000000E+00 -0.00000000000E+00 -0.18979981175E+03  0.18979981175E+03  0.00000000000E+00 0.  1.
          6    1    1    2  501    0 -0.12565954962E+03  0.32569845083E+03  0.10260921780E+04  0.10974146714E+04  0.17200000000E+03 0. -1.
         -6    1    1    2    0  503  0.12565954962E+03 -0.32569845083E+03  0.91506973520E+02  0.39978410359E+03  0.17200000000E+03 0.  1.
</event>
<event>
 4    1  0.4612011E+000  0.2997194E+03  0.7818608E-02  0.1085381E+00
         21   -1    0    0  503  502  0.00000000000E+00  0.00000000000E+00  0.86211603485E+03  0.86211603485E+03  0.00000000000E+00 0.  1.
         21   -1    0    0  501  503 -0.00000000000E+00 -0.00000000000E+00 -0.23297979532E+03  0.23297979532E+03  0.00000000000E+00 0. -1.
          6    1    1    2  501    0 -0.24125471697E+03 -0.45209143580E+02 -0.92519975216E+02  0.31367443462E+03  0.17200000000E+03 0. -1.
         -6    1    1    2    0  502  0.24125471697E+03  0.45209143580E+02  0.72165621474E+03  0.78142139554E+03  0.17200000000E+03 0.  1.
</event>
<event>
 4    1  0.4612011E+000  0.1882463E+03  0.7818608E-02  0.1160053E+00
         21   -1    0    0  503  502  0.00000000000E+00  0.00000000000E+00  0.34435815986E+03  0.34435815986E+03  0.00000000000E+00 0. -1.
         21   -1    0    0  501  503 -0.00000000000E+00 -0.00000000000E+00 -0.16157488586E+03  0.16157488586E+03  0.00000000000E+00 0. -1.
          6    1    1    2  501    0  0.76337960123E+02  0.50184104797E+01 -0.61041172490E+02  0.19789566276E+03  0.17200000000E+03 0. -1.
         -6    1    1    2    0  502 -0.76337960123E+02 -0.50184104797E+01  0.24382444649E+03  0.30803738297E+03  0.17200000000E+03 0. -1.
</event>
<event>
 4    1  0.4612011E+000  0.1811742E+03  0.7818608E-02  0.1166672E+00
         21   -1    0    0  503  502  0.00000000000E+00  0.00000000000E+00  0.31260333501E+02  0.31260333501E+02  0.00000000000E+00 0.  1.
         21   -1    0    0  501  503 -0.00000000000E+00 -0.00000000000E+00 -0.10501220488E+04  0.10501220488E+04  0.00000000000E+00 0. -1.
          6    1    1    2  501    0 -0.27422243307E+02  0.49880838009E+02 -0.51467499029E+03  0.54563213163E+03  0.17200000000E+03 0. -1.
         -6    1    1    2    0  502  0.27422243307E+02 -0.49880838009E+02 -0.50418672501E+03  0.53575025068E+03  0.17200000000E+03 0.  1.
</event>
<event>
 4    1  0.4612011E+000  0.2628786E+03  0.7818608E-02  0.1105426E+00
         21   -1    0    0  503  502  0.00000000000E+00  0.00000000000E+00  0.16166950293E+03  0.16166950293E+03  0.00000000000E+00 0. -1.
         21   -1    0    0  501  503 -0.00000000000E+00 -0.00000000000E+00 -0.52574170981E+03  0.52574170981E+03  0.00000000000E+00 0.  1.
          6    1    1    2  501    0  0.44108898851E+02 -0.19384416530E+03 -0.33420189439E+02  0.26499446115E+03  0.17200000000E+03 0. -1.
         -6    1    1    2    0  502 -0.44108898851E+02  0.19384416530E+03 -0.33065201745E+03  0.42241675159E+03  0.17200000000E+03 0.  1.
</event>
<event>
 4    1  0.4612011E+000  0.1845487E+03  0.7818608E-02  0.1163472E+00
         21   -1    0    0  501  502  0.00000000000E+00  0.00000000000E+00  0.52680082313E+02  0.52680082313E+02  0.00000000000E+00 0. -1.
         21   -1    0    0  502  503 -0.00000000000E+00 -0.00000000000E+00 -0.64911304396E+03  0.64911304396E+03  0.00000000000E+00 0. -1.
          6    1    1    2  501    0  0.51280822236E+02 -0.42947812429E+02 -0.27599870324E+03  0.33201433932E+03  0.17200000000E+03 0. -1.
         -6    1    1    2    0  503 -0.51280822236E+02  0.42947812429E+02 -0.32043425840E+03  0.36977878695E+03  0.17200000000E+03 0. -1.
</event>
<event>
 4    1  0.4612011E+000  0.2107043E+03  0.7818608E-02  0.1141009E+00
         21   -1    0    0  503  502  0.00000000000E+00  0.00000000000E+00  0.20309483401E+03  0.20309483401E+03  0.00000000000E+00 0. -1.
         21   -1    0    0  501  503 -0.00000000000E+00 -0.00000000000E+00 -0.21860400742E+03  0.21860400742E+03  0.00000000000E+00 0.  1.
          6    1    1    2  501    0 -0.93630467254E+02  0.77753819295E+02 -0.67420779613E+01  0.21081218283E+03  0.17200000000E+03 0. -1.
         -6    1    1    2    0  502  0.93630467254E+02 -0.77753819295E+02 -0.87670954472E+01  0.21088665860E+03  0.17200000000E+03 0.  1.
</event>
<event>
 4    1  0.4612011E+000  0.1949879E+03  0.7818608E-02  0.1154038E+00
         21   -1    0    0  503  502  0.00000000000E+00  0.00000000000E+00  0.35961331303E+03  0.35961331303E+03  0.00000000000E+00 0.  1.
         21   -1    0    0  501  503 -0.00000000000E+00 -0.00000000000E+00 -0.12132135342E+03  0.12132135342E+03  0.00000000000E+00 0.  1.
          6    1    1    2  501    0 -0.25087448489E+02 -0.88356638058E+02  0.32928985388E+02  0.19774881451E+03  0.17200000000E+03 0.  1.
         -6    1    1    2    0  502  0.25087448489E+02  0.88356638058E+02  0.20536297422E+03  0.28318585194E+03  0.17200000000E+03 0.  1.
</event>
<event>
 4    1  0.4612011E+000  0.1950886E+03  0.7818608E-02  0.1153950E+00
         21   -1    0    0  503  502  0.00000000000E+00  0.00000000000E+00  0.57153549959E+03  0.57153549959E+03  0.00000000000E+00 0. -1.
         21   -1    0    0  501  503 -0.00000000000E+00 -0.00000000000E+00 -0.11334139070E+03  0.11334139070E+03  0.00000000000E+00 0. -1.
          6    1    1    2  501    0 -0.91969587065E+02 -0.41399585703E+01  0.91706234635E+01  0.19530397983E+03  0.17200000000E+03 0. -1.
         -6    1    1    2    0  502  0.91969587065E+02  0.41399585703E+01  0.44902348542E+03  0.48957291047E+03  0.17200000000E+03 0. -1.
</event>
<event>
 4    1  0.4612011E+000  0.2652705E+03  0.7818608E-02  0.1104017E+00
         21   -1    0    0  501  502  0.00000000000E+00  0.00000000000E+00  0.20906245396E+03  0.20906245396E+03  0.00000000000E+00 0. -1.
         21   -1    0    0  502  503 -0.00000000000E+00 -0.00000000000E+00 -0.42092687006E+03  0.42092687006E+03  0.00000000000E+00 0.  1.
          6    1    1    2  501    0  0.19873026034E+03 -0.35926344054E+02  0.35064033112E+02  0.26757784847E+03  0.17200000000E+03 0. -1.
         -6    1    1    2    0  503 -0.19873026034E+03  0.35926344054E+02 -0.24692844921E+03  0.36241147554E+03  0.17200000000E+03 0.  1.
</event>
<event>
 4    1  0.4612011E+000  0.1769295E+03  0.7818608E-02  0.1170808E+00
         21   -1    0    0  503  502  0.00000000000E+00  0.00000000000E+00  0.64843117520E+02  0.64843117520E+02  0.00000000000E+00 0.  1.
         21   -1    0    0  501  503 -0.00000000000E+00 -0.00000000000E+00 -0.56664663455E+03  0.56664663455E+03  0.00000000000E+00 0.  1.
          6    1    1    2  501    0 -0.31073701773E+02  0.27467562181E+02 -0.37238361767E+03  0.41227854737E+03  0.17200000000E+03 0.  1.
         -6    1    1    2    0  502  0.31073701773E+02 -0.27467562181E+02 -0.12941989936E+03  0.21921120469E+03  0.17200000000E+03 0.  1.
</event>
<event>
 4    1  0.4612011E+000  0.1984271E+03  0.7818608E-02  0.1151073E+00
         21   -1    0    0  501  502  0.00000000000E+00  0.00000000000E+00  0.81821679265E+03  0.81821679265E+03  0.00000000000E+00 0. -1.
         21   -1    0    0  502  503 -0.00000000000E+00 -0.00000000000E+00 -0.42244857573E+03  0.42244857573E+03  0.00000000000E+00 0. -1.
          6    1    1    2  501    0 -0.66897166295E+02 -0.72897759806E+02  0.78181804744E+03  0.80660571132E+03  0.17200000000E+03 0. -1.
         -6    1    1    2    0  503  0.66897166295E+02  0.72897759806E+02 -0.38604983051E+03  0.43405965705E+03  0.17200000000E+03 0. -1.
</event>
<event>
 4    1  0.4612011E+000  0.2083408E+03  0.7818608E-02  0.1142887E+00
         21   -1    0    0  503  502  0.00000000000E+00  0.00000000000E+00  0.36699499941E+03  0.36699499941E+03  0.00000000000E+00 0. -1.
         21   -1    0    0  501  503 -0.00000000000E+00 -0.00000000000E+00 -0.20740378119E+03  0.20740378119E+03  0.00000000000E+00 0. -1.
          6    1    1    2  501    0  0.24644848615E+02 -0.11495451002E+03 -0.10847693363E+03  0.23488966147E+03  0.17200000000E+03 0. -1.
         -6    1    1    2    0  502 -0.24644848615E+02  0.11495451002E+03  0.26806815185E+03  0.33950911913E+03  0.17200000000E+03 0. -1.
</event>
<event>
 4    1  0.4612011E+000  0.1729887E+03  0.7818608E-02  0.1174766E+00
         21   -1    0    0  501  502  0.00000000000E+00  0.00000000000E+00  0.35451994696E+02  0.35451994696E+02  0.00000000000E+00 0. -1.
         21   -1    0    0  502  503 -0.00000000000E+00 -0.00000000000E+00 -0.84498466541E+03  0.84498466541E+03  0.00000000000E+00 0. -1.
          6    1    1    2  501    0  0.42781563167E+00 -0.18464087408E+02 -0.41899292009E+03  0.45329920873E+03  0.17200000000E+03 0.  1.
         -6    1    1    2    0  503 -0.42781563167E+00  0.18464087408E+02 -0.39053975063E+03  0.42713745138E+03  0.17200000000E+03 0.  1.
</event>
<event>
 4    1  0.4612011E+000  0.2127653E+03  0.7818608E-02  0.1139395E+00
         21   -1    0    0  501  502  0.00000000000E+00  0.00000000000E+00  0.17401927641E+03  0.17401927641E+03  0.00000000000E+00 0.  1.
         21   -1    0    0  502  503 -0.00000000000E+00 -0.00000000000E+00 -0.33692140653E+03  0.33692140653E+03  0.00000000000E+00 0. -1.
          6    1    1    2  501    0  0.62562253219E+02 -0.10849439915E+03  0.40506617848E+02  0.21658683308E+03  0.17200000000E+03 0.  1.
         -6    1    1    2    0  503 -0.62562253219E+02  0.10849439915E+03 -0.20340874797E+03  0.29435384986E+03  0.17200000000E+03 0. -1.
</event>
<event>
 4    1  0.4612011E+000  0.2359233E+03  0.7818608E-02  0.1122539E+00
         21   -1    0    0  503  502  0.00000000000E+00  0.00000000000E+00  0.85239818744E+02  0.85239818744E+02  0.00000000000E+00 0.  1.
         21   -1    0    0  501  503 -0.00000000000E+00 -0.00000000000E+00 -0.66752821928E+03  0.66752821928E+03  0.00000000000E+00 0.  1.
          6    1    1    2  501    0  0.47176992782E+02  0.15443496320E+03 -0.23557762951E+03  0.33340162872E+03  0.17200000000E+03 0.  1.
         -6    1    1    2    0  502 -0.47176992782E+02 -0.15443496320E+03 -0.34671077103E+03  0.41936640930E+03  0.17200000000E+03 0.  1.
</event>
<event>
 4    1  0.4612011E+000  0.1814228E+03  0.7818608E-02  0.1166433E+00
         21   -1    0    0  503  502  0.00000000000E+00  0.00000000000E+00  0.56994542037E+02  0.56994542037E+02  0.00000000000E+00 0. -1.
         21   -1    0    0  501  503 -0.00000000000E+00 -0.00000000000E+00 -0.70636340093E+03  0.70636340093E+03  0.00000000000E+00 0. -1.
          6    1    1    2  501    0 -0.24585471110E+02  0.52209201774E+02 -0.48770857987E+03  0.52035939986E+03  0.17200000000E+03 0. -1.
         -6    1    1    2    0  502  0.24585471110E+02 -0.52209201774E+02 -0.16166027902E+03  0.24299854311E+03  0.17200000000E+03 0. -1.
</event>
<event>
 4    1  0.4612011E+000  0.2210524E+03  0.7818608E-02  0.1133101E+00
         21   -1    0    0  503  502  0.00000000000E+00  0.00000000000E+00  0.39466290048E+03  0.39466290048E+03  0.00000000000E+00 0.  1.
         21   -1    0    0  501  503 -0.00000000000E+00 -0.00000000000E+00 -0.15808293126E+03  0.15808293126E+03  0.00000000000E+00 0. -1.
          6    1    1    2  501    0  0.74654900724E+02  0.11707608046E+03  0.24697067376E+03  0.33144935739E+03  0.17200000000E+03 0.  1.
         -6    1    1    2    0  502 -0.74654900724E+02 -0.11707608046E+03 -0.10390704537E+02  0.22129647435E+03  0.17200000000E+03 0. -1.
</event>
<event>
 4    1  0.4612011E+000  0.1738971E+03  0.7818608E-02  0.1173844E+00
         21   -1    0    0  501  502  0.00000000000E+00  0.00000000000E+00  0.39250587316E+03  0.39250587316E+03  0.00000000000E+00 0. -1.
         21   -1    0    0  502  503 -0.00000000000E+00 -0.00000000000E+00 -0.85192042558E+02  0.85192042558E+02  0.00000000000E+00 0. -1.
          6    1    1    2  501    0 -0.12855193745E+02 -0.22156916286E+02  0.22752435203E+03  0.28636954397E+03  0.17200000000E+03 0. -1.
         -6    1    1    2    0  503  0.12855193745E+02  0.22156916286E+02  0.79789478569E+02  0.19132837175E+03  0.17200000000E+03 0. -1.
</event>
<event>
 4    1  0.4612011E+000  0.2512836E+03  0.7818608E-02  0.1112496E+00
         21   -1    0    0  501  502  0.00000000000E+00  0.00000000000E+00  0.40080106174E+03  0.40080106174E+03  0.00000000000E+00 0.  1.
         21   -1    0    0  502  503 -0.00000000000E+00 -0.00000000000E+00 -0.17254676234E+03  0.17254676234E+03  0.00000000000E+00 0.  1.
          6    1    1    2  501    0 -0.13341442796E+03  0.12553901628E+03  0.19866144898E+03  0.32032768458E+03  0.17200000000E+03 0.  1.
         -6    1    1    2    0  503  0.13341442796E+03 -0.12553901628E+03  0.29592850426E+02  0.25302013950E+03  0.17200000000E+03 0.  1.
</event>
<event>
 4    1  0.4612011E+000  0.3162440E+03  0.7818608E-02  0.1077391E+00
         21   -1    0    0  503  502  0.00000000000E+00  0.00000000000E+00  0.11110314199E+03  0.11110314199E+03  0.00000000000E+00 0. -1.
         21   -1    0    0  501  503 -0.00000000000E+00 -0.00000000000E+00 -0.14473073206E+04  0.14473073206E+04  0.00000000000E+00 0.  1.
          6    1    1    2  501    0 -0.26434847137E+03 -0.23370148187E+02 -0.11472005589E+04  0.11899913447E+04  0.17200000000E+03 0.  1.
         -6    1    1    2    0  502  0.26434847137E+03  0.23370148187E+02 -0.18900361966E+03  0.36841911784E+03  0.17200000000E+03 0. -1.
</event>
<event>
 4    1  0.4612011E+000  0.3008483E+03  0.7818608E-02  0.1084817E+00
         21   -1    0    0  501  502  0.00000000000E+00  0.00000000000E+00  0.25208960876E+04  0.25208960876E+04  0.00000000000E+00 0. -1.
         21   -1    0    0  502  503 -0.00000000000E+00 -0.00000000000E+00 -0.40950664073E+02  0.40950664073E+02  0.00000000000E+00 0. -1.
          6    1    1    2  501    0  0.16457808498E+03  0.18395590401E+03  0.16896531167E+04  0.17162276584E+04  0.17200000000E+03 0. -1.
         -6    1    1    2    0  503 -0.16457808498E+03 -0.18395590401E+03  0.79029230680E+03  0.84561909324E+03  0.17200000000E+03 0. -1.
</event>
<event>
 4    1  0.4612011E+000  0.5069032E+03  0.7818608E-02  0.1011993E+00
         21   -1    0    0  501  502  0.00000000000E+00  0.00000000000E+00  0.58675200434E+03  0.58675200434E+03  0.00000000000E+00 0. -1.
         21   -1    0    0  502  503 -0.00000000000E+00 -0.00000000000E+00 -0.48094281471E+03  0.48094281471E+03  0.00000000000E+00 0.  1.
          6    1    1    2  501    0  0.20861919602E+02 -0.47637339255E+03  0.21257207271E+03  0.54967055125E+03  0.17200000000E+03 0. -1.
         -6    1    1    2    0  503 -0.20861919602E+02  0.47637339255E+03 -0.10676288308E+03  0.51802426779E+03  0.17200000000E+03 0.  1.
</event>
<event>
 4    1  0.4612011E+000  0.2123295E+03  0.7818608E-02  0.1139734E+00
         21   -1    0    0  503  502  0.00000000000E+00  0.00000000000E+00  0.39127485459E+03  0.39127485459E+03  0.00000000000E+00 0.  1.
         21   -1    0    0  501  503 -0.00000000000E+00 -0.00000000000E+00 -0.11555098024E+03  0.11555098024E+03  0.00000000000E+00 0.  1.
          6    1    1    2  501    0 -0.53229544259E+02 -0.11254530506E+03  0.12435923302E+03  0.24606716341E+03  0.17200000000E+03 0.  1.
         -6    1    1    2    0  502  0.53229544259E+02  0.11254530506E+03  0.15136464133E+03  0.26075867141E+03  0.17200000000E+03 0.  1.
</event>
<event>
 4    1  0.4612011E+000  0.2630208E+03  0.7818608E-02  0.1105342E+00
         21   -1    0    0  501  502  0.00000000000E+00  0.00000000000E+00  0.52637226206E+02  0.52637226206E+02  0.00000000000E+00 0. -1.
         21   -1    0    0  502  503 -0.00000000000E+00 -0.00000000000E+00 -0.14334838339E+04  0.14334838339E+04  0.00000000000E+00 0.  1.
          6    1    1    2  501    0 -0.92673172627E+01  0.19877132316E+03 -0.47614536578E+03  0.54396170034E+03  0.17200000000E+03 0. -1.
         -6    1    1    2    0  503  0.92673172627E+01 -0.19877132316E+03 -0.90470124189E+03  0.94215935974E+03  0.17200000000E+03 0.  1.
</event>
<event>
 4    1  0.4612011E+000  0.2606285E+03  0.7818608E-02  0.1106766E+00
         21   -1    0    0  503  502  0.00000000000E+00  0.00000000000E+00  0.49276682411E+03  0.49276682411E+03  0.00000000000E+00 0.  1.
         21   -1    0    0  501  503 -0.00000000000E+00 -0.00000000000E+00 -0.15489375759E+03  0.15489375759E+03  0.00000000000E+00 0. -1.
          6    1    1    2  501    0 -0.18993790083E+03 -0.47611001009E+02  0.61512586014E+02  0.26778911820E+03  0.17200000000E+03 0.  1.
         -6    1    1    2    0  502  0.18993790083E+03  0.47611001009E+02  0.27636048051E+03  0.37987146349E+03  0.17200000000E+03 0. -1.
</event>
<event>
 4    1  0.4612011E+000  0.1807684E+03  0.7818608E-02  0.1167061E+00
         21   -1    0    0  503  502  0.00000000000E+00  0.00000000000E+00  0.91728287306E+02  0.91728287306E+02  0.00000000000E+00 0. -1.
         21   -1    0    0  501  503 -0.00000000000E+00 -0.00000000000E+00 -0.56073389835E+03  0.56073389835E+03  0.00000000000E+00 0. -1.
          6    1    1    2  501    0 -0.13338874433E+02 -0.53993438172E+02 -0.43151264220E+03  0.46784653180E+03  0.17200000000E+03 0. -1.
         -6    1    1    2    0  502  0.13338874433E+02  0.53993438172E+02 -0.37492968844E+02  0.18461565386E+03  0.17200000000E+03 0. -1.
</event>
<event>
 4    1  0.4612011E+000  0.1743635E+03  0.7818608E-02  0.1173372E+00
         21   -1    0    0  501  502  0.00000000000E+00  0.00000000000E+00  0.18819790772E+03  0.18819790772E+03  0.00000000000E+00 0. -1.
         21   -1    0    0  502  503 -0.00000000000E+00 -0.00000000000E+00 -0.80282981715E+03  0.80282981715E+03  0.00000000000E+00 0. -1.
          6    1    1    2  501    0  0.23236192469E+02  0.16695051289E+02  0.13554679786E+03  0.22085194087E+03  0.17200000000E+03 0. -1.
         -6    1    1    2    0  503 -0.23236192469E+02 -0.16695051289E+02 -0.75017870729E+03  0.77017578400E+03  0.17200000000E+03 0. -1.
</event>
<event>
 4    1  0.4612011E+000  0.1944112E+03  0.7818608E-02  0.1154542E+00
         21   -1    0    0  503  502  0.00000000000E+00  0.00000000000E+00  0.77754303700E+02  0.77754303700E+02  0.00000000000E+00 0.  1.
         21   -1    0    0  501  503 -0.00000000000E+00 -0.00000000000E+00 -0.11898857464E+04  0.11898857464E+04  0.00000000000E+00 0.  1.
          6    1    1    2  501    0 -0.14814885131E+02 -0.89399339004E+02 -0.10435225018E+04  0.10614777126E+04  0.17200000000E+03 0.  1.
         -6    1    1    2    0  502  0.14814885131E+02  0.89399339004E+02 -0.68608940953E+02  0.20616233753E+03  0.17200000000E+03 0.  1.
</event>
<event>
 4    1  0.4612011E+000  0.1780864E+03  0.7818608E-02  0.1169668E+00
         21   -1    0    0  501  502  0.00000000000E+00  0.00000000000E+00  0.14668940757E+03  0.14668940757E+03  0.00000000000E+00 0.  1.
         21   -1    0    0  502  503 -0.00000000000E+00 -0.00000000000E+00 -0.29931423110E+03  0.29931423110E+03  0.00000000000E+00 0. -1.
          6    1    1    2  501    0  0.38511513474E+02  0.25448780774E+02  0.41197101929E+02  0.18278943711E+03  0.17200000000E+03 0.  1.
         -6    1    1    2    0  503 -0.38511513474E+02 -0.25448780774E+02 -0.19382192546E+03  0.26321420155E+03  0.17200000000E+03 0. -1.
</event>
<event>
 4    1  0.4612011E+000  0.2377319E+03  0.7818608E-02  0.1121313E+00
         21   -1    0    0  501  502  0.00000000000E+00  0.00000000000E+00  0.15585364166E+03  0.15585364166E+03  0.00000000000E+00 0.  1.
         21   -1    0    0  502  503 -0.00000000000E+00 -0.00000000000E+00 -0.58479353551E+03  0.58479353551E+03  0.00000000000E+00 0.  1.
          6    1    1    2  501    0  0.72901775946E+02  0.14702989943E+03  0.13785505789E+02  0.23813126723E+03  0.17200000000E+03 0.  1.
         -6    1    1    2    0  503 -0.72901775946E+02 -0.14702989943E+03 -0.44272539964E+03  0.50251590994E+03  0.17200000000E+03 0.  1.
</event>
<event>
 4    1  0.4612011E+000  0.2106595E+03  0.7818608E-02  0.1141045E+00
         21   -1    0    0  501  502  0.00000000000E+00  0.00000000000E+00  0.21176322229E+03  0.21176322229E+03  0.00000000000E+00 0.  1.
         21   -1    0    0  502  503 -0.00000000000E+00 -0.00000000000E+00 -0.21277864132E+03  0.21277864132E+03  0.00000000000E+00 0. -1.
          6    1    1    2  501    0  0.11307017151E+03 -0.44816944436E+02  0.25593486335E+02  0.21220850298E+03  0.17200000000E+03 0. -1.
         -6    1    1    2    0  503 -0.11307017151E+03  0.44816944436E+02 -0.26608905362E+02  0.21233336063E+03  0.17200000000E+03 0.  1.
</event>
<event>
 4    1  0.4612011E+000  0.2661559E+03  0.7818608E-02  0.1103500E+00
         21   -1    0    0  501  502  0.00000000000E+00  0.00000000000E+00  0.26758863334E+03  0.26758863334E+03  0.00000000000E+00 0.  1.
         21   -1    0    0  502  503 -0.00000000000E+00 -0.00000000000E+00 -0.28999363271E+03  0.28999363271E+03  0.00000000000E+00 0.  1.
          6    1    1    2  501    0 -0.58015834793E+02  0.19465135837E+03  0.71083246310E+02  0.27548469342E+03  0.17200000000E+03 0.  1.
         -6    1    1    2    0  503  0.58015834793E+02 -0.19465135837E+03 -0.93488245677E+02  0.28209757263E+03  0.17200000000E+03 0.  1.
</event>
<event>
 4    1  0.4612011E+000  0.2054207E+03  0.7818608E-02  0.1145245E+00
         21   -1    0    0  501  502  0.00000000000E+00  0.00000000000E+00  0.14380779724E+04  0.14380779724E+04  0.00000000000E+00 0. -1.
         21   -1    0    0  502  503 -0.00000000000E+00 -0.00000000000E+00 -0.29471179248E+02  0.29471179248E+02  0.00000000000E+00 0.  1.
          6    1    1    2  501    0  0.95490873399E+02  0.59119689199E+02  0.75267920966E+03  0.78020743217E+03  0.17200000000E+03 0.  1.
         -6    1    1    2    0  503 -0.95490873399E+02 -0.59119689199E+02  0.65592758346E+03  0.68734171945E+03  0.17200000000E+03 0.  1.
</event>
<event>
 4    1  0.4612011E+000  0.2037984E+03  0.7818608E-02  0.1146573E+00
         21   -1    0    0  501  502  0.00000000000E+00  0.00000000000E+00  0.24507178764E+02  0.24507178764E+02  0.00000000000E+00 0.  1.
         21   -1    0    0  502  503 -0.00000000000E+00 -0.00000000000E+00 -0.25390814125E+04  0.25390814125E+04  0.00000000000E+00 0.  1.
          6    1    1    2  501    0  0.39825891524E+01 -0.10924242563E+03 -0.51813451682E+03  0.55677387340E+03  0.17200000000E+03 0.  1.
         -6    1    1    2    0  503 -0.39825891524E+01  0.10924242563E+03 -0.19964397169E+04  0.20068147178E+04  0.17200000000E+03 0.  1.
</event>
<event>
 4    1  0.4612011E+000  0.1748914E+03  0.7818608E-02  0.1172841E+00
         21   -1    0    0  501  502  0.00000000000E+00  0.00000000000E+00  0.62648377312E+03  0.62648377312E+03  0.00000000000E+00 0.  1.
         21   -1    0    0  502  503 -0.00000000000E+00 -0.00000000000E+00 -0.25072660421E+03  0.25072660421E+03  0.00000000000E+00 0.  1.
          6    1    1    2  501    0  0.31405377225E+02  0.40873135888E+01  0.58146968600E+03  0.60720177832E+03  0.17200000000E+03 0.  1.
         -6    1    1    2    0  503 -0.31405377225E+02 -0.40873135888E+01 -0.20571251709E+03  0.27000859901E+03  0.17200000000E+03 0.  1.
</event>
<event>
 4    1  0.4612011E+000  0.1753044E+03  0.7818608E-02  0.1172426E+00
         21   -1    0    0  501  502  0.00000000000E+00  0.00000000000E+00  0.63275510346E+02  0.63275510346E+02  0.00000000000E+00 0.  1.
         21   -1    0    0  502  503 -0.00000000000E+00 -0.00000000000E+00 -0.54099229833E+03  0.54099229833E+03  0.00000000000E+00 0.  1.
          6    1    1    2  501    0 -0.10365852141E+02  0.32251925450E+02 -0.33546693777E+03  0.37850984653E+03  0.17200000000E+03 0.  1.
         -6    1    1    2    0  503  0.10365852141E+02 -0.32251925450E+02 -0.14224985022E+03  0.22575796215E+03  0.17200000000E+03 0.  1.
</event>
<event>
 4    1  0.4612011E+000  0.1742298E+03  0.7818608E-02  0.1173507E+00
         21   -1    0    0  503  502  0.00000000000E+00  0.00000000000E+00  0.73414963287E+03  0.73414963287E+03  0.00000000000E+00 0.  1.
         21   -1    0    0  501  503 -0.00000000000E+00 -0.00000000000E+00 -0.41354117844E+02  0.41354117844E+02  0.00000000000E+00 0.  1.
          6    1    1    2  501    0 -0.85902081688E+01 -0.26424001437E+02  0.35089878758E+03  0.39177286616E+03  0.17200000000E+03 0.  1.
         -6    1    1    2    0  502  0.85902081688E+01  0.26424001437E+02  0.34189672744E+03  0.38373088456E+03  0.17200000000E+03 0.  1.
</event>
<event>
 4    1  0.4612011E+000  0.1755369E+03  0.7818608E-02  0.1172194E+00
         21   -1    0    0  503  502  0.00000000000E+00  0.00000000000E+00  0.50059866204E+02  0.50059866204E+02  0.00000000000E+00 0.  1.
         21   -1    0    0  501  503 -0.00000000000E+00 -0.00000000000E+00 -0.66444561928E+03  0.66444561928E+03  0.00000000000E+00 0. -1.
          6    1    1    2  501    0 -0.29664767455E+01  0.34934108666E+02 -0.40412854198E+03  0.44060534538E+03  0.17200000000E+03 0. -1.
         -6    1    1    2    0  502  0.29664767455E+01 -0.34934108666E+02 -0.21025721110E+03  0.27390014011E+03  0.17200000000E+03 0.  1.
</event>
<event>
 4    1  0.4612011E+000  0.2034125E+03  0.7818608E-02  0.1146891E+00
         21   -1    0    0  503  502  0.00000000000E+00  0.00000000000E+00  0.10143713609E+03  0.10143713609E+03  0.00000000000E+00 0. -1.
         21   -1    0    0  501  503 -0.00000000000E+00 -0.00000000000E+00 -0.43426032988E+03  0.43426032988E+03  0.00000000000E+00 0.  1.
          6    1    1    2  501    0 -0.62309863419E+02 -0.88938864829E+02 -0.23239804860E+03  0.30884542048E+03  0.17200000000E+03 0. -1.
         -6    1    1    2    0  502  0.62309863419E+02  0.88938864829E+02 -0.10042514519E+03  0.22685204549E+03  0.17200000000E+03 0.  1.
</event>
<event>
 4    1  0.4612011E+000  0.1812671E+03  0.7818608E-02  0.1166582E+00
         21   -1    0    0  503  502  0.00000000000E+00  0.00000000000E+00  0.52163100490E+03  0.52163100490E+03  0.00000000000E+00 0.  1.
         21   -1    0    0  501  503 -0.00000000000E+00 -0.00000000000E+00 -0.80263926367E+02  0.80263926367E+02  0.00000000000E+00 0.  1.
          6    1    1    2  501    0 -0.66128557937E+01 -0.56833427028E+02  0.81072278833E+02  0.19857110234E+03  0.17200000000E+03 0.  1.
         -6    1    1    2    0  502  0.66128557937E+01  0.56833427028E+02  0.36029479970E+03  0.40332382893E+03  0.17200000000E+03 0.  1.
</event>
<event>
 4    1  0.4612011E+000  0.1771064E+03  0.7818608E-02  0.1170633E+00
         21   -1    0    0  501  502  0.00000000000E+00  0.00000000000E+00  0.41204800654E+03  0.41204800654E+03  0.00000000000E+00 0. -1.
         21   -1    0    0  502  503 -0.00000000000E+00 -0.00000000000E+00 -0.82346147337E+02  0.82346147337E+02  0.00000000000E+00 0. -1.
          6    1    1    2  501    0 -0.37967588280E+02  0.18469921447E+02  0.23280218462E+03  0.29251244918E+03  0.17200000000E+03 0. -1.
         -6    1    1    2    0  503  0.37967588280E+02 -0.18469921447E+02  0.96899674574E+02  0.20188170470E+03  0.17200000000E+03 0. -1.
</event>
<event>
 4    1  0.4612011E+000  0.2205122E+03  0.7818608E-02  0.1133502E+00
         21   -1    0    0  503  502  0.00000000000E+00  0.00000000000E+00  0.46151790060E+03  0.46151790060E+03  0.00000000000E+00 0.  1.
         21   -1    0    0  501  503 -0.00000000000E+00 -0.00000000000E+00 -0.12992025281E+03  0.12992025281E+03  0.00000000000E+00 0. -1.
          6    1    1    2  501    0  0.87604293301E+02  0.10661658858E+03  0.29437358807E+03  0.36780622415E+03  0.17200000000E+03 0.  1.
         -6    1    1    2    0  502 -0.87604293301E+02 -0.10661658858E+03  0.37224059710E+02  0.22363192926E+03  0.17200000000E+03 0. -1.
</event>
<event>
 4    1  0.4612011E+000  0.2026786E+03  0.7818608E-02  0.1147499E+00
         21   -1    0    0  501  502  0.00000000000E+00  0.00000000000E+00  0.81157953518E+02  0.81157953518E+02  0.00000000000E+00 0.  1.
         21   -1    0    0  502  503 -0.00000000000E+00 -0.00000000000E+00 -0.12585481542E+04  0.12585481542E+04  0.00000000000E+00 0.  1.
          6    1    1    2  501    0  0.10471941205E+03  0.22988093403E+02 -0.70770342180E+02  0.21467894408E+03  0.17200000000E+03 0.  1.
         -6    1    1    2    0  503 -0.10471941205E+03 -0.22988093403E+02 -0.11066198585E+04  0.11250271636E+04  0.17200000000E+03 0.  1.
</event>
<event>
 4    1  0.4612011E+000  0.1770920E+03  0.7818608E-02  0.1170647E+00
         21   -1    0    0  501  502  0.00000000000E+00  0.00000000000E+00  0.27723377965E+02  0.27723377965E+02  0.00000000000E+00 0. -1.
         21   -1    0    0  502  503 -0.00000000000E+00 -0.00000000000E+00 -0.12889080556E+04  0.12889080556E+04  0.00000000000E+00 0. -1.
          6    1    1    2  501    0  0.56891296300E+01 -0.41775542149E+02 -0.40033863010E+03  0.43775858743E+03  0.17200000000E+03 0. -1.
         -6    1    1    2    0  503 -0.56891296300E+01  0.41775542149E+02 -0.86084604754E+03  0.87887284614E+03  0.17200000000E+03 0. -1.
</event>
<event>
 4    1  0.4612011E+000  0.2094610E+03  0.7818608E-02  0.1141994E+00
         21   -1    0    0  501  502  0.00000000000E+00  0.00000000000E+00  0.28607851997E+03  0.28607851997E+03  0.00000000000E+00 0. -1.
         21   -1    0    0  502  503 -0.00000000000E+00 -0.00000000000E+00 -0.15762874379E+03  0.15762874379E+03  0.00000000000E+00 0. -1.
          6    1    1    2  501    0 -0.11920994029E+03 -0.88820370107E+01  0.10072036413E+03  0.23241878623E+03  0.17200000000E+03 0. -1.
         -6    1    1    2    0  503  0.11920994029E+03  0.88820370107E+01  0.27729412054E+02  0.21128847753E+03  0.17200000000E+03 0. -1.
</event>
<event>
 4    1  0.4612011E+000  0.1846609E+03  0.7818608E-02  0.1163367E+00
         21   -1    0    0  503  502  0.00000000000E+00  0.00000000000E+00  0.11280459386E+04  0.11280459386E+04  0.00000000000E+00 0.  1.
         21   -1    0    0  501  503 -0.00000000000E+00 -0.00000000000E+00 -0.37493706430E+02  0.37493706430E+02  0.00000000000E+00 0. -1.
          6    1    1    2  501    0 -0.66295621885E+02 -0.10978824781E+02  0.28875188074E+03  0.34274960643E+03  0.17200000000E+03 0. -1.
         -6    1    1    2    0  502  0.66295621885E+02  0.10978824781E+02  0.80180035147E+03  0.82279003865E+03  0.17200000000E+03 0.  1.
</event>
<event>
 4    1  0.4612011E+000  0.2482513E+03  0.7818608E-02  0.1114415E+00
         21   -1    0    0  501  502  0.00000000000E+00  0.00000000000E+00  0.11476717409E+04  0.11476717409E+04  0.00000000000E+00 0. -1.
         21   -1    0    0  502  503 -0.00000000000E+00 -0.00000000000E+00 -0.12536979979E+03  0.12536979979E+03  0.00000000000E+00 0. -1.
          6    1    1    2  501    0 -0.13567029146E+03 -0.11678310171E+03  0.99241955515E+03  0.10229981888E+04  0.17200000000E+03 0. -1.
         -6    1    1    2    0  503  0.13567029146E+03  0.11678310171E+03  0.29882385933E+02  0.25004335188E+03  0.17200000000E+03 0. -1.
</event>
<event>
 4    1  0.4612011E+000  0.2072067E+03  0.7818608E-02  0.1143797E+00
         21   -1    0    0  503  502  0.00000000000E+00  0.00000000000E+00  0.36511906847E+03  0.36511906847E+03  0.00000000000E+00 0. -1.
         21   -1    0    0  501  503 -0.00000000000E+00 -0.00000000000E+00 -0.49242081331E+03  0.49242081331E+03  0.00000000000E+00 0. -1.
          6    1    1    2  501    0  0.10051686724E+03 -0.56982274584E+02 -0.43773850165E+03  0.48430322737E+03  0.17200000000E+03 0. -1.
         -6    1    1    2    0  502 -0.10051686724E+03  0.56982274584E+02  0.31043675681E+03  0.37323665441E+03  0.17200000000E+03 0. -1.
</event>
<event>
 4    1  0.4612011E+000  0.4729723E+03  0.7818608E-02  0.1021085E+00
         21   -1    0    0  501  502  0.00000000000E+00  0.00000000000E+00  0.44894404502E+03  0.44894404502E+03  0.00000000000E+00 0. -1.
         21   -1    0    0  502  503 -0.00000000000E+00 -0.00000000000E+00 -0.51677296541E+03  0.51677296541E+03  0.00000000000E+00 0.  1.
          6    1    1    2  501    0 -0.32837695046E+03 -0.29374716069E+03  0.57411739746E+02  0.47644404064E+03  0.17200000000E+03 0. -1.
         -6    1    1    2    0  503  0.32837695046E+03  0.29374716069E+03 -0.12524066014E+03  0.48927296978E+03  0.17200000000E+03 0.  1.
</event>
<event>
 4    1  0.4612011E+000  0.2727930E+03  0.7818608E-02  0.1099692E+00
         21   -1    0    0  501  502  0.00000000000E+00  0.00000000000E+00  0.20516958288E+03  0.20516958288E+03  0.00000000000E+00 0. -1.
         21   -1    0    0  502  503 -0.00000000000E+00 -0.00000000000E+00 -0.11277977776E+04  0.11277977776E+04  0.00000000000E+00 0. -1.
          6    1    1    2  501    0 -0.18036401080E+03 -0.11090924350E+03  0.87633576572E+02  0.28652343784E+03  0.17200000000E+03 0. -1.
         -6    1    1    2    0  503  0.18036401080E+03  0.11090924350E+03 -0.10102617713E+04  0.10464439226E+04  0.17200000000E+03 0. -1.
</event>
<event>
 4    1  0.4612011E+000  0.1803781E+03  0.7818608E-02  0.1167438E+00
         21   -1    0    0  501  502  0.00000000000E+00  0.00000000000E+00  0.56158532528E+02  0.56158532528E+02  0.00000000000E+00 0. -1.
         21   -1    0    0  502  503 -0.00000000000E+00 -0.00000000000E+00 -0.58041061912E+03  0.58041061912E+03  0.00000000000E+00 0. -1.
          6    1    1    2  501    0  0.48387248319E+02  0.24717191219E+02 -0.24861405741E+03  0.30715666179E+03  0.17200000000E+03 0. -1.
         -6    1    1    2    0  503 -0.48387248319E+02 -0.24717191219E+02 -0.27563802918E+03  0.32941248985E+03  0.17200000000E+03 0. -1.
</event>
<event>
 4    1  0.4612011E+000  0.1837012E+03  0.7818608E-02  0.1164268E+00
         21   -1    0    0  501  502  0.00000000000E+00  0.00000000000E+00  0.10067229854E+04  0.10067229854E+04  0.00000000000E+00 0.  1.
         21   -1    0    0  502  503 -0.00000000000E+00 -0.00000000000E+00 -0.41509894338E+02  0.41509894338E+02  0.00000000000E+00 0.  1.
          6    1    1    2  501    0  0.36412234253E+02  0.53256582735E+02  0.25267319382E+03  0.31239375359E+03  0.17200000000E+03 0.  1.
         -6    1    1    2    0  503 -0.36412234253E+02 -0.53256582735E+02  0.71253989725E+03  0.73583912615E+03  0.17200000000E+03 0.  1.
</event>
<event>
 4    1  0.4612011E+000  0.2638766E+03  0.7818608E-02  0.1104836E+00
         21   -1    0    0  503  502  0.00000000000E+00  0.00000000000E+00  0.16960791425E+03  0.16960791425E+03  0.00000000000E+00 0.  1.
         21   -1    0    0  501  503 -0.00000000000E+00 -0.00000000000E+00 -0.45718051305E+03  0.45718051305E+03  0.00000000000E+00 0.  1.
          6    1    1    2  501    0 -0.18401025661E+03  0.78657874378E+02 -0.24388506129E+03  0.35931985592E+03  0.17200000000E+03 0.  1.
         -6    1    1    2    0  502  0.18401025661E+03 -0.78657874378E+02 -0.43687537508E+02  0.26746857137E+03  0.17200000000E+03 0.  1.
</event>
<event>
 4    1  0.4612011E+000  0.1977956E+03  0.7818608E-02  0.1151612E+00
         21   -1    0    0  501  502  0.00000000000E+00  0.00000000000E+00  0.63072762404E+03  0.63072762404E+03  0.00000000000E+00 0.  1.
         21   -1    0    0  502  503 -0.00000000000E+00 -0.00000000000E+00 -0.64333761286E+02  0.64333761286E+02  0.00000000000E+00 0.  1.
          6    1    1    2  501    0  0.97577331361E+02 -0.42148749716E+01  0.34898269649E+03  0.40113840905E+03  0.17200000000E+03 0.  1.
         -6    1    1    2    0  503 -0.97577331361E+02  0.42148749716E+01  0.21741116626E+03  0.29392297628E+03  0.17200000000E+03 0.  1.
</event>
<event>
 4    1  0.4612011E+000  0.1842345E+03  0.7818608E-02  0.1163767E+00
         21   -1    0    0  503  502  0.00000000000E+00  0.00000000000E+00  0.45967817727E+03  0.45967817727E+03  0.00000000000E+00 0.  1.
         21   -1    0    0  501  503 -0.00000000000E+00 -0.00000000000E+00 -0.80964496604E+02  0.80964496604E+02  0.00000000000E+00 0.  1.
          6    1    1    2  501    0 -0.46564683450E+02  0.46798412551E+02  0.10916533401E+03  0.21414815272E+03  0.17200000000E+03 0.  1.
         -6    1    1    2    0  502  0.46564683450E+02 -0.46798412551E+02  0.26954834666E+03  0.32649452116E+03  0.17200000000E+03 0.  1.
</event>
<event>
 4    1  0.4612011E+000  0.2615667E+03  0.7818608E-02  0.1106206E+00
         21   -1    0    0  503  502  0.00000000000E+00  0.00000000000E+00  0.34842990476E+03  0.34842990476E+03  0.00000000000E+00 0. -1.
         21   -1    0    0  501  503 -0.00000000000E+00 -0.00000000000E+00 -0.22843031520E+03  0.22843031520E+03  0.00000000000E+00 0. -1.
          6    1    1    2  501    0  0.22732339178E+02  0.19574563869E+03 -0.48075553988E+02  0.26594806486E+03  0.17200000000E+03 0. -1.
         -6    1    1    2    0  502 -0.22732339178E+02 -0.19574563869E+03  0.16807514355E+03  0.31091215510E+03  0.17200000000E+03 0. -1.
</event>
<event>
 4    1  0.4612011E+000  0.1965836E+03  0.7818608E-02  0.1152654E+00
         21   -1    0    0  501  502  0.00000000000E+00  0.00000000000E+00  0.49413304031E+03  0.49413304031E+03  0.00000000000E+00 0.  1.
         21   -1    0    0  502  503 -0.00000000000E+00 -0.00000000000E+00 -0.78209988326E+02  0.78209988326E+02  0.00000000000E+00 0. -1.
          6    1    1    2  501    0  0.40477401110E+02  0.86155043403E+02  0.20648571838E+03  0.28509904139E+03  0.17200000000E+03 0.  1.
         -6    1    1    2    0  503 -0.40477401110E+02 -0.86155043403E+02  0.20943733361E+03  0.28724398725E+03  0.17200000000E+03 0. -1.
</event>
<event>
 4    1  0.4612011E+000  0.4624952E+03  0.7818608E-02  0.1024060E+00
         21   -1    0    0  501  502  0.00000000000E+00  0.00000000000E+00  0.26450039459E+03  0.26450039459E+03  0.00000000000E+00 0. -1.
         21   -1    0    0  502  503 -0.00000000000E+00 -0.00000000000E+00 -0.92286188100E+03  0.92286188100E+03  0.00000000000E+00 0. -1.
          6    1    1    2  501    0 -0.18295191821E+03  0.38838950720E+03 -0.12037474169E+03  0.47790364313E+03  0.17200000000E+03 0. -1.
         -6    1    1    2    0  503  0.18295191821E+03 -0.38838950720E+03 -0.53798674472E+03  0.70945863246E+03  0.17200000000E+03 0. -1.
</event>
<event>
 4    1  0.4612011E+000  0.2108639E+03  0.7818608E-02  0.1140884E+00
         21   -1    0    0  503  502  0.00000000000E+00  0.00000000000E+00  0.83623869232E+03  0.83623869232E+03  0.00000000000E+00 0.  1.
         21   -1    0    0  501  503 -0.00000000000E+00 -0.00000000000E+00 -0.24486864481E+03  0.24486864481E+03  0.00000000000E+00 0.  1.
          6    1    1    2  501    0  0.89869517152E+02  0.82480574551E+02 -0.18259332004E+03  0.27893349712E+03  0.17200000000E+03 0.  1.
         -6    1    1    2    0  502 -0.89869517152E+02 -0.82480574551E+02  0.77396336755E+03  0.80217384001E+03  0.17200000000E+03 0.  1.
</event>
<event>
 4    1  0.4612011E+000  0.2607327E+03  0.7818608E-02  0.1106704E+00
         21   -1    0    0  503  502  0.00000000000E+00  0.00000000000E+00  0.98619377467E+03  0.98619377467E+03  0.00000000000E+00 0.  1.
         21   -1    0    0  501  503 -0.00000000000E+00 -0.00000000000E+00 -0.69402155318E+02  0.69402155318E+02  0.00000000000E+00 0. -1.
          6    1    1    2  501    0  0.92729307531E+02 -0.17262336710E+03  0.41501282448E+03  0.49011957299E+03  0.17200000000E+03 0. -1.
         -6    1    1    2    0  502 -0.92729307531E+02  0.17262336710E+03  0.50177879487E+03  0.56547635700E+03  0.17200000000E+03 0. -1.
</event>
<event>
 4    1  0.4612011E+000  0.1875578E+03  0.7818608E-02  0.1160683E+00
         21   -1    0    0  503  502  0.00000000000E+00  0.00000000000E+00  0.84253565626E+02  0.84253565626E+02  0.00000000000E+00 0.  1.
         21   -1    0    0  501  503 -0.00000000000E+00 -0.00000000000E+00 -0.14153667011E+04  0.14153667011E+04  0.00000000000E+00 0.  1.
          6    1    1    2  501    0 -0.49978035199E+02  0.55642956364E+02 -0.12951319156E+04  0.13086422817E+04  0.17200000000E+03 0.  1.
         -6    1    1    2    0  502  0.49978035199E+02 -0.55642956364E+02 -0.35981219895E+02  0.19097798507E+03  0.17200000000E+03 0.  1.
</event>
<event>
 4    1  0.4612011E+000  0.1853387E+03  0.7818608E-02  0.1162734E+00
         21   -1    0    0  501  502  0.00000000000E+00  0.00000000000E+00  0.17213056704E+03  0.17213056704E+03  0.00000000000E+00 0.  1.
         21   -1    0    0  502  503 -0.00000000000E+00 -0.00000000000E+00 -0.61434036305E+03  0.61434036305E+03  0.00000000000E+00 0.  1.
          6    1    1    2  501    0  0.47577284462E+02 -0.50028362654E+02  0.10201006340E+03  0.21155729272E+03  0.17200000000E+03 0.  1.
         -6    1    1    2    0  503 -0.47577284462E+02  0.50028362654E+02 -0.54421985941E+03  0.57491363737E+03  0.17200000000E+03 0.  1.
</event>
<event>
 4    1  0.4612011E+000  0.4250867E+03  0.7818608E-02  0.1035423E+00
         21   -1    0    0  503  502  0.00000000000E+00  0.00000000000E+00  0.28298410139E+03  0.28298410139E+03  0.00000000000E+00 0.  1.
         21   -1    0    0  501  503 -0.00000000000E+00 -0.00000000000E+00 -0.73132998001E+03  0.73132998001E+03  0.00000000000E+00 0.  1.
          6    1    1    2  501    0 -0.24475323330E+03  0.30201083410E+03 -0.40481529874E+03  0.58700435707E+03  0.17200000000E+03 0.  1.
         -6    1    1    2    0  502  0.24475323330E+03 -0.30201083410E+03 -0.43530579886E+02  0.42730972433E+03  0.17200000000E+03 0.  1.
</event>
<event>
 4    1  0.4612011E+000  0.1907238E+03  0.7818608E-02  0.1157810E+00
         21   -1    0    0  501  502  0.00000000000E+00  0.00000000000E+00  0.18279472950E+03  0.18279472950E+03  0.00000000000E+00 0. -1.
         21   -1    0    0  502  503 -0.00000000000E+00 -0.00000000000E+00 -0.19944715634E+03  0.19944715634E+03  0.00000000000E+00 0. -1.
          6    1    1    2  501    0 -0.63142994979E+02  0.52957884200E+02 -0.17407524019E+02  0.19151657162E+03  0.17200000000E+03 0. -1.
         -6    1    1    2    0  503  0.63142994979E+02 -0.52957884200E+02  0.75509717663E+00  0.19072531422E+03  0.17200000000E+03 0. -1.
</event>
<event>
 4    1  0.4612011E+000  0.1747522E+03  0.7818608E-02  0.1172981E+00
         21   -1    0    0  501  502  0.00000000000E+00  0.00000000000E+00  0.11407106206E+03  0.11407106206E+03  0.00000000000E+00 0.  1.
         21   -1    0    0  502  503 -0.00000000000E+00 -0.00000000000E+00 -0.84146414211E+03  0.84146414211E+03  0.00000000000E+00 0.  1.
          6    1    1    2  501    0 -0.19960424783E+02  0.23577898303E+02  0.30815782466E+02  0.17744843841E+03  0.17200000000E+03 0.  1.
         -6    1    1    2    0  503  0.19960424783E+02 -0.23577898303E+02 -0.75820886251E+03  0.77808676575E+03  0.17200000000E+03 0.  1.
</event>
<event>
 4    1  0.4612011E+000  0.1778643E+03  0.7818608E-02  0.1169886E+00
         21   -1    0    0  503  502  0.00000000000E+00  0.00000000000E+00  0.80237428671E+03  0.80237428671E+03  0.00000000000E+00 0.  1.
         21   -1    0    0  501  503 -0.00000000000E+00 -0.00000000000E+00 -0.73815007081E+02  0.73815007081E+02  0.00000000000E+00 0.  1.
          6    1    1    2  501    0  0.44259816789E+02 -0.96319985805E+01  0.65263097191E+02  0.18945970187E+03  0.17200000000E+03 0.  1.
         -6    1    1    2    0  502 -0.44259816789E+02  0.96319985805E+01  0.66329618244E+03  0.68672959192E+03  0.17200000000E+03 0.  1.
</event>
<event>
 4    1  0.4612011E+000  0.1823096E+03  0.7818608E-02  0.1165586E+00
         21   -1    0    0  501  502  0.00000000000E+00  0.00000000000E+00  0.84078286271E+03  0.84078286271E+03  0.00000000000E+00 0. -1.
         21   -1    0    0  502  503 -0.00000000000E+00 -0.00000000000E+00 -0.65382535179E+02  0.65382535179E+02  0.00000000000E+00 0. -1.
          6    1    1    2  501    0  0.14492452965E+02 -0.58675007383E+02  0.67259971474E+03  0.69686954587E+03  0.17200000000E+03 0. -1.
         -6    1    1    2    0  503 -0.14492452965E+02  0.58675007383E+02  0.10280061279E+03  0.20929585202E+03  0.17200000000E+03 0. -1.
</event>
<event>
 4    1  0.4612011E+000  0.1995102E+03  0.7818608E-02  0.1150153E+00
         21   -1    0    0  503  502  0.00000000000E+00  0.00000000000E+00  0.12032387860E+03  0.12032387860E+03  0.00000000000E+00 0.  1.
         21   -1    0    0  501  503 -0.00000000000E+00 -0.00000000000E+00 -0.33691093224E+03  0.33691093224E+03  0.00000000000E+00 0.  1.
          6    1    1    2  501    0  0.27320733160E+02  0.97334004361E+02 -0.77528789101E+02  0.21404449071E+03  0.17200000000E+03 0. -1.
         -6    1    1    2    0  502 -0.27320733160E+02 -0.97334004361E+02 -0.13905826454E+03  0.24319032012E+03  0.17200000000E+03 0. -1.
</event>
<event>
 4    1  0.4612011E+000  0.2919977E+03  0.7818608E-02  0.1089311E+00
         21   -1    0    0  503  502  0.00000000000E+00  0.00000000000E+00  0.19656918636E+03  0.19656918636E+03  0.00000000000E+00 0.  1.
         21   -1    0    0  501  503 -0.00000000000E+00 -0.00000000000E+00 -0.48430398401E+03  0.48430398401E+03  0.00000000000E+00 0. -1.
          6    1    1    2  501    0 -0.22318131252E+03 -0.76607880062E+02 -0.33881291350E+02  0.29395681222E+03  0.17200000000E+03 0.  1.
         -6    1    1    2    0  502  0.22318131252E+03  0.76607880062E+02 -0.25385350630E+03  0.38691635815E+03  0.17200000000E+03 0.  1.
</event>
<event>
 4    1  0.4612011E+000  0.1757949E+03  0.7818608E-02  0.1171936E+00
         21   -1    0    0  503  502  0.00000000000E+00  0.00000000000E+00  0.92507842872E+03  0.92507842872E+03  0.00000000000E+00 0.  1.
         21   -1    0    0  501  503 -0.00000000000E+00 -0.00000000000E+00 -0.42833310224E+02  0.42833310224E+02  0.00000000000E+00 0.  1.
          6    1    1    2  501    0 -0.26350754735E+02 -0.25009955513E+02  0.21408816438E+03  0.27701552714E+03  0.17200000000E+03 0.  1.
         -6    1    1    2    0  502  0.26350754735E+02  0.25009955513E+02  0.66815695412E+03  0.69089621180E+03  0.17200000000E+03 0.  1.
</event>
<event>
 4    1  0.4612011E+000  0.2043483E+03  0.7818608E-02  0.1146121E+00
         21   -1    0    0  503  502  0.00000000000E+00  0.00000000000E+00  0.16771410152E+04  0.16771410152E+04  0.00000000000E+00 0. -1.
         21   -1    0    0  501  503 -0.00000000000E+00 -0.00000000000E+00 -0.25069748621E+02  0.25069748621E+02  0.00000000000E+00 0. -1.
          6    1    1    2  501    0 -0.93780093201E+02  0.58133595197E+02  0.75568331193E+03  0.78282532451E+03  0.17200000000E+03 0. -1.
         -6    1    1    2    0  502  0.93780093201E+02 -0.58133595197E+02  0.89638795470E+03  0.91938543936E+03  0.17200000000E+03 0. -1.
</event>
<event>
 4    1  0.4612011E+000  0.2072482E+03  0.7818608E-02  0.1143764E+00
         21   -1    0    0  501  502  0.00000000000E+00  0.00000000000E+00  0.57285113688E+02  0.57285113688E+02  0.00000000000E+00 0.  1.
         21   -1    0    0  502  503 -0.00000000000E+00 -0.00000000000E+00 -0.75562540495E+03  0.75562540495E+03  0.00000000000E+00 0. -1.
          6    1    1    2  501    0 -0.97912495789E+02 -0.61489596834E+02 -0.31345267410E+03  0.37577174754E+03  0.17200000000E+03 0. -1.
         -6    1    1    2    0  503  0.97912495789E+02  0.61489596834E+02 -0.38488761716E+03  0.43713877110E+03  0.17200000000E+03 0.  1.
</event>
<event>
 4    1  0.4612011E+000  0.1887242E+03  0.7818608E-02  0.1159617E+00
         21   -1    0    0  503  502  0.00000000000E+00  0.00000000000E+00  0.40833291262E+02  0.40833291262E+02  0.00000000000E+00 0.  1.
         21   -1    0    0  501  503 -0.00000000000E+00 -0.00000000000E+00 -0.11538405190E+04  0.11538405190E+04  0.00000000000E+00 0.  1.
          6    1    1    2  501    0 -0.29642617767E+02 -0.71792423787E+02 -0.26141293251E+03  0.32241829691E+03  0.17200000000E+03 0.  1.
         -6    1    1    2    0  502  0.29642617767E+02  0.71792423787E+02 -0.85159429525E+03  0.87225551337E+03  0.17200000000E+03 0.  1.
</event>
<event>
 4    1  0.4612011E+000  0.2439282E+03  0.7818608E-02  0.1117203E+00
         21   -1    0    0  503  502  0.00000000000E+00  0.00000000000E+00  0.79684676389E+02  0.79684676389E+02  0.00000000000E+00 0.  1.
         21   -1    0    0  501  503 -0.00000000000E+00 -0.00000000000E+00 -0.13214943598E+04  0.13214943598E+04  0.00000000000E+00 0. -1.
          6    1    1    2  501    0 -0.13192353481E+03  0.11186228099E+03 -0.10829507579E+04  0.11100825794E+04  0.17200000000E+03 0. -1.
         -6    1    1    2    0  502  0.13192353481E+03 -0.11186228099E+03 -0.15885892542E+03  0.29109645675E+03  0.17200000000E+03 0.  1.
</event>
<event>
 4    1  0.4612011E+000  0.2358432E+03  0.7818608E-02  0.1122593E+00
         21   -1    0    0  501  502  0.00000000000E+00  0.00000000000E+00  0.19400758235E+03  0.19400758235E+03  0.00000000000E+00 0.  1.
         21   -1    0    0  502  503 -0.00000000000E+00 -0.00000000000E+00 -0.28670051467E+03  0.28670051467E+03  0.00000000000E+00 0. -1.
          6    1    1    2  501    0  0.16134986773E+03  0.20602505102E+01 -0.46120278403E+02  0.24031043367E+03  0.17200000000E+03 0.  1.
         -6    1    1    2    0  503 -0.16134986773E+03 -0.20602505102E+01 -0.46572653916E+02  0.24039766335E+03  0.17200000000E+03 0.  1.
</event>
<event>
 4    1  0.4612011E+000  0.2555130E+03  0.7818608E-02  0.1109869E+00
         21   -1    0    0  501  502  0.00000000000E+00  0.00000000000E+00  0.12241157563E+04  0.12241157563E+04  0.00000000000E+00 0.  1.
         21   -1    0    0  502  503 -0.00000000000E+00 -0.00000000000E+00 -0.78745905789E+02  0.78745905789E+02  0.00000000000E+00 0. -1.
          6    1    1    2  501    0 -0.67490418267E+02  0.17648782859E+03  0.94274607275E+03  0.97675844910E+03  0.17200000000E+03 0.  1.
         -6    1    1    2    0  503  0.67490418267E+02 -0.17648782859E+03  0.20262377771E+03  0.32610321294E+03  0.17200000000E+03 0. -1.
</event>
<event>
 4    1  0.4612011E+000  0.1917969E+03  0.7818608E-02  0.1156851E+00
         21   -1    0    0  503  502  0.00000000000E+00  0.00000000000E+00  0.27123506763E+03  0.27123506763E+03  0.00000000000E+00 0. -1.
         21   -1    0    0  501  503 -0.00000000000E+00 -0.00000000000E+00 -0.17105489105E+03  0.17105489105E+03  0.00000000000E+00 0. -1.
          6    1    1    2  501    0  0.20941495054E+02 -0.82240628551E+02 -0.50556373352E+02  0.19834821422E+03  0.17200000000E+03 0. -1.
         -6    1    1    2    0  502 -0.20941495054E+02  0.82240628551E+02  0.15073654993E+03  0.24394174445E+03  0.17200000000E+03 0. -1.
</event>
<event>
 4    1  0.4612011E+000  0.1756068E+03  0.7818608E-02  0.1172124E+00
         21   -1    0    0  503  502  0.00000000000E+00  0.00000000000E+00  0.60492221632E+03  0.60492221632E+03  0.00000000000E+00 0.  1.
         21   -1    0    0  501  503 -0.00000000000E+00 -0.00000000000E+00 -0.86977019621E+02  0.86977019621E+02  0.00000000000E+00 0.  1.
          6    1    1    2  501    0  0.32526062866E+02  0.13993558416E+02  0.36408282003E+02  0.17934137125E+03  0.17200000000E+03 0.  1.
         -6    1    1    2    0  502 -0.32526062866E+02 -0.13993558416E+02  0.48153691469E+03  0.51255786469E+03  0.17200000000E+03 0.  1.
</event>
<event>
 4    1  0.4612011E+000  0.2276901E+03  0.7818608E-02  0.1128276E+00
         21   -1    0    0  501  502  0.00000000000E+00  0.00000000000E+00  0.73108533443E+03  0.73108533443E+03  0.00000000000E+00 0. -1.
         21   -1    0    0  502  503 -0.00000000000E+00 -0.00000000000E+00 -0.32390692422E+03  0.32390692422E+03  0.00000000000E+00 0. -1.
          6    1    1    2  501    0 -0.14518551572E+03  0.34350656426E+02  0.66978137323E+03  0.70742482957E+03  0.17200000000E+03 0. -1.
         -6    1    1    2    0  503  0.14518551572E+03 -0.34350656426E+02 -0.26260296302E+03  0.34756742908E+03  0.17200000000E+03 0. -1.
</event>
<event>
 4    1  0.4612011E+000  0.1851829E+03  0.7818608E-02  0.1162879E+00
         21   -1    0    0  503  502  0.00000000000E+00  0.00000000000E+00  0.51328158871E+03  0.51328158871E+03  0.00000000000E+00 0.  1.
         21   -1    0    0  501  503 -0.00000000000E+00 -0.00000000000E+00 -0.66944122758E+02  0.66944122758E+02  0.00000000000E+00 0.  1.
          6    1    1    2  501    0  0.68588337936E+02 -0.20862363387E+01  0.21021803370E+03  0.28015055626E+03  0.17200000000E+03 0.  1.
         -6    1    1    2    0  502 -0.68588337936E+02  0.20862363387E+01  0.23611943225E+03  0.30007515520E+03  0.17200000000E+03 0.  1.
</event>
<event>
 4    1  0.4612011E+000  0.1814865E+03  0.7818608E-02  0.1166372E+00
         21   -1    0    0  503  502  0.00000000000E+00  0.00000000000E+00  0.26280169654E+03  0.26280169654E+03  0.00000000000E+00 0. -1.
         21   -1    0    0  501  503 -0.00000000000E+00 -0.00000000000E+00 -0.23720189048E+03  0.23720189048E+03  0.00000000000E+00 0. -1.
          6    1    1    2  501    0  0.57455846925E+02  0.72226969207E+01 -0.15888873206E+03  0.24121146505E+03  0.17200000000E+03 0. -1.
         -6    1    1    2    0  502 -0.57455846925E+02 -0.72226969207E+01  0.18448853812E+03  0.25879212197E+03  0.17200000000E+03 0. -1.
</event>
<event>
 4    1  0.4612011E+000  0.1720506E+03  0.7818608E-02  0.1175726E+00
         21   -1    0    0  501  502  0.00000000000E+00  0.00000000000E+00  0.14955466231E+04  0.14955466231E+04  0.00000000000E+00 0. -1.
         21   -1    0    0  502  503 -0.00000000000E+00 -0.00000000000E+00 -0.21612138465E+02  0.21612138465E+02  0.00000000000E+00 0. -1.
          6    1    1    2  501    0  0.41650440424E+01 -0.24387296669E+00  0.51688711385E+03  0.54476939665E+03  0.17200000000E+03 0. -1.
         -6    1    1    2    0  503 -0.41650440424E+01  0.24387296669E+00  0.95704737074E+03  0.97238936487E+03  0.17200000000E+03 0. -1.
</event>
<event>
 4    1  0.4612011E+000  0.1937612E+03  0.7818608E-02  0.1155112E+00
         21   -1    0    0  503  502  0.00000000000E+00  0.00000000000E+00  0.72012428803E+02  0.72012428803E+02  0.00000000000E+00 0. -1.
         21   -1    0    0  501  503 -0.00000000000E+00 -0.00000000000E+00 -0.56076762086E+03  0.56076762086E+03  0.00000000000E+00 0.  1.
          6    1    1    2  501    0  0.86795280320E+02  0.20639024259E+02 -0.32826537311E+03  0.38118439789E+03  0.17200000000E+03 0.  1.
         -6    1    1    2    0  502 -0.86795280320E+02 -0.20639024259E+02 -0.16048981895E+03  0.25159565178E+03  0.17200000000E+03 0. -1.
</event>
<event>
 4    1  0.4612011E+000  0.1784245E+03  0.7818608E-02  0.1169337E+00
         21   -1    0    0  503  502  0.00000000000E+00  0.00000000000E+00  0.28741324866E+03  0.28741324866E+03  0.00000000000E+00 0. -1.
         21   -1    0    0  501  503 -0.00000000000E+00 -0.00000000000E+00 -0.19583916537E+03  0.19583916537E+03  0.00000000000E+00 0. -1.
          6    1    1    2  501    0  0.42308302871E+02  0.21477761188E+02 -0.11346810679E+03  0.21144809759E+03  0.17200000000E+03 0. -1.
         -6    1    1    2    0  502 -0.42308302871E+02 -0.21477761188E+02  0.20504219008E+03  0.27180431643E+03  0.17200000000E+03 0. -1.
</event>
<event>
 4    1  0.4612011E+000  0.1939777E+03  0.7818608E-02  0.1154922E+00
         21   -1    0    0  501  502  0.00000000000E+00  0.00000000000E+00  0.40343351598E+03  0.40343351598E+03  0.00000000000E+00 0.  1.
         21   -1    0    0  502  503 -0.00000000000E+00 -0.00000000000E+00 -0.10054392306E+03  0.10054392306E+03  0.00000000000E+00 0.  1.
          6    1    1    2  501    0  0.70126236374E+02  0.55907610336E+02  0.21923293204E+03  0.29272927495E+03  0.17200000000E+03 0.  1.
         -6    1    1    2    0  503 -0.70126236374E+02 -0.55907610336E+02  0.83656660877E+02  0.21124816409E+03  0.17200000000E+03 0.  1.
</event>
<event>
 4    1  0.4612011E+000  0.3449039E+03  0.7818608E-02  0.1064726E+00
         21   -1    0    0  503  502  0.00000000000E+00  0.00000000000E+00  0.25358189798E+03  0.25358189798E+03  0.00000000000E+00 0.  1.
         21   -1    0    0  501  503 -0.00000000000E+00 -0.00000000000E+00 -0.49259181047E+03  0.49259181047E+03  0.00000000000E+00 0. -1.
          6    1    1    2  501    0  0.27455332053E+03 -0.11830133226E+03 -0.20095631612E+03  0.39917686809E+03  0.17200000000E+03 0. -1.
         -6    1    1    2    0  502 -0.27455332053E+03  0.11830133226E+03 -0.38053596374E+02  0.34699684037E+03  0.17200000000E+03 0.  1.
</event>
<event>
 4    1  0.4612011E+000  0.1903417E+03  0.7818608E-02  0.1158154E+00
         21   -1    0    0  503  502  0.00000000000E+00  0.00000000000E+00  0.10101204074E+03  0.10101204074E+03  0.00000000000E+00 0.  1.
         21   -1    0    0  501  503 -0.00000000000E+00 -0.00000000000E+00 -0.69510560921E+03  0.69510560921E+03  0.00000000000E+00 0.  1.
          6    1    1    2  501    0 -0.80212615233E+02 -0.14556245711E+02 -0.57397875639E+03  0.60471609928E+03  0.17200000000E+03 0.  1.
         -6    1    1    2    0  502  0.80212615233E+02  0.14556245711E+02 -0.20114812075E+02  0.19140155066E+03  0.17200000000E+03 0.  1.
</event>
<event>
 4    1  0.4612011E+000  0.1946578E+03  0.7818608E-02  0.1154326E+00
         21   -1    0    0  501  502  0.00000000000E+00  0.00000000000E+00  0.28811476818E+03  0.28811476818E+03  0.00000000000E+00 0.  1.
         21   -1    0    0  502  503 -0.00000000000E+00 -0.00000000000E+00 -0.38241775740E+03  0.38241775740E+03  0.00000000000E+00 0.  1.
          6    1    1    2  501    0  0.90631586782E+02 -0.96724330328E+01  0.22441292260E+03  0.29707372875E+03  0.17200000000E+03 0.  1.
         -6    1    1    2    0  503 -0.90631586782E+02  0.96724330328E+01 -0.31871591182E+03  0.37345879683E+03  0.17200000000E+03 0.  1.
</event>
<event>
 4    1  0.4612011E+000  0.4680342E+03  0.7818608E-02  0.1022477E+00
         21   -1    0    0  503  502  0.00000000000E+00  0.00000000000E+00  0.67283879773E+03  0.67283879773E+03  0.00000000000E+00 0.  1.
         21   -1    0    0  501  503 -0.00000000000E+00 -0.00000000000E+00 -0.34233725326E+03  0.34233725326E+03  0.00000000000E+00 0. -1.
          6    1    1    2  501    0 -0.20725191259E+03 -0.38277752392E+03  0.52915037513E+02  0.47101591193E+03  0.17200000000E+03 0. -1.
         -6    1    1    2    0  502  0.20725191259E+03  0.38277752392E+03  0.27758650695E+03  0.54416013906E+03  0.17200000000E+03 0. -1.
</event>
<event>
 4    1  0.4612011E+000  0.1810349E+03  0.7818608E-02  0.1166805E+00
         21   -1    0    0  503  502  0.00000000000E+00  0.00000000000E+00  0.13613702025E+03  0.13613702025E+03  0.00000000000E+00 0. -1.
         21   -1    0    0  501  503 -0.00000000000E+00 -0.00000000000E+00 -0.26318971897E+03  0.26318971897E+03  0.00000000000E+00 0. -1.
          6    1    1    2  501    0  0.20029496876E+02  0.52805794608E+02 -0.12183982580E+03  0.21821680925E+03  0.17200000000E+03 0. -1.
         -6    1    1    2    0  502 -0.20029496876E+02 -0.52805794608E+02 -0.52128729232E+01  0.18110992997E+03  0.17200000000E+03 0. -1.
</event>
<event>
 4    1  0.4612011E+000  0.1867656E+03  0.7818608E-02  0.1161411E+00
         21   -1    0    0  503  502  0.00000000000E+00  0.00000000000E+00  0.60408732002E+03  0.60408732002E+03  0.00000000000E+00 0.  1.
         21   -1    0    0  501  503 -0.00000000000E+00 -0.00000000000E+00 -0.58632701142E+02  0.58632701142E+02  0.00000000000E+00 0.  1.
          6    1    1    2  501    0  0.72778520538E+02 -0.82002578780E+00  0.31356162925E+03  0.36496887653E+03  0.17200000000E+03 0.  1.
         -6    1    1    2    0  502 -0.72778520538E+02  0.82002578780E+00  0.23189298962E+03  0.29775114463E+03  0.17200000000E+03 0.  1.
</event>
<event>
 4    1  0.4612011E+000  0.1784524E+03  0.7818608E-02  0.1169309E+00
         21   -1    0    0  501  502  0.00000000000E+00  0.00000000000E+00  0.84222150888E+03  0.84222150888E+03  0.00000000000E+00 0.  1.
         21   -1    0    0  502  503 -0.00000000000E+00 -0.00000000000E+00 -0.56055469351E+02  0.56055469351E+02  0.00000000000E+00 0.  1.
          6    1    1    2  501    0 -0.31190874268E+02  0.35894356115E+02  0.64931678517E+03  0.67339257713E+03  0.17200000000E+03 0.  1.
         -6    1    1    2    0  503  0.31190874268E+02 -0.35894356115E+02  0.13684925437E+03  0.22488440110E+03  0.17200000000E+03 0.  1.
</event>
<event>
 4    1  0.4612011E+000  0.2164443E+03  0.7818608E-02  0.1136562E+00
         21   -1    0    0  503  502  0.00000000000E+00  0.00000000000E+00  0.56883317536E+02  0.56883317536E+02  0.00000000000E+00 0. -1.
         21   -1    0    0  501  503 -0.00000000000E+00 -0.00000000000E+00 -0.12669751609E+04  0.12669751609E+04  0.00000000000E+00 0.  1.
          6    1    1    2  501    0  0.12382133107E+02  0.13080827231E+03 -0.21346491041E+03  0.30399899556E+03  0.17200000000E+03 0.  1.
         -6    1    1    2    0  502 -0.12382133107E+02 -0.13080827231E+03 -0.99662693291E+03  0.10198594828E+04  0.17200000000E+03 0. -1.
</event>
<event>
 4    1  0.4612011E+000  0.2225941E+03  0.7818608E-02  0.1131964E+00
         21   -1    0    0  503  502  0.00000000000E+00  0.00000000000E+00  0.26258689778E+03  0.26258689778E+03  0.00000000000E+00 0. -1.
         21   -1    0    0  501  503 -0.00000000000E+00 -0.00000000000E+00 -0.27657185504E+03  0.27657185504E+03  0.00000000000E+00 0.  1.
          6    1    1    2  501    0 -0.13644163088E+03 -0.36712530368E+02 -0.15895152907E+03  0.27352096285E+03  0.17200000000E+03 0.  1.
         -6    1    1    2    0  502  0.13644163088E+03  0.36712530368E+02  0.14496657181E+03  0.26563778998E+03  0.17200000000E+03 0. -1.
</event>
<event>
 4    1  0.4612011E+000  0.1789261E+03  0.7818608E-02  0.1168846E+00
         21   -1    0    0  501  502  0.00000000000E+00  0.00000000000E+00  0.31413141605E+04  0.31413141605E+04  0.00000000000E+00 0.  1.
         21   -1    0    0  502  503 -0.00000000000E+00 -0.00000000000E+00 -0.15780293299E+02  0.15780293299E+02  0.00000000000E+00 0.  1.
          6    1    1    2  501    0  0.18468809335E+02 -0.45710644586E+02  0.25021891804E+04  0.25085783333E+04  0.17200000000E+03 0.  1.
         -6    1    1    2    0  503 -0.18468809335E+02  0.45710644586E+02  0.62334468685E+03  0.64851612051E+03  0.17200000000E+03 0.  1.
</event>
<event>
 4    1  0.4612011E+000  0.3138202E+03  0.7818608E-02  0.1078529E+00
         21   -1    0    0  501  502  0.00000000000E+00  0.00000000000E+00  0.75310022170E+03  0.75310022170E+03  0.00000000000E+00 0.  1.
         21   -1    0    0  502  503 -0.00000000000E+00 -0.00000000000E+00 -0.14353909034E+03  0.14353909034E+03  0.00000000000E+00 0. -1.
          6    1    1    2  501    0  0.14455115235E+03 -0.21909835236E+03  0.43849490294E+03  0.53922249912E+03  0.17200000000E+03 0.  1.
         -6    1    1    2    0  503 -0.14455115235E+03  0.21909835236E+03  0.17106622841E+03  0.35741681292E+03  0.17200000000E+03 0. -1.
</event>
<event>
 4    1  0.4612011E+000  0.1759053E+03  0.7818608E-02  0.1171826E+00
         21   -1    0    0  501  502  0.00000000000E+00  0.00000000000E+00  0.41897906629E+03  0.41897906629E+03  0.00000000000E+00 0.  1.
         21   -1    0    0  502  503 -0.00000000000E+00 -0.00000000000E+00 -0.14593524923E+03  0.14593524923E+03  0.00000000000E+00 0.  1.
          6    1    1    2  501    0  0.28402615003E+01  0.36750516764E+02  0.33503449053E+03  0.37840557265E+03  0.17200000000E+03 0.  1.
         -6    1    1    2    0  503 -0.28402615003E+01 -0.36750516764E+02 -0.61990673469E+02  0.18650874286E+03  0.17200000000E+03 0.  1.
</event>
<event>
 4    1  0.4612011E+000  0.1805863E+03  0.7818608E-02  0.1167237E+00
         21   -1    0    0  503  502  0.00000000000E+00  0.00000000000E+00  0.63097096465E+02  0.63097096465E+02  0.00000000000E+00 0. -1.
         21   -1    0    0  501  503 -0.00000000000E+00 -0.00000000000E+00 -0.61680085573E+03  0.61680085573E+03  0.00000000000E+00 0. -1.
          6    1    1    2  501    0  0.20335214245E+02 -0.51126205653E+02 -0.41370215751E+03  0.45139880923E+03  0.17200000000E+03 0. -1.
         -6    1    1    2    0  502 -0.20335214245E+02  0.51126205653E+02 -0.14000160175E+03  0.22849914297E+03  0.17200000000E+03 0. -1.
</event>
<event>
 4    1  0.4612011E+000  0.1785732E+03  0.7818608E-02  0.1169191E+00
         21   -1    0    0  501  502  0.00000000000E+00  0.00000000000E+00  0.23567476722E+03  0.23567476722E+03  0.00000000000E+00 0.  1.
         21   -1    0    0  502  503 -0.00000000000E+00 -0.00000000000E+00 -0.21956116704E+03  0.21956116704E+03  0.00000000000E+00 0.  1.
          6    1    1    2  501    0 -0.36499699901E+02 -0.31179246276E+02 -0.13294519565E+03  0.22262703910E+03  0.17200000000E+03 0.  1.
         -6    1    1    2    0  503  0.36499699901E+02  0.31179246276E+02  0.14905879583E+03  0.23260889516E+03  0.17200000000E+03 0.  1.
</event>
<event>
 4    1  0.4612011E+000  0.1748980E+03  0.7818608E-02  0.1172834E+00
         21   -1    0    0  501  502  0.00000000000E+00  0.00000000000E+00  0.65633432629E+03  0.65633432629E+03  0.00000000000E+00 0. -1.
         21   -1    0    0  502  503 -0.00000000000E+00 -0.00000000000E+00 -0.21065464125E+03  0.21065464125E+03  0.00000000000E+00 0. -1.
          6    1    1    2  501    0  0.23441341918E+02 -0.21350130834E+02  0.60538610281E+03  0.63014415658E+03  0.17200000000E+03 0. -1.
         -6    1    1    2    0  503 -0.23441341918E+02  0.21350130834E+02 -0.15970641777E+03  0.23684481095E+03  0.17200000000E+03 0. -1.
</event>
<event>
 4    1  0.4612011E+000  0.2211070E+03  0.7818608E-02  0.1133060E+00
         21   -1    0    0  503  502  0.00000000000E+00  0.00000000000E+00  0.72194166069E+03  0.72194166069E+03  0.00000000000E+00 0. -1.
         21   -1    0    0  501  503 -0.00000000000E+00 -0.00000000000E+00 -0.98601298186E+02  0.98601298186E+02  0.00000000000E+00 0. -1.
          6    1    1    2  501    0 -0.13662730127E+03 -0.25244411598E+02  0.82058876470E+02  0.23584308125E+03  0.17200000000E+03 0. -1.
         -6    1    1    2    0  502  0.13662730127E+03  0.25244411598E+02  0.54128148603E+03  0.58469987762E+03  0.17200000000E+03 0. -1.
</event>
<event>
 4    1  0.4612011E+000  0.3295273E+03  0.7818608E-02  0.1071346E+00
         21   -1    0    0  501  502  0.00000000000E+00  0.00000000000E+00  0.17290773802E+03  0.17290773802E+03  0.00000000000E+00 0.  1.
         21   -1    0    0  502  503 -0.00000000000E+00 -0.00000000000E+00 -0.70182608674E+03  0.70182608674E+03  0.00000000000E+00 0. -1.
          6    1    1    2  501    0 -0.23274829273E+03  0.15758330459E+03 -0.40629912227E+03  0.52313214622E+03  0.17200000000E+03 0. -1.
         -6    1    1    2    0  503  0.23274829273E+03 -0.15758330459E+03 -0.12261922646E+03  0.35160167854E+03  0.17200000000E+03 0.  1.
</event>
<event>
 4    1  0.4612011E+000  0.1795986E+03  0.7818608E-02  0.1168192E+00
         21   -1    0    0  501  502  0.00000000000E+00  0.00000000000E+00  0.12070059153E+04  0.12070059153E+04  0.00000000000E+00 0.  1.
         21   -1    0    0  502  503 -0.00000000000E+00 -0.00000000000E+00 -0.29091278465E+02  0.29091278465E+02  0.00000000000E+00 0.  1.
          6    1    1    2  501    0 -0.15532717474E+01  0.51664557900E+02  0.76527476781E+03  0.78606686067E+03  0.17200000000E+03 0.  1.
         -6    1    1    2    0  503  0.15532717474E+01 -0.51664557900E+02  0.41263986902E+03  0.45003033309E+03  0.17200000000E+03 0.  1.
</event>
<event>
 4    1  0.4612011E+000  0.1961279E+03  0.7818608E-02  0.1153048E+00
         21   -1    0    0  503  502  0.00000000000E+00  0.00000000000E+00  0.87169187860E+03  0.87169187860E+03  0.00000000000E+00 0. -1.
         21   -1    0    0  501  503 -0.00000000000E+00 -0.00000000000E+00 -0.90646960053E+02  0.90646960053E+02  0.00000000000E+00 0. -1.
          6    1    1    2  501    0 -0.67122664322E+02 -0.66156606252E+02  0.45826889457E+02  0.20141065616E+03  0.17200000000E+03 0. -1.
         -6    1    1    2    0  502  0.67122664322E+02  0.66156606252E+02  0.73521802909E+03  0.76092818250E+03  0.17200000000E+03 0. -1.
</event>
<event>
 4    1  0.4612011E+000  0.3586216E+03  0.7818608E-02  0.1059131E+00
         21   -1    0    0  501  502  0.00000000000E+00  0.00000000000E+00  0.66125356008E+03  0.66125356008E+03  0.00000000000E+00 0. -1.
         21   -1    0    0  502  503 -0.00000000000E+00 -0.00000000000E+00 -0.19453754497E+03  0.19453754497E+03  0.00000000000E+00 0.  1.
          6    1    1    2  501    0 -0.29626714982E+03  0.10607176093E+03  0.23980497968E+03  0.43141148664E+03  0.17200000000E+03 0.  1.
         -6    1    1    2    0  503  0.29626714982E+03 -0.10607176093E+03  0.22691103542E+03  0.42437961841E+03  0.17200000000E+03 0. -1.
</event>
<event>
 4    1  0.4612011E+000  0.2632458E+03  0.7818608E-02  0.1105209E+00
         21   -1    0    0  503  502  0.00000000000E+00  0.00000000000E+00  0.21395811751E+03  0.21395811751E+03  0.00000000000E+00 0. -1.
         21   -1    0    0  501  503 -0.00000000000E+00 -0.00000000000E+00 -0.50995250679E+03  0.50995250679E+03  0.00000000000E+00 0. -1.
          6    1    1    2  501    0 -0.19923642696E+03  0.43833534961E+01 -0.36663355960E+03  0.45135189668E+03  0.17200000000E+03 0. -1.
         -6    1    1    2    0  502  0.19923642696E+03 -0.43833534961E+01  0.70639170317E+02  0.27255872761E+03  0.17200000000E+03 0. -1.
</event>
<event>
 4    1  0.4612011E+000  0.2255568E+03  0.7818608E-02  0.1129807E+00
         21   -1    0    0  501  502  0.00000000000E+00  0.00000000000E+00  0.61941688559E+03  0.61941688559E+03  0.00000000000E+00 0. -1.
         21   -1    0    0  502  503 -0.00000000000E+00 -0.00000000000E+00 -0.86533180560E+02  0.86533180560E+02  0.00000000000E+00 0.  1.
          6    1    1    2  501    0 -0.14589685793E+03  0.24446372169E+01  0.34601822166E+03  0.41304295071E+03  0.17200000000E+03 0. -1.
         -6    1    1    2    0  503  0.14589685793E+03 -0.24446372169E+01  0.18686548337E+03  0.29290711544E+03  0.17200000000E+03 0. -1.
</event>
<event>
 4    1  0.4612011E+000  0.2086665E+03  0.7818608E-02  0.1142626E+00
         21   -1    0    0  501  502  0.00000000000E+00  0.00000000000E+00  0.65750289745E+03  0.65750289745E+03  0.00000000000E+00 0.  1.
         21   -1    0    0  502  503 -0.00000000000E+00 -0.00000000000E+00 -0.33703130449E+03  0.33703130449E+03  0.00000000000E+00 0.  1.
          6    1    1    2  501    0 -0.87647989709E+02 -0.79218337936E+02  0.60598001281E+03  0.64090053135E+03  0.17200000000E+03 0.  1.
         -6    1    1    2    0  503  0.87647989709E+02  0.79218337936E+02 -0.28550841985E+03  0.35363367058E+03  0.17200000000E+03 0.  1.
</event>
<event>
 4    1  0.4612011E+000  0.2216389E+03  0.7818608E-02  0.1132667E+00
         21   -1    0    0  501  502  0.00000000000E+00  0.00000000000E+00  0.10610642729E+03  0.10610642729E+03  0.00000000000E+00 0.  1.
         21   -1    0    0  502  503 -0.00000000000E+00 -0.00000000000E+00 -0.60533734185E+03  0.60533734185E+03  0.00000000000E+00 0.  1.
          6    1    1    2  501    0 -0.82102939630E+02  0.11313219761E+03 -0.77102612881E+02  0.23466699756E+03  0.17200000000E+03 0.  1.
         -6    1    1    2    0  503  0.82102939630E+02 -0.11313219761E+03 -0.42212830168E+03  0.47677677157E+03  0.17200000000E+03 0.  1.
</event>
<event>
 4    1  0.4612011E+000  0.1915425E+03  0.7818608E-02  0.1157077E+00
         21   -1    0    0  503  502  0.00000000000E+00  0.00000000000E+00  0.85477237869E+02  0.85477237869E+02  0.00000000000E+00 0.  1.
         21   -1    0    0  501  503 -0.00000000000E+00 -0.00000000000E+00 -0.95709632677E+03  0.95709632677E+03  0.00000000000E+00 0.  1.
          6    1    1    2  501    0  0.79090849209E+02 -0.29140443280E+02 -0.82294686510E+03  0.84494382691E+03  0.17200000000E+03 0.  1.
         -6    1    1    2    0  502 -0.79090849209E+02  0.29140443280E+02 -0.48672223801E+02  0.19762973772E+03  0.17200000000E+03 0.  1.
</event>
<event>
 4    1  0.4612011E+000  0.1754919E+03  0.7818608E-02  0.1172239E+00
         21   -1    0    0  501  502  0.00000000000E+00  0.00000000000E+00  0.13646544240E+04  0.13646544240E+04  0.00000000000E+00 0. -1.
         21   -1    0    0  502  503 -0.00000000000E+00 -0.00000000000E+00 -0.39645672281E+02  0.39645672281E+02  0.00000000000E+00 0. -1.
          6    1    1    2  501    0  0.28710738514E+02  0.19725303879E+02  0.11233416051E+04  0.11369669106E+04  0.17200000000E+03 0. -1.
         -6    1    1    2    0  503 -0.28710738514E+02 -0.19725303879E+02  0.20166714658E+03  0.26733318561E+03  0.17200000000E+03 0. -1.
</event>
<event>
 4    1  0.4612011E+000  0.2221411E+03  0.7818608E-02  0.1132297E+00
         21   -1    0    0  503  502  0.00000000000E+00  0.00000000000E+00  0.54964950797E+03  0.54964950797E+03  0.00000000000E+00 0.  1.
         21   -1    0    0  501  503 -0.00000000000E+00 -0.00000000000E+00 -0.16476717593E+03  0.16476717593E+03  0.00000000000E+00 0. -1.
          6    1    1    2  501    0  0.14056676817E+03 -0.19107911686E+01 -0.48540665995E+02  0.22738263718E+03  0.17200000000E+03 0. -1.
         -6    1    1    2    0  502 -0.14056676817E+03  0.19107911686E+01  0.43342299804E+03  0.48703404672E+03  0.17200000000E+03 0.  1.
</event>
<event>
 4    1  0.4612011E+000  0.2381600E+03  0.7818608E-02  0.1121025E+00
         21   -1    0    0  501  502  0.00000000000E+00  0.00000000000E+00  0.29758353966E+03  0.29758353966E+03  0.00000000000E+00 0. -1.
         21   -1    0    0  502  503 -0.00000000000E+00 -0.00000000000E+00 -0.30745184118E+03  0.30745184118E+03  0.00000000000E+00 0. -1.
          6    1    1    2  501    0 -0.24588824697E+02  0.16288518972E+03  0.18156427994E+03  0.29947584724E+03  0.17200000000E+03 0. -1.
         -6    1    1    2    0  503  0.24588824697E+02 -0.16288518972E+03 -0.19143258147E+03  0.30555953360E+03  0.17200000000E+03 0. -1.
</event>
<event>
 4    1  0.4612011E+000  0.2235047E+03  0.7818608E-02  0.1131297E+00
         21   -1    0    0  501  502  0.00000000000E+00  0.00000000000E+00  0.85327471368E+03  0.85327471368E+03  0.00000000000E+00 0. -1.
         21   -1    0    0  502  503 -0.00000000000E+00 -0.00000000000E+00 -0.68726530099E+02  0.68726530099E+02  0.00000000000E+00 0. -1.
          6    1    1    2  501    0 -0.12173536303E+03  0.74503956318E+02  0.56971819572E+03  0.61199114426E+03  0.17200000000E+03 0. -1.
         -6    1    1    2    0  503  0.12173536303E+03 -0.74503956318E+02  0.21482998786E+03  0.31001009952E+03  0.17200000000E+03 0. -1.
</event>
<event>
 4    1  0.4612011E+000  0.2199582E+03  0.7818608E-02  0.1133914E+00
         21   -1    0    0  501  502  0.00000000000E+00  0.00000000000E+00  0.71794175563E+03  0.71794175563E+03  0.00000000000E+00 0.  1.
         21   -1    0    0  502  503 -0.00000000000E+00 -0.00000000000E+00 -0.68055881698E+02  0.68055881698E+02  0.00000000000E+00 0. -1.
          6    1    1    2  501    0  0.11264889174E+03 -0.78152693196E+02  0.36383618873E+03  0.42515689868E+03  0.17200000000E+03 0. -1.
         -6    1    1    2    0  503 -0.11264889174E+03  0.78152693196E+02  0.28604968521E+03  0.36084073865E+03  0.17200000000E+03 0. -1.
</event>
<event>
 4    1  0.4612011E+000  0.1841961E+03  0.7818608E-02  0.1163803E+00
         21   -1    0    0  503  502  0.00000000000E+00  0.00000000000E+00  0.25238723809E+03  0.25238723809E+03  0.00000000000E+00 0. -1.
         21   -1    0    0  501  503 -0.00000000000E+00 -0.00000000000E+00 -0.59497306853E+03  0.59497306853E+03  0.00000000000E+00 0.  1.
          6    1    1    2  501    0 -0.49976437385E+02  0.42971531637E+02 -0.54404922361E+03  0.57438467471E+03  0.17200000000E+03 0.  1.
         -6    1    1    2    0  502  0.49976437385E+02 -0.42971531637E+02  0.20146339318E+03  0.27297563191E+03  0.17200000000E+03 0. -1.
</event>
<event>
 4    1  0.4612011E+000  0.1788438E+03  0.7818608E-02  0.1168927E+00
         21   -1    0    0  501  502  0.00000000000E+00  0.00000000000E+00  0.37458903134E+02  0.37458903134E+02  0.00000000000E+00 0. -1.
         21   -1    0    0  502  503 -0.00000000000E+00 -0.00000000000E+00 -0.15927445167E+04  0.15927445167E+04  0.00000000000E+00 0. -1.
          6    1    1    2  501    0  0.20147511042E+02 -0.44667325181E+02 -0.22247582362E+03  0.28544804122E+03  0.17200000000E+03 0. -1.
         -6    1    1    2    0  503 -0.20147511042E+02  0.44667325181E+02 -0.13328097899E+04  0.13447553786E+04  0.17200000000E+03 0. -1.
</event>
<event>
 4    1  0.4612011E+000  0.2086622E+03  0.7818608E-02  0.1142630E+00
         21   -1    0    0  503  502  0.00000000000E+00  0.00000000000E+00  0.21816770116E+03  0.21816770116E+03  0.00000000000E+00 0. -1.
         21   -1    0    0  501  503 -0.00000000000E+00 -0.00000000000E+00 -0.41243489018E+03  0.41243489018E+03  0.00000000000E+00 0. -1.
          6    1    1    2  501    0 -0.10039423735E+03 -0.62264854522E+02  0.12938257052E+03  0.24551937715E+03  0.17200000000E+03 0. -1.
         -6    1    1    2    0  502  0.10039423735E+03  0.62264854522E+02 -0.32364975953E+03  0.38508321419E+03  0.17200000000E+03 0. -1.
</event>
<event>
 4    1  0.4612011E+000  0.2160694E+03  0.7818608E-02  0.1136848E+00
         21   -1    0    0  501  502  0.00000000000E+00  0.00000000000E+00  0.28570574180E+02  0.28570574180E+02  0.00000000000E+00 0.  1.
         21   -1    0    0  502  503 -0.00000000000E+00 -0.00000000000E+00 -0.17750937784E+04  0.17750937784E+04  0.00000000000E+00 0. -1.
          6    1    1    2  501    0  0.12606192546E+03  0.34790757803E+02 -0.11274630837E+04  0.11479804054E+04  0.17200000000E+03 0. -1.
         -6    1    1    2    0  503 -0.12606192546E+03 -0.34790757803E+02 -0.61906012045E+03  0.65568394719E+03  0.17200000000E+03 0.  1.
</event>
<event>
 4    1  0.4612011E+000  0.2491703E+03  0.7818608E-02  0.1113830E+00
         21   -1    0    0  501  502  0.00000000000E+00  0.00000000000E+00  0.17465384968E+03  0.17465384968E+03  0.00000000000E+00 0. -1.
         21   -1    0    0  502  503 -0.00000000000E+00 -0.00000000000E+00 -0.36513154209E+03  0.36513154209E+03  0.00000000000E+00 0. -1.
          6    1    1    2  501    0  0.17937222859E+03  0.18094720930E+02 -0.51357269728E+02  0.25440790961E+03  0.17200000000E+03 0. -1.
         -6    1    1    2    0  503 -0.17937222859E+03 -0.18094720930E+02 -0.13912042269E+03  0.28537748216E+03  0.17200000000E+03 0. -1.
</event>
<event>
 4    1  0.4612011E+000  0.1776447E+03  0.7818608E-02  0.1170102E+00
         21   -1    0    0  503  502  0.00000000000E+00  0.00000000000E+00  0.11726662617E+03  0.11726662617E+03  0.00000000000E+00 0. -1.
         21   -1    0    0  501  503 -0.00000000000E+00 -0.00000000000E+00 -0.27044788922E+03  0.27044788922E+03  0.00000000000E+00 0. -1.
          6    1    1    2  501    0 -0.29751282756E+02  0.32992700098E+02 -0.90223946144E+02  0.19924361356E+03  0.17200000000E+03 0.  1.
         -6    1    1    2    0  502  0.29751282756E+02 -0.32992700098E+02 -0.62957316900E+02  0.18847090183E+03  0.17200000000E+03 0.  1.
</event>
<event>
 4    1  0.4612011E+000  0.1978347E+03  0.7818608E-02  0.1151579E+00
         21   -1    0    0  503  502  0.00000000000E+00  0.00000000000E+00  0.52604269318E+03  0.52604269318E+03  0.00000000000E+00 0. -1.
         21   -1    0    0  501  503 -0.00000000000E+00 -0.00000000000E+00 -0.85740637187E+02  0.85740637187E+02  0.00000000000E+00 0. -1.
          6    1    1    2  501    0  0.94549390595E+02 -0.24799212303E+02  0.10891225604E+03  0.22583283134E+03  0.17200000000E+03 0. -1.
         -6    1    1    2    0  502 -0.94549390595E+02  0.24799212303E+02  0.33138979995E+03  0.38595049903E+03  0.17200000000E+03 0. -1.
</event>
<event>
 4    1  0.4612011E+000  0.2541364E+03  0.7818608E-02  0.1110718E+00
         21   -1    0    0  503  502  0.00000000000E+00  0.00000000000E+00  0.28663207196E+03  0.28663207196E+03  0.00000000000E+00 0. -1.
         21   -1    0    0  501  503 -0.00000000000E+00 -0.00000000000E+00 -0.23914235151E+03  0.23914235151E+03  0.00000000000E+00 0.  1.
          6    1    1    2  501    0 -0.10836680040E+03 -0.15250558041E+03  0.86936073364E+02  0.26859485538E+03  0.17200000000E+03 0. -1.
         -6    1    1    2    0  502  0.10836680040E+03  0.15250558041E+03 -0.39446352907E+02  0.25717956809E+03  0.17200000000E+03 0.  1.
</event>
<event>
 4    1  0.4612011E+000  0.2083949E+03  0.7818608E-02  0.1142843E+00
         21   -1    0    0  501  502  0.00000000000E+00  0.00000000000E+00  0.53430557126E+03  0.53430557126E+03  0.00000000000E+00 0. -1.
         21   -1    0    0  502  503 -0.00000000000E+00 -0.00000000000E+00 -0.63153952506E+03  0.63153952506E+03  0.00000000000E+00 0. -1.
          6    1    1    2  501    0 -0.74860426868E+02  0.90776357612E+02  0.49550255604E+03  0.53754182503E+03  0.17200000000E+03 0. -1.
         -6    1    1    2    0  503  0.74860426868E+02 -0.90776357612E+02 -0.59273650985E+03  0.62830327129E+03  0.17200000000E+03 0. -1.
</event>
<event>
 4    1  0.4612011E+000  0.1744130E+03  0.7818608E-02  0.1173322E+00
         21   -1    0    0  501  502  0.00000000000E+00  0.00000000000E+00  0.29944303304E+03  0.29944303304E+03  0.00000000000E+00 0. -1.
         21   -1    0    0  502  503 -0.00000000000E+00 -0.00000000000E+00 -0.12503905754E+03  0.12503905754E+03  0.00000000000E+00 0. -1.
          6    1    1    2  501    0  0.28734884451E+02 -0.31920596560E+01  0.17911685568E+03  0.25000546157E+03  0.17200000000E+03 0. -1.
         -6    1    1    2    0  503 -0.28734884451E+02  0.31920596560E+01 -0.47128801789E+01  0.17447662900E+03  0.17200000000E+03 0. -1.
</event>
<event>
 4    1  0.4612011E+000  0.2255192E+03  0.7818608E-02  0.1129834E+00
         21   -1    0    0  501  502  0.00000000000E+00  0.00000000000E+00  0.50350696814E+02  0.50350696814E+02  0.00000000000E+00 0.  1.
         21   -1    0    0  502  503 -0.00000000000E+00 -0.00000000000E+00 -0.12399210004E+04  0.12399210004E+04  0.00000000000E+00 0.  1.
          6    1    1    2  501    0 -0.99508864823E+02 -0.10664368837E+03 -0.31703419691E+03  0.38906242745E+03  0.17200000000E+03 0.  1.
         -6    1    1    2    0  503  0.99508864823E+02  0.10664368837E+03 -0.87253610665E+03  0.90120926973E+03  0.17200000000E+03 0.  1.
</event>
<event>
 4    1  0.4612011E+000  0.1769420E+03  0.7818608E-02  0.1170796E+00
         21   -1    0    0  501  502  0.00000000000E+00  0.00000000000E+00  0.76793917478E+03  0.76793917478E+03  0.00000000000E+00 0. -1.
         21   -1    0    0  502  503 -0.00000000000E+00 -0.00000000000E+00 -0.71314732349E+02  0.71314732349E+02  0.00000000000E+00 0. -1.
          6    1    1    2  501    0  0.12458097217E+01  0.41508127824E+02  0.62294074634E+03  0.64758292918E+03  0.17200000000E+03 0. -1.
         -6    1    1    2    0  503 -0.12458097217E+01 -0.41508127824E+02  0.73683696090E+02  0.19167097795E+03  0.17200000000E+03 0. -1.
</event>
<event>
 4    1  0.4612011E+000  0.2301181E+03  0.7818608E-02  0.1126557E+00
         21   -1    0    0  503  502  0.00000000000E+00  0.00000000000E+00  0.27917272134E+03  0.27917272134E+03  0.00000000000E+00 0.  1.
         21   -1    0    0  501  503 -0.00000000000E+00 -0.00000000000E+00 -0.19097021838E+03  0.19097021838E+03  0.00000000000E+00 0.  1.
          6    1    1    2  501    0 -0.73928137996E+01 -0.15269473691E+03  0.24802336256E+02  0.23145084200E+03  0.17200000000E+03 0.  1.
         -6    1    1    2    0  502  0.73928137996E+01  0.15269473691E+03  0.63400166699E+02  0.23869209772E+03  0.17200000000E+03 0.  1.
</event>
<event>
 4    1  0.4612011E+000  0.2231191E+03  0.7818608E-02  0.1131579E+00
         21   -1    0    0  501  502  0.00000000000E+00  0.00000000000E+00  0.57251309174E+03  0.57251309174E+03  0.00000000000E+00 0.  1.
         21   -1    0    0  502  503 -0.00000000000E+00 -0.00000000000E+00 -0.12010489518E+03  0.12010489518E+03  0.00000000000E+00 0.  1.
          6    1    1    2  501    0  0.30948591921E+02 -0.13870940110E+03  0.40814620567E+03  0.46515098462E+03  0.17200000000E+03 0. -1.
         -6    1    1    2    0  503 -0.30948591921E+02  0.13870940110E+03  0.44261990891E+02  0.22746700230E+03  0.17200000000E+03 0. -1.
</event>
<event>
 4    1  0.4612011E+000  0.1856972E+03  0.7818608E-02  0.1162400E+00
         21   -1    0    0  501  502  0.00000000000E+00  0.00000000000E+00  0.28611512186E+03  0.28611512186E+03  0.00000000000E+00 0. -1.
         21   -1    0    0  502  503 -0.00000000000E+00 -0.00000000000E+00 -0.12454675933E+03  0.12454675933E+03  0.00000000000E+00 0. -1.
          6    1    1    2  501    0 -0.43385150277E+02 -0.54928857522E+02  0.11769082817E+03  0.21985127175E+03  0.17200000000E+03 0.  1.
         -6    1    1    2    0  503  0.43385150277E+02  0.54928857522E+02  0.43877534356E+02  0.19081060944E+03  0.17200000000E+03 0.  1.
</event>
<event>
 4    1  0.4612011E+000  0.1812520E+03  0.7818608E-02  0.1166597E+00
         21   -1    0    0  503  502  0.00000000000E+00  0.00000000000E+00  0.49992551476E+03  0.49992551476E+03  0.00000000000E+00 0.  1.
         21   -1    0    0  501  503 -0.00000000000E+00 -0.00000000000E+00 -0.10346690759E+03  0.10346690759E+03  0.00000000000E+00 0. -1.
          6    1    1    2  501    0  0.29896686951E+02  0.48728633508E+02  0.15989944150E+02  0.18195595601E+03  0.17200000000E+03 0. -1.
         -6    1    1    2    0  502 -0.29896686951E+02 -0.48728633508E+02  0.38046866303E+03  0.42143646634E+03  0.17200000000E+03 0.  1.
</event>
<event>
 4    1  0.4612011E+000  0.2188178E+03  0.7818608E-02  0.1134768E+00
         21   -1    0    0  501  502  0.00000000000E+00  0.00000000000E+00  0.47362117049E+03  0.47362117049E+03  0.00000000000E+00 0.  1.
         21   -1    0    0  502  503 -0.00000000000E+00 -0.00000000000E+00 -0.17842102052E+03  0.17842102052E+03  0.00000000000E+00 0.  1.
          6    1    1    2  501    0 -0.19994212992E+02  0.13378133081E+03 -0.67026093343E+02  0.22885303191E+03  0.17200000000E+03 0.  1.
         -6    1    1    2    0  503  0.19994212992E+02 -0.13378133081E+03  0.36222624332E+03  0.42318915909E+03  0.17200000000E+03 0.  1.
</event>
<event>
 4    1  0.4612011E+000  0.1753254E+03  0.7818608E-02  0.1172405E+00
         21   -1    0    0  501  502  0.00000000000E+00  0.00000000000E+00  0.67749146674E+03  0.67749146674E+03  0.00000000000E+00 0.  1.
         21   -1    0    0  502  503 -0.00000000000E+00 -0.00000000000E+00 -0.50977387780E+02  0.50977387780E+02  0.00000000000E+00 0.  1.
          6    1    1    2  501    0  0.12229756075E+02  0.31708676739E+02  0.43403920040E+03  0.46811220300E+03  0.17200000000E+03 0.  1.
         -6    1    1    2    0  503 -0.12229756075E+02 -0.31708676739E+02  0.19247487856E+03  0.26035665152E+03  0.17200000000E+03 0.  1.
</event>
<event>
 4    1  0.4612011E+000  0.2246227E+03  0.7818608E-02  0.1130483E+00
         21   -1    0    0  503  502  0.00000000000E+00  0.00000000000E+00  0.10156164650E+03  0.10156164650E+03  0.00000000000E+00 0.  1.
         21   -1    0    0  501  503 -0.00000000000E+00 -0.00000000000E+00 -0.52003809523E+03  0.52003809523E+03  0.00000000000E+00 0.  1.
          6    1    1    2  501    0 -0.38845452758E+02 -0.13914877779E+03 -0.27494454669E+03  0.35503500576E+03  0.17200000000E+03 0. -1.
         -6    1    1    2    0  502  0.38845452758E+02  0.13914877779E+03 -0.14353190204E+03  0.26656473597E+03  0.17200000000E+03 0. -1.
</event>
<event>
 4    1  0.4612011E+000  0.1908518E+03  0.7818608E-02  0.1157695E+00
         21   -1    0    0  503  502  0.00000000000E+00  0.00000000000E+00  0.17963656563E+04  0.17963656563E+04  0.00000000000E+00 0.  1.
         21   -1    0    0  501  503 -0.00000000000E+00 -0.00000000000E+00 -0.22763902805E+02  0.22763902805E+02  0.00000000000E+00 0. -1.
          6    1    1    2  501    0 -0.22454704002E+02  0.79600344771E+02  0.58614970360E+03  0.61643807770E+03  0.17200000000E+03 0. -1.
         -6    1    1    2    0  502  0.22454704002E+02 -0.79600344771E+02  0.11874520499E+04  0.12026914814E+04  0.17200000000E+03 0.  1.
</event>
<event>
 4    1  0.4612011E+000  0.3400683E+03  0.7818608E-02  0.1066767E+00
         21   -1    0    0  501  502  0.00000000000E+00  0.00000000000E+00  0.60176514683E+03  0.60176514683E+03  0.00000000000E+00 0. -1.
         21   -1    0    0  502  503 -0.00000000000E+00 -0.00000000000E+00 -0.24938485355E+03  0.24938485355E+03  0.00000000000E+00 0. -1.
          6    1    1    2  501    0 -0.23866896167E+03  0.17058587967E+03  0.38001757352E+03  0.50996055906E+03  0.17200000000E+03 0. -1.
         -6    1    1    2    0  503  0.23866896167E+03 -0.17058587967E+03 -0.27637280243E+02  0.34118944132E+03  0.17200000000E+03 0. -1.
</event>
<event>
 4    1  0.4612011E+000  0.2570144E+03  0.7818608E-02  0.1108950E+00
         21   -1    0    0  501  502  0.00000000000E+00  0.00000000000E+00  0.76327491918E+03  0.76327491918E+03  0.00000000000E+00 0.  1.
         21   -1    0    0  502  503 -0.00000000000E+00 -0.00000000000E+00 -0.86772562491E+02  0.86772562491E+02  0.00000000000E+00 0. -1.
          6    1    1    2  501    0  0.15597581699E+02  0.19033953027E+03  0.36009232812E+03  0.44240581609E+03  0.17200000000E+03 0.  1.
         -6    1    1    2    0  503 -0.15597581699E+02 -0.19033953027E+03  0.31641002857E+03  0.40764166558E+03  0.17200000000E+03 0. -1.
</event>
<event>
 4    1  0.4612011E+000  0.2102415E+03  0.7818608E-02  0.1141375E+00
         21   -1    0    0  503  502  0.00000000000E+00  0.00000000000E+00  0.85183740158E+03  0.85183740158E+03  0.00000000000E+00 0.  1.
         21   -1    0    0  501  503 -0.00000000000E+00 -0.00000000000E+00 -0.68006366405E+02  0.68006366405E+02  0.00000000000E+00 0.  1.
          6    1    1    2  501    0  0.11523998785E+03  0.36568299097E+02  0.16801847798E+03  0.26913138844E+03  0.17200000000E+03 0.  1.
         -6    1    1    2    0  502 -0.11523998785E+03 -0.36568299097E+02  0.61581255719E+03  0.65071237955E+03  0.17200000000E+03 0.  1.
</event>
<event>
 4    1  0.4612011E+000  0.1908691E+03  0.7818608E-02  0.1157680E+00
         21   -1    0    0  501  502  0.00000000000E+00  0.00000000000E+00  0.15824690783E+03  0.15824690783E+03  0.00000000000E+00 0.  1.
         21   -1    0    0  502  503 -0.00000000000E+00 -0.00000000000E+00 -0.24182568122E+03  0.24182568122E+03  0.00000000000E+00 0. -1.
          6    1    1    2  501    0  0.82426497690E+02 -0.72709822911E+01 -0.85618716950E+02  0.20919263705E+03  0.17200000000E+03 0.  1.
         -6    1    1    2    0  503 -0.82426497690E+02  0.72709822911E+01  0.20399435630E+01  0.19087995200E+03  0.17200000000E+03 0.  1.
</event>
<event>
 4    1  0.4612011E+000  0.2106938E+03  0.7818608E-02  0.1141018E+00
         21   -1    0    0  501  502  0.00000000000E+00  0.00000000000E+00  0.11281170524E+03  0.11281170524E+03  0.00000000000E+00 0. -1.
         21   -1    0    0  502  503 -0.00000000000E+00 -0.00000000000E+00 -0.41424425402E+03  0.41424425402E+03  0.00000000000E+00 0.  1.
          6    1    1    2  501    0 -0.40695207291E+02 -0.11468125085E+03 -0.91750153559E+02  0.22980422074E+03  0.17200000000E+03 0.  1.
         -6    1    1    2    0  503  0.40695207291E+02  0.11468125085E+03 -0.20968239522E+03  0.29725173853E+03  0.17200000000E+03 0. -1.
</event>
<event>
 4    1  0.4612011E+000  0.2450607E+03  0.7818608E-02  0.1116467E+00
         21   -1    0    0  503  502  0.00000000000E+00  0.00000000000E+00  0.12502573519E+03  0.12502573519E+03  0.00000000000E+00 0. -1.
         21   -1    0    0  501  503 -0.00000000000E+00 -0.00000000000E+00 -0.51452511055E+03  0.51452511055E+03  0.00000000000E+00 0. -1.
          6    1    1    2  501    0  0.16435562382E+02 -0.17378321274E+03 -0.27717618361E+03  0.36997482279E+03  0.17200000000E+03 0. -1.
         -6    1    1    2    0  502 -0.16435562382E+02  0.17378321274E+03 -0.11232319175E+03  0.26957602294E+03  0.17200000000E+03 0. -1.
</event>
<event>
 4    1  0.4612011E+000  0.2201278E+03  0.7818608E-02  0.1133788E+00
         21   -1    0    0  503  502  0.00000000000E+00  0.00000000000E+00  0.28944687822E+03  0.28944687822E+03  0.00000000000E+00 0. -1.
         21   -1    0    0  501  503 -0.00000000000E+00 -0.00000000000E+00 -0.22541602983E+03  0.22541602983E+03  0.00000000000E+00 0. -1.
          6    1    1    2  501    0 -0.11905424697E+03 -0.68544493786E+02  0.16260433707E+03  0.27367212460E+03  0.17200000000E+03 0. -1.
         -6    1    1    2    0  502  0.11905424697E+03  0.68544493786E+02 -0.98573488681E+02  0.24119078345E+03  0.17200000000E+03 0. -1.
</event>
<event>
 4    1  0.4612011E+000  0.1815639E+03  0.7818608E-02  0.1166298E+00
         21   -1    0    0  503  502  0.00000000000E+00  0.00000000000E+00  0.19791535063E+03  0.19791535063E+03  0.00000000000E+00 0. -1.
         21   -1    0    0  501  503 -0.00000000000E+00 -0.00000000000E+00 -0.37142228342E+03  0.37142228342E+03  0.00000000000E+00 0. -1.
          6    1    1    2  501    0 -0.24300027618E+02  0.52829531047E+02 -0.29816726796E+03  0.34909765163E+03  0.17200000000E+03 0. -1.
         -6    1    1    2    0  502  0.24300027618E+02 -0.52829531047E+02  0.12466033517E+03  0.22023998242E+03  0.17200000000E+03 0. -1.
</event>
<event>
 4    1  0.4612011E+000  0.2154616E+03  0.7818608E-02  0.1137313E+00
         21   -1    0    0  501  502  0.00000000000E+00  0.00000000000E+00  0.27184331124E+03  0.27184331124E+03  0.00000000000E+00 0.  1.
         21   -1    0    0  502  503 -0.00000000000E+00 -0.00000000000E+00 -0.17647286295E+03  0.17647286295E+03  0.00000000000E+00 0. -1.
          6    1    1    2  501    0 -0.12960771414E+03  0.64439763556E+01  0.74022525812E+01  0.21558867720E+03  0.17200000000E+03 0. -1.
         -6    1    1    2    0  503  0.12960771414E+03 -0.64439763556E+01  0.87968195712E+02  0.23272749698E+03  0.17200000000E+03 0.  1.
</event>
<event>
 4    1  0.4612011E+000  0.2010345E+03  0.7818608E-02  0.1148869E+00
         21   -1    0    0  503  502  0.00000000000E+00  0.00000000000E+00  0.93211283998E+03  0.93211283998E+03  0.00000000000E+00 0. -1.
         21   -1    0    0  501  503 -0.00000000000E+00 -0.00000000000E+00 -0.87364467257E+02  0.87364467257E+02  0.00000000000E+00 0.  1.
          6    1    1    2  501    0 -0.35381002169E+02 -0.97872620772E+02  0.60600706473E+02  0.20996978553E+03  0.17200000000E+03 0.  1.
         -6    1    1    2    0  502  0.35381002169E+02  0.97872620772E+02  0.78414766625E+03  0.80950752171E+03  0.17200000000E+03 0. -1.
</event>
<event>
 4    1  0.4612011E+000  0.1894234E+03  0.7818608E-02  0.1158982E+00
         21   -1    0    0  501  502  0.00000000000E+00  0.00000000000E+00  0.92131305248E+02  0.92131305248E+02  0.00000000000E+00 0.  1.
         21   -1    0    0  502  503 -0.00000000000E+00 -0.00000000000E+00 -0.53357047327E+03  0.53357047327E+03  0.00000000000E+00 0. -1.
          6    1    1    2  501    0  0.76960567564E+02  0.19347204655E+02 -0.58129975400E+02  0.19814221491E+03  0.17200000000E+03 0.  1.
         -6    1    1    2    0  503 -0.76960567564E+02 -0.19347204655E+02 -0.38330919262E+03  0.42755956361E+03  0.17200000000E+03 0. -1.
</event>
<event>
 4    1  0.4612011E+000  0.2366208E+03  0.7818608E-02  0.1122065E+00
         21   -1    0    0  501  502  0.00000000000E+00  0.00000000000E+00  0.20965852176E+03  0.20965852176E+03  0.00000000000E+00 0.  1.
         21   -1    0    0  502  503 -0.00000000000E+00 -0.00000000000E+00 -0.26744764972E+03  0.26744764972E+03  0.00000000000E+00 0.  1.
          6    1    1    2  501    0  0.14994113217E+03 -0.62634162305E+02 -0.38089005062E+02  0.23966675554E+03  0.17200000000E+03 0.  1.
         -6    1    1    2    0  503 -0.14994113217E+03  0.62634162305E+02 -0.19700122898E+02  0.23743941595E+03  0.17200000000E+03 0.  1.
</event>
<event>
 4    1  0.4612011E+000  0.3757425E+03  0.7818608E-02  0.1052519E+00
         21   -1    0    0  501  502  0.00000000000E+00  0.00000000000E+00  0.32955590250E+03  0.32955590250E+03  0.00000000000E+00 0. -1.
         21   -1    0    0  502  503 -0.00000000000E+00 -0.00000000000E+00 -0.43264314323E+03  0.43264314323E+03  0.00000000000E+00 0.  1.
          6    1    1    2  501    0 -0.24078566099E+03 -0.23156149152E+03 -0.13811864557E+02  0.37599631181E+03  0.17200000000E+03 0.  1.
         -6    1    1    2    0  503  0.24078566099E+03  0.23156149152E+03 -0.89275376169E+02  0.38620273392E+03  0.17200000000E+03 0. -1.
</event>
<event>
 4    1  0.4612011E+000  0.1946745E+03  0.7818608E-02  0.1154312E+00
         21   -1    0    0  501  502  0.00000000000E+00  0.00000000000E+00  0.13571225382E+03  0.13571225382E+03  0.00000000000E+00 0. -1.
         21   -1    0    0  502  503 -0.00000000000E+00 -0.00000000000E+00 -0.51904479581E+03  0.51904479581E+03  0.00000000000E+00 0. -1.
          6    1    1    2  501    0  0.35320497925E+02 -0.84063098991E+02  0.30851314431E+02  0.19710389592E+03  0.17200000000E+03 0. -1.
         -6    1    1    2    0  503 -0.35320497925E+02  0.84063098991E+02 -0.41418385642E+03  0.45765315371E+03  0.17200000000E+03 0. -1.
</event>
<event>
 4    1  0.4612011E+000  0.2059517E+03  0.7818608E-02  0.1144813E+00
         21   -1    0    0  503  502  0.00000000000E+00  0.00000000000E+00  0.54891773617E+02  0.54891773617E+02  0.00000000000E+00 0. -1.
         21   -1    0    0  501  503 -0.00000000000E+00 -0.00000000000E+00 -0.12159690614E+04  0.12159690614E+04  0.00000000000E+00 0. -1.
          6    1    1    2  501    0 -0.97259012888E+02 -0.58075710597E+02 -0.96418357822E+03  0.98593411355E+03  0.17200000000E+03 0. -1.
         -6    1    1    2    0  502  0.97259012888E+02  0.58075710597E+02 -0.19689370961E+03  0.28492672151E+03  0.17200000000E+03 0. -1.
</event>
<event>
 4    1  0.4612011E+000  0.1841471E+03  0.7818608E-02  0.1163849E+00
         21   -1    0    0  501  502  0.00000000000E+00  0.00000000000E+00  0.30368748001E+03  0.30368748001E+03  0.00000000000E+00 0.  1.
         21   -1    0    0  502  503 -0.00000000000E+00 -0.00000000000E+00 -0.11593400453E+03  0.11593400453E+03  0.00000000000E+00 0.  1.
          6    1    1    2  501    0 -0.63947718517E+02 -0.15389724004E+02  0.13415503836E+03  0.22783267682E+03  0.17200000000E+03 0.  1.
         -6    1    1    2    0  503  0.63947718517E+02  0.15389724004E+02  0.53598437123E+02  0.19178880773E+03  0.17200000000E+03 0.  1.
</event>
<event>
 4    1  0.4612011E+000  0.1723023E+03  0.7818608E-02  0.1175468E+00
         21   -1    0    0  501  502  0.00000000000E+00  0.00000000000E+00  0.25113196825E+02  0.25113196825E+02  0.00000000000E+00 0.  1.
         21   -1    0    0  502  503 -0.00000000000E+00 -0.00000000000E+00 -0.11821821235E+04  0.11821821235E+04  0.00000000000E+00 0.  1.
          6    1    1    2  501    0  0.67261150894E+00 -0.10179806728E+02 -0.57664301631E+03  0.60183490189E+03  0.17200000000E+03 0. -1.
         -6    1    1    2    0  503 -0.67261150894E+00  0.10179806728E+02 -0.58042591035E+03  0.60546041842E+03  0.17200000000E+03 0. -1.
</event>
<event>
 4    1  0.4612011E+000  0.1831276E+03  0.7818608E-02  0.1164810E+00
         21   -1    0    0  503  502  0.00000000000E+00  0.00000000000E+00  0.80925175799E+02  0.80925175799E+02  0.00000000000E+00 0. -1.
         21   -1    0    0  501  503 -0.00000000000E+00 -0.00000000000E+00 -0.41820565596E+03  0.41820565596E+03  0.00000000000E+00 0. -1.
          6    1    1    2  501    0 -0.38574812288E+02  0.49635595420E+02 -0.19243501258E+03  0.26564439114E+03  0.17200000000E+03 0. -1.
         -6    1    1    2    0  502  0.38574812288E+02 -0.49635595420E+02 -0.14484546758E+03  0.23348644062E+03  0.17200000000E+03 0. -1.
</event>
<event>
 4    1  0.4612011E+000  0.2697046E+03  0.7818608E-02  0.1101449E+00
         21   -1    0    0  503  502  0.00000000000E+00  0.00000000000E+00  0.71293508718E+03  0.71293508718E+03  0.00000000000E+00 0.  1.
         21   -1    0    0  501  503 -0.00000000000E+00 -0.00000000000E+00 -0.23620636838E+03  0.23620636838E+03  0.00000000000E+00 0. -1.
          6    1    1    2  501    0  0.20048621358E+03  0.54422966400E+02 -0.11931475696E+03  0.29491794169E+03  0.17200000000E+03 0. -1.
         -6    1    1    2    0  502 -0.20048621358E+03 -0.54422966400E+02  0.59604347575E+03  0.65422351387E+03  0.17200000000E+03 0.  1.
</event>
<event>
 4    1  0.4612011E+000  0.1746912E+03  0.7818608E-02  0.1173042E+00
         21   -1    0    0  503  502  0.00000000000E+00  0.00000000000E+00  0.56770836369E+02  0.56770836369E+02  0.00000000000E+00 0.  1.
         21   -1    0    0  501  503 -0.00000000000E+00 -0.00000000000E+00 -0.93770715079E+03  0.93770715079E+03  0.00000000000E+00 0.  1.
          6    1    1    2  501    0 -0.88899836883E+01 -0.29222745261E+02 -0.76529238046E+03  0.78497734250E+03  0.17200000000E+03 0.  1.
         -6    1    1    2    0  502  0.88899836883E+01  0.29222745261E+02 -0.11564393397E+03  0.20950064466E+03  0.17200000000E+03 0.  1.
</event>
<event>
 4    1  0.4612011E+000  0.2060652E+03  0.7818608E-02  0.1144720E+00
         21   -1    0    0  501  502  0.00000000000E+00  0.00000000000E+00  0.75092522473E+03  0.75092522473E+03  0.00000000000E+00 0.  1.
         21   -1    0    0  502  503 -0.00000000000E+00 -0.00000000000E+00 -0.11748667340E+03  0.11748667340E+03  0.00000000000E+00 0. -1.
          6    1    1    2  501    0 -0.53216353186E+02  0.10023408692E+03  0.62943533206E+03  0.66230785113E+03  0.17200000000E+03 0.  1.
         -6    1    1    2    0  503  0.53216353186E+02 -0.10023408692E+03  0.40032192732E+01  0.20610404701E+03  0.17200000000E+03 0. -1.
</event>
<event>
 4    1  0.4612011E+000  0.1734143E+03  0.7818608E-02  0.1174333E+00
         21   -1    0    0  501  502  0.00000000000E+00  0.00000000000E+00  0.38779700947E+02  0.38779700947E+02  0.00000000000E+00 0.  1.
         21   -1    0    0  502  503 -0.00000000000E+00 -0.00000000000E+00 -0.13453798474E+04  0.13453798474E+04  0.00000000000E+00 0.  1.
          6    1    1    2  501    0 -0.83120597031E+01 -0.20479826489E+02 -0.20286044350E+03  0.26687988528E+03  0.17200000000E+03 0.  1.
         -6    1    1    2    0  503  0.83120597031E+01  0.20479826489E+02 -0.11037397030E+04  0.11172796631E+04  0.17200000000E+03 0.  1.
</event>
<event>
 4    1  0.4612011E+000  0.1840927E+03  0.7818608E-02  0.1163900E+00
         21   -1    0    0  503  502  0.00000000000E+00  0.00000000000E+00  0.75275604244E+02  0.75275604244E+02  0.00000000000E+00 0.  1.
         21   -1    0    0  501  503 -0.00000000000E+00 -0.00000000000E+00 -0.18164169789E+04  0.18164169789E+04  0.00000000000E+00 0. -1.
          6    1    1    2  501    0  0.65573577756E+02  0.24977942289E+01 -0.16908663182E+04  0.17008583243E+04  0.17200000000E+03 0. -1.
         -6    1    1    2    0  502 -0.65573577756E+02 -0.24977942289E+01 -0.50275056463E+02  0.19083425892E+03  0.17200000000E+03 0.  1.
</event>
<event>
 4    1  0.4612011E+000  0.1766150E+03  0.7818608E-02  0.1171120E+00
         21   -1    0    0  503  502  0.00000000000E+00  0.00000000000E+00  0.16523416969E+03  0.16523416969E+03  0.00000000000E+00 0.  1.
         21   -1    0    0  501  503 -0.00000000000E+00 -0.00000000000E+00 -0.28186265933E+03  0.28186265933E+03  0.00000000000E+00 0.  1.
          6    1    1    2  501    0 -0.32253125357E+02  0.23845319415E+02 -0.18678013263E+03  0.25705968431E+03  0.17200000000E+03 0.  1.
         -6    1    1    2    0  502  0.32253125357E+02 -0.23845319415E+02  0.70151642994E+02  0.19003714471E+03  0.17200000000E+03 0.  1.
</event>
<event>
 4    1  0.4612011E+000  0.2090792E+03  0.7818608E-02  0.1142297E+00
         21   -1    0    0  503  502  0.00000000000E+00  0.00000000000E+00  0.13030030470E+03  0.13030030470E+03  0.00000000000E+00 0.  1.
         21   -1    0    0  501  503 -0.00000000000E+00 -0.00000000000E+00 -0.55728895527E+03  0.55728895527E+03  0.00000000000E+00 0.  1.
          6    1    1    2  501    0  0.68655424255E+00 -0.11886817158E+03 -0.43038513037E+03  0.47848246992E+03  0.17200000000E+03 0.  1.
         -6    1    1    2    0  502 -0.68655424255E+00  0.11886817158E+03  0.33964797948E+01  0.20910679006E+03  0.17200000000E+03 0.  1.
</event>
<event>
 4    1  0.4612011E+000  0.2558178E+03  0.7818608E-02  0.1109682E+00
         21   -1    0    0  501  502  0.00000000000E+00  0.00000000000E+00  0.12834826137E+03  0.12834826137E+03  0.00000000000E+00 0. -1.
         21   -1    0    0  502  503 -0.00000000000E+00 -0.00000000000E+00 -0.74601348403E+03  0.74601348403E+03  0.00000000000E+00 0.  1.
          6    1    1    2  501    0  0.61326478471E+02  0.17915863634E+03 -0.62873613376E+02  0.26343091162E+03  0.17200000000E+03 0. -1.
         -6    1    1    2    0  503 -0.61326478471E+02 -0.17915863634E+03 -0.55479160928E+03  0.61093083378E+03  0.17200000000E+03 0.  1.
</event>
<event>
 4    1  0.4612011E+000  0.1921437E+03  0.7818608E-02  0.1156542E+00
         21   -1    0    0  501  502  0.00000000000E+00  0.00000000000E+00  0.96442806112E+02  0.96442806112E+02  0.00000000000E+00 0. -1.
         21   -1    0    0  502  503 -0.00000000000E+00 -0.00000000000E+00 -0.93730017678E+03  0.93730017678E+03  0.00000000000E+00 0. -1.
          6    1    1    2  501    0  0.84982690214E+02 -0.10637458620E+02 -0.22879936454E+02  0.19350117481E+03  0.17200000000E+03 0. -1.
         -6    1    1    2    0  503 -0.84982690214E+02  0.10637458620E+02 -0.81797743421E+03  0.84024180808E+03  0.17200000000E+03 0. -1.
</event>
<event>
 4    1  0.4612011E+000  0.2236912E+03  0.7818608E-02  0.1131161E+00
         21   -1    0    0  501  502  0.00000000000E+00  0.00000000000E+00  0.11571144685E+03  0.11571144685E+03  0.00000000000E+00 0.  1.
         21   -1    0    0  502  503 -0.00000000000E+00 -0.00000000000E+00 -0.49639245770E+03  0.49639245770E+03  0.00000000000E+00 0. -1.
          6    1    1    2  501    0 -0.64341457036E+02 -0.12772600454E+03 -0.30019705107E+03  0.37437417752E+03  0.17200000000E+03 0. -1.
         -6    1    1    2    0  503  0.64341457036E+02  0.12772600454E+03 -0.80483959779E+02  0.23772972702E+03  0.17200000000E+03 0. -1.
</event>
<event>
 4    1  0.4612011E+000  0.1984290E+03  0.7818608E-02  0.1151071E+00
         21   -1    0    0  501  502  0.00000000000E+00  0.00000000000E+00  0.30839342989E+03  0.30839342989E+03  0.00000000000E+00 0. -1.
         21   -1    0    0  502  503 -0.00000000000E+00 -0.00000000000E+00 -0.13082489707E+03  0.13082489707E+03  0.00000000000E+00 0. -1.
          6    1    1    2  501    0 -0.98933993331E+02  0.14660530020E+01  0.12286146636E+03  0.23338599843E+03  0.17200000000E+03 0. -1.
         -6    1    1    2    0  503  0.98933993331E+02 -0.14660530020E+01  0.54707066462E+02  0.20583232853E+03  0.17200000000E+03 0. -1.
</event>
<event>
 4    1  0.4612011E+000  0.2035325E+03  0.7818608E-02  0.1146792E+00
         21   -1    0    0  501  502  0.00000000000E+00  0.00000000000E+00  0.70286937388E+03  0.70286937388E+03  0.00000000000E+00 0.  1.
         21   -1    0    0  502  503 -0.00000000000E+00 -0.00000000000E+00 -0.10375393902E+03  0.10375393902E+03  0.00000000000E+00 0.  1.
          6    1    1    2  501    0  0.21566056384E+02 -0.10666008826E+03  0.56462518137E+03  0.60018919072E+03  0.17200000000E+03 0.  1.
         -6    1    1    2    0  503 -0.21566056384E+02  0.10666008826E+03  0.34490253488E+02  0.20643412218E+03  0.17200000000E+03 0.  1.
</event>
<event>
 4    1  0.4612011E+000  0.1729260E+03  0.7818608E-02  0.1174830E+00
         21   -1    0    0  503  502  0.00000000000E+00  0.00000000000E+00  0.76336677870E+03  0.76336677870E+03  0.00000000000E+00 0. -1.
         21   -1    0    0  501  503 -0.00000000000E+00 -0.00000000000E+00 -0.45542591968E+02  0.45542591968E+02  0.00000000000E+00 0. -1.
          6    1    1    2  501    0 -0.17814197427E+02  0.14326788559E+01  0.20765512075E+03  0.27022961972E+03  0.17200000000E+03 0. -1.
         -6    1    1    2    0  502  0.17814197427E+02 -0.14326788559E+01  0.51016906599E+03  0.53867975095E+03  0.17200000000E+03 0. -1.
</event>
<event>
 4    1  0.4612011E+000  0.2014285E+03  0.7818608E-02  0.1148539E+00
         21   -1    0    0  501  502  0.00000000000E+00  0.00000000000E+00  0.47689500398E+02  0.47689500398E+02  0.00000000000E+00 0.  1.
         21   -1    0    0  502  503 -0.00000000000E+00 -0.00000000000E+00 -0.99212218443E+03  0.99212218443E+03  0.00000000000E+00 0.  1.
          6    1    1    2  501    0  0.33591742224E+02 -0.99302711878E+02 -0.27598298042E+03  0.34167241506E+03  0.17200000000E+03 0.  1.
         -6    1    1    2    0  503 -0.33591742224E+02  0.99302711878E+02 -0.66844970361E+03  0.69813926977E+03  0.17200000000E+03 0.  1.
</event>
<event>
 4    1  0.4612011E+000  0.2865033E+03  0.7818608E-02  0.1092189E+00
         21   -1    0    0  503  502  0.00000000000E+00  0.00000000000E+00  0.91338134251E+03  0.91338134251E+03  0.00000000000E+00 0. -1.
         21   -1    0    0  501  503 -0.00000000000E+00 -0.00000000000E+00 -0.18044009290E+03  0.18044009290E+03  0.00000000000E+00 0.  1.
          6    1    1    2  501    0  0.34395172078E+01  0.22910323883E+03 -0.21006567506E+02  0.28727234500E+03  0.17200000000E+03 0.  1.
         -6    1    1    2    0  502 -0.34395172078E+01 -0.22910323883E+03  0.75394781711E+03  0.80654909041E+03  0.17200000000E+03 0. -1.
</event>
<event>
 4    1  0.4612011E+000  0.1847951E+03  0.7818608E-02  0.1163241E+00
         21   -1    0    0  501  502  0.00000000000E+00  0.00000000000E+00  0.35475112220E+03  0.35475112220E+03  0.00000000000E+00 0.  1.
         21   -1    0    0  502  503 -0.00000000000E+00 -0.00000000000E+00 -0.10313029712E+03  0.10313029712E+03  0.00000000000E+00 0. -1.
          6    1    1    2  501    0  0.63453869218E+02  0.23212761327E+02  0.18489020807E+03  0.26140699082E+03  0.17200000000E+03 0.  1.
         -6    1    1    2    0  503 -0.63453869218E+02 -0.23212761327E+02  0.66730617011E+02  0.19647442850E+03  0.17200000000E+03 0. -1.
</event>
<event>
 4    1  0.4612011E+000  0.2516990E+03  0.7818608E-02  0.1112236E+00
         21   -1    0    0  501  502  0.00000000000E+00  0.00000000000E+00  0.13705290470E+03  0.13705290470E+03  0.00000000000E+00 0. -1.
         21   -1    0    0  502  503 -0.00000000000E+00 -0.00000000000E+00 -0.53004192163E+03  0.53004192163E+03  0.00000000000E+00 0.  1.
          6    1    1    2  501    0 -0.13567951909E+03  0.12393331760E+03 -0.77206004281E+02  0.26327393758E+03  0.17200000000E+03 0. -1.
         -6    1    1    2    0  503  0.13567951909E+03 -0.12393331760E+03 -0.31578301265E+03  0.40382088875E+03  0.17200000000E+03 0.  1.
</event>
<event>
 4    1  0.4612011E+000  0.1722017E+03  0.7818608E-02  0.1175571E+00
         21   -1    0    0  501  502  0.00000000000E+00  0.00000000000E+00  0.52060287428E+03  0.52060287428E+03  0.00000000000E+00 0.  1.
         21   -1    0    0  502  503 -0.00000000000E+00 -0.00000000000E+00 -0.81540159279E+02  0.81540159279E+02  0.00000000000E+00 0.  1.
          6    1    1    2  501    0 -0.83328415469E+01  0.76739476753E-01  0.38483327639E+03  0.42160418968E+03  0.17200000000E+03 0.  1.
         -6    1    1    2    0  503  0.83328415469E+01 -0.76739476753E-01  0.54229438608E+02  0.18053884388E+03  0.17200000000E+03 0.  1.
</event>
<event>
 4    1  0.4612011E+000  0.1734659E+03  0.7818608E-02  0.1174281E+00
         21   -1    0    0  503  502  0.00000000000E+00  0.00000000000E+00  0.13792740654E+04  0.13792740654E+04  0.00000000000E+00 0.  1.
         21   -1    0    0  501  503 -0.00000000000E+00 -0.00000000000E+00 -0.23129552281E+02  0.23129552281E+02  0.00000000000E+00 0.  1.
          6    1    1    2  501    0  0.17711227011E+02 -0.13883273981E+02  0.84516605844E+03  0.86278392382E+03  0.17200000000E+03 0. -1.
         -6    1    1    2    0  502 -0.17711227011E+02  0.13883273981E+02  0.51097845468E+03  0.53961969387E+03  0.17200000000E+03 0. -1.
</event>
<event>
 4    1  0.4612011E+000  0.1813696E+03  0.7818608E-02  0.1166484E+00
         21   -1    0    0  501  502  0.00000000000E+00  0.00000000000E+00  0.55336228767E+03  0.55336228767E+03  0.00000000000E+00 0.  1.
         21   -1    0    0  502  503 -0.00000000000E+00 -0.00000000000E+00 -0.19304747279E+03  0.19304747279E+03  0.00000000000E+00 0.  1.
          6    1    1    2  501    0 -0.56981889115E+02 -0.79992213642E+01  0.49062881810E+03  0.52307892366E+03  0.17200000000E+03 0.  1.
         -6    1    1    2    0  503  0.56981889115E+02  0.79992213642E+01 -0.13031400322E+03  0.22333083680E+03  0.17200000000E+03 0.  1.
</event>
<event>
 4    1  0.4612011E+000  0.1817129E+03  0.7818608E-02  0.1166156E+00
         21   -1    0    0  503  502  0.00000000000E+00  0.00000000000E+00  0.97509303448E+02  0.97509303448E+02  0.00000000000E+00 0.  1.
         21   -1    0    0  501  503 -0.00000000000E+00 -0.00000000000E+00 -0.47645944301E+03  0.47645944301E+03  0.00000000000E+00 0.  1.
          6    1    1    2  501    0  0.66937707297E+01  0.58230328256E+02 -0.34382848528E+03  0.38889279369E+03  0.17200000000E+03 0.  1.
         -6    1    1    2    0  502 -0.66937707297E+01 -0.58230328256E+02 -0.35121654291E+02  0.18507595278E+03  0.17200000000E+03 0.  1.
</event>
<event>
 4    1  0.4612011E+000  0.1865832E+03  0.7818608E-02  0.1161580E+00
         21   -1    0    0  503  502  0.00000000000E+00  0.00000000000E+00  0.24439643161E+02  0.24439643161E+02  0.00000000000E+00 0. -1.
         21   -1    0    0  501  503 -0.00000000000E+00 -0.00000000000E+00 -0.15042383739E+04  0.15042383739E+04  0.00000000000E+00 0. -1.
          6    1    1    2  501    0 -0.21423549816E+02 -0.69067485561E+02 -0.91592307906E+03  0.93473438623E+03  0.17200000000E+03 0. -1.
         -6    1    1    2    0  502  0.21423549816E+02  0.69067485561E+02 -0.56387565170E+03  0.59394363086E+03  0.17200000000E+03 0. -1.
</event>
<event>
 4    1  0.4612011E+000  0.2453393E+03  0.7818608E-02  0.1116286E+00
         21   -1    0    0  503  502  0.00000000000E+00  0.00000000000E+00  0.22840911232E+03  0.22840911232E+03  0.00000000000E+00 0.  1.
         21   -1    0    0  501  503 -0.00000000000E+00 -0.00000000000E+00 -0.27437952336E+03  0.27437952336E+03  0.00000000000E+00 0. -1.
          6    1    1    2  501    0  0.14353740931E+03 -0.10002188618E+03 -0.72988400156E+02  0.25596615429E+03  0.17200000000E+03 0.  1.
         -6    1    1    2    0  502 -0.14353740931E+03  0.10002188618E+03  0.27017989114E+02  0.24682248139E+03  0.17200000000E+03 0. -1.
</event>
<event>
 4    1  0.4612011E+000  0.2361624E+03  0.7818608E-02  0.1122376E+00
         21   -1    0    0  501  502  0.00000000000E+00  0.00000000000E+00  0.31687356219E+03  0.31687356219E+03  0.00000000000E+00 0. -1.
         21   -1    0    0  502  503 -0.00000000000E+00 -0.00000000000E+00 -0.33459918152E+03  0.33459918152E+03  0.00000000000E+00 0. -1.
          6    1    1    2  501    0  0.84337067251E+02 -0.13811571769E+03  0.21539189419E+03  0.31963472976E+03  0.17200000000E+03 0. -1.
         -6    1    1    2    0  503 -0.84337067251E+02  0.13811571769E+03 -0.23311751353E+03  0.33183801395E+03  0.17200000000E+03 0. -1.
</event>
<event>
 4    1  0.4612011E+000  0.2016463E+03  0.7818608E-02  0.1148357E+00
         21   -1    0    0  503  502  0.00000000000E+00  0.00000000000E+00  0.75527387807E+02  0.75527387807E+02  0.00000000000E+00 0.  1.
         21   -1    0    0  501  503 -0.00000000000E+00 -0.00000000000E+00 -0.90585850523E+03  0.90585850523E+03  0.00000000000E+00 0.  1.
          6    1    1    2  501    0 -0.92079794581E+02  0.50975916854E+02 -0.72770512822E+03  0.75512647041E+03  0.17200000000E+03 0.  1.
         -6    1    1    2    0  502  0.92079794581E+02 -0.50975916854E+02 -0.10262598920E+03  0.22625942263E+03  0.17200000000E+03 0.  1.
</event>
<event>
 4    1  0.4612011E+000  0.1774333E+03  0.7818608E-02  0.1170311E+00
         21   -1    0    0  501  502  0.00000000000E+00  0.00000000000E+00  0.57073052310E+02  0.57073052310E+02  0.00000000000E+00 0.  1.
         21   -1    0    0  502  503 -0.00000000000E+00 -0.00000000000E+00 -0.55761500668E+03  0.55761500668E+03  0.00000000000E+00 0.  1.
          6    1    1    2  501    0 -0.43568736146E+02 -0.57093895300E+00 -0.21839959814E+03  0.28139108943E+03  0.17200000000E+03 0.  1.
         -6    1    1    2    0  503  0.43568736146E+02  0.57093895300E+00 -0.28214235623E+03  0.33329696956E+03  0.17200000000E+03 0.  1.
</event>
<event>
 4    1  0.4612011E+000  0.3466137E+03  0.7818608E-02  0.1064014E+00
         21   -1    0    0  501  502  0.00000000000E+00  0.00000000000E+00  0.77397563656E+02  0.77397563656E+02  0.00000000000E+00 0.  1.
         21   -1    0    0  502  503 -0.00000000000E+00 -0.00000000000E+00 -0.16924344674E+04  0.16924344674E+04  0.00000000000E+00 0. -1.
          6    1    1    2  501    0  0.10954780627E+03 -0.28027906356E+03 -0.55284602934E+03  0.65251805146E+03  0.17200000000E+03 0.  1.
         -6    1    1    2    0  503 -0.10954780627E+03  0.28027906356E+03 -0.10621908744E+04  0.11173139796E+04  0.17200000000E+03 0. -1.
</event>
<event>
 4    1  0.4612011E+000  0.2202469E+03  0.7818608E-02  0.1133699E+00
         21   -1    0    0  503  502  0.00000000000E+00  0.00000000000E+00  0.15566025482E+03  0.15566025482E+03  0.00000000000E+00 0.  1.
         21   -1    0    0  501  503 -0.00000000000E+00 -0.00000000000E+00 -0.50383387485E+03  0.50383387485E+03  0.00000000000E+00 0. -1.
          6    1    1    2  501    0  0.71439841544E+02 -0.11756292972E+03 -0.37775173162E+03  0.43727001286E+03  0.17200000000E+03 0. -1.
         -6    1    1    2    0  502 -0.71439841544E+02  0.11756292972E+03  0.29578111595E+02  0.22222411681E+03  0.17200000000E+03 0.  1.
</event>
<event>
 4    1  0.4612011E+000  0.1868314E+03  0.7818608E-02  0.1161351E+00
         21   -1    0    0  503  502  0.00000000000E+00  0.00000000000E+00  0.15560166491E+03  0.15560166491E+03  0.00000000000E+00 0.  1.
         21   -1    0    0  501  503 -0.00000000000E+00 -0.00000000000E+00 -0.24141855373E+03  0.24141855373E+03  0.00000000000E+00 0.  1.
          6    1    1    2  501    0 -0.72677650626E+02  0.63179893990E+01 -0.95724178504E+02  0.20992635909E+03  0.17200000000E+03 0. -1.
         -6    1    1    2    0  502  0.72677650626E+02 -0.63179893990E+01  0.99072896896E+01  0.18709385955E+03  0.17200000000E+03 0. -1.
</event>
<event>
 4    1  0.4612011E+000  0.1871971E+03  0.7818608E-02  0.1161014E+00
         21   -1    0    0  501  502  0.00000000000E+00  0.00000000000E+00  0.30663095786E+03  0.30663095786E+03  0.00000000000E+00 0. -1.
         21   -1    0    0  502  503 -0.00000000000E+00 -0.00000000000E+00 -0.11668538571E+03  0.11668538571E+03  0.00000000000E+00 0.  1.
          6    1    1    2  501    0  0.40313017217E+02 -0.61916273879E+02  0.12534181532E+03  0.22528500837E+03  0.17200000000E+03 0.  1.
         -6    1    1    2    0  503 -0.40313017217E+02  0.61916273879E+02  0.64603756833E+02  0.19803133521E+03  0.17200000000E+03 0. -1.
</event>
<event>
 4    1  0.4612011E+000  0.2115928E+03  0.7818608E-02  0.1140311E+00
         21   -1    0    0  503  502  0.00000000000E+00  0.00000000000E+00  0.30059357972E+03  0.30059357972E+03  0.00000000000E+00 0. -1.
         21   -1    0    0  501  503 -0.00000000000E+00 -0.00000000000E+00 -0.31106366854E+03  0.31106366854E+03  0.00000000000E+00 0.  1.
          6    1    1    2  501    0  0.12309927438E+03 -0.58378884370E+01 -0.22602116861E+03  0.30960794717E+03  0.17200000000E+03 0.  1.
         -6    1    1    2    0  502 -0.12309927438E+03  0.58378884370E+01  0.21555107979E+03  0.30204930109E+03  0.17200000000E+03 0. -1.
</event>
<event>
 4    1  0.4612011E+000  0.2454729E+03  0.7818608E-02  0.1116200E+00
         21   -1    0    0  503  502  0.00000000000E+00  0.00000000000E+00  0.70317114082E+02  0.70317114082E+02  0.00000000000E+00 0.  1.
         21   -1    0    0  501  503 -0.00000000000E+00 -0.00000000000E+00 -0.86712155632E+03  0.86712155632E+03  0.00000000000E+00 0.  1.
          6    1    1    2  501    0 -0.17171425105E+03  0.34455436093E+02 -0.34759121168E+03  0.42553097599E+03  0.17200000000E+03 0.  1.
         -6    1    1    2    0  502  0.17171425105E+03 -0.34455436093E+02 -0.44921323056E+03  0.51190769441E+03  0.17200000000E+03 0.  1.
</event>
<event>
 4    1  0.4612011E+000  0.1753978E+03  0.7818608E-02  0.1172333E+00
         21   -1    0    0  503  502  0.00000000000E+00  0.00000000000E+00  0.22828163575E+03  0.22828163575E+03  0.00000000000E+00 0. -1.
         21   -1    0    0  501  503 -0.00000000000E+00 -0.00000000000E+00 -0.13986321986E+03  0.13986321986E+03  0.00000000000E+00 0. -1.
          6    1    1    2  501    0 -0.18432649208E+02 -0.28993694435E+02  0.90659426044E+01  0.17563196802E+03  0.17200000000E+03 0.  1.
         -6    1    1    2    0  502  0.18432649208E+02  0.28993694435E+02  0.79352473280E+02  0.19251288759E+03  0.17200000000E+03 0.  1.
</event>
<event>
 4    1  0.4612011E+000  0.2365120E+03  0.7818608E-02  0.1122138E+00
         21   -1    0    0  503  502  0.00000000000E+00  0.00000000000E+00  0.47499281601E+02  0.47499281601E+02  0.00000000000E+00 0. -1.
         21   -1    0    0  501  503 -0.00000000000E+00 -0.00000000000E+00 -0.12695424546E+04  0.12695424546E+04  0.00000000000E+00 0. -1.
          6    1    1    2  501    0  0.14653877854E+02  0.16167618133E+03 -0.43386136541E+03  0.49413925986E+03  0.17200000000E+03 0. -1.
         -6    1    1    2    0  502 -0.14653877854E+02 -0.16167618133E+03 -0.78818180761E+03  0.82290247635E+03  0.17200000000E+03 0. -1.
</event>
<event>
 4    1  0.4612011E+000  0.2132263E+03  0.7818608E-02  0.1139036E+00
         21   -1    0    0  501  502  0.00000000000E+00  0.00000000000E+00  0.28246560161E+03  0.28246560161E+03  0.00000000000E+00 0.  1.
         21   -1    0    0  502  503 -0.00000000000E+00 -0.00000000000E+00 -0.17534664700E+03  0.17534664700E+03  0.00000000000E+00 0.  1.
          6    1    1    2  501    0  0.54484137646E+02  0.11363514338E+03  0.11912853695E+03  0.24424797928E+03  0.17200000000E+03 0.  1.
         -6    1    1    2    0  503 -0.54484137646E+02 -0.11363514338E+03 -0.12009582344E+02  0.21356426933E+03  0.17200000000E+03 0.  1.
</event>
<event>
 4    1  0.4612011E+000  0.2329356E+03  0.7818608E-02  0.1124590E+00
         21   -1    0    0  503  502  0.00000000000E+00  0.00000000000E+00  0.75833477049E+03  0.75833477049E+03  0.00000000000E+00 0. -1.
         21   -1    0    0  501  503 -0.00000000000E+00 -0.00000000000E+00 -0.24948281012E+03  0.24948281012E+03  0.00000000000E+00 0. -1.
          6    1    1    2  501    0  0.40404055022E+02  0.15179762180E+03 -0.17113264156E+03  0.28904218836E+03  0.17200000000E+03 0. -1.
         -6    1    1    2    0  502 -0.40404055022E+02 -0.15179762180E+03  0.67998460193E+03  0.71877539225E+03  0.17200000000E+03 0. -1.
</event>
<event>
 4    1  0.4612011E+000  0.1820781E+03  0.7818608E-02  0.1165807E+00
         21   -1    0    0  501  502  0.00000000000E+00  0.00000000000E+00  0.40004386530E+03  0.40004386530E+03  0.00000000000E+00 0.  1.
         21   -1    0    0  502  503 -0.00000000000E+00 -0.00000000000E+00 -0.92506128892E+02  0.92506128892E+02  0.00000000000E+00 0. -1.
          6    1    1    2  501    0 -0.59238726147E+02 -0.76950071968E+01  0.23324578951E+03  0.29589869573E+03  0.17200000000E+03 0.  1.
         -6    1    1    2    0  503  0.59238726147E+02  0.76950071968E+01  0.74291946894E+02  0.19665129846E+03  0.17200000000E+03 0. -1.
</event>
<event>
 4    1  0.4612011E+000  0.1732511E+03  0.7818608E-02  0.1174499E+00
         21   -1    0    0  501  502  0.00000000000E+00  0.00000000000E+00  0.18998445330E+02  0.18998445330E+02  0.00000000000E+00 0. -1.
         21   -1    0    0  502  503 -0.00000000000E+00 -0.00000000000E+00 -0.16146053288E+04  0.16146053288E+04  0.00000000000E+00 0. -1.
          6    1    1    2  501    0 -0.48296308415E+01 -0.20214183721E+02 -0.67807853169E+03  0.69986172470E+03  0.17200000000E+03 0. -1.
         -6    1    1    2    0  503  0.48296308415E+01  0.20214183721E+02 -0.91752835177E+03  0.93374204942E+03  0.17200000000E+03 0. -1.
</event>
<event>
 4    1  0.4612011E+000  0.2384402E+03  0.7818608E-02  0.1120836E+00
         21   -1    0    0  503  502  0.00000000000E+00  0.00000000000E+00  0.18122215807E+03  0.18122215807E+03  0.00000000000E+00 0. -1.
         21   -1    0    0  501  503 -0.00000000000E+00 -0.00000000000E+00 -0.82090161694E+03  0.82090161694E+03  0.00000000000E+00 0.  1.
          6    1    1    2  501    0 -0.15051092604E+03  0.67942565856E+02 -0.71368521853E+03  0.75246283779E+03  0.17200000000E+03 0.  1.
         -6    1    1    2    0  502  0.15051092604E+03 -0.67942565856E+02  0.74005759655E+02  0.24966093722E+03  0.17200000000E+03 0. -1.
</event>
<event>
 4    1  0.4612011E+000  0.2056257E+03  0.7818608E-02  0.1145078E+00
         21   -1    0    0  503  502  0.00000000000E+00  0.00000000000E+00  0.61658308907E+03  0.61658308907E+03  0.00000000000E+00 0. -1.
         21   -1    0    0  501  503 -0.00000000000E+00 -0.00000000000E+00 -0.81139647853E+02  0.81139647853E+02  0.00000000000E+00 0. -1.
          6    1    1    2  501    0  0.96288557334E+02  0.58535708314E+02  0.13043799812E+03  0.24350767293E+03  0.17200000000E+03 0. -1.
         -6    1    1    2    0  502 -0.96288557334E+02 -0.58535708314E+02  0.40500544310E+03  0.45421506400E+03  0.17200000000E+03 0. -1.
</event>
<event>
 4    1  0.4612011E+000  0.2090375E+03  0.7818608E-02  0.1142330E+00
         21   -1    0    0  501  502  0.00000000000E+00  0.00000000000E+00  0.43186059357E+03  0.43186059357E+03  0.00000000000E+00 0.  1.
         21   -1    0    0  502  503 -0.00000000000E+00 -0.00000000000E+00 -0.11182605067E+03  0.11182605067E+03  0.00000000000E+00 0. -1.
          6    1    1    2  501    0  0.11419136135E+03  0.32756602302E+02  0.76149738748E+02  0.22247571713E+03  0.17200000000E+03 0.  1.
         -6    1    1    2    0  503 -0.11419136135E+03 -0.32756602302E+02  0.24388480415E+03  0.32121092711E+03  0.17200000000E+03 0.  1.
</event>
<event>
 4    1  0.4612011E+000  0.1839545E+03  0.7818608E-02  0.1164030E+00
         21   -1    0    0  503  502  0.00000000000E+00  0.00000000000E+00  0.29334533838E+03  0.29334533838E+03  0.00000000000E+00 0.  1.
         21   -1    0    0  501  503 -0.00000000000E+00 -0.00000000000E+00 -0.27863816132E+03  0.27863816132E+03  0.00000000000E+00 0.  1.
          6    1    1    2  501    0 -0.22043360124E+01  0.65195153642E+02 -0.21157477104E+03  0.28036253476E+03  0.17200000000E+03 0.  1.
         -6    1    1    2    0  502  0.22043360124E+01 -0.65195153642E+02  0.22628194810E+03  0.29162096494E+03  0.17200000000E+03 0.  1.
</event>
<event>
 4    1  0.4612011E+000  0.2774706E+03  0.7818608E-02  0.1097079E+00
         21   -1    0    0  501  502  0.00000000000E+00  0.00000000000E+00  0.21869333542E+03  0.21869333542E+03  0.00000000000E+00 0.  1.
         21   -1    0    0  502  503 -0.00000000000E+00 -0.00000000000E+00 -0.42464321533E+03  0.42464321533E+03  0.00000000000E+00 0.  1.
          6    1    1    2  501    0 -0.19371244602E+03  0.99405293100E+02 -0.23597710623E+03  0.36424595908E+03  0.17200000000E+03 0.  1.
         -6    1    1    2    0  503  0.19371244602E+03 -0.99405293100E+02  0.30027226314E+02  0.27909059167E+03  0.17200000000E+03 0.  1.
</event>
<event>
 4    1  0.4612011E+000  0.1768268E+03  0.7818608E-02  0.1170910E+00
         21   -1    0    0  501  502  0.00000000000E+00  0.00000000000E+00  0.15178205859E+03  0.15178205859E+03  0.00000000000E+00 0.  1.
         21   -1    0    0  502  503 -0.00000000000E+00 -0.00000000000E+00 -0.20686798574E+03  0.20686798574E+03  0.00000000000E+00 0.  1.
          6    1    1    2  501    0 -0.33345503892E+02 -0.23912269958E+02 -0.15954278911E+02  0.17754508808E+03  0.17200000000E+03 0.  1.
         -6    1    1    2    0  503  0.33345503892E+02  0.23912269958E+02 -0.39131648243E+02  0.18110495625E+03  0.17200000000E+03 0.  1.
</event>
<event>
 4    1  0.4612011E+000  0.2641457E+03  0.7818608E-02  0.1104678E+00
         21   -1    0    0  503  502  0.00000000000E+00  0.00000000000E+00  0.51909522890E+03  0.51909522890E+03  0.00000000000E+00 0.  1.
         21   -1    0    0  501  503 -0.00000000000E+00 -0.00000000000E+00 -0.14820178426E+03  0.14820178426E+03  0.00000000000E+00 0. -1.
          6    1    1    2  501    0 -0.65930446070E+02 -0.18932015167E+03  0.83673944188E+02  0.27708170723E+03  0.17200000000E+03 0.  1.
         -6    1    1    2    0  502  0.65930446070E+02  0.18932015167E+03  0.28721950045E+03  0.39021530593E+03  0.17200000000E+03 0. -1.
</event>
<event>
 4    1  0.4612011E+000  0.3306091E+03  0.7818608E-02  0.1070868E+00
         21   -1    0    0  503  502  0.00000000000E+00  0.00000000000E+00  0.11202557316E+04  0.11202557316E+04  0.00000000000E+00 0. -1.
         21   -1    0    0  501  503 -0.00000000000E+00 -0.00000000000E+00 -0.22042752888E+03  0.22042752888E+03  0.00000000000E+00 0.  1.
          6    1    1    2  501    0 -0.15879903119E+03  0.23345499599E+03  0.95036988891E+03  0.10062332201E+04  0.17200000000E+03 0. -1.
         -6    1    1    2    0  502  0.15879903119E+03 -0.23345499599E+03 -0.50541686207E+02  0.33445004037E+03  0.17200000000E+03 0.  1.
</event>
<event>
 4    1  0.4612011E+000  0.1759128E+03  0.7818608E-02  0.1171818E+00
         21   -1    0    0  503  502  0.00000000000E+00  0.00000000000E+00  0.92841491054E+03  0.92841491054E+03  0.00000000000E+00 0. -1.
         21   -1    0    0  501  503 -0.00000000000E+00 -0.00000000000E+00 -0.33734208348E+02  0.33734208348E+02  0.00000000000E+00 0. -1.
          6    1    1    2  501    0 -0.13336873419E+02 -0.34401012376E+02  0.49991364706E+03  0.52996127817E+03  0.17200000000E+03 0. -1.
         -6    1    1    2    0  502  0.13336873419E+02  0.34401012376E+02  0.39476705514E+03  0.43218784072E+03  0.17200000000E+03 0. -1.
</event>
<event>
 4    1  0.4612011E+000  0.1746527E+03  0.7818608E-02  0.1173081E+00
         21   -1    0    0  501  502  0.00000000000E+00  0.00000000000E+00  0.14746350670E+03  0.14746350670E+03  0.00000000000E+00 0. -1.
         21   -1    0    0  502  503 -0.00000000000E+00 -0.00000000000E+00 -0.31554416507E+03  0.31554416507E+03  0.00000000000E+00 0. -1.
          6    1    1    2  501    0 -0.25361315405E+01  0.30218092372E+02  0.51828934549E+02  0.18218068922E+03  0.17200000000E+03 0. -1.
         -6    1    1    2    0  503  0.25361315405E+01 -0.30218092372E+02 -0.21990959292E+03  0.28082698255E+03  0.17200000000E+03 0. -1.
</event>
<event>
 4    1  0.4612011E+000  0.3784818E+03  0.7818608E-02  0.1051496E+00
         21   -1    0    0  503  502  0.00000000000E+00  0.00000000000E+00  0.59171561951E+03  0.59171561951E+03  0.00000000000E+00 0. -1.
         21   -1    0    0  501  503 -0.00000000000E+00 -0.00000000000E+00 -0.26427990140E+03  0.26427990140E+03  0.00000000000E+00 0. -1.
          6    1    1    2  501    0 -0.20096822284E+03  0.27069580983E+03  0.39699240993E+02  0.38055811355E+03  0.17200000000E+03 0. -1.
         -6    1    1    2    0  502  0.20096822284E+03 -0.27069580983E+03  0.28773647712E+03  0.47543740736E+03  0.17200000000E+03 0. -1.
</event>
<event>
 4    1  0.4612011E+000  0.2825240E+03  0.7818608E-02  0.1094318E+00
         21   -1    0    0  501  502  0.00000000000E+00  0.00000000000E+00  0.70005035507E+02  0.70005035507E+02  0.00000000000E+00 0. -1.
         21   -1    0    0  502  503 -0.00000000000E+00 -0.00000000000E+00 -0.19733711877E+04  0.19733711877E+04  0.00000000000E+00 0.  1.
          6    1    1    2  501    0  0.84680910869E+02  0.20752099854E+03 -0.28781654828E+03  0.40330904647E+03  0.17200000000E+03 0. -1.
         -6    1    1    2    0  503 -0.84680910869E+02 -0.20752099854E+03 -0.16155496039E+04  0.16400671767E+04  0.17200000000E+03 0.  1.
</event>
<event>
 4    1  0.4612011E+000  0.2029194E+03  0.7818608E-02  0.1147299E+00
         21   -1    0    0  503  502  0.00000000000E+00  0.00000000000E+00  0.15503879475E+04  0.15503879475E+04  0.00000000000E+00 0. -1.
         21   -1    0    0  501  503 -0.00000000000E+00 -0.00000000000E+00 -0.29236450173E+02  0.29236450173E+02  0.00000000000E+00 0. -1.
          6    1    1    2  501    0 -0.10748734053E+03  0.62263694060E+01  0.52154919817E+03  0.55963368569E+03  0.17200000000E+03 0. -1.
         -6    1    1    2    0  502  0.10748734053E+03 -0.62263694060E+01  0.99960229920E+03  0.10199907120E+04  0.17200000000E+03 0. -1.
</event>
<event>
 4    1  0.4612011E+000  0.3352382E+03  0.7818608E-02  0.1068842E+00
         21   -1    0    0  501  502  0.00000000000E+00  0.00000000000E+00  0.74046613361E+03  0.74046613361E+03  0.00000000000E+00 0. -1.
         21   -1    0    0  502  503 -0.00000000000E+00 -0.00000000000E+00 -0.15779297664E+03  0.15779297664E+03  0.00000000000E+00 0.  1.
          6    1    1    2  501    0 -0.22684950099E+03 -0.17703103706E+03  0.37904307540E+03  0.50602207184E+03  0.17200000000E+03 0. -1.
         -6    1    1    2    0  503  0.22684950099E+03  0.17703103706E+03  0.20363008157E+03  0.39223703841E+03  0.17200000000E+03 0.  1.
</event>
<event>
 4    1  0.4612011E+000  0.1982107E+03  0.7818608E-02  0.1151257E+00
         21   -1    0    0  501  502  0.00000000000E+00  0.00000000000E+00  0.13856534710E+03  0.13856534710E+03  0.00000000000E+00 0. -1.
         21   -1    0    0  502  503 -0.00000000000E+00 -0.00000000000E+00 -0.29023058085E+03  0.29023058085E+03  0.00000000000E+00 0. -1.
          6    1    1    2  501    0 -0.18646477119E+02  0.96725309566E+02 -0.43256818883E+02  0.20287589556E+03  0.17200000000E+03 0. -1.
         -6    1    1    2    0  503  0.18646477119E+02 -0.96725309566E+02 -0.10840841486E+03  0.22592003238E+03  0.17200000000E+03 0. -1.
</event>
<event>
 4    1  0.4612011E+000  0.2113854E+03  0.7818608E-02  0.1140474E+00
         21   -1    0    0  503  502  0.00000000000E+00  0.00000000000E+00  0.21352181489E+04  0.21352181489E+04  0.00000000000E+00 0.  1.
         21   -1    0    0  501  503 -0.00000000000E+00 -0.00000000000E+00 -0.35395884866E+02  0.35395884866E+02  0.00000000000E+00 0. -1.
          6    1    1    2  501    0  0.11404181609E+03  0.45763049086E+02  0.35601706191E+03  0.41404340455E+03  0.17200000000E+03 0. -1.
         -6    1    1    2    0  502 -0.11404181609E+03 -0.45763049086E+02  0.17438052021E+04  0.17565706292E+04  0.17200000000E+03 0.  1.
</event>
<event>
 4    1  0.4612011E+000  0.1731172E+03  0.7818608E-02  0.1174636E+00
         21   -1    0    0  501  502  0.00000000000E+00  0.00000000000E+00  0.33945061386E+03  0.33945061386E+03  0.00000000000E+00 0.  1.
         21   -1    0    0  502  503 -0.00000000000E+00 -0.00000000000E+00 -0.10574425592E+03  0.10574425592E+03  0.00000000000E+00 0.  1.
          6    1    1    2  501    0 -0.29943255881E+00  0.19633949308E+02  0.20729332100E+03  0.27007425378E+03  0.17200000000E+03 0. -1.
         -6    1    1    2    0  503  0.29943255881E+00 -0.19633949308E+02  0.26413036934E+02  0.17512061599E+03  0.17200000000E+03 0. -1.
</event>
<event>
 4    1  0.4612011E+000  0.1967059E+03  0.7818608E-02  0.1152548E+00
         21   -1    0    0  501  502  0.00000000000E+00  0.00000000000E+00  0.19468237603E+03  0.19468237603E+03  0.00000000000E+00 0. -1.
         21   -1    0    0  502  503 -0.00000000000E+00 -0.00000000000E+00 -0.67437949923E+03  0.67437949923E+03  0.00000000000E+00 0.  1.
          6    1    1    2  501    0  0.43305225531E+02  0.85052072727E+02  0.12507569947E+03  0.23310325659E+03  0.17200000000E+03 0. -1.
         -6    1    1    2    0  503 -0.43305225531E+02 -0.85052072727E+02 -0.60477282267E+03  0.63595861868E+03  0.17200000000E+03 0.  1.
</event>
<event>
 4    1  0.4612011E+000  0.2437593E+03  0.7818608E-02  0.1117314E+00
         21   -1    0    0  503  502  0.00000000000E+00  0.00000000000E+00  0.93830299587E+03  0.93830299587E+03  0.00000000000E+00 0.  1.
         21   -1    0    0  501  503 -0.00000000000E+00 -0.00000000000E+00 -0.67347757434E+02  0.67347757434E+02  0.00000000000E+00 0. -1.
          6    1    1    2  501    0 -0.11417951085E+03 -0.12960570955E+03  0.31259650943E+03  0.39640279811E+03  0.17200000000E+03 0. -1.
         -6    1    1    2    0  502  0.11417951085E+03  0.12960570955E+03  0.55835872901E+03  0.60924795519E+03  0.17200000000E+03 0.  1.
</event>
<event>
 4    1  0.4612011E+000  0.2234171E+03  0.7818608E-02  0.1131361E+00
         21   -1    0    0  501  502  0.00000000000E+00  0.00000000000E+00  0.44809886664E+03  0.44809886664E+03  0.00000000000E+00 0.  1.
         21   -1    0    0  502  503 -0.00000000000E+00 -0.00000000000E+00 -0.12369262186E+03  0.12369262186E+03  0.00000000000E+00 0.  1.
          6    1    1    2  501    0 -0.36246464486E+02 -0.13790356679E+03  0.72050818081E+02  0.23474778020E+03  0.17200000000E+03 0.  1.
         -6    1    1    2    0  503  0.36246464486E+02  0.13790356679E+03  0.25235542670E+03  0.33704370830E+03  0.17200000000E+03 0.  1.
</event>
<event>
 4    1  0.4612011E+000  0.2797353E+03  0.7818608E-02  0.1095834E+00
         21   -1    0    0  501  502  0.00000000000E+00  0.00000000000E+00  0.56599774438E+03  0.56599774438E+03  0.00000000000E+00 0. -1.
         21   -1    0    0  502  503 -0.00000000000E+00 -0.00000000000E+00 -0.46686371216E+03  0.46686371216E+03  0.00000000000E+00 0. -1.
          6    1    1    2  501    0  0.80015447252E+02 -0.20558543030E+03  0.48283516090E+03  0.55801580045E+03  0.17200000000E+03 0. -1.
         -6    1    1    2    0  503 -0.80015447252E+02  0.20558543030E+03 -0.38370112868E+03  0.47484565608E+03  0.17200000000E+03 0. -1.
</event>
<event>
 4    1  0.4612011E+000  0.1756337E+03  0.7818608E-02  0.1172097E+00
         21   -1    0    0  503  502  0.00000000000E+00  0.00000000000E+00  0.52129370401E+02  0.52129370401E+02  0.00000000000E+00 0. -1.
         21   -1    0    0  501  503 -0.00000000000E+00 -0.00000000000E+00 -0.89752477642E+03  0.89752477642E+03  0.00000000000E+00 0. -1.
          6    1    1    2  501    0  0.14325792503E+02  0.32526341434E+02 -0.69984971371E+03  0.72155167036E+03  0.17200000000E+03 0. -1.
         -6    1    1    2    0  502 -0.14325792503E+02 -0.32526341434E+02 -0.14554569231E+03  0.22810247646E+03  0.17200000000E+03 0. -1.
</event>
<event>
 4    1  0.4612011E+000  0.1917515E+03  0.7818608E-02  0.1156891E+00
         21   -1    0    0  503  502  0.00000000000E+00  0.00000000000E+00  0.18865633253E+03  0.18865633253E+03  0.00000000000E+00 0. -1.
         21   -1    0    0  501  503 -0.00000000000E+00 -0.00000000000E+00 -0.28442847588E+03  0.28442847588E+03  0.00000000000E+00 0. -1.
          6    1    1    2  501    0  0.40961326870E+01  0.84663302133E+02 -0.18059772465E+03  0.26340879101E+03  0.17200000000E+03 0. -1.
         -6    1    1    2    0  502 -0.40961326870E+01 -0.84663302133E+02  0.84825581301E+02  0.20967601740E+03  0.17200000000E+03 0. -1.
</event>
<event>
 4    1  0.4612011E+000  0.2239351E+03  0.7818608E-02  0.1130983E+00
         21   -1    0    0  501  502  0.00000000000E+00  0.00000000000E+00  0.17225237507E+03  0.17225237507E+03  0.00000000000E+00 0. -1.
         21   -1    0    0  502  503 -0.00000000000E+00 -0.00000000000E+00 -0.30870669726E+03  0.30870669726E+03  0.00000000000E+00 0.  1.
          6    1    1    2  501    0  0.13642084509E+03 -0.44184783099E+02 -0.12561735565E+03  0.25676187816E+03  0.17200000000E+03 0.  1.
         -6    1    1    2    0  503 -0.13642084509E+03  0.44184783099E+02 -0.10836966540E+02  0.22419719418E+03  0.17200000000E+03 0.  1.
</event>
<event>
 4    1  0.4612011E+000  0.2121080E+03  0.7818608E-02  0.1139907E+00
         21   -1    0    0  503  502  0.00000000000E+00  0.00000000000E+00  0.51510902484E+03  0.51510902484E+03  0.00000000000E+00 0.  1.
         21   -1    0    0  501  503 -0.00000000000E+00 -0.00000000000E+00 -0.95767748115E+02  0.95767748115E+02  0.00000000000E+00 0.  1.
          6    1    1    2  501    0  0.17832113909E+02 -0.12283255366E+03  0.11906403842E+03  0.24324075680E+03  0.17200000000E+03 0.  1.
         -6    1    1    2    0  502 -0.17832113909E+02  0.12283255366E+03  0.30027723831E+03  0.36763601615E+03  0.17200000000E+03 0.  1.
</event>
<event>
 4    1  0.4612011E+000  0.2950121E+03  0.7818608E-02  0.1087761E+00
         21   -1    0    0  503  502  0.00000000000E+00  0.00000000000E+00  0.65632394753E+02  0.65632394753E+02  0.00000000000E+00 0. -1.
         21   -1    0    0  501  503 -0.00000000000E+00 -0.00000000000E+00 -0.13265292041E+04  0.13265292041E+04  0.00000000000E+00 0. -1.
          6    1    1    2  501    0 -0.23853888810E+03 -0.23394901226E+02 -0.61727853352E+03  0.68415269530E+03  0.17200000000E+03 0. -1.
         -6    1    1    2    0  502  0.23853888810E+03  0.23394901226E+02 -0.64361827587E+03  0.70800890360E+03  0.17200000000E+03 0. -1.
</event>
<event>
 4    1  0.4612011E+000  0.2365519E+03  0.7818608E-02  0.1122111E+00
         21   -1    0    0  503  502  0.00000000000E+00  0.00000000000E+00  0.12117434978E+04  0.12117434978E+04  0.00000000000E+00 0. -1.
         21   -1    0    0  501  503 -0.00000000000E+00 -0.00000000000E+00 -0.13652573966E+03  0.13652573966E+03  0.00000000000E+00 0. -1.
          6    1    1    2  501    0  0.98432732555E+02 -0.12916574917E+03 -0.10789568866E+02  0.23679782177E+03  0.17200000000E+03 0. -1.
         -6    1    1    2    0  502 -0.98432732555E+02  0.12916574917E+03  0.10860073270E+04  0.11114714157E+04  0.17200000000E+03 0. -1.
</event>
<event>
 4    1  0.4612011E+000  0.1761295E+03  0.7818608E-02  0.1171602E+00
         21   -1    0    0  503  502  0.00000000000E+00  0.00000000000E+00  0.19319106739E+04  0.19319106739E+04  0.00000000000E+00 0. -1.
         21   -1    0    0  501  503 -0.00000000000E+00 -0.00000000000E+00 -0.16306682789E+02  0.16306682789E+02  0.00000000000E+00 0. -1.
          6    1    1    2  501    0 -0.37890527320E+02  0.13808150486E+01  0.10782249568E+04  0.10925157464E+04  0.17200000000E+03 0. -1.
         -6    1    1    2    0  502  0.37890527320E+02 -0.13808150486E+01  0.83737903431E+03  0.85570161027E+03  0.17200000000E+03 0. -1.
</event>
<event>
 4    1  0.4612011E+000  0.2819293E+03  0.7818608E-02  0.1094640E+00
         21   -1    0    0  501  502  0.00000000000E+00  0.00000000000E+00  0.15031212551E+03  0.15031212551E+03  0.00000000000E+00 0. -1.
         21   -1    0    0  502  503 -0.00000000000E+00 -0.00000000000E+00 -0.62897238320E+03  0.62897238320E+03  0.00000000000E+00 0. -1.
          6    1    1    2  501    0 -0.22220739009E+03 -0.22891429764E+02 -0.83827624322E+02  0.29412788437E+03  0.17200000000E+03 0. -1.
         -6    1    1    2    0  503  0.22220739009E+03  0.22891429764E+02 -0.39483263336E+03  0.48515662434E+03  0.17200000000E+03 0. -1.
</event>
<event>
 4    1  0.4612011E+000  0.1881594E+03  0.7818608E-02  0.1160132E+00
         21   -1    0    0  501  502  0.00000000000E+00  0.00000000000E+00  0.60357581181E+03  0.60357581181E+03  0.00000000000E+00 0. -1.
         21   -1    0    0  502  503 -0.00000000000E+00 -0.00000000000E+00 -0.17745890181E+03  0.17745890181E+03  0.00000000000E+00 0. -1.
          6    1    1    2  501    0  0.18330205295E+02  0.74053720794E+02  0.53258219576E+03  0.56484311559E+03  0.17200000000E+03 0. -1.
         -6    1    1    2    0  503 -0.18330205295E+02 -0.74053720794E+02 -0.10646528576E+03  0.21619159803E+03  0.17200000000E+03 0. -1.
</event>
<event>
 4    1  0.4612011E+000  0.1919644E+03  0.7818608E-02  0.1156701E+00
         21   -1    0    0  501  502  0.00000000000E+00  0.00000000000E+00  0.49148219803E+03  0.49148219803E+03  0.00000000000E+00 0. -1.
         21   -1    0    0  502  503 -0.00000000000E+00 -0.00000000000E+00 -0.20309948447E+03  0.20309948447E+03  0.00000000000E+00 0. -1.
          6    1    1    2  501    0  0.42191907907E+02 -0.74068777159E+02  0.42002671764E+03  0.46181466453E+03  0.17200000000E+03 0. -1.
         -6    1    1    2    0  503 -0.42191907907E+02  0.74068777159E+02 -0.13164400408E+03  0.23276701797E+03  0.17200000000E+03 0. -1.
</event>
<event>
 4    1  0.4612011E+000  0.1787246E+03  0.7818608E-02  0.1169043E+00
         21   -1    0    0  501  502  0.00000000000E+00  0.00000000000E+00  0.37395962544E+03  0.37395962544E+03  0.00000000000E+00 0.  1.
         21   -1    0    0  502  503 -0.00000000000E+00 -0.00000000000E+00 -0.89349868205E+02  0.89349868205E+02  0.00000000000E+00 0.  1.
          6    1    1    2  501    0  0.39656008415E+02 -0.28033827671E+02  0.19090654182E+03  0.26151061586E+03  0.17200000000E+03 0.  1.
         -6    1    1    2    0  503 -0.39656008415E+02  0.28033827671E+02  0.93703215417E+02  0.20179887779E+03  0.17200000000E+03 0.  1.
</event>
<event>
 4    1  0.4612011E+000  0.1923719E+03  0.7818608E-02  0.1156339E+00
         21   -1    0    0  501  502  0.00000000000E+00  0.00000000000E+00  0.69892562535E+03  0.69892562535E+03  0.00000000000E+00 0.  1.
         21   -1    0    0  502  503 -0.00000000000E+00 -0.00000000000E+00 -0.52998812069E+02  0.52998812069E+02  0.00000000000E+00 0.  1.
          6    1    1    2  501    0 -0.46618919684E+02 -0.72454420446E+02  0.31136378263E+03  0.36599777574E+03  0.17200000000E+03 0.  1.
         -6    1    1    2    0  503  0.46618919684E+02  0.72454420446E+02  0.33456303065E+03  0.38592666168E+03  0.17200000000E+03 0.  1.
</event>
<event>
 4    1  0.4612011E+000  0.1874788E+03  0.7818608E-02  0.1160755E+00
         21   -1    0    0  501  502  0.00000000000E+00  0.00000000000E+00  0.25670067835E+02  0.25670067835E+02  0.00000000000E+00 0.  1.
         21   -1    0    0  502  503 -0.00000000000E+00 -0.00000000000E+00 -0.13716669589E+04  0.13716669589E+04  0.00000000000E+00 0.  1.
          6    1    1    2  501    0 -0.71809399357E+02  0.20191744886E+02 -0.70243112798E+03  0.72701979750E+03  0.17200000000E+03 0.  1.
         -6    1    1    2    0  503  0.71809399357E+02 -0.20191744886E+02 -0.64356576307E+03  0.67031722923E+03  0.17200000000E+03 0.  1.
</event>
<event>
 4    1  0.4612011E+000  0.2017743E+03  0.7818608E-02  0.1148251E+00
         21   -1    0    0  503  502  0.00000000000E+00  0.00000000000E+00  0.32716646841E+03  0.32716646841E+03  0.00000000000E+00 0.  1.
         21   -1    0    0  501  503 -0.00000000000E+00 -0.00000000000E+00 -0.12510330982E+03  0.12510330982E+03  0.00000000000E+00 0.  1.
          6    1    1    2  501    0 -0.10062477185E+03 -0.31678143328E+02  0.84575099767E+02  0.21878253353E+03  0.17200000000E+03 0.  1.
         -6    1    1    2    0  502  0.10062477185E+03  0.31678143328E+02  0.11748805882E+03  0.23348724470E+03  0.17200000000E+03 0.  1.
</event>
<event>
 4    1  0.4612011E+000  0.2511671E+03  0.7818608E-02  0.1112569E+00
         21   -1    0    0  503  502  0.00000000000E+00  0.00000000000E+00  0.36417459066E+02  0.36417459066E+02  0.00000000000E+00 0. -1.
         21   -1    0    0  501  503 -0.00000000000E+00 -0.00000000000E+00 -0.17748067757E+04  0.17748067757E+04  0.00000000000E+00 0. -1.
          6    1    1    2  501    0 -0.79580968355E+02  0.16482652449E+03 -0.10093930715E+04  0.10401727195E+04  0.17200000000E+03 0. -1.
         -6    1    1    2    0  502  0.79580968355E+02 -0.16482652449E+03 -0.72899624516E+03  0.77105151524E+03  0.17200000000E+03 0. -1.
</event>
<event>
 4    1  0.4612011E+000  0.1981148E+03  0.7818608E-02  0.1151339E+00
         21   -1    0    0  503  502  0.00000000000E+00  0.00000000000E+00  0.82316871231E+02  0.82316871231E+02  0.00000000000E+00 0. -1.
         21   -1    0    0  501  503 -0.00000000000E+00 -0.00000000000E+00 -0.59262602493E+03  0.59262602493E+03  0.00000000000E+00 0.  1.
          6    1    1    2  501    0  0.96382036961E+02 -0.19390260055E+02 -0.10596734915E+03  0.22467433837E+03  0.17200000000E+03 0.  1.
         -6    1    1    2    0  502 -0.96382036961E+02  0.19390260055E+02 -0.40434180455E+03  0.45026855780E+03  0.17200000000E+03 0.  1.
</event>
<event>
 4    1  0.4612011E+000  0.1851383E+03  0.7818608E-02  0.1162921E+00
         21   -1    0    0  503  502  0.00000000000E+00  0.00000000000E+00  0.33039499125E+03  0.33039499125E+03  0.00000000000E+00 0.  1.
         21   -1    0    0  501  503 -0.00000000000E+00 -0.00000000000E+00 -0.33541168437E+03  0.33541168437E+03  0.00000000000E+00 0.  1.
          6    1    1    2  501    0  0.11122035042E+02  0.67590557790E+02 -0.27917873367E+03  0.33498798262E+03  0.17200000000E+03 0.  1.
         -6    1    1    2    0  502 -0.11122035042E+02 -0.67590557790E+02  0.27416204054E+03  0.33081869300E+03  0.17200000000E+03 0.  1.
</event>
<event>
 4    1  0.4612011E+000  0.1760522E+03  0.7818608E-02  0.1171679E+00
         21   -1    0    0  503  502  0.00000000000E+00  0.00000000000E+00  0.42253579455E+02  0.42253579455E+02  0.00000000000E+00 0.  1.
         21   -1    0    0  501  503 -0.00000000000E+00 -0.00000000000E+00 -0.73507441926E+03  0.73507441926E+03  0.00000000000E+00 0.  1.
          6    1    1    2  501    0 -0.31749782558E+02 -0.20058466021E+02 -0.32861194156E+03  0.37280048134E+03  0.17200000000E+03 0.  1.
         -6    1    1    2    0  502  0.31749782558E+02  0.20058466021E+02 -0.36420889824E+03  0.40452751737E+03  0.17200000000E+03 0.  1.
</event>
<event>
 4    1  0.4612011E+000  0.2000441E+03  0.7818608E-02  0.1149702E+00
         21   -1    0    0  503  502  0.00000000000E+00  0.00000000000E+00  0.83986568220E+02  0.83986568220E+02  0.00000000000E+00 0. -1.
         21   -1    0    0  501  503 -0.00000000000E+00 -0.00000000000E+00 -0.99262576739E+03  0.99262576739E+03  0.00000000000E+00 0. -1.
          6    1    1    2  501    0  0.10214063645E+03  0.96178095910E+00 -0.84249159333E+03  0.86591553830E+03  0.17200000000E+03 0. -1.
         -6    1    1    2    0  502 -0.10214063645E+03 -0.96178095910E+00 -0.66147605838E+02  0.21069679731E+03  0.17200000000E+03 0. -1.
</event>
<event>
 4    1  0.4612011E+000  0.1776290E+03  0.7818608E-02  0.1170118E+00
         21   -1    0    0  501  502  0.00000000000E+00  0.00000000000E+00  0.26706939707E+02  0.26706939707E+02  0.00000000000E+00 0.  1.
         21   -1    0    0  502  503 -0.00000000000E+00 -0.00000000000E+00 -0.17920177381E+04  0.17920177381E+04  0.00000000000E+00 0.  1.
          6    1    1    2  501    0  0.13700068267E+02 -0.42194433542E+02 -0.35183930570E+03  0.39413571156E+03  0.17200000000E+03 0. -1.
         -6    1    1    2    0  503 -0.13700068267E+02  0.42194433542E+02 -0.14134714926E+04  0.14245889662E+04  0.17200000000E+03 0. -1.
</event>
<event>
 4    1  0.4612011E+000  0.2421478E+03  0.7818608E-02  0.1118370E+00
         21   -1    0    0  503  502  0.00000000000E+00  0.00000000000E+00  0.10435628288E+03  0.10435628288E+03  0.00000000000E+00 0. -1.
         21   -1    0    0  501  503 -0.00000000000E+00 -0.00000000000E+00 -0.85129573216E+03  0.85129573216E+03  0.00000000000E+00 0.  1.
          6    1    1    2  501    0 -0.64546927164E+02 -0.15775057514E+03 -0.65207655722E+03  0.69558564264E+03  0.17200000000E+03 0.  1.
         -6    1    1    2    0  502  0.64546927164E+02  0.15775057514E+03 -0.94862892058E+02  0.26006637240E+03  0.17200000000E+03 0. -1.
</event>
<event>
 4    1  0.4612011E+000  0.1887141E+03  0.7818608E-02  0.1159626E+00
         21   -1    0    0  503  502  0.00000000000E+00  0.00000000000E+00  0.38693573785E+02  0.38693573785E+02  0.00000000000E+00 0.  1.
         21   -1    0    0  501  503 -0.00000000000E+00 -0.00000000000E+00 -0.19801682081E+04  0.19801682081E+04  0.00000000000E+00 0.  1.
          6    1    1    2  501    0 -0.76328424997E+02  0.14246694942E+02 -0.17092092665E+04  0.17195956831E+04  0.17200000000E+03 0.  1.
         -6    1    1    2    0  502  0.76328424997E+02 -0.14246694942E+02 -0.23226536786E+03  0.29926609879E+03  0.17200000000E+03 0.  1.
</event>
<event>
 4    1  0.4612011E+000  0.2355099E+03  0.7818608E-02  0.1122821E+00
         21   -1    0    0  503  502  0.00000000000E+00  0.00000000000E+00  0.84353998379E+02  0.84353998379E+02  0.00000000000E+00 0. -1.
         21   -1    0    0  501  503 -0.00000000000E+00 -0.00000000000E+00 -0.80154702118E+03  0.80154702118E+03  0.00000000000E+00 0. -1.
          6    1    1    2  501    0 -0.70118177829E+02 -0.14479072957E+03 -0.54635701211E+03  0.59495453516E+03  0.17200000000E+03 0. -1.
         -6    1    1    2    0  502  0.70118177829E+02  0.14479072957E+03 -0.17083601069E+03  0.29094648439E+03  0.17200000000E+03 0. -1.
</event>
<event>
 4    1  0.4612011E+000  0.2084035E+03  0.7818608E-02  0.1142837E+00
         21   -1    0    0  501  502  0.00000000000E+00  0.00000000000E+00  0.43072491668E+02  0.43072491668E+02  0.00000000000E+00 0. -1.
         21   -1    0    0  502  503 -0.00000000000E+00 -0.00000000000E+00 -0.10086080224E+04  0.10086080224E+04  0.00000000000E+00 0. -1.
          6    1    1    2  501    0  0.54045231805E+02  0.10453287539E+03 -0.49123025747E+03  0.53360957166E+03  0.17200000000E+03 0. -1.
         -6    1    1    2    0  503 -0.54045231805E+02 -0.10453287539E+03 -0.47430527325E+03  0.51807094240E+03  0.17200000000E+03 0. -1.
</event>
<event>
 4    1  0.4612011E+000  0.2501466E+03  0.7818608E-02  0.1113212E+00
         21   -1    0    0  501  502  0.00000000000E+00  0.00000000000E+00  0.43825974216E+03  0.43825974216E+03  0.00000000000E+00 0. -1.
         21   -1    0    0  502  503 -0.00000000000E+00 -0.00000000000E+00 -0.17955286687E+03  0.17955286687E+03  0.00000000000E+00 0. -1.
          6    1    1    2  501    0  0.26766062898E+02 -0.17964661107E+03 -0.10448501051E+02  0.25036473027E+03  0.17200000000E+03 0. -1.
         -6    1    1    2    0  503 -0.26766062898E+02  0.17964661107E+03  0.26915537634E+03  0.36744787876E+03  0.17200000000E+03 0. -1.
</event>
<event>
 4    1  0.4612011E+000  0.2047694E+03  0.7818608E-02  0.1145776E+00
         21   -1    0    0  501  502  0.00000000000E+00  0.00000000000E+00  0.15144149107E+03  0.15144149107E+03  0.00000000000E+00 0.  1.
         21   -1    0    0  502  503 -0.00000000000E+00 -0.00000000000E+00 -0.35134877460E+03  0.35134877460E+03  0.00000000000E+00 0. -1.
          6    1    1    2  501    0  0.29309688494E+02 -0.10717942926E+03  0.15787275224E+02  0.20537703366E+03  0.17200000000E+03 0.  1.
         -6    1    1    2    0  503 -0.29309688494E+02  0.10717942926E+03 -0.21569455876E+03  0.29741323201E+03  0.17200000000E+03 0. -1.
</event>
<event>
 4    1  0.4612011E+000  0.1912284E+03  0.7818608E-02  0.1157358E+00
         21   -1    0    0  501  502  0.00000000000E+00  0.00000000000E+00  0.15252030493E+03  0.15252030493E+03  0.00000000000E+00 0. -1.
         21   -1    0    0  502  503 -0.00000000000E+00 -0.00000000000E+00 -0.40334699309E+03  0.40334699309E+03  0.00000000000E+00 0. -1.
          6    1    1    2  501    0  0.28348183958E+02 -0.78617212845E+02  0.51587750106E+02  0.19806458959E+03  0.17200000000E+03 0. -1.
         -6    1    1    2    0  503 -0.28348183958E+02  0.78617212845E+02 -0.30241443826E+03  0.35780270843E+03  0.17200000000E+03 0. -1.
</event>
<event>
 4    1  0.4612011E+000  0.2009995E+03  0.7818608E-02  0.1148898E+00
         21   -1    0    0  503  502  0.00000000000E+00  0.00000000000E+00  0.30143301173E+03  0.30143301173E+03  0.00000000000E+00 0. -1.
         21   -1    0    0  501  503 -0.00000000000E+00 -0.00000000000E+00 -0.14153566253E+03  0.14153566253E+03  0.00000000000E+00 0.  1.
          6    1    1    2  501    0  0.22736278495E+02 -0.10148819441E+03  0.28941537431E+02  0.20307241210E+03  0.17200000000E+03 0.  1.
         -6    1    1    2    0  502 -0.22736278495E+02  0.10148819441E+03  0.13095581176E+03  0.23989626216E+03  0.17200000000E+03 0. -1.
</event>
<event>
 4    1  0.4612011E+000  0.2101234E+03  0.7818608E-02  0.1141468E+00
         21   -1    0    0  503  502  0.00000000000E+00  0.00000000000E+00  0.14371578086E+04  0.14371578086E+04  0.00000000000E+00 0. -1.
         21   -1    0    0  501  503 -0.00000000000E+00 -0.00000000000E+00 -0.61292414342E+02  0.61292414342E+02  0.00000000000E+00 0.  1.
          6    1    1    2  501    0  0.86023307723E+02  0.84663024396E+02  0.15880290093E+03  0.26338222893E+03  0.17200000000E+03 0.  1.
         -6    1    1    2    0  502 -0.86023307723E+02 -0.84663024396E+02  0.12170624933E+04  0.12350679940E+04  0.17200000000E+03 0. -1.
</event>
<event>
 4    1  0.4612011E+000  0.1801268E+03  0.7818608E-02  0.1167680E+00
         21   -1    0    0  503  502  0.00000000000E+00  0.00000000000E+00  0.19176089433E+03  0.19176089433E+03  0.00000000000E+00 0. -1.
         21   -1    0    0  501  503 -0.00000000000E+00 -0.00000000000E+00 -0.96292609373E+03  0.96292609373E+03  0.00000000000E+00 0. -1.
          6    1    1    2  501    0  0.70258830635E+01 -0.53031118441E+02 -0.90975424932E+03  0.92741493233E+03  0.17200000000E+03 0. -1.
         -6    1    1    2    0  502 -0.70258830635E+01  0.53031118441E+02  0.13858904992E+03  0.22727205573E+03  0.17200000000E+03 0. -1.
</event>
<event>
 4    1  0.4612011E+000  0.2246275E+03  0.7818608E-02  0.1130479E+00
         21   -1    0    0  501  502  0.00000000000E+00  0.00000000000E+00  0.57875976587E+02  0.57875976587E+02  0.00000000000E+00 0. -1.
         21   -1    0    0  502  503 -0.00000000000E+00 -0.00000000000E+00 -0.91405539824E+03  0.91405539824E+03  0.00000000000E+00 0. -1.
          6    1    1    2  501    0  0.85899936986E+02  0.11616675567E+03 -0.32362959510E+03  0.39394622618E+03  0.17200000000E+03 0. -1.
         -6    1    1    2    0  503 -0.85899936986E+02 -0.11616675567E+03 -0.53254982655E+03  0.57798514864E+03  0.17200000000E+03 0. -1.
</event>
<event>
 4    1  0.4612011E+000  0.2769797E+03  0.7818608E-02  0.1097350E+00
         21   -1    0    0  503  502  0.00000000000E+00  0.00000000000E+00  0.33568822510E+03  0.33568822510E+03  0.00000000000E+00 0.  1.
         21   -1    0    0  501  503 -0.00000000000E+00 -0.00000000000E+00 -0.34031078168E+03  0.34031078168E+03  0.00000000000E+00 0. -1.
          6    1    1    2  501    0  0.86907766011E+02 -0.19894917707E+03 -0.19601812373E+03  0.33932409240E+03  0.17200000000E+03 0. -1.
         -6    1    1    2    0  502 -0.86907766011E+02  0.19894917707E+03  0.19139556715E+03  0.33667491439E+03  0.17200000000E+03 0. -1.
</event>
<event>
 4    1  0.4612011E+000  0.1779803E+03  0.7818608E-02  0.1169772E+00
         21   -1    0    0  503  502  0.00000000000E+00  0.00000000000E+00  0.76938063350E+03  0.76938063350E+03  0.00000000000E+00 0. -1.
         21   -1    0    0  501  503 -0.00000000000E+00 -0.00000000000E+00 -0.59207993570E+02  0.59207993570E+02  0.00000000000E+00 0. -1.
          6    1    1    2  501    0 -0.28087800594E+01 -0.45663039308E+02  0.12642755630E+03  0.21831383235E+03  0.17200000000E+03 0. -1.
         -6    1    1    2    0  502  0.28087800594E+01  0.45663039308E+02  0.58374508363E+03  0.61027479472E+03  0.17200000000E+03 0. -1.
</event>
<event>
 4    1  0.4612011E+000  0.1979725E+03  0.7818608E-02  0.1151461E+00
         21   -1    0    0  501  502  0.00000000000E+00  0.00000000000E+00  0.45981355784E+02  0.45981355784E+02  0.00000000000E+00 0.  1.
         21   -1    0    0  502  503 -0.00000000000E+00 -0.00000000000E+00 -0.86569662218E+03  0.86569662218E+03  0.00000000000E+00 0. -1.
          6    1    1    2  501    0  0.46242552462E+02 -0.86433437123E+02 -0.35329961946E+03  0.40498609090E+03  0.17200000000E+03 0.  1.
         -6    1    1    2    0  503 -0.46242552462E+02  0.86433437123E+02 -0.46641564693E+03  0.50669188706E+03  0.17200000000E+03 0.  1.
</event>
<event>
 4    1  0.4612011E+000  0.1934008E+03  0.7818608E-02  0.1155429E+00
         21   -1    0    0  503  502  0.00000000000E+00  0.00000000000E+00  0.10250010179E+04  0.10250010179E+04  0.00000000000E+00 0.  1.
         21   -1    0    0  501  503 -0.00000000000E+00 -0.00000000000E+00 -0.50616215491E+02  0.50616215491E+02  0.00000000000E+00 0. -1.
          6    1    1    2  501    0  0.46296372929E+02  0.75342653041E+02  0.20309183298E+03  0.28044636232E+03  0.17200000000E+03 0.  1.
         -6    1    1    2    0  502 -0.46296372929E+02 -0.75342653041E+02  0.77129296943E+03  0.79517087108E+03  0.17200000000E+03 0.  1.
</event>
<event>
 4    1  0.4612011E+000  0.1783946E+03  0.7818608E-02  0.1169366E+00
         21   -1    0    0  503  502  0.00000000000E+00  0.00000000000E+00  0.61444133896E+03  0.61444133896E+03  0.00000000000E+00 0. -1.
         21   -1    0    0  501  503 -0.00000000000E+00 -0.00000000000E+00 -0.10237580396E+03  0.10237580396E+03  0.00000000000E+00 0. -1.
          6    1    1    2  501    0 -0.36500772878E+02 -0.30138626975E+02  0.41055990147E+01  0.17844186504E+03  0.17200000000E+03 0. -1.
         -6    1    1    2    0  502  0.36500772878E+02  0.30138626975E+02  0.50795993599E+03  0.53837527787E+03  0.17200000000E+03 0. -1.
</event>
<event>
 4    1  0.4612011E+000  0.2166202E+03  0.7818608E-02  0.1136428E+00
         21   -1    0    0  501  502  0.00000000000E+00  0.00000000000E+00  0.13900685980E+03  0.13900685980E+03  0.00000000000E+00 0. -1.
         21   -1    0    0  502  503 -0.00000000000E+00 -0.00000000000E+00 -0.59732791351E+03  0.59732791351E+03  0.00000000000E+00 0.  1.
          6    1    1    2  501    0  0.37504272280E+01 -0.13162915076E+03  0.13626114097E+02  0.21704831264E+03  0.17200000000E+03 0. -1.
         -6    1    1    2    0  503 -0.37504272280E+01  0.13162915076E+03 -0.47194716781E+03  0.51928646067E+03  0.17200000000E+03 0.  1.
</event>
<event>
 4    1  0.4612011E+000  0.6818213E+03  0.7818608E-02  0.9748835E-01
         21   -1    0    0  503  502  0.00000000000E+00  0.00000000000E+00  0.12435448463E+04  0.12435448463E+04  0.00000000000E+00 0. -1.
         21   -1    0    0  501  503 -0.00000000000E+00 -0.00000000000E+00 -0.49168635554E+03  0.49168635554E+03  0.00000000000E+00 0.  1.
          6    1    1    2  501    0 -0.53657022842E+03 -0.38391240358E+03 -0.48837908864E+02  0.68356820068E+03  0.17200000000E+03 0.  1.
         -6    1    1    2    0  502  0.53657022842E+03  0.38391240358E+03  0.80069639963E+03  0.10516630012E+04  0.17200000000E+03 0. -1.
</event>
<event>
 4    1  0.4612011E+000  0.2053720E+03  0.7818608E-02  0.1145284E+00
         21   -1    0    0  503  502  0.00000000000E+00  0.00000000000E+00  0.73459300122E+03  0.73459300122E+03  0.00000000000E+00 0. -1.
         21   -1    0    0  501  503 -0.00000000000E+00 -0.00000000000E+00 -0.24465536429E+03  0.24465536429E+03  0.00000000000E+00 0.  1.
          6    1    1    2  501    0  0.76971822838E+02  0.81664022760E+02 -0.18336623953E+03  0.27531954512E+03  0.17200000000E+03 0.  1.
         -6    1    1    2    0  502 -0.76971822838E+02 -0.81664022760E+02  0.67330387646E+03  0.70392882040E+03  0.17200000000E+03 0. -1.
</event>
<event>
 4    1  0.4612011E+000  0.2231691E+03  0.7818608E-02  0.1131542E+00
         21   -1    0    0  503  502  0.00000000000E+00  0.00000000000E+00  0.60178081501E+02  0.60178081501E+02  0.00000000000E+00 0.  1.
         21   -1    0    0  501  503 -0.00000000000E+00 -0.00000000000E+00 -0.95523350221E+03  0.95523350221E+03  0.00000000000E+00 0.  1.
          6    1    1    2  501    0  0.14218032058E+03  0.22774367838E+01 -0.63309866417E+03  0.67128112506E+03  0.17200000000E+03 0.  1.
         -6    1    1    2    0  502 -0.14218032058E+03 -0.22774367838E+01 -0.26195675653E+03  0.34413045865E+03  0.17200000000E+03 0.  1.
</event>
<event>
 4    1  0.4612011E+000  0.1782230E+03  0.7818608E-02  0.1169534E+00
         21   -1    0    0  503  502  0.00000000000E+00  0.00000000000E+00  0.25236031103E+02  0.25236031103E+02  0.00000000000E+00 0. -1.
         21   -1    0    0  501  503 -0.00000000000E+00 -0.00000000000E+00 -0.13274648430E+04  0.13274648430E+04  0.00000000000E+00 0. -1.
          6    1    1    2  501    0  0.26224147146E+02  0.38623068931E+02 -0.49712646296E+03  0.52810810212E+03  0.17200000000E+03 0. -1.
         -6    1    1    2    0  502 -0.26224147146E+02 -0.38623068931E+02 -0.80510234898E+03  0.82459277203E+03  0.17200000000E+03 0. -1.
</event>
<event>
 4    1  0.4612011E+000  0.2284258E+03  0.7818608E-02  0.1127753E+00
         21   -1    0    0  501  502  0.00000000000E+00  0.00000000000E+00  0.12025920073E+03  0.12025920073E+03  0.00000000000E+00 0. -1.
         21   -1    0    0  502  503 -0.00000000000E+00 -0.00000000000E+00 -0.73794328573E+03  0.73794328573E+03  0.00000000000E+00 0.  1.
          6    1    1    2  501    0  0.61664356638E+02 -0.13708329766E+03 -0.33400957786E+02  0.23085481879E+03  0.17200000000E+03 0. -1.
         -6    1    1    2    0  503 -0.61664356638E+02  0.13708329766E+03 -0.58428312722E+03  0.62734766767E+03  0.17200000000E+03 0.  1.
</event>
<event>
 4    1  0.4612011E+000  0.2861297E+03  0.7818608E-02  0.1092387E+00
         21   -1    0    0  503  502  0.00000000000E+00  0.00000000000E+00  0.11961836976E+04  0.11961836976E+04  0.00000000000E+00 0.  1.
         21   -1    0    0  501  503 -0.00000000000E+00 -0.00000000000E+00 -0.68792977185E+02  0.68792977185E+02  0.00000000000E+00 0.  1.
          6    1    1    2  501    0 -0.20740709398E+03  0.96273046677E+02  0.51857179996E+03  0.59227266851E+03  0.17200000000E+03 0.  1.
         -6    1    1    2    0  502  0.20740709398E+03 -0.96273046677E+02  0.60881892043E+03  0.67270400624E+03  0.17200000000E+03 0.  1.
</event>
<event>
 4    1  0.4612011E+000  0.2279313E+03  0.7818608E-02  0.1128104E+00
         21   -1    0    0  501  502  0.00000000000E+00  0.00000000000E+00  0.77094384929E+03  0.77094384929E+03  0.00000000000E+00 0.  1.
         21   -1    0    0  502  503 -0.00000000000E+00 -0.00000000000E+00 -0.69984308841E+02  0.69984308841E+02  0.00000000000E+00 0.  1.
          6    1    1    2  501    0  0.77759694793E+02  0.12775797119E+03  0.43145899625E+03  0.48796468600E+03  0.17200000000E+03 0.  1.
         -6    1    1    2    0  503 -0.77759694793E+02 -0.12775797119E+03  0.26950054419E+03  0.35296347213E+03  0.17200000000E+03 0.  1.
</event>
<event>
 4    1  0.4612011E+000  0.2052755E+03  0.7818608E-02  0.1145363E+00
         21   -1    0    0  503  502  0.00000000000E+00  0.00000000000E+00  0.48699191383E+03  0.48699191383E+03  0.00000000000E+00 0.  1.
         21   -1    0    0  501  503 -0.00000000000E+00 -0.00000000000E+00 -0.16859675134E+03  0.16859675134E+03  0.00000000000E+00 0.  1.
          6    1    1    2  501    0 -0.94874736378E+02 -0.59605371559E+02 -0.69503404496E+02  0.21672272414E+03  0.17200000000E+03 0.  1.
         -6    1    1    2    0  502  0.94874736378E+02  0.59605371559E+02  0.38789856699E+03  0.43886594103E+03  0.17200000000E+03 0.  1.
</event>
<event>
 4    1  0.4612011E+000  0.2077761E+03  0.7818608E-02  0.1143339E+00
         21   -1    0    0  503  502  0.00000000000E+00  0.00000000000E+00  0.78572728505E+03  0.78572728505E+03  0.00000000000E+00 0.  1.
         21   -1    0    0  501  503 -0.00000000000E+00 -0.00000000000E+00 -0.59641853429E+02  0.59641853429E+02  0.00000000000E+00 0.  1.
          6    1    1    2  501    0 -0.25780017301E+02 -0.11367627554E+03  0.24441227336E+03  0.32079317992E+03  0.17200000000E+03 0.  1.
         -6    1    1    2    0  502  0.25780017301E+02  0.11367627554E+03  0.48167315826E+03  0.52457595856E+03  0.17200000000E+03 0.  1.
</event>
<event>
 4    1  0.4612011E+000  0.1761963E+03  0.7818608E-02  0.1171536E+00
         21   -1    0    0  503  502  0.00000000000E+00  0.00000000000E+00  0.52510221882E+03  0.52510221882E+03  0.00000000000E+00 0.  1.
         21   -1    0    0  501  503 -0.00000000000E+00 -0.00000000000E+00 -0.89276041546E+02  0.89276041546E+02  0.00000000000E+00 0.  1.
          6    1    1    2  501    0  0.20825654673E+02  0.32053441019E+02  0.39383324881E+02  0.18054411442E+03  0.17200000000E+03 0.  1.
         -6    1    1    2    0  502 -0.20825654673E+02 -0.32053441019E+02  0.39644285239E+03  0.43383414594E+03  0.17200000000E+03 0.  1.
</event>
<event>
 4    1  0.4612011E+000  0.2044942E+03  0.7818608E-02  0.1146002E+00
         21   -1    0    0  501  502  0.00000000000E+00  0.00000000000E+00  0.82931855020E+02  0.82931855020E+02  0.00000000000E+00 0.  1.
         21   -1    0    0  502  503 -0.00000000000E+00 -0.00000000000E+00 -0.56872088634E+03  0.56872088634E+03  0.00000000000E+00 0. -1.
          6    1    1    2  501    0 -0.11009681916E+03  0.10610735144E+02 -0.13318649326E+03  0.24404208505E+03  0.17200000000E+03 0. -1.
         -6    1    1    2    0  503  0.11009681916E+03 -0.10610735144E+02 -0.35260253807E+03  0.40761065631E+03  0.17200000000E+03 0. -1.
</event>
<event>
 4    1  0.4612011E+000  0.1855532E+03  0.7818608E-02  0.1162534E+00
         21   -1    0    0  501  502  0.00000000000E+00  0.00000000000E+00  0.22391670281E+02  0.22391670281E+02  0.00000000000E+00 0. -1.
         21   -1    0    0  502  503 -0.00000000000E+00 -0.00000000000E+00 -0.15502670022E+04  0.15502670022E+04  0.00000000000E+00 0. -1.
          6    1    1    2  501    0 -0.34002261507E+02  0.60744102304E+02 -0.83494500266E+03  0.85531465392E+03  0.17200000000E+03 0. -1.
         -6    1    1    2    0  503  0.34002261507E+02 -0.60744102304E+02 -0.69293032927E+03  0.71734401857E+03  0.17200000000E+03 0. -1.
</event>
