<event>
 4    1  0.3205520E-002  0.2158603E+03  0.7818608E-02  0.1137007E+00
         -2   -1    0    0    0  501 -0.00000000000E+00  0.00000000000E+00  0.70591003540E+02  0.70591003540E+02  0.00000000000E+00 0.  1.
          2   -1    0    0  502    0  0.00000000000E+00 -0.00000000000E+00 -0.88116210945E+03  0.88116210945E+03  0.00000000000E+00 0. -1.
          6    1    1    2  502    0  0.10201140441E+03  0.81273341963E+02 -0.64365115143E+03  0.67888326499E+03  0.17200000000E+03 0. -1.
         -6    1    1    2    0  501 -0.10201140441E+03 -0.81273341963E+02 -0.16691995448E+03  0.27286984800E+03  0.17200000000E+03 0.  1.
</event>
<event>
 4    1  0.3205520E-002  0.3381697E+03  0.7818608E-02  0.1067578E+00
          2   -1    0    0  502    0  0.00000000000E+00  0.00000000000E+00  0.17074558472E+04  0.17074558472E+04  0.00000000000E+00 0. -1.
         -2   -1    0    0    0  501 -0.00000000000E+00 -0.00000000000E+00 -0.12834965306E+03  0.12834965306E+03  0.00000000000E+00 0.  1.
          6    1    1    2  502    0  0.24146918919E+03  0.16268804900E+03  0.14242843431E+04  0.14638800021E+04  0.17200000000E+03 0. -1.
         -6    1    1    2    0  501 -0.24146918919E+03 -0.16268804900E+03  0.15482185106E+03  0.37192549816E+03  0.17200000000E+03 0.  1.
</event>
<event>
 4    1  0.3205520E-002  0.2875630E+03  0.7818608E-02  0.1091628E+00
          2   -1    0    0  502    0  0.00000000000E+00  0.00000000000E+00  0.21689184662E+03  0.21689184662E+03  0.00000000000E+00 0. -1.
         -2   -1    0    0    0  501 -0.00000000000E+00 -0.00000000000E+00 -0.39010458609E+03  0.39010458609E+03  0.00000000000E+00 0.  1.
          6    1    1    2  502    0  0.23021064688E+03 -0.10560621549E+02 -0.40910988008E+02  0.29045856435E+03  0.17200000000E+03 0.  1.
         -6    1    1    2    0  501 -0.23021064688E+03  0.10560621549E+02 -0.13230175146E+03  0.31653786836E+03  0.17200000000E+03 0.  1.
</event>
<event>
 4    1  0.3205520E-002  0.2146836E+03  0.7818608E-02  0.1137910E+00
          1   -1    0    0  502    0  0.00000000000E+00  0.00000000000E+00  0.33233374375E+03  0.33233374375E+03  0.00000000000E+00 0. -1.
         -1   -1    0    0    0  501 -0.00000000000E+00 -0.00000000000E+00 -0.16073119434E+03  0.16073119434E+03  0.00000000000E+00 0.  1.
          6    1    1    2  502    0 -0.11683800030E+03  0.53422018749E+02  0.17710970046E+03  0.27831075509E+03  0.17200000000E+03 0. -1.
         -6    1    1    2    0  501  0.11683800030E+03 -0.53422018749E+02 -0.55071510520E+01  0.21475418299E+03  0.17200000000E+03 0.  1.
</event>
<event>
 4    1  0.3205520E-002  0.1764555E+03  0.7818608E-02  0.1171278E+00
         -1   -1    0    0    0  501 -0.00000000000E+00  0.00000000000E+00  0.40837088911E+02  0.40837088911E+02  0.00000000000E+00 0.  1.
          1   -1    0    0  502    0  0.00000000000E+00 -0.00000000000E+00 -0.76298390890E+03  0.76298390890E+03  0.00000000000E+00 0. -1.
          6    1    1    2  502    0  0.15379432111E+02  0.36276990028E+02 -0.37162968882E+03  0.41139418147E+03  0.17200000000E+03 0. -1.
         -6    1    1    2    0  501 -0.15379432111E+02 -0.36276990028E+02 -0.35051713117E+03  0.39242681634E+03  0.17200000000E+03 0.  1.
</event>
<event>
 4    1  0.3205520E-002  0.2029529E+03  0.7818608E-02  0.1147271E+00
         -2   -1    0    0    0  501 -0.00000000000E+00  0.00000000000E+00  0.23922743719E+02  0.23922743719E+02  0.00000000000E+00 0.  1.
          2   -1    0    0  502    0  0.00000000000E+00 -0.00000000000E+00 -0.17397851801E+04  0.17397851801E+04  0.00000000000E+00 0. -1.
          6    1    1    2  502    0  0.16091102203E+02 -0.10652208598E+03 -0.94762420719E+03  0.96911377888E+03  0.17200000000E+03 0. -1.
         -6    1    1    2    0  501 -0.16091102203E+02  0.10652208598E+03 -0.76823822918E+03  0.79459414493E+03  0.17200000000E+03 0.  1.
</event>
<event>
 4    1  0.3205520E-002  0.2496225E+03  0.7818608E-02  0.1113544E+00
          2   -1    0    0  502    0  0.00000000000E+00  0.00000000000E+00  0.75161871718E+03  0.75161871718E+03  0.00000000000E+00 0. -1.
         -2   -1    0    0    0  501 -0.00000000000E+00 -0.00000000000E+00 -0.86829684713E+02  0.86829684713E+02  0.00000000000E+00 0.  1.
          6    1    1    2  502    0 -0.15966114745E+03 -0.85063040648E+02  0.42154597603E+03  0.48991061715E+03  0.17200000000E+03 0. -1.
         -6    1    1    2    0  501  0.15966114745E+03  0.85063040648E+02  0.24324305644E+03  0.34853778474E+03  0.17200000000E+03 0.  1.
</event>
<event>
 4    1  0.3205520E-002  0.1807963E+03  0.7818608E-02  0.1167035E+00
          1   -1    0    0  502    0  0.00000000000E+00  0.00000000000E+00  0.11011606053E+04  0.11011606053E+04  0.00000000000E+00 0. -1.
         -1   -1    0    0    0  501 -0.00000000000E+00 -0.00000000000E+00 -0.32076146930E+02  0.32076146930E+02  0.00000000000E+00 0.  1.
          6    1    1    2  502    0  0.19172893579E+02 -0.52303979182E+02  0.68926562863E+03  0.71258291651E+03  0.17200000000E+03 0. -1.
         -6    1    1    2    0  501 -0.19172893579E+02  0.52303979182E+02  0.37981882977E+03  0.42065383575E+03  0.17200000000E+03 0.  1.
</event>
<event>
 4    1  0.3205520E-002  0.2289768E+03  0.7818608E-02  0.1127362E+00
          2   -1    0    0  502    0  0.00000000000E+00  0.00000000000E+00  0.38567220839E+03  0.38567220839E+03  0.00000000000E+00 0. -1.
         -2   -1    0    0    0  501 -0.00000000000E+00 -0.00000000000E+00 -0.27626973771E+03  0.27626973771E+03  0.00000000000E+00 0.  1.
          6    1    1    2  502    0 -0.14954445512E+03  0.21973195065E+02  0.29058048562E+03  0.36995592168E+03  0.17200000000E+03 0. -1.
         -6    1    1    2    0  501  0.14954445512E+03 -0.21973195065E+02 -0.18117801495E+03  0.29198602443E+03  0.17200000000E+03 0.  1.
</event>
<event>
 4    1  0.3205520E-002  0.1887886E+03  0.7818608E-02  0.1159559E+00
         -2   -1    0    0    0  501 -0.00000000000E+00  0.00000000000E+00  0.38207650206E+03  0.38207650206E+03  0.00000000000E+00 0.  1.
          2   -1    0    0  502    0  0.00000000000E+00 -0.00000000000E+00 -0.15325941277E+03  0.15325941277E+03  0.00000000000E+00 0. -1.
          6    1    1    2  502    0  0.17494884411E+02 -0.75835727855E+02 -0.53037204733E+02  0.19609710270E+03  0.17200000000E+03 0. -1.
         -6    1    1    2    0  501 -0.17494884411E+02  0.75835727855E+02  0.28185429402E+03  0.33923881214E+03  0.17200000000E+03 0.  1.
</event>
<event>
 4    1  0.3205520E-002  0.2284326E+03  0.7818608E-02  0.1127748E+00
         -2   -1    0    0    0  501 -0.00000000000E+00  0.00000000000E+00  0.72677425856E+02  0.72677425856E+02  0.00000000000E+00 0.  1.
          2   -1    0    0  502    0  0.00000000000E+00 -0.00000000000E+00 -0.79308392521E+03  0.79308392521E+03  0.00000000000E+00 0. -1.
          6    1    1    2  502    0  0.14989151259E+03 -0.11401696865E+02 -0.22699871334E+03  0.32204018398E+03  0.17200000000E+03 0. -1.
         -6    1    1    2    0  501 -0.14989151259E+03  0.11401696865E+02 -0.49340778601E+03  0.54372116708E+03  0.17200000000E+03 0.  1.
</event>
<event>
 4    1  0.3205520E-002  0.2579287E+03  0.7818608E-02  0.1108394E+00
         -2   -1    0    0    0  501 -0.00000000000E+00  0.00000000000E+00  0.84984208530E+02  0.84984208530E+02  0.00000000000E+00 0.  1.
          2   -1    0    0  502    0  0.00000000000E+00 -0.00000000000E+00 -0.10828312844E+04  0.10828312844E+04  0.00000000000E+00 0. -1.
          6    1    1    2  502    0 -0.33108622681E+02 -0.18933313224E+03 -0.80627386249E+03  0.84652510725E+03  0.17200000000E+03 0. -1.
         -6    1    1    2    0  501  0.33108622681E+02  0.18933313224E+03 -0.19157321342E+03  0.32129038573E+03  0.17200000000E+03 0.  1.
</event>
<event>
 4    1  0.3205520E-002  0.3165210E+03  0.7818608E-02  0.1077262E+00
          1   -1    0    0  502    0  0.00000000000E+00  0.00000000000E+00  0.16103240128E+04  0.16103240128E+04  0.00000000000E+00 0. -1.
         -1   -1    0    0    0  501 -0.00000000000E+00 -0.00000000000E+00 -0.74064388295E+02  0.74064388295E+02  0.00000000000E+00 0.  1.
          6    1    1    2  502    0 -0.67401089604E+01  0.26562406883E+03  0.43125864726E+03  0.53494821791E+03  0.17200000000E+03 0. -1.
         -6    1    1    2    0  501  0.67401089604E+01 -0.26562406883E+03  0.11050009773E+04  0.11494401832E+04  0.17200000000E+03 0.  1.
</event>
<event>
 4    1  0.3205520E-002  0.2726551E+03  0.7818608E-02  0.1099770E+00
         -1   -1    0    0    0  501 -0.00000000000E+00  0.00000000000E+00  0.48993236610E+02  0.48993236610E+02  0.00000000000E+00 0.  1.
          1   -1    0    0  502    0  0.00000000000E+00 -0.00000000000E+00 -0.17847254341E+04  0.17847254341E+04  0.00000000000E+00 0. -1.
          6    1    1    2  502    0  0.19410206183E+03  0.84149672020E+02 -0.12227309621E+04  0.12527616627E+04  0.17200000000E+03 0. -1.
         -6    1    1    2    0  501 -0.19410206183E+03 -0.84149672020E+02 -0.51300123537E+03  0.58095700805E+03  0.17200000000E+03 0.  1.
</event>
<event>
 4    1  0.3205520E-002  0.2632726E+03  0.7818608E-02  0.1105193E+00
          2   -1    0    0  502    0  0.00000000000E+00  0.00000000000E+00  0.16967953463E+04  0.16967953463E+04  0.00000000000E+00 0. -1.
         -2   -1    0    0    0  501 -0.00000000000E+00 -0.00000000000E+00 -0.42125992170E+03  0.42125992170E+03  0.00000000000E+00 0.  1.
          6    1    1    2  502    0 -0.10413731290E+03  0.16995258241E+03  0.16441400420E+04  0.16650852644E+04  0.17200000000E+03 0. -1.
         -6    1    1    2    0  501  0.10413731290E+03 -0.16995258241E+03 -0.36860461736E+03  0.45297000358E+03  0.17200000000E+03 0.  1.
</event>
<event>
 4    1  0.3205520E-002  0.3142930E+03  0.7818608E-02  0.1078306E+00
         -1   -1    0    0    0  501 -0.00000000000E+00  0.00000000000E+00  0.51854065997E+03  0.51854065997E+03  0.00000000000E+00 0.  1.
          1   -1    0    0  502    0  0.00000000000E+00 -0.00000000000E+00 -0.19944991582E+03  0.19944991582E+03  0.00000000000E+00 0. -1.
          6    1    1    2  502    0  0.15914341335E+03 -0.20945033470E+03  0.83482724113E+02  0.32519138049E+03  0.17200000000E+03 0. -1.
         -6    1    1    2    0  501 -0.15914341335E+03  0.20945033470E+03  0.23560802004E+03  0.39279919530E+03  0.17200000000E+03 0.  1.
</event>
<event>
 4    1  0.3205520E-002  0.1842872E+03  0.7818608E-02  0.1163717E+00
         -2   -1    0    0    0  501 -0.00000000000E+00  0.00000000000E+00  0.13452402791E+02  0.13452402791E+02  0.00000000000E+00 0.  1.
          2   -1    0    0  502    0  0.00000000000E+00 -0.00000000000E+00 -0.25660272421E+04  0.25660272421E+04  0.00000000000E+00 0. -1.
          6    1    1    2  502    0 -0.52701656383E+02 -0.40003731680E+02 -0.11123863196E+04  0.11275482638E+04  0.17200000000E+03 0.  1.
         -6    1    1    2    0  501  0.52701656383E+02  0.40003731680E+02 -0.14401885196E+04  0.14519313810E+04  0.17200000000E+03 0. -1.
</event>
<event>
 4    1  0.3205520E-002  0.2396463E+03  0.7818608E-02  0.1120029E+00
          2   -1    0    0  502    0  0.00000000000E+00  0.00000000000E+00  0.23215575956E+04  0.23215575956E+04  0.00000000000E+00 0. -1.
         -2   -1    0    0    0  501 -0.00000000000E+00 -0.00000000000E+00 -0.32731453671E+02  0.32731453671E+02  0.00000000000E+00 0.  1.
          6    1    1    2  502    0  0.26842000105E+01  0.16685064541E+03  0.17261390443E+04  0.17426951377E+04  0.17200000000E+03 0. -1.
         -6    1    1    2    0  501 -0.26842000105E+01 -0.16685064541E+03  0.56268709767E+03  0.61159391158E+03  0.17200000000E+03 0.  1.
</event>
<event>
 4    1  0.3205520E-002  0.1955922E+03  0.7818608E-02  0.1153512E+00
         -2   -1    0    0    0  501 -0.00000000000E+00  0.00000000000E+00  0.20611487481E+03  0.20611487481E+03  0.00000000000E+00 0.  1.
          2   -1    0    0  502    0  0.00000000000E+00 -0.00000000000E+00 -0.22441514577E+03  0.22441514577E+03  0.00000000000E+00 0. -1.
          6    1    1    2  502    0 -0.85660539152E+02  0.36532070856E+02  0.80367785410E+02  0.21145992788E+03  0.17200000000E+03 0.  1.
         -6    1    1    2    0  501  0.85660539152E+02 -0.36532070856E+02 -0.98668056363E+02  0.21907009270E+03  0.17200000000E+03 0. -1.
</event>
<event>
 4    1  0.3205520E-002  0.5130829E+03  0.7818608E-02  0.1010419E+00
         -2   -1    0    0    0  501 -0.00000000000E+00  0.00000000000E+00  0.33154050089E+03  0.33154050089E+03  0.00000000000E+00 0.  1.
          2   -1    0    0  502    0  0.00000000000E+00 -0.00000000000E+00 -0.86921474531E+03  0.86921474531E+03  0.00000000000E+00 0. -1.
          6    1    1    2  502    0 -0.26001323272E+03  0.40750854032E+03 -0.44540724400E+03  0.67944220110E+03  0.17200000000E+03 0. -1.
         -6    1    1    2    0  501  0.26001323272E+03 -0.40750854032E+03 -0.92267000432E+02  0.52131304510E+03  0.17200000000E+03 0.  1.
</event>
<event>
 4    1  0.3205520E-002  0.3141043E+03  0.7818608E-02  0.1078395E+00
          2   -1    0    0  502    0  0.00000000000E+00  0.00000000000E+00  0.22737439883E+04  0.22737439883E+04  0.00000000000E+00 0. -1.
         -2   -1    0    0    0  501 -0.00000000000E+00 -0.00000000000E+00 -0.44154580507E+02  0.44154580507E+02  0.00000000000E+00 0.  1.
          6    1    1    2  502    0  0.24998090462E+03  0.81160680244E+02  0.96245315409E+03  0.10124117653E+04  0.17200000000E+03 0. -1.
         -6    1    1    2    0  501 -0.24998090462E+03 -0.81160680244E+02  0.12671362537E+04  0.13054868035E+04  0.17200000000E+03 0.  1.
</event>
<event>
 4    1  0.3205520E-002  0.2379128E+03  0.7818608E-02  0.1121191E+00
          1   -1    0    0  502    0  0.00000000000E+00  0.00000000000E+00  0.16694166456E+03  0.16694166456E+03  0.00000000000E+00 0. -1.
         -1   -1    0    0    0  501 -0.00000000000E+00 -0.00000000000E+00 -0.38447967661E+03  0.38447967661E+03  0.00000000000E+00 0.  1.
          6    1    1    2  502    0  0.29498804369E+02  0.16170435761E+03 -0.20353678929E+03  0.31309695515E+03  0.17200000000E+03 0. -1.
         -6    1    1    2    0  501 -0.29498804369E+02 -0.16170435761E+03 -0.14001222755E+02  0.23832438602E+03  0.17200000000E+03 0.  1.
</event>
<event>
 4    1  0.3205520E-002  0.4193951E+03  0.7818608E-02  0.1037263E+00
          2   -1    0    0  502    0  0.00000000000E+00  0.00000000000E+00  0.66959242028E+03  0.66959242028E+03  0.00000000000E+00 0. -1.
         -2   -1    0    0    0  501 -0.00000000000E+00 -0.00000000000E+00 -0.29371442751E+03  0.29371442751E+03  0.00000000000E+00 0.  1.
          6    1    1    2  502    0 -0.36011537531E+02  0.38080362827E+03  0.34448977920E+03  0.54273883416E+03  0.17200000000E+03 0. -1.
         -6    1    1    2    0  501  0.36011537531E+02 -0.38080362827E+03  0.31388213575E+02  0.42056801363E+03  0.17200000000E+03 0.  1.
</event>
<event>
 4    1  0.3205520E-002  0.1954505E+03  0.7818608E-02  0.1153635E+00
         -1   -1    0    0    0  501 -0.00000000000E+00  0.00000000000E+00  0.82048537087E+02  0.82048537087E+02  0.00000000000E+00 0.  1.
          1   -1    0    0  502    0  0.00000000000E+00 -0.00000000000E+00 -0.64378850542E+03  0.64378850542E+03  0.00000000000E+00 0. -1.
          6    1    1    2  502    0 -0.50369482879E+02 -0.77973256009E+02 -0.47180716957E+03  0.51068867103E+03  0.17200000000E+03 0. -1.
         -6    1    1    2    0  501  0.50369482879E+02  0.77973256009E+02 -0.89932798767E+02  0.21514837148E+03  0.17200000000E+03 0.  1.
</event>
<event>
 4    1  0.3205520E-002  0.2552927E+03  0.7818608E-02  0.1110005E+00
          1   -1    0    0  502    0  0.00000000000E+00  0.00000000000E+00  0.21862684421E+03  0.21862684421E+03  0.00000000000E+00 0. -1.
         -1   -1    0    0    0  501 -0.00000000000E+00 -0.00000000000E+00 -0.32230551615E+03  0.32230551615E+03  0.00000000000E+00 0.  1.
          6    1    1    2  502    0 -0.18789388372E+03  0.16918438922E+02 -0.12594769691E+03  0.28467027852E+03  0.17200000000E+03 0.  1.
         -6    1    1    2    0  501  0.18789388372E+03 -0.16918438922E+02  0.22269024972E+02  0.25626208184E+03  0.17200000000E+03 0.  1.
</event>
<event>
 4    1  0.3205520E-002  0.2038127E+03  0.7818608E-02  0.1146562E+00
         -1   -1    0    0    0  501 -0.00000000000E+00  0.00000000000E+00  0.28384863482E+02  0.28384863482E+02  0.00000000000E+00 0.  1.
          1   -1    0    0  502    0  0.00000000000E+00 -0.00000000000E+00 -0.14748697011E+04  0.14748697011E+04  0.00000000000E+00 0. -1.
          6    1    1    2  502    0 -0.92393228294E+02 -0.58473148349E+02 -0.78940222342E+03  0.81528859188E+03  0.17200000000E+03 0. -1.
         -6    1    1    2    0  501  0.92393228294E+02  0.58473148349E+02 -0.65708261421E+03  0.68796597271E+03  0.17200000000E+03 0. -1.
</event>
<event>
 4    1  0.3205520E-002  0.3916441E+03  0.7818608E-02  0.1046712E+00
         -1   -1    0    0    0  501 -0.00000000000E+00  0.00000000000E+00  0.16829045856E+03  0.16829045856E+03  0.00000000000E+00 0.  1.
          1   -1    0    0  502    0  0.00000000000E+00 -0.00000000000E+00 -0.97761774966E+03  0.97761774966E+03  0.00000000000E+00 0. -1.
          6    1    1    2  502    0 -0.96978057328E+02  0.33822534856E+03 -0.55374421251E+03  0.67824610791E+03  0.17200000000E+03 0. -1.
         -6    1    1    2    0  501  0.96978057328E+02 -0.33822534856E+03 -0.25558307859E+03  0.46766210031E+03  0.17200000000E+03 0.  1.
</event>
<event>
 4    1  0.3205520E-002  0.2290602E+03  0.7818608E-02  0.1127303E+00
         -1   -1    0    0    0  501 -0.00000000000E+00  0.00000000000E+00  0.30985379692E+02  0.30985379692E+02  0.00000000000E+00 0.  1.
          1   -1    0    0  502    0  0.00000000000E+00 -0.00000000000E+00 -0.18967505918E+04  0.18967505918E+04  0.00000000000E+00 0. -1.
          6    1    1    2  502    0 -0.13007583316E+03 -0.77232586107E+02 -0.12485325411E+04  0.12693707500E+04  0.17200000000E+03 0. -1.
         -6    1    1    2    0  501  0.13007583316E+03  0.77232586107E+02 -0.61723267096E+03  0.65836522146E+03  0.17200000000E+03 0.  1.
</event>
<event>
 4    1  0.3205520E-002  0.1109260E+04  0.7818608E-02  0.9196213E-01
          1   -1    0    0  502    0  0.00000000000E+00  0.00000000000E+00  0.12165240937E+04  0.12165240937E+04  0.00000000000E+00 0. -1.
         -1   -1    0    0    0  501 -0.00000000000E+00 -0.00000000000E+00 -0.14473815446E+04  0.14473815446E+04  0.00000000000E+00 0.  1.
          6    1    1    2  502    0 -0.10954143861E+04  0.30672965146E+02  0.61555001952E+03  0.12686052714E+04  0.17200000000E+03 0. -1.
         -6    1    1    2    0  501  0.10954143861E+04 -0.30672965146E+02 -0.84640747045E+03  0.13953003670E+04  0.17200000000E+03 0.  1.
</event>
<event>
 4    1  0.3205520E-002  0.2383470E+03  0.7818608E-02  0.1120899E+00
         -1   -1    0    0    0  501 -0.00000000000E+00  0.00000000000E+00  0.33206729481E+02  0.33206729481E+02  0.00000000000E+00 0.  1.
          1   -1    0    0  502    0  0.00000000000E+00 -0.00000000000E+00 -0.17487172242E+04  0.17487172242E+04  0.00000000000E+00 0. -1.
          6    1    1    2  502    0  0.70879057073E+02  0.14900153793E+03 -0.72651983287E+03  0.76461779118E+03  0.17200000000E+03 0. -1.
         -6    1    1    2    0  501 -0.70879057073E+02 -0.14900153793E+03 -0.98899066182E+03  0.10173061625E+04  0.17200000000E+03 0. -1.
</event>
<event>
 4    1  0.3205520E-002  0.1853834E+03  0.7818608E-02  0.1162692E+00
          2   -1    0    0  502    0  0.00000000000E+00  0.00000000000E+00  0.91266798972E+02  0.91266798972E+02  0.00000000000E+00 0. -1.
         -2   -1    0    0    0  501 -0.00000000000E+00 -0.00000000000E+00 -0.48523929600E+03  0.48523929600E+03  0.00000000000E+00 0.  1.
          6    1    1    2  502    0  0.57648318628E+02  0.38205517711E+02 -0.60565989489E+02  0.19502622723E+03  0.17200000000E+03 0. -1.
         -6    1    1    2    0  501 -0.57648318628E+02 -0.38205517711E+02 -0.33340650753E+03  0.38147986774E+03  0.17200000000E+03 0.  1.
</event>
<event>
 4    1  0.3205520E-002  0.1838141E+03  0.7818608E-02  0.1164162E+00
          2   -1    0    0  502    0  0.00000000000E+00  0.00000000000E+00  0.78402023429E+03  0.78402023429E+03  0.00000000000E+00 0. -1.
         -2   -1    0    0    0  501 -0.00000000000E+00 -0.00000000000E+00 -0.43948071059E+02  0.43948071059E+02  0.00000000000E+00 0.  1.
          6    1    1    2  502    0  0.10483257938E+02  0.63982325540E+02  0.42770130313E+03  0.46552770205E+03  0.17200000000E+03 0. -1.
         -6    1    1    2    0  501 -0.10483257938E+02 -0.63982325540E+02  0.31237086010E+03  0.36244060330E+03  0.17200000000E+03 0. -1.
</event>
<event>
 4    1  0.3205520E-002  0.2446186E+03  0.7818608E-02  0.1116754E+00
          2   -1    0    0  502    0  0.00000000000E+00  0.00000000000E+00  0.85010818740E+03  0.85010818740E+03  0.00000000000E+00 0. -1.
         -2   -1    0    0    0  501 -0.00000000000E+00 -0.00000000000E+00 -0.24624268372E+03  0.24624268372E+03  0.00000000000E+00 0.  1.
          6    1    1    2  502    0 -0.42835355171E+02 -0.16858048773E+03  0.76518086794E+03  0.80333057278E+03  0.17200000000E+03 0. -1.
         -6    1    1    2    0  501  0.42835355171E+02  0.16858048773E+03 -0.16131536426E+03  0.29302029834E+03  0.17200000000E+03 0.  1.
</event>
<event>
 4    1  0.3205520E-002  0.6448142E+03  0.7818608E-02  0.9816559E-01
          2   -1    0    0  502    0  0.00000000000E+00  0.00000000000E+00  0.19163360984E+04  0.19163360984E+04  0.00000000000E+00 0. -1.
         -2   -1    0    0    0  501 -0.00000000000E+00 -0.00000000000E+00 -0.22484206655E+03  0.22484206655E+03  0.00000000000E+00 0.  1.
          6    1    1    2  502    0 -0.61857382986E+03  0.59731179302E+02  0.10460824913E+04  0.12288506725E+04  0.17200000000E+03 0. -1.
         -6    1    1    2    0  501  0.61857382986E+03 -0.59731179302E+02  0.64541154059E+03  0.91232749246E+03  0.17200000000E+03 0. -1.
</event>
<event>
 4    1  0.3205520E-002  0.2506728E+03  0.7818608E-02  0.1112880E+00
         -2   -1    0    0    0  501 -0.00000000000E+00  0.00000000000E+00  0.27300222471E+03  0.27300222471E+03  0.00000000000E+00 0.  1.
          2   -1    0    0  502    0  0.00000000000E+00 -0.00000000000E+00 -0.35521792352E+03  0.35521792352E+03  0.00000000000E+00 0. -1.
          6    1    1    2  502    0  0.10772545660E+03 -0.14713278158E+03 -0.22747667186E+03  0.33850031855E+03  0.17200000000E+03 0. -1.
         -6    1    1    2    0  501 -0.10772545660E+03  0.14713278158E+03  0.14526097305E+03  0.28971982968E+03  0.17200000000E+03 0.  1.
</event>
<event>
 4    1  0.3205520E-002  0.2926411E+03  0.7818608E-02  0.1088978E+00
          1   -1    0    0  502    0  0.00000000000E+00  0.00000000000E+00  0.98443251164E+03  0.98443251164E+03  0.00000000000E+00 0. -1.
         -1   -1    0    0    0  501 -0.00000000000E+00 -0.00000000000E+00 -0.87110196738E+02  0.87110196738E+02  0.00000000000E+00 0.  1.
          6    1    1    2  502    0 -0.14837085460E+03  0.18450173865E+03  0.46830747607E+03  0.55222340968E+03  0.17200000000E+03 0. -1.
         -6    1    1    2    0  501  0.14837085460E+03 -0.18450173865E+03  0.42901483883E+03  0.51931929869E+03  0.17200000000E+03 0.  1.
</event>
<event>
 4    1  0.3205520E-002  0.2967470E+03  0.7818608E-02  0.1086878E+00
          1   -1    0    0  502    0  0.00000000000E+00  0.00000000000E+00  0.61614585982E+03  0.61614585982E+03  0.00000000000E+00 0. -1.
         -1   -1    0    0    0  501 -0.00000000000E+00 -0.00000000000E+00 -0.15904422284E+03  0.15904422284E+03  0.00000000000E+00 0.  1.
          6    1    1    2  502    0 -0.15173875326E+03  0.18828206190E+03  0.10513359980E+03  0.31482035811E+03  0.17200000000E+03 0.  1.
         -6    1    1    2    0  501  0.15173875326E+03 -0.18828206190E+03  0.35196803719E+03  0.46036972454E+03  0.17200000000E+03 0.  1.
</event>
<event>
 4    1  0.3205520E-002  0.2811096E+03  0.7818608E-02  0.1095084E+00
          1   -1    0    0  502    0  0.00000000000E+00  0.00000000000E+00  0.19226292389E+04  0.19226292389E+04  0.00000000000E+00 0. -1.
         -1   -1    0    0    0  501 -0.00000000000E+00 -0.00000000000E+00 -0.15796655922E+03  0.15796655922E+03  0.00000000000E+00 0.  1.
          6    1    1    2  502    0 -0.61683294539E+02  0.21362063798E+03  0.17771145211E+04  0.17992105566E+04  0.17200000000E+03 0. -1.
         -6    1    1    2    0  501  0.61683294539E+02 -0.21362063798E+03 -0.12451841426E+02  0.28138524153E+03  0.17200000000E+03 0.  1.
</event>
<event>
 4    1  0.3205520E-002  0.2867668E+03  0.7818608E-02  0.1092049E+00
          1   -1    0    0  502    0  0.00000000000E+00  0.00000000000E+00  0.12103037092E+04  0.12103037092E+04  0.00000000000E+00 0. -1.
         -1   -1    0    0    0  501 -0.00000000000E+00 -0.00000000000E+00 -0.76174037891E+02  0.76174037891E+02  0.00000000000E+00 0.  1.
          6    1    1    2  502    0  0.95818633669E+02 -0.20849458807E+03  0.77847163050E+03  0.82961032016E+03  0.17200000000E+03 0. -1.
         -6    1    1    2    0  501 -0.95818633669E+02  0.20849458807E+03  0.35565804085E+03  0.45686742698E+03  0.17200000000E+03 0.  1.
</event>
<event>
 4    1  0.3205520E-002  0.2344726E+03  0.7818608E-02  0.1123531E+00
          2   -1    0    0  502    0  0.00000000000E+00  0.00000000000E+00  0.70416841494E+03  0.70416841494E+03  0.00000000000E+00 0. -1.
         -2   -1    0    0    0  501 -0.00000000000E+00 -0.00000000000E+00 -0.95384447084E+02  0.95384447084E+02  0.00000000000E+00 0.  1.
          6    1    1    2  502    0 -0.11833785356E+03 -0.10672184089E+03  0.47469792589E+03  0.52944831641E+03  0.17200000000E+03 0. -1.
         -6    1    1    2    0  501  0.11833785356E+03  0.10672184089E+03  0.13408604196E+03  0.27010454561E+03  0.17200000000E+03 0.  1.
</event>
<event>
 4    1  0.3205520E-002  0.2658467E+03  0.7818608E-02  0.1103680E+00
          1   -1    0    0  502    0  0.00000000000E+00  0.00000000000E+00  0.49636851953E+03  0.49636851953E+03  0.00000000000E+00 0. -1.
         -1   -1    0    0    0  501 -0.00000000000E+00 -0.00000000000E+00 -0.14426226447E+03  0.14426226447E+03  0.00000000000E+00 0.  1.
          6    1    1    2  502    0  0.19204626887E+03 -0.64874288035E+02  0.21261214554E+03  0.34040911719E+03  0.17200000000E+03 0. -1.
         -6    1    1    2    0  501 -0.19204626887E+03  0.64874288035E+02  0.13949410952E+03  0.30022166681E+03  0.17200000000E+03 0.  1.
</event>
<event>
 4    1  0.3205520E-002  0.1794218E+03  0.7818608E-02  0.1168364E+00
          2   -1    0    0  502    0  0.00000000000E+00  0.00000000000E+00  0.23277605882E+04  0.23277605882E+04  0.00000000000E+00 0. -1.
         -2   -1    0    0    0  501 -0.00000000000E+00 -0.00000000000E+00 -0.36572220202E+02  0.36572220202E+02  0.00000000000E+00 0.  1.
          6    1    1    2  502    0 -0.35136518619E+02 -0.37062350780E+02  0.20778227350E+04  0.20855549647E+04  0.17200000000E+03 0. -1.
         -6    1    1    2    0  501  0.35136518619E+02  0.37062350780E+02  0.21336563302E+03  0.27877784370E+03  0.17200000000E+03 0.  1.
</event>
<event>
 4    1  0.3205520E-002  0.1739338E+03  0.7818608E-02  0.1173807E+00
         -2   -1    0    0    0  501 -0.00000000000E+00  0.00000000000E+00  0.14972192206E+02  0.14972192206E+02  0.00000000000E+00 0.  1.
          2   -1    0    0  502    0  0.00000000000E+00 -0.00000000000E+00 -0.20365242609E+04  0.20365242609E+04  0.00000000000E+00 0. -1.
          6    1    1    2  502    0 -0.11046363797E+02  0.23386922553E+02 -0.92010240270E+03  0.93639810003E+03  0.17200000000E+03 0. -1.
         -6    1    1    2    0  501  0.11046363797E+02 -0.23386922553E+02 -0.11014496660E+04  0.11150983531E+04  0.17200000000E+03 0. -1.
</event>
<event>
 4    1  0.3205520E-002  0.1748280E+03  0.7818608E-02  0.1172905E+00
         -2   -1    0    0    0  501 -0.00000000000E+00  0.00000000000E+00  0.11962869646E+02  0.11962869646E+02  0.00000000000E+00 0.  1.
          2   -1    0    0  502    0  0.00000000000E+00 -0.00000000000E+00 -0.26041276217E+04  0.26041276217E+04  0.00000000000E+00 0. -1.
          6    1    1    2  502    0 -0.31183606181E+02  0.29011211976E+01 -0.14757892279E+04  0.14861085690E+04  0.17200000000E+03 0. -1.
         -6    1    1    2    0  501  0.31183606181E+02 -0.29011211976E+01 -0.11163755242E+04  0.11299819223E+04  0.17200000000E+03 0.  1.
</event>
<event>
 4    1  0.3205520E-002  0.1943277E+03  0.7818608E-02  0.1154615E+00
          2   -1    0    0  502    0  0.00000000000E+00  0.00000000000E+00  0.47529105931E+03  0.47529105931E+03  0.00000000000E+00 0. -1.
         -2   -1    0    0    0  501 -0.00000000000E+00 -0.00000000000E+00 -0.79478141215E+02  0.79478141215E+02  0.00000000000E+00 0.  1.
          6    1    1    2  502    0  0.10154294633E+01 -0.90433586374E+02  0.19296559476E+03  0.27385942636E+03  0.17200000000E+03 0. -1.
         -6    1    1    2    0  501 -0.10154294633E+01  0.90433586374E+02  0.20284732333E+03  0.28090977417E+03  0.17200000000E+03 0. -1.
</event>
<event>
 4    1  0.3205520E-002  0.2604347E+03  0.7818608E-02  0.1106882E+00
          2   -1    0    0  502    0  0.00000000000E+00  0.00000000000E+00  0.20942218057E+04  0.20942218057E+04  0.00000000000E+00 0. -1.
         -2   -1    0    0    0  501 -0.00000000000E+00 -0.00000000000E+00 -0.77748785622E+02  0.77748785622E+02  0.00000000000E+00 0.  1.
          6    1    1    2  502    0  0.76218353960E+02  0.18009169634E+03  0.18377445888E+04  0.18561065245E+04  0.17200000000E+03 0. -1.
         -6    1    1    2    0  501 -0.76218353960E+02 -0.18009169634E+03  0.17872843127E+03  0.31586406683E+03  0.17200000000E+03 0.  1.
</event>
<event>
 4    1  0.3205520E-002  0.2064265E+03  0.7818608E-02  0.1144427E+00
          1   -1    0    0  502    0  0.00000000000E+00  0.00000000000E+00  0.15714611784E+04  0.15714611784E+04  0.00000000000E+00 0. -1.
         -1   -1    0    0    0  501 -0.00000000000E+00 -0.00000000000E+00 -0.33124300489E+02  0.33124300489E+02  0.00000000000E+00 0.  1.
          6    1    1    2  502    0  0.10407488095E+03 -0.46864994868E+02  0.11108578178E+04  0.11298747718E+04  0.17200000000E+03 0. -1.
         -6    1    1    2    0  501 -0.10407488095E+03  0.46864994868E+02  0.42747906011E+03  0.47471070709E+03  0.17200000000E+03 0.  1.
</event>
<event>
 4    1  0.3205520E-002  0.2922616E+03  0.7818608E-02  0.1089174E+00
          2   -1    0    0  502    0  0.00000000000E+00  0.00000000000E+00  0.43276882374E+03  0.43276882374E+03  0.00000000000E+00 0. -1.
         -2   -1    0    0    0  501 -0.00000000000E+00 -0.00000000000E+00 -0.22865780186E+03  0.22865780186E+03  0.00000000000E+00 0.  1.
          6    1    1    2  502    0 -0.12112230160E+03  0.20288475549E+03  0.22438357231E+03  0.36846278439E+03  0.17200000000E+03 0. -1.
         -6    1    1    2    0  501  0.12112230160E+03 -0.20288475549E+03 -0.20272550424E+02  0.29296384121E+03  0.17200000000E+03 0.  1.
</event>
<event>
 4    1  0.3205520E-002  0.3022104E+03  0.7818608E-02  0.1084141E+00
         -2   -1    0    0    0  501 -0.00000000000E+00  0.00000000000E+00  0.15006262630E+03  0.15006262630E+03  0.00000000000E+00 0.  1.
          2   -1    0    0  502    0  0.00000000000E+00 -0.00000000000E+00 -0.95069361241E+03  0.95069361241E+03  0.00000000000E+00 0. -1.
          6    1    1    2  502    0  0.24277403665E+03 -0.52989745571E+02 -0.73045730487E+03  0.79050554725E+03  0.17200000000E+03 0. -1.
         -6    1    1    2    0  501 -0.24277403665E+03  0.52989745571E+02 -0.70173681248E+02  0.31025069146E+03  0.17200000000E+03 0.  1.
</event>
<event>
 4    1  0.3205520E-002  0.2108947E+03  0.7818608E-02  0.1140859E+00
         -1   -1    0    0    0  501 -0.00000000000E+00  0.00000000000E+00  0.74288231626E+02  0.74288231626E+02  0.00000000000E+00 0.  1.
          1   -1    0    0  502    0  0.00000000000E+00 -0.00000000000E+00 -0.98024168728E+03  0.98024168728E+03  0.00000000000E+00 0. -1.
          6    1    1    2  502    0  0.11249517306E+03  0.47301480997E+02 -0.78192799505E+03  0.80986911505E+03  0.17200000000E+03 0. -1.
         -6    1    1    2    0  501 -0.11249517306E+03 -0.47301480997E+02 -0.12402546061E+03  0.24466080386E+03  0.17200000000E+03 0.  1.
</event>
<event>
 4    1  0.3205520E-002  0.2144735E+03  0.7818608E-02  0.1138072E+00
          1   -1    0    0  502    0  0.00000000000E+00  0.00000000000E+00  0.17009891592E+03  0.17009891592E+03  0.00000000000E+00 0. -1.
         -1   -1    0    0    0  501 -0.00000000000E+00 -0.00000000000E+00 -0.40767888863E+03  0.40767888863E+03  0.00000000000E+00 0.  1.
          6    1    1    2  502    0 -0.10739366975E+03  0.69867462017E+02  0.48833684995E+02  0.21996270443E+03  0.17200000000E+03 0. -1.
         -6    1    1    2    0  501  0.10739366975E+03 -0.69867462017E+02 -0.28641365771E+03  0.35781510012E+03  0.17200000000E+03 0.  1.
</event>
<event>
 4    1  0.3205520E-002  0.2104417E+03  0.7818608E-02  0.1141217E+00
         -2   -1    0    0    0  501 -0.00000000000E+00  0.00000000000E+00  0.79917728717E+02  0.79917728717E+02  0.00000000000E+00 0.  1.
          2   -1    0    0  502    0  0.00000000000E+00 -0.00000000000E+00 -0.57593046900E+03  0.57593046900E+03  0.00000000000E+00 0. -1.
          6    1    1    2  502    0 -0.33264949570E+00  0.12125009323E+03 -0.18422249155E+03  0.27968486223E+03  0.17200000000E+03 0. -1.
         -6    1    1    2    0  501  0.33264949570E+00 -0.12125009323E+03 -0.31179024873E+03  0.37616333549E+03  0.17200000000E+03 0.  1.
</event>
<event>
 4    1  0.3205520E-002  0.3094768E+03  0.7818608E-02  0.1080597E+00
          1   -1    0    0  502    0  0.00000000000E+00  0.00000000000E+00  0.84728946844E+02  0.84728946844E+02  0.00000000000E+00 0. -1.
         -1   -1    0    0    0  501 -0.00000000000E+00 -0.00000000000E+00 -0.16100467574E+04  0.16100467574E+04  0.00000000000E+00 0.  1.
          6    1    1    2  502    0 -0.21209230578E+03  0.14563215681E+03 -0.30013627071E+03  0.43111211102E+03  0.17200000000E+03 0. -1.
         -6    1    1    2    0  501  0.21209230578E+03 -0.14563215681E+03 -0.12251815399E+04  0.12636635932E+04  0.17200000000E+03 0.  1.
</event>
<event>
 4    1  0.3205520E-002  0.2220217E+03  0.7818608E-02  0.1132385E+00
          2   -1    0    0  502    0  0.00000000000E+00  0.00000000000E+00  0.10874049172E+04  0.10874049172E+04  0.00000000000E+00 0. -1.
         -2   -1    0    0    0  501 -0.00000000000E+00 -0.00000000000E+00 -0.56459556350E+02  0.56459556350E+02  0.00000000000E+00 0.  1.
          6    1    1    2  502    0  0.88593219918E+02 -0.10890773147E+03  0.26155889353E+03  0.34308411122E+03  0.17200000000E+03 0.  1.
         -6    1    1    2    0  501 -0.88593219918E+02  0.10890773147E+03  0.76938646729E+03  0.80078036230E+03  0.17200000000E+03 0. -1.
</event>
<event>
 4    1  0.3205520E-002  0.3016639E+03  0.7818608E-02  0.1084412E+00
         -2   -1    0    0    0  501 -0.00000000000E+00  0.00000000000E+00  0.33264685678E+02  0.33264685678E+02  0.00000000000E+00 0.  1.
          2   -1    0    0  502    0  0.00000000000E+00 -0.00000000000E+00 -0.39564293465E+04  0.39564293465E+04  0.00000000000E+00 0. -1.
          6    1    1    2  502    0 -0.94916552874E+02 -0.22892789407E+03 -0.85349678063E+03  0.90523913262E+03  0.17200000000E+03 0. -1.
         -6    1    1    2    0  501  0.94916552874E+02  0.22892789407E+03 -0.30696678802E+04  0.30844548995E+04  0.17200000000E+03 0.  1.
</event>
<event>
 4    1  0.3205520E-002  0.1759928E+03  0.7818608E-02  0.1171739E+00
         -1   -1    0    0    0  501 -0.00000000000E+00  0.00000000000E+00  0.19425299539E+03  0.19425299539E+03  0.00000000000E+00 0.  1.
          1   -1    0    0  502    0  0.00000000000E+00 -0.00000000000E+00 -0.20697280542E+03  0.20697280542E+03  0.00000000000E+00 0. -1.
          6    1    1    2  502    0 -0.15956054652E+02 -0.33688056773E+02 -0.10248947404E+03  0.20366043587E+03  0.17200000000E+03 0. -1.
         -6    1    1    2    0  501  0.15956054652E+02  0.33688056773E+02  0.89769664002E+02  0.19756536494E+03  0.17200000000E+03 0.  1.
</event>
<event>
 4    1  0.3205520E-002  0.1762148E+03  0.7818608E-02  0.1171518E+00
         -2   -1    0    0    0  501 -0.00000000000E+00  0.00000000000E+00  0.52798847463E+02  0.52798847463E+02  0.00000000000E+00 0.  1.
          2   -1    0    0  502    0  0.00000000000E+00 -0.00000000000E+00 -0.78105532196E+03  0.78105532196E+03  0.00000000000E+00 0. -1.
          6    1    1    2  502    0 -0.10808937723E+00  0.38309626563E+02 -0.57134935623E+03  0.59790611808E+03  0.17200000000E+03 0. -1.
         -6    1    1    2    0  501  0.10808937723E+00 -0.38309626563E+02 -0.15690711827E+03  0.23594805134E+03  0.17200000000E+03 0.  1.
</event>
<event>
 4    1  0.3205520E-002  0.3263133E+03  0.7818608E-02  0.1072780E+00
          2   -1    0    0  502    0  0.00000000000E+00  0.00000000000E+00  0.22813201432E+04  0.22813201432E+04  0.00000000000E+00 0. -1.
         -2   -1    0    0    0  501 -0.00000000000E+00 -0.00000000000E+00 -0.50912404225E+02  0.50912404225E+02  0.00000000000E+00 0.  1.
          6    1    1    2  502    0  0.27320968439E+03  0.47464083492E+02  0.14516267655E+04  0.14878510131E+04  0.17200000000E+03 0. -1.
         -6    1    1    2    0  501 -0.27320968439E+03 -0.47464083492E+02  0.77878097350E+03  0.84438153435E+03  0.17200000000E+03 0.  1.
</event>
<event>
 4    1  0.3205520E-002  0.2334942E+03  0.7818608E-02  0.1124204E+00
         -2   -1    0    0    0  501 -0.00000000000E+00  0.00000000000E+00  0.29807814267E+02  0.29807814267E+02  0.00000000000E+00 0.  1.
          2   -1    0    0  502    0  0.00000000000E+00 -0.00000000000E+00 -0.19829724336E+04  0.19829724336E+04  0.00000000000E+00 0. -1.
          6    1    1    2  502    0  0.15645340671E+03 -0.21397522205E+02 -0.12569840924E+04  0.12784868130E+04  0.17200000000E+03 0. -1.
         -6    1    1    2    0  501 -0.15645340671E+03  0.21397522205E+02 -0.69618052687E+03  0.73429343482E+03  0.17200000000E+03 0.  1.
</event>
<event>
 4    1  0.3205520E-002  0.2561124E+03  0.7818608E-02  0.1109502E+00
         -1   -1    0    0    0  501 -0.00000000000E+00  0.00000000000E+00  0.12084383646E+04  0.12084383646E+04  0.00000000000E+00 0.  1.
          1   -1    0    0  502    0  0.00000000000E+00 -0.00000000000E+00 -0.18458886963E+03  0.18458886963E+03  0.00000000000E+00 0. -1.
          6    1    1    2  502    0  0.18972149327E+03  0.39138394928E+01 -0.73288966566E+02  0.26639225921E+03  0.17200000000E+03 0. -1.
         -6    1    1    2    0  501 -0.18972149327E+03 -0.39138394928E+01  0.10971384615E+04  0.11266349750E+04  0.17200000000E+03 0.  1.
</event>
<event>
 4    1  0.3205520E-002  0.8109748E+03  0.7818608E-02  0.9544266E-01
          2   -1    0    0  502    0  0.00000000000E+00  0.00000000000E+00  0.10277476948E+04  0.10277476948E+04  0.00000000000E+00 0. -1.
         -2   -1    0    0    0  501 -0.00000000000E+00 -0.00000000000E+00 -0.75586768277E+03  0.75586768277E+03  0.00000000000E+00 0.  1.
          6    1    1    2  502    0  0.23855846708E+02  0.79216603276E+03  0.48521894509E+03  0.94504896675E+03  0.17200000000E+03 0. -1.
         -6    1    1    2    0  501 -0.23855846708E+02 -0.79216603276E+03 -0.21333893310E+03  0.83856641077E+03  0.17200000000E+03 0.  1.
</event>
<event>
 4    1  0.3205520E-002  0.1722700E+03  0.7818608E-02  0.1175501E+00
         -1   -1    0    0    0  501 -0.00000000000E+00  0.00000000000E+00  0.18002808932E+03  0.18002808932E+03  0.00000000000E+00 0.  1.
          1   -1    0    0  502    0  0.00000000000E+00 -0.00000000000E+00 -0.16723813318E+03  0.16723813318E+03  0.00000000000E+00 0. -1.
          6    1    1    2  502    0  0.14329089898E+01 -0.95337593618E+01  0.27160350635E+02  0.17439790837E+03  0.17200000000E+03 0.  1.
         -6    1    1    2    0  501 -0.14329089898E+01  0.95337593618E+01 -0.14370394496E+02  0.17286831414E+03  0.17200000000E+03 0. -1.
</event>
<event>
 4    1  0.3205520E-002  0.1859498E+03  0.7818608E-02  0.1162166E+00
         -1   -1    0    0    0  501 -0.00000000000E+00  0.00000000000E+00  0.42909362968E+02  0.42909362968E+02  0.00000000000E+00 0.  1.
          1   -1    0    0  502    0  0.00000000000E+00 -0.00000000000E+00 -0.80750304232E+03  0.80750304232E+03  0.00000000000E+00 0. -1.
          6    1    1    2  502    0 -0.58848926080E+02 -0.39116961155E+02 -0.40169427769E+03  0.44264616284E+03  0.17200000000E+03 0. -1.
         -6    1    1    2    0  501  0.58848926080E+02  0.39116961155E+02 -0.36289940166E+03  0.40776624245E+03  0.17200000000E+03 0. -1.
</event>
<event>
 4    1  0.3205520E-002  0.4543495E+03  0.7818608E-02  0.1026433E+00
          2   -1    0    0  502    0  0.00000000000E+00  0.00000000000E+00  0.16152866384E+04  0.16152866384E+04  0.00000000000E+00 0. -1.
         -2   -1    0    0    0  501 -0.00000000000E+00 -0.00000000000E+00 -0.12882485777E+03  0.12882485777E+03  0.00000000000E+00 0.  1.
          6    1    1    2  502    0 -0.64485905989E+02  0.41556112019E+03  0.82101603006E+03  0.93835004039E+03  0.17200000000E+03 0. -1.
         -6    1    1    2    0  501  0.64485905989E+02 -0.41556112019E+03  0.66544575062E+03  0.80576145583E+03  0.17200000000E+03 0.  1.
</event>
<event>
 4    1  0.3205520E-002  0.2546304E+03  0.7818608E-02  0.1110413E+00
         -4   -1    0    0    0  501 -0.00000000000E+00  0.00000000000E+00  0.23109944407E+03  0.23109944407E+03  0.00000000000E+00 0.  1.
          4   -1    0    0  502    0  0.00000000000E+00 -0.00000000000E+00 -0.29165428424E+03  0.29165428424E+03  0.00000000000E+00 0. -1.
          6    1    1    2  502    0  0.10546293375E+03 -0.15533896053E+03  0.20706890257E+02  0.25547093447E+03  0.17200000000E+03 0. -1.
         -6    1    1    2    0  501 -0.10546293375E+03  0.15533896053E+03 -0.81261730424E+02  0.26728279384E+03  0.17200000000E+03 0.  1.
</event>
<event>
 4    1  0.3205520E-002  0.1762559E+03  0.7818608E-02  0.1171477E+00
          2   -1    0    0  502    0  0.00000000000E+00  0.00000000000E+00  0.21055514819E+03  0.21055514819E+03  0.00000000000E+00 0. -1.
         -2   -1    0    0    0  501 -0.00000000000E+00 -0.00000000000E+00 -0.15488400749E+03  0.15488400749E+03  0.00000000000E+00 0.  1.
          6    1    1    2  502    0 -0.15302627650E+02 -0.35326685648E+02  0.67612436087E+02  0.18877920078E+03  0.17200000000E+03 0. -1.
         -6    1    1    2    0  501  0.15302627650E+02  0.35326685648E+02 -0.11941295391E+02  0.17665995491E+03  0.17200000000E+03 0.  1.
</event>
<event>
 4    1  0.3205520E-002  0.1789641E+03  0.7818608E-02  0.1168809E+00
         -1   -1    0    0    0  501 -0.00000000000E+00  0.00000000000E+00  0.11497451768E+03  0.11497451768E+03  0.00000000000E+00 0.  1.
          1   -1    0    0  502    0  0.00000000000E+00 -0.00000000000E+00 -0.39911318986E+03  0.39911318986E+03  0.00000000000E+00 0. -1.
          6    1    1    2  502    0 -0.45248264567E+02  0.19918349505E+02 -0.28333457448E+03  0.33512180948E+03  0.17200000000E+03 0. -1.
         -6    1    1    2    0  501  0.45248264567E+02 -0.19918349505E+02 -0.80409770037E+00  0.17896589805E+03  0.17200000000E+03 0.  1.
</event>
<event>
 4    1  0.3205520E-002  0.2330083E+03  0.7818608E-02  0.1124540E+00
          2   -1    0    0  502    0  0.00000000000E+00  0.00000000000E+00  0.82150668511E+03  0.82150668511E+03  0.00000000000E+00 0. -1.
         -2   -1    0    0    0  501 -0.00000000000E+00 -0.00000000000E+00 -0.68251519323E+02  0.68251519323E+02  0.00000000000E+00 0.  1.
          6    1    1    2  502    0 -0.11730628643E+03 -0.10463309459E+03  0.45581020924E+03  0.51191385619E+03  0.17200000000E+03 0.  1.
         -6    1    1    2    0  501  0.11730628643E+03  0.10463309459E+03  0.29744495655E+03  0.37784434824E+03  0.17200000000E+03 0.  1.
</event>
<event>
 4    1  0.3205520E-002  0.2048245E+03  0.7818608E-02  0.1145731E+00
          2   -1    0    0  502    0  0.00000000000E+00  0.00000000000E+00  0.60690464027E+03  0.60690464027E+03  0.00000000000E+00 0. -1.
         -2   -1    0    0    0  501 -0.00000000000E+00 -0.00000000000E+00 -0.69471405551E+02  0.69471405551E+02  0.00000000000E+00 0.  1.
          6    1    1    2  502    0  0.67844345273E+02 -0.88126049202E+02  0.29255343421E+03  0.35712822291E+03  0.17200000000E+03 0.  1.
         -6    1    1    2    0  501 -0.67844345273E+02  0.88126049202E+02  0.24487980051E+03  0.31924782291E+03  0.17200000000E+03 0.  1.
</event>
<event>
 4    1  0.3205520E-002  0.1832572E+03  0.7818608E-02  0.1164687E+00
         -1   -1    0    0    0  501 -0.00000000000E+00  0.00000000000E+00  0.12592952579E+03  0.12592952579E+03  0.00000000000E+00 0.  1.
          1   -1    0    0  502    0  0.00000000000E+00 -0.00000000000E+00 -0.31778591345E+03  0.31778591345E+03  0.00000000000E+00 0. -1.
          6    1    1    2  502    0 -0.52308693846E+02 -0.35538572490E+02 -0.18489593321E+03  0.26032613335E+03  0.17200000000E+03 0. -1.
         -6    1    1    2    0  501  0.52308693846E+02  0.35538572490E+02 -0.69604544501E+01  0.18338930588E+03  0.17200000000E+03 0.  1.
</event>
<event>
 4    1  0.3205520E-002  0.1839749E+03  0.7818608E-02  0.1164011E+00
         -1   -1    0    0    0  501 -0.00000000000E+00  0.00000000000E+00  0.20302258591E+04  0.20302258591E+04  0.00000000000E+00 0.  1.
          1   -1    0    0  502    0  0.00000000000E+00 -0.00000000000E+00 -0.18571061878E+02  0.18571061878E+02  0.00000000000E+00 0. -1.
          6    1    1    2  502    0 -0.58458157299E+02 -0.29076207348E+02  0.67819676478E+03  0.70270735996E+03  0.17200000000E+03 0. -1.
         -6    1    1    2    0  501  0.58458157299E+02  0.29076207348E+02  0.13334580325E+04  0.13460895610E+04  0.17200000000E+03 0.  1.
</event>
<event>
 4    1  0.3205520E-002  0.1934789E+03  0.7818608E-02  0.1155360E+00
         -2   -1    0    0    0  501 -0.00000000000E+00  0.00000000000E+00  0.18083405312E+02  0.18083405312E+02  0.00000000000E+00 0.  1.
          2   -1    0    0  502    0  0.00000000000E+00 -0.00000000000E+00 -0.22619237088E+04  0.22619237088E+04  0.00000000000E+00 0. -1.
          6    1    1    2  502    0 -0.45155895843E+00  0.88599574809E+02 -0.14539227296E+04  0.14667397152E+04  0.17200000000E+03 0. -1.
         -6    1    1    2    0  501  0.45155895843E+00 -0.88599574809E+02 -0.78991757388E+03  0.81326739889E+03  0.17200000000E+03 0.  1.
</event>
<event>
 4    1  0.3205520E-002  0.1849775E+03  0.7818608E-02  0.1163071E+00
          2   -1    0    0  502    0  0.00000000000E+00  0.00000000000E+00  0.23736078528E+04  0.23736078528E+04  0.00000000000E+00 0. -1.
         -2   -1    0    0    0  501 -0.00000000000E+00 -0.00000000000E+00 -0.38284140803E+02  0.38284140803E+02  0.00000000000E+00 0.  1.
          6    1    1    2  502    0  0.68054466578E+02  0.11236227917E+01  0.21198713878E+04  0.21279265433E+04  0.17200000000E+03 0. -1.
         -6    1    1    2    0  501 -0.68054466578E+02 -0.11236227917E+01  0.21545232417E+03  0.28396545026E+03  0.17200000000E+03 0.  1.
</event>
<event>
 4    1  0.3205520E-002  0.1741416E+03  0.7818608E-02  0.1173596E+00
          2   -1    0    0  502    0  0.00000000000E+00  0.00000000000E+00  0.37591172349E+03  0.37591172349E+03  0.00000000000E+00 0. -1.
         -2   -1    0    0    0  501 -0.00000000000E+00 -0.00000000000E+00 -0.85501513252E+02  0.85501513252E+02  0.00000000000E+00 0.  1.
          6    1    1    2  502    0 -0.20333513537E+02  0.18106892944E+02  0.20003954909E+03  0.26521902750E+03  0.17200000000E+03 0. -1.
         -6    1    1    2    0  501  0.20333513537E+02 -0.18106892944E+02  0.90370661142E+02  0.19619420924E+03  0.17200000000E+03 0.  1.
</event>
<event>
 4    1  0.3205520E-002  0.5577569E+03  0.7818608E-02  0.9997143E-01
         -2   -1    0    0    0  501 -0.00000000000E+00  0.00000000000E+00  0.41055777493E+03  0.41055777493E+03  0.00000000000E+00 0.  1.
          2   -1    0    0  502    0  0.00000000000E+00 -0.00000000000E+00 -0.80898530773E+03  0.80898530773E+03  0.00000000000E+00 0. -1.
          6    1    1    2  502    0  0.14842943658E+03  0.50938932791E+03 -0.35269580737E+03  0.65991447747E+03  0.17200000000E+03 0. -1.
         -6    1    1    2    0  501 -0.14842943658E+03 -0.50938932791E+03 -0.45731725425E+02  0.55962860519E+03  0.17200000000E+03 0.  1.
</event>
<event>
 4    1  0.3205520E-002  0.2085325E+03  0.7818608E-02  0.1142733E+00
         -3   -1    0    0    0  501 -0.00000000000E+00  0.00000000000E+00  0.14499741910E+03  0.14499741910E+03  0.00000000000E+00 0.  1.
          3   -1    0    0  502    0  0.00000000000E+00 -0.00000000000E+00 -0.40636145410E+03  0.40636145410E+03  0.00000000000E+00 0. -1.
          6    1    1    2  502    0  0.96220127441E+02  0.68143200471E+02  0.10418655628E+02  0.20879261740E+03  0.17200000000E+03 0.  1.
         -6    1    1    2    0  501 -0.96220127441E+02 -0.68143200471E+02 -0.27178269063E+03  0.34256625581E+03  0.17200000000E+03 0. -1.
</event>
<event>
 4    1  0.3205520E-002  0.2600781E+03  0.7818608E-02  0.1107096E+00
          1   -1    0    0  502    0  0.00000000000E+00  0.00000000000E+00  0.28447454410E+03  0.28447454410E+03  0.00000000000E+00 0. -1.
         -1   -1    0    0    0  501 -0.00000000000E+00 -0.00000000000E+00 -0.24601453595E+03  0.24601453595E+03  0.00000000000E+00 0.  1.
          6    1    1    2  502    0  0.13775220110E+03 -0.13813371588E+03 -0.29315516109E+02  0.26172503100E+03  0.17200000000E+03 0. -1.
         -6    1    1    2    0  501 -0.13775220110E+03  0.13813371588E+03  0.67775524255E+02  0.26876404904E+03  0.17200000000E+03 0.  1.
</event>
<event>
 4    1  0.3205520E-002  0.1751798E+03  0.7818608E-02  0.1172551E+00
          2   -1    0    0  502    0  0.00000000000E+00  0.00000000000E+00  0.11734741554E+04  0.11734741554E+04  0.00000000000E+00 0. -1.
         -2   -1    0    0    0  501 -0.00000000000E+00 -0.00000000000E+00 -0.28379367552E+02  0.28379367552E+02  0.00000000000E+00 0.  1.
          6    1    1    2  502    0  0.32992275965E+02  0.39324320669E+01  0.40417233785E+03  0.44050338589E+03  0.17200000000E+03 0.  1.
         -6    1    1    2    0  501 -0.32992275965E+02 -0.39324320669E+01  0.74092244996E+03  0.76135013703E+03  0.17200000000E+03 0.  1.
</event>
<event>
 4    1  0.3205520E-002  0.1261999E+04  0.7818608E-02  0.9060255E-01
          2   -1    0    0  502    0  0.00000000000E+00  0.00000000000E+00  0.46292895374E+04  0.46292895374E+04  0.00000000000E+00 0. -1.
         -2   -1    0    0    0  501 -0.00000000000E+00 -0.00000000000E+00 -0.37157974304E+03  0.37157974304E+03  0.00000000000E+00 0.  1.
          6    1    1    2  502    0 -0.34235811912E+03  0.12024342258E+04  0.28096287307E+04  0.30800413558E+04  0.17200000000E+03 0. -1.
         -6    1    1    2    0  501  0.34235811912E+03 -0.12024342258E+04  0.14480810636E+04  0.19208279246E+04  0.17200000000E+03 0.  1.
</event>
<event>
 4    1  0.3205520E-002  0.2334542E+03  0.7818608E-02  0.1124232E+00
         -2   -1    0    0    0  501 -0.00000000000E+00  0.00000000000E+00  0.18512605194E+03  0.18512605194E+03  0.00000000000E+00 0.  1.
          2   -1    0    0  502    0  0.00000000000E+00 -0.00000000000E+00 -0.34022056636E+03  0.34022056636E+03  0.00000000000E+00 0. -1.
          6    1    1    2  502    0 -0.12597342167E+03  0.95118719940E+02 -0.17394612375E+03  0.29113249187E+03  0.17200000000E+03 0. -1.
         -6    1    1    2    0  501  0.12597342167E+03 -0.95118719940E+02  0.18851609335E+02  0.23421412644E+03  0.17200000000E+03 0.  1.
</event>
<event>
 4    1  0.3205520E-002  0.7584268E+03  0.7818608E-02  0.9622222E-01
         -2   -1    0    0    0  501 -0.00000000000E+00  0.00000000000E+00  0.29116094177E+03  0.29116094177E+03  0.00000000000E+00 0.  1.
          2   -1    0    0  502    0  0.00000000000E+00 -0.00000000000E+00 -0.20315157846E+04  0.20315157846E+04  0.00000000000E+00 0. -1.
          6    1    1    2  502    0  0.41915436874E+03 -0.60822430981E+03 -0.10628858479E+04  0.13057325613E+04  0.17200000000E+03 0. -1.
         -6    1    1    2    0  501 -0.41915436874E+03  0.60822430981E+03 -0.67746899495E+03  0.10169441651E+04  0.17200000000E+03 0.  1.
</event>
<event>
 4    1  0.3205520E-002  0.1750859E+03  0.7818608E-02  0.1172645E+00
          2   -1    0    0  502    0  0.00000000000E+00  0.00000000000E+00  0.12183113048E+03  0.12183113048E+03  0.00000000000E+00 0. -1.
         -2   -1    0    0    0  501 -0.00000000000E+00 -0.00000000000E+00 -0.25229689489E+03  0.25229689489E+03  0.00000000000E+00 0.  1.
          6    1    1    2  502    0  0.18765453873E+02 -0.26813097494E+02 -0.55539732191E+02  0.18368382157E+03  0.17200000000E+03 0. -1.
         -6    1    1    2    0  501 -0.18765453873E+02  0.26813097494E+02 -0.74926032216E+02  0.19044420380E+03  0.17200000000E+03 0.  1.
</event>
<event>
 4    1  0.3205520E-002  0.2853300E+03  0.7818608E-02  0.1092813E+00
          1   -1    0    0  502    0  0.00000000000E+00  0.00000000000E+00  0.11120877756E+03  0.11120877756E+03  0.00000000000E+00 0. -1.
         -1   -1    0    0    0  501 -0.00000000000E+00 -0.00000000000E+00 -0.18035572457E+04  0.18035572457E+04  0.00000000000E+00 0.  1.
          6    1    1    2  502    0  0.22500299615E+03 -0.34682434075E+02 -0.10824767274E+03  0.30517335756E+03  0.17200000000E+03 0. -1.
         -6    1    1    2    0  501 -0.22500299615E+03  0.34682434075E+02 -0.15841007954E+04  0.16095926657E+04  0.17200000000E+03 0.  1.
</event>
<event>
 4    1  0.3205520E-002  0.1807053E+03  0.7818608E-02  0.1167122E+00
         -2   -1    0    0    0  501 -0.00000000000E+00  0.00000000000E+00  0.15639598737E+02  0.15639598737E+02  0.00000000000E+00 0.  1.
          2   -1    0    0  502    0  0.00000000000E+00 -0.00000000000E+00 -0.30698296311E+04  0.30698296311E+04  0.00000000000E+00 0. -1.
          6    1    1    2  502    0 -0.54236781916E+02  0.11348117987E+02 -0.23995988422E+04  0.24063933618E+04  0.17200000000E+03 0. -1.
         -6    1    1    2    0  501  0.54236781916E+02 -0.11348117987E+02 -0.65459119020E+03  0.67907586806E+03  0.17200000000E+03 0.  1.
</event>
<event>
 4    1  0.3205520E-002  0.3745250E+03  0.7818608E-02  0.1052976E+00
         -2   -1    0    0    0  501 -0.00000000000E+00  0.00000000000E+00  0.14744094913E+03  0.14744094913E+03  0.00000000000E+00 0.  1.
          2   -1    0    0  502    0  0.00000000000E+00 -0.00000000000E+00 -0.12259440841E+04  0.12259440841E+04  0.00000000000E+00 0. -1.
          6    1    1    2  502    0  0.10273557242E+03  0.31643382451E+03 -0.86423941501E+03  0.94190165601E+03  0.17200000000E+03 0. -1.
         -6    1    1    2    0  501 -0.10273557242E+03 -0.31643382451E+03 -0.21426371998E+03  0.43148337724E+03  0.17200000000E+03 0.  1.
</event>
<event>
 4    1  0.3205520E-002  0.2625695E+03  0.7818608E-02  0.1105609E+00
          1   -1    0    0  502    0  0.00000000000E+00  0.00000000000E+00  0.51612046449E+02  0.51612046449E+02  0.00000000000E+00 0. -1.
         -1   -1    0    0    0  501 -0.00000000000E+00 -0.00000000000E+00 -0.16605767319E+04  0.16605767319E+04  0.00000000000E+00 0.  1.
          6    1    1    2  502    0 -0.19648635990E+03 -0.27419755910E+02 -0.42587162132E+03  0.50030927483E+03  0.17200000000E+03 0. -1.
         -6    1    1    2    0  501  0.19648635990E+03  0.27419755910E+02 -0.11830930641E+04  0.12118795035E+04  0.17200000000E+03 0.  1.
</event>
<event>
 4    1  0.3205520E-002  0.1799765E+03  0.7818608E-02  0.1167826E+00
         -2   -1    0    0    0  501 -0.00000000000E+00  0.00000000000E+00  0.65155518977E+03  0.65155518977E+03  0.00000000000E+00 0.  1.
          2   -1    0    0  502    0  0.00000000000E+00 -0.00000000000E+00 -0.50178885753E+02  0.50178885753E+02  0.00000000000E+00 0. -1.
          6    1    1    2  502    0 -0.36287719174E+02  0.38609943226E+02  0.26692249691E+03  0.32193034284E+03  0.17200000000E+03 0.  1.
         -6    1    1    2    0  501  0.36287719174E+02 -0.38609943226E+02  0.33445380710E+03  0.37980373269E+03  0.17200000000E+03 0.  1.
</event>
<event>
 4    1  0.3205520E-002  0.3645980E+03  0.7818608E-02  0.1056778E+00
          2   -1    0    0  502    0  0.00000000000E+00  0.00000000000E+00  0.75995792170E+03  0.75995792170E+03  0.00000000000E+00 0. -1.
         -2   -1    0    0    0  501 -0.00000000000E+00 -0.00000000000E+00 -0.33226553070E+03  0.33226553070E+03  0.00000000000E+00 0.  1.
          6    1    1    2  502    0 -0.22582334205E+03  0.22880451691E+03  0.58965446883E+03  0.69327056867E+03  0.17200000000E+03 0. -1.
         -6    1    1    2    0  501  0.22582334205E+03 -0.22880451691E+03 -0.16196207783E+03  0.39895288372E+03  0.17200000000E+03 0.  1.
</event>
<event>
 4    1  0.3205520E-002  0.2485109E+03  0.7818608E-02  0.1114250E+00
          1   -1    0    0  502    0  0.00000000000E+00  0.00000000000E+00  0.22135607948E+03  0.22135607948E+03  0.00000000000E+00 0. -1.
         -1   -1    0    0    0  501 -0.00000000000E+00 -0.00000000000E+00 -0.11218091556E+04  0.11218091556E+04  0.00000000000E+00 0.  1.
          6    1    1    2  502    0  0.57561296364E+02  0.16988342939E+03  0.13188385289E+03  0.28133793394E+03  0.17200000000E+03 0. -1.
         -6    1    1    2    0  501 -0.57561296364E+02 -0.16988342939E+03 -0.10323369290E+04  0.10618273011E+04  0.17200000000E+03 0.  1.
</event>
<event>
 4    1  0.3205520E-002  0.1821080E+03  0.7818608E-02  0.1165778E+00
          2   -1    0    0  502    0  0.00000000000E+00  0.00000000000E+00  0.10357820005E+04  0.10357820005E+04  0.00000000000E+00 0. -1.
         -2   -1    0    0    0  501 -0.00000000000E+00 -0.00000000000E+00 -0.44437465158E+02  0.44437465158E+02  0.00000000000E+00 0.  1.
          6    1    1    2  502    0  0.21439626649E+02  0.55854103875E+02  0.78121057103E+03  0.80215540564E+03  0.17200000000E+03 0. -1.
         -6    1    1    2    0  501 -0.21439626649E+02 -0.55854103875E+02  0.21013396428E+03  0.27806405998E+03  0.17200000000E+03 0.  1.
</event>
<event>
 4    1  0.3205520E-002  0.1733636E+03  0.7818608E-02  0.1174385E+00
          2   -1    0    0  502    0  0.00000000000E+00  0.00000000000E+00  0.38479660890E+03  0.38479660890E+03  0.00000000000E+00 0. -1.
         -2   -1    0    0    0  501 -0.00000000000E+00 -0.00000000000E+00 -0.94769686997E+02  0.94769686997E+02  0.00000000000E+00 0.  1.
          6    1    1    2  502    0 -0.18307936099E+02  0.11650987675E+02  0.44466392503E+02  0.17897537847E+03  0.17200000000E+03 0.  1.
         -6    1    1    2    0  501  0.18307936099E+02 -0.11650987675E+02  0.24556052940E+03  0.30059091742E+03  0.17200000000E+03 0. -1.
</event>
<event>
 4    1  0.3205520E-002  0.1723714E+03  0.7818608E-02  0.1175397E+00
          1   -1    0    0  502    0  0.00000000000E+00  0.00000000000E+00  0.14819064378E+03  0.14819064378E+03  0.00000000000E+00 0. -1.
         -1   -1    0    0    0  501 -0.00000000000E+00 -0.00000000000E+00 -0.21031219615E+03  0.21031219615E+03  0.00000000000E+00 0.  1.
          6    1    1    2  502    0  0.11300869195E+02  0.45211336555E+00  0.76614020375E+01  0.17254162145E+03  0.17200000000E+03 0. -1.
         -6    1    1    2    0  501 -0.11300869195E+02 -0.45211336555E+00 -0.69782954414E+02  0.18596121848E+03  0.17200000000E+03 0.  1.
</event>
<event>
 4    1  0.3205520E-002  0.3843654E+03  0.7818608E-02  0.1049332E+00
         -2   -1    0    0    0  501 -0.00000000000E+00  0.00000000000E+00  0.11248777153E+03  0.11248777153E+03  0.00000000000E+00 0.  1.
          2   -1    0    0  502    0  0.00000000000E+00 -0.00000000000E+00 -0.20434040986E+04  0.20434040986E+04  0.00000000000E+00 0. -1.
          6    1    1    2  502    0  0.26530545329E+03  0.21855377425E+03 -0.16097682577E+04  0.16550198123E+04  0.17200000000E+03 0. -1.
         -6    1    1    2    0  501 -0.26530545329E+03 -0.21855377425E+03 -0.32114806934E+03  0.50087205774E+03  0.17200000000E+03 0.  1.
</event>
<event>
 4    1  0.3205520E-002  0.3579486E+03  0.7818608E-02  0.1059399E+00
          3   -1    0    0  502    0  0.00000000000E+00  0.00000000000E+00  0.12627492070E+03  0.12627492070E+03  0.00000000000E+00 0. -1.
         -3   -1    0    0    0  501 -0.00000000000E+00 -0.00000000000E+00 -0.11377494157E+04  0.11377494157E+04  0.00000000000E+00 0.  1.
          6    1    1    2  502    0 -0.88098674427E+02 -0.30130016868E+03 -0.29786442340E+03  0.46567196910E+03  0.17200000000E+03 0. -1.
         -6    1    1    2    0  501  0.88098674427E+02  0.30130016868E+03 -0.71361007155E+03  0.79835236725E+03  0.17200000000E+03 0.  1.
</event>
<event>
 4    1  0.3205520E-002  0.2828836E+03  0.7818608E-02  0.1094124E+00
          1   -1    0    0  502    0  0.00000000000E+00  0.00000000000E+00  0.14799474057E+04  0.14799474057E+04  0.00000000000E+00 0. -1.
         -1   -1    0    0    0  501 -0.00000000000E+00 -0.00000000000E+00 -0.58169835964E+02  0.58169835964E+02  0.00000000000E+00 0.  1.
          6    1    1    2  502    0  0.20671634490E+03  0.87792244928E+02  0.91501978161E+03  0.95774961564E+03  0.17200000000E+03 0. -1.
         -6    1    1    2    0  501 -0.20671634490E+03 -0.87792244928E+02  0.50675778817E+03  0.58036762607E+03  0.17200000000E+03 0.  1.
</event>
<event>
 4    1  0.3205520E-002  0.2445970E+03  0.7818608E-02  0.1116768E+00
         -2   -1    0    0    0  501 -0.00000000000E+00  0.00000000000E+00  0.26665868293E+03  0.26665868293E+03  0.00000000000E+00 0.  1.
          2   -1    0    0  502    0  0.00000000000E+00 -0.00000000000E+00 -0.47246578892E+03  0.47246578892E+03  0.00000000000E+00 0. -1.
          6    1    1    2  502    0  0.73605330833E+02 -0.15756259558E+03 -0.37070953876E+03  0.44413205062E+03  0.17200000000E+03 0. -1.
         -6    1    1    2    0  501 -0.73605330833E+02  0.15756259558E+03  0.16490243278E+03  0.29499242124E+03  0.17200000000E+03 0.  1.
</event>
<event>
 4    1  0.3205520E-002  0.2279431E+03  0.7818608E-02  0.1128096E+00
          2   -1    0    0  502    0  0.00000000000E+00  0.00000000000E+00  0.21145407741E+04  0.21145407741E+04  0.00000000000E+00 0. -1.
         -2   -1    0    0    0  501 -0.00000000000E+00 -0.00000000000E+00 -0.27100770817E+02  0.27100770817E+02  0.00000000000E+00 0.  1.
          6    1    1    2  502    0  0.14858433812E+03  0.17226274353E+02  0.71660624725E+03  0.75198574698E+03  0.17200000000E+03 0.  1.
         -6    1    1    2    0  501 -0.14858433812E+03 -0.17226274353E+02  0.13708337560E+04  0.13896557979E+04  0.17200000000E+03 0. -1.
</event>
<event>
 4    1  0.3205520E-002  0.1774680E+03  0.7818608E-02  0.1170276E+00
          2   -1    0    0  502    0  0.00000000000E+00  0.00000000000E+00  0.50155049118E+03  0.50155049118E+03  0.00000000000E+00 0. -1.
         -2   -1    0    0    0  501 -0.00000000000E+00 -0.00000000000E+00 -0.12667208903E+03  0.12667208903E+03  0.00000000000E+00 0.  1.
          6    1    1    2  502    0 -0.18215075219E+02 -0.39737892303E+02  0.41049599849E+03  0.44721566813E+03  0.17200000000E+03 0. -1.
         -6    1    1    2    0  501  0.18215075219E+02  0.39737892303E+02 -0.35617596337E+02  0.18100691207E+03  0.17200000000E+03 0.  1.
</event>
<event>
 4    1  0.3205520E-002  0.1834789E+03  0.7818608E-02  0.1164478E+00
         -2   -1    0    0    0  501 -0.00000000000E+00  0.00000000000E+00  0.37145017061E+03  0.37145017061E+03  0.00000000000E+00 0.  1.
          2   -1    0    0  502    0  0.00000000000E+00 -0.00000000000E+00 -0.23610430767E+03  0.23610430767E+03  0.00000000000E+00 0. -1.
          6    1    1    2  502    0 -0.20730742561E+02  0.60421481205E+02 -0.17077659515E+03  0.25065746454E+03  0.17200000000E+03 0. -1.
         -6    1    1    2    0  501  0.20730742561E+02 -0.60421481205E+02  0.30612245808E+03  0.35689701374E+03  0.17200000000E+03 0.  1.
</event>
<event>
 4    1  0.3205520E-002  0.1986793E+03  0.7818608E-02  0.1150858E+00
         -2   -1    0    0    0  501 -0.00000000000E+00  0.00000000000E+00  0.11902601956E+03  0.11902601956E+03  0.00000000000E+00 0.  1.
          2   -1    0    0  502    0  0.00000000000E+00 -0.00000000000E+00 -0.79560165488E+03  0.79560165488E+03  0.00000000000E+00 0. -1.
          6    1    1    2  502    0 -0.62008019568E+02 -0.77746146461E+02 -0.68751565194E+03  0.71564741978E+03  0.17200000000E+03 0. -1.
         -6    1    1    2    0  501  0.62008019568E+02  0.77746146461E+02  0.10940016624E+02  0.19898025466E+03  0.17200000000E+03 0.  1.
</event>
<event>
 4    1  0.3205520E-002  0.2885106E+03  0.7818608E-02  0.1091129E+00
         -3   -1    0    0    0  501 -0.00000000000E+00  0.00000000000E+00  0.60179258462E+03  0.60179258462E+03  0.00000000000E+00 0.  1.
          3   -1    0    0  502    0  0.00000000000E+00 -0.00000000000E+00 -0.16206818004E+03  0.16206818004E+03  0.00000000000E+00 0. -1.
          6    1    1    2  502    0 -0.19150164973E+03 -0.13031306755E+03  0.73653105681E+02  0.29776359314E+03  0.17200000000E+03 0. -1.
         -6    1    1    2    0  501  0.19150164973E+03  0.13031306755E+03  0.36607129890E+03  0.46609717152E+03  0.17200000000E+03 0.  1.
</event>
<event>
 4    1  0.3205520E-002  0.6790951E+03  0.7818608E-02  0.9753666E-01
          2   -1    0    0  502    0  0.00000000000E+00  0.00000000000E+00  0.70619728578E+03  0.70619728578E+03  0.00000000000E+00 0. -1.
         -2   -1    0    0    0  501 -0.00000000000E+00 -0.00000000000E+00 -0.67056238222E+03  0.67056238222E+03  0.00000000000E+00 0.  1.
          6    1    1    2  502    0  0.54055137567E+03 -0.37335011213E+03  0.12911676529E+03  0.69126061297E+03  0.17200000000E+03 0. -1.
         -6    1    1    2    0  501 -0.54055137567E+03  0.37335011213E+03 -0.93481861737E+02  0.68549905502E+03  0.17200000000E+03 0.  1.
</event>
<event>
 4    1  0.3205520E-002  0.2454205E+03  0.7818608E-02  0.1116234E+00
          2   -1    0    0  502    0  0.00000000000E+00  0.00000000000E+00  0.62713916745E+03  0.62713916745E+03  0.00000000000E+00 0. -1.
         -2   -1    0    0    0  501 -0.00000000000E+00 -0.00000000000E+00 -0.11004752071E+03  0.11004752071E+03  0.00000000000E+00 0.  1.
          6    1    1    2  502    0 -0.79276861886E+02  0.15608452216E+03  0.39004389185E+03  0.46083124510E+03  0.17200000000E+03 0. -1.
         -6    1    1    2    0  501  0.79276861886E+02 -0.15608452216E+03  0.12704775488E+03  0.27635544306E+03  0.17200000000E+03 0.  1.
</event>
<event>
 4    1  0.3205520E-002  0.1804967E+03  0.7818608E-02  0.1167323E+00
          2   -1    0    0  502    0  0.00000000000E+00  0.00000000000E+00  0.84137993401E+03  0.84137993401E+03  0.00000000000E+00 0. -1.
         -2   -1    0    0    0  501 -0.00000000000E+00 -0.00000000000E+00 -0.44754179769E+02  0.44754179769E+02  0.00000000000E+00 0.  1.
          6    1    1    2  502    0  0.31190658078E+02 -0.44969086803E+02  0.23563606885E+03  0.29682222434E+03  0.17200000000E+03 0.  1.
         -6    1    1    2    0  501 -0.31190658078E+02  0.44969086803E+02  0.56098968538E+03  0.58931188943E+03  0.17200000000E+03 0. -1.
</event>
<event>
 4    1  0.3205520E-002  0.1902732E+03  0.7818608E-02  0.1158215E+00
          2   -1    0    0  502    0  0.00000000000E+00  0.00000000000E+00  0.40958261831E+03  0.40958261831E+03  0.00000000000E+00 0. -1.
         -2   -1    0    0    0  501 -0.00000000000E+00 -0.00000000000E+00 -0.92724422290E+02  0.92724422290E+02  0.00000000000E+00 0.  1.
          6    1    1    2  502    0  0.17955855825E+02  0.79356646242E+02  0.10414159697E+03  0.21690864962E+03  0.17200000000E+03 0.  1.
         -6    1    1    2    0  501 -0.17955855825E+02 -0.79356646242E+02  0.21271659905E+03  0.28539839098E+03  0.17200000000E+03 0.  1.
</event>
<event>
 4    1  0.3205520E-002  0.3681065E+03  0.7818608E-02  0.1055419E+00
          2   -1    0    0  502    0  0.00000000000E+00  0.00000000000E+00  0.22283960670E+04  0.22283960670E+04  0.00000000000E+00 0. -1.
         -2   -1    0    0    0  501 -0.00000000000E+00 -0.00000000000E+00 -0.65779414112E+02  0.65779414112E+02  0.00000000000E+00 0.  1.
          6    1    1    2  502    0 -0.12845647023E+03 -0.29902727846E+03  0.13966849039E+04  0.14443791396E+04  0.17200000000E+03 0. -1.
         -6    1    1    2    0  501  0.12845647023E+03  0.29902727846E+03  0.76593174893E+03  0.84979634150E+03  0.17200000000E+03 0.  1.
</event>
<event>
 4    1  0.3205520E-002  0.2718789E+03  0.7818608E-02  0.1100209E+00
         -1   -1    0    0    0  501 -0.00000000000E+00  0.00000000000E+00  0.88519504846E+02  0.88519504846E+02  0.00000000000E+00 0.  1.
          1   -1    0    0  502    0  0.00000000000E+00 -0.00000000000E+00 -0.13216500906E+04  0.13216500906E+04  0.00000000000E+00 0. -1.
          6    1    1    2  502    0  0.13305402866E+03 -0.16318934194E+03 -0.10443936679E+04  0.10792016816E+04  0.17200000000E+03 0. -1.
         -6    1    1    2    0  501 -0.13305402866E+03  0.16318934194E+03 -0.18873691779E+03  0.33096791385E+03  0.17200000000E+03 0.  1.
</event>
<event>
 4    1  0.3205520E-002  0.2482593E+03  0.7818608E-02  0.1114410E+00
          2   -1    0    0  502    0  0.00000000000E+00  0.00000000000E+00  0.24003638971E+04  0.24003638971E+04  0.00000000000E+00 0. -1.
         -2   -1    0    0    0  501 -0.00000000000E+00 -0.00000000000E+00 -0.25703333374E+02  0.25703333374E+02  0.00000000000E+00 0.  1.
          6    1    1    2  502    0  0.16531196951E+03  0.68706847901E+02  0.11480559651E+04  0.11745914938E+04  0.17200000000E+03 0. -1.
         -6    1    1    2    0  501 -0.16531196951E+03 -0.68706847901E+02  0.12266045986E+04  0.12514757366E+04  0.17200000000E+03 0.  1.
</event>
<event>
 4    1  0.3205520E-002  0.1798210E+03  0.7818608E-02  0.1167976E+00
          1   -1    0    0  502    0  0.00000000000E+00  0.00000000000E+00  0.12177822204E+04  0.12177822204E+04  0.00000000000E+00 0. -1.
         -1   -1    0    0    0  501 -0.00000000000E+00 -0.00000000000E+00 -0.55439585719E+02  0.55439585719E+02  0.00000000000E+00 0.  1.
          6    1    1    2  502    0  0.52080622529E+02 -0.62604501495E+01  0.10407007616E+04  0.10561219909E+04  0.17200000000E+03 0. -1.
         -6    1    1    2    0  501 -0.52080622529E+02  0.62604501495E+01  0.12164187308E+03  0.21709981521E+03  0.17200000000E+03 0.  1.
</event>
<event>
 4    1  0.3205520E-002  0.2070411E+03  0.7818608E-02  0.1143931E+00
          1   -1    0    0  502    0  0.00000000000E+00  0.00000000000E+00  0.70532857419E+03  0.70532857419E+03  0.00000000000E+00 0. -1.
         -1   -1    0    0    0  501 -0.00000000000E+00 -0.00000000000E+00 -0.11150860036E+03  0.11150860036E+03  0.00000000000E+00 0.  1.
          6    1    1    2  502    0  0.44977411043E+02  0.10610865325E+03  0.57239702045E+03  0.60869069553E+03  0.17200000000E+03 0. -1.
         -6    1    1    2    0  501 -0.44977411043E+02 -0.10610865325E+03  0.21422953369E+02  0.20814647902E+03  0.17200000000E+03 0.  1.
</event>
<event>
 4    1  0.3205520E-002  0.2067487E+03  0.7818608E-02  0.1144167E+00
          1   -1    0    0  502    0  0.00000000000E+00  0.00000000000E+00  0.80459893467E+03  0.80459893467E+03  0.00000000000E+00 0. -1.
         -1   -1    0    0    0  501 -0.00000000000E+00 -0.00000000000E+00 -0.59751498183E+02  0.59751498183E+02  0.00000000000E+00 0.  1.
          6    1    1    2  502    0 -0.11064392564E+03 -0.30314225056E+02  0.51633621085E+03  0.55619071654E+03  0.17200000000E+03 0. -1.
         -6    1    1    2    0  501  0.11064392564E+03  0.30314225056E+02  0.22851122564E+03  0.30815971632E+03  0.17200000000E+03 0.  1.
</event>
<event>
 4    1  0.3205520E-002  0.4261181E+03  0.7818608E-02  0.1035093E+00
          1   -1    0    0  502    0  0.00000000000E+00  0.00000000000E+00  0.83968924239E+03  0.83968924239E+03  0.00000000000E+00 0. -1.
         -1   -1    0    0    0  501 -0.00000000000E+00 -0.00000000000E+00 -0.46725755960E+03  0.46725755960E+03  0.00000000000E+00 0.  1.
          6    1    1    2  502    0  0.15331616460E+03  0.35845048024E+03  0.66517616710E+03  0.78995944604E+03  0.17200000000E+03 0. -1.
         -6    1    1    2    0  501 -0.15331616460E+03 -0.35845048024E+03 -0.29274448432E+03  0.51698735595E+03  0.17200000000E+03 0.  1.
</event>
<event>
 4    1  0.3205520E-002  0.4247865E+03  0.7818608E-02  0.1035520E+00
         -2   -1    0    0    0  501 -0.00000000000E+00  0.00000000000E+00  0.24544148115E+03  0.24544148115E+03  0.00000000000E+00 0.  1.
          2   -1    0    0  502    0  0.00000000000E+00 -0.00000000000E+00 -0.80390138538E+03  0.80390138538E+03  0.00000000000E+00 0. -1.
          6    1    1    2  502    0  0.38674532904E+03 -0.35883997241E+02 -0.12582735184E+03  0.44303062339E+03  0.17200000000E+03 0. -1.
         -6    1    1    2    0  501 -0.38674532904E+03  0.35883997241E+02 -0.43263255239E+03  0.60631224314E+03  0.17200000000E+03 0.  1.
</event>
<event>
 4    1  0.3205520E-002  0.2674136E+03  0.7818608E-02  0.1102769E+00
          1   -1    0    0  502    0  0.00000000000E+00  0.00000000000E+00  0.21574668530E+03  0.21574668530E+03  0.00000000000E+00 0. -1.
         -1   -1    0    0    0  501 -0.00000000000E+00 -0.00000000000E+00 -0.34852013469E+03  0.34852013469E+03  0.00000000000E+00 0.  1.
          6    1    1    2  502    0 -0.20424774412E+03  0.14453874601E+02 -0.39541996742E+01  0.26744287458E+03  0.17200000000E+03 0. -1.
         -6    1    1    2    0  501  0.20424774412E+03 -0.14453874601E+02 -0.12881924972E+03  0.29682394541E+03  0.17200000000E+03 0.  1.
</event>
<event>
 4    1  0.3205520E-002  0.1858820E+03  0.7818608E-02  0.1162229E+00
          1   -1    0    0  502    0  0.00000000000E+00  0.00000000000E+00  0.46009490972E+03  0.46009490972E+03  0.00000000000E+00 0. -1.
         -1   -1    0    0    0  501 -0.00000000000E+00 -0.00000000000E+00 -0.75395711654E+02  0.75395711654E+02  0.00000000000E+00 0.  1.
          6    1    1    2  502    0 -0.58056068720E+02 -0.39970145028E+02  0.20917966451E+03  0.27983611571E+03  0.17200000000E+03 0. -1.
         -6    1    1    2    0  501  0.58056068720E+02  0.39970145028E+02  0.17551953356E+03  0.25565450567E+03  0.17200000000E+03 0. -1.
</event>
<event>
 4    1  0.3205520E-002  0.1831065E+03  0.7818608E-02  0.1164830E+00
          1   -1    0    0  502    0  0.00000000000E+00  0.00000000000E+00  0.57701846455E+03  0.57701846455E+03  0.00000000000E+00 0. -1.
         -1   -1    0    0    0  501 -0.00000000000E+00 -0.00000000000E+00 -0.75380166691E+02  0.75380166691E+02  0.00000000000E+00 0.  1.
          6    1    1    2  502    0  0.17377097522E+02  0.60349182241E+02  0.40697506613E+03  0.44626975224E+03  0.17200000000E+03 0. -1.
         -6    1    1    2    0  501 -0.17377097522E+02 -0.60349182241E+02  0.94663231730E+02  0.20612887900E+03  0.17200000000E+03 0.  1.
</event>
<event>
 4    1  0.3205520E-002  0.2296268E+03  0.7818608E-02  0.1126903E+00
         -2   -1    0    0    0  501 -0.00000000000E+00  0.00000000000E+00  0.68907041199E+02  0.68907041199E+02  0.00000000000E+00 0.  1.
          2   -1    0    0  502    0  0.00000000000E+00 -0.00000000000E+00 -0.17648041505E+04  0.17648041505E+04  0.00000000000E+00 0. -1.
          6    1    1    2  502    0 -0.12674420538E+02  0.15160410936E+03 -0.15379726419E+04  0.15550203517E+04  0.17200000000E+03 0. -1.
         -6    1    1    2    0  501  0.12674420538E+02 -0.15160410936E+03 -0.15792446743E+03  0.27869084004E+03  0.17200000000E+03 0.  1.
</event>
<event>
 4    1  0.3205520E-002  0.2166557E+03  0.7818608E-02  0.1136401E+00
         -2   -1    0    0    0  501 -0.00000000000E+00  0.00000000000E+00  0.40651939330E+03  0.40651939330E+03  0.00000000000E+00 0.  1.
          2   -1    0    0  502    0  0.00000000000E+00 -0.00000000000E+00 -0.32311599249E+03  0.32311599249E+03  0.00000000000E+00 0. -1.
          6    1    1    2  502    0  0.10977494366E+03 -0.72836535811E+02 -0.25075478714E+03  0.33138748087E+03  0.17200000000E+03 0. -1.
         -6    1    1    2    0  501 -0.10977494366E+03  0.72836535811E+02  0.33415818795E+03  0.39824790493E+03  0.17200000000E+03 0.  1.
</event>
<event>
 4    1  0.3205520E-002  0.3442964E+03  0.7818608E-02  0.1064981E+00
         -2   -1    0    0    0  501 -0.00000000000E+00  0.00000000000E+00  0.42485835408E+03  0.42485835408E+03  0.00000000000E+00 0.  1.
          2   -1    0    0  502    0  0.00000000000E+00 -0.00000000000E+00 -0.29781399249E+03  0.29781399249E+03  0.00000000000E+00 0. -1.
          6    1    1    2  502    0  0.19711485226E+03 -0.22383414088E+03  0.15431613006E+03  0.37729756903E+03  0.17200000000E+03 0. -1.
         -6    1    1    2    0  501 -0.19711485226E+03  0.22383414088E+03 -0.27271768469E+02  0.34537477754E+03  0.17200000000E+03 0.  1.
</event>
<event>
 4    1  0.3205520E-002  0.1964646E+03  0.7818608E-02  0.1152757E+00
         -2   -1    0    0    0  501 -0.00000000000E+00  0.00000000000E+00  0.11243853536E+04  0.11243853536E+04  0.00000000000E+00 0.  1.
          2   -1    0    0  502    0  0.00000000000E+00 -0.00000000000E+00 -0.37333723493E+02  0.37333723493E+02  0.00000000000E+00 0. -1.
          6    1    1    2  502    0 -0.23356805725E+01 -0.94915221759E+02  0.70832907297E+03  0.73507035741E+03  0.17200000000E+03 0.  1.
         -6    1    1    2    0  501  0.23356805725E+01  0.94915221759E+02  0.37872255714E+03  0.42664871969E+03  0.17200000000E+03 0. -1.
</event>
<event>
 4    1  0.3205520E-002  0.3392905E+03  0.7818608E-02  0.1067098E+00
         -1   -1    0    0    0  501 -0.00000000000E+00  0.00000000000E+00  0.39185498291E+03  0.39185498291E+03  0.00000000000E+00 0.  1.
          1   -1    0    0  502    0  0.00000000000E+00 -0.00000000000E+00 -0.40704725836E+03  0.40704725836E+03  0.00000000000E+00 0. -1.
          6    1    1    2  502    0  0.12895612159E+03  0.26249646474E+03 -0.21831271955E+03  0.40345819959E+03  0.17200000000E+03 0. -1.
         -6    1    1    2    0  501 -0.12895612159E+03 -0.26249646474E+03  0.20312044410E+03  0.39544404169E+03  0.17200000000E+03 0.  1.
</event>
<event>
 4    1  0.3205520E-002  0.1822738E+03  0.7818608E-02  0.1165620E+00
          1   -1    0    0  502    0  0.00000000000E+00  0.00000000000E+00  0.23062293870E+04  0.23062293870E+04  0.00000000000E+00 0. -1.
         -1   -1    0    0    0  501 -0.00000000000E+00 -0.00000000000E+00 -0.20602860618E+02  0.20602860618E+02  0.00000000000E+00 0.  1.
          6    1    1    2  502    0  0.90688094767E+01  0.59644705830E+02  0.50476396230E+03  0.53666599657E+03  0.17200000000E+03 0.  1.
         -6    1    1    2    0  501 -0.90688094767E+01 -0.59644705830E+02  0.17808625641E+04  0.17901662511E+04  0.17200000000E+03 0. -1.
</event>
<event>
 4    1  0.3205520E-002  0.1878216E+03  0.7818608E-02  0.1160441E+00
         -2   -1    0    0    0  501 -0.00000000000E+00  0.00000000000E+00  0.12845350430E+03  0.12845350430E+03  0.00000000000E+00 0.  1.
          2   -1    0    0  502    0  0.00000000000E+00 -0.00000000000E+00 -0.39639216236E+03  0.39639216236E+03  0.00000000000E+00 0. -1.
          6    1    1    2  502    0  0.61372099508E+02  0.43890790699E+02 -0.27941430846E+03  0.33667386575E+03  0.17200000000E+03 0. -1.
         -6    1    1    2    0  501 -0.61372099508E+02 -0.43890790699E+02  0.11475650391E+02  0.18817180091E+03  0.17200000000E+03 0.  1.
</event>
<event>
 4    1  0.3205520E-002  0.2174590E+03  0.7818608E-02  0.1135792E+00
          2   -1    0    0  502    0  0.00000000000E+00  0.00000000000E+00  0.91482215188E+03  0.91482215188E+03  0.00000000000E+00 0. -1.
         -2   -1    0    0    0  501 -0.00000000000E+00 -0.00000000000E+00 -0.89166939459E+02  0.89166939459E+02  0.00000000000E+00 0.  1.
          6    1    1    2  502    0 -0.13305763184E+03  0.27236551648E+00  0.73826781226E+03  0.76962833250E+03  0.17200000000E+03 0. -1.
         -6    1    1    2    0  501  0.13305763184E+03 -0.27236551648E+00  0.87387400157E+02  0.23436075883E+03  0.17200000000E+03 0.  1.
</event>
<event>
 4    1  0.3205520E-002  0.2873076E+03  0.7818608E-02  0.1091763E+00
         -2   -1    0    0    0  501 -0.00000000000E+00  0.00000000000E+00  0.72127421369E+03  0.72127421369E+03  0.00000000000E+00 0.  1.
          2   -1    0    0  502    0  0.00000000000E+00 -0.00000000000E+00 -0.13527868605E+03  0.13527868605E+03  0.00000000000E+00 0. -1.
          6    1    1    2  502    0 -0.20442717838E+03 -0.10569394986E+03  0.12492380089E+03  0.31329161867E+03  0.17200000000E+03 0. -1.
         -6    1    1    2    0  501  0.20442717838E+03  0.10569394986E+03  0.46107172676E+03  0.54326128107E+03  0.17200000000E+03 0. -1.
</event>
<event>
 4    1  0.3205520E-002  0.2667209E+03  0.7818608E-02  0.1103171E+00
         -2   -1    0    0    0  501 -0.00000000000E+00  0.00000000000E+00  0.84516876127E+03  0.84516876127E+03  0.00000000000E+00 0.  1.
          2   -1    0    0  502    0  0.00000000000E+00 -0.00000000000E+00 -0.10417496200E+03  0.10417496200E+03  0.00000000000E+00 0. -1.
          6    1    1    2  502    0  0.44264667298E+02 -0.19898909626E+03  0.16250192109E+03  0.31232498388E+03  0.17200000000E+03 0. -1.
         -6    1    1    2    0  501 -0.44264667298E+02  0.19898909626E+03  0.57849187819E+03  0.63701873939E+03  0.17200000000E+03 0.  1.
</event>
<event>
 4    1  0.3205520E-002  0.2264101E+03  0.7818608E-02  0.1129192E+00
          2   -1    0    0  502    0  0.00000000000E+00  0.00000000000E+00  0.17210946705E+03  0.17210946705E+03  0.00000000000E+00 0. -1.
         -2   -1    0    0    0  501 -0.00000000000E+00 -0.00000000000E+00 -0.30095607455E+03  0.30095607455E+03  0.00000000000E+00 0.  1.
          6    1    1    2  502    0  0.13788705818E+03  0.51620530853E+02 -0.88481714379E+02  0.24308544547E+03  0.17200000000E+03 0.  1.
         -6    1    1    2    0  501 -0.13788705818E+03 -0.51620530853E+02 -0.40364893124E+02  0.22998009613E+03  0.17200000000E+03 0. -1.
</event>
<event>
 4    1  0.3205520E-002  0.2836739E+03  0.7818608E-02  0.1093699E+00
          2   -1    0    0  502    0  0.00000000000E+00  0.00000000000E+00  0.24374998157E+03  0.24374998157E+03  0.00000000000E+00 0. -1.
         -2   -1    0    0    0  501 -0.00000000000E+00 -0.00000000000E+00 -0.39647182586E+03  0.39647182586E+03  0.00000000000E+00 0.  1.
          6    1    1    2  502    0  0.20924019344E+03  0.84293775711E+02  0.54576849069E+02  0.28887632583E+03  0.17200000000E+03 0. -1.
         -6    1    1    2    0  501 -0.20924019344E+03 -0.84293775711E+02 -0.20729869336E+03  0.35134548160E+03  0.17200000000E+03 0.  1.
</event>
<event>
 4    1  0.3205520E-002  0.3643137E+03  0.7818608E-02  0.1056889E+00
         -1   -1    0    0    0  501 -0.00000000000E+00  0.00000000000E+00  0.64879045700E+03  0.64879045700E+03  0.00000000000E+00 0.  1.
          1   -1    0    0  502    0  0.00000000000E+00 -0.00000000000E+00 -0.33690697338E+03  0.33690697338E+03  0.00000000000E+00 0. -1.
          6    1    1    2  502    0 -0.31867939710E+03  0.39798628095E+02 -0.15294240789E+03  0.39511500739E+03  0.17200000000E+03 0. -1.
         -6    1    1    2    0  501  0.31867939710E+03 -0.39798628095E+02  0.46482589150E+03  0.59058242299E+03  0.17200000000E+03 0.  1.
</event>
<event>
 4    1  0.3205520E-002  0.2168071E+03  0.7818608E-02  0.1136286E+00
          2   -1    0    0  502    0  0.00000000000E+00  0.00000000000E+00  0.13366037538E+04  0.13366037538E+04  0.00000000000E+00 0. -1.
         -2   -1    0    0    0  501 -0.00000000000E+00 -0.00000000000E+00 -0.38917477192E+02  0.38917477192E+02  0.00000000000E+00 0.  1.
          6    1    1    2  502    0 -0.99783885886E+02  0.86397410821E+02  0.86232709325E+03  0.88916441237E+03  0.17200000000E+03 0. -1.
         -6    1    1    2    0  501  0.99783885886E+02 -0.86397410821E+02  0.43535918332E+03  0.48635681858E+03  0.17200000000E+03 0.  1.
</event>
<event>
 4    1  0.3205520E-002  0.3365878E+03  0.7818608E-02  0.1068259E+00
          2   -1    0    0  502    0  0.00000000000E+00  0.00000000000E+00  0.46649848653E+03  0.46649848653E+03  0.00000000000E+00 0. -1.
         -2   -1    0    0    0  501 -0.00000000000E+00 -0.00000000000E+00 -0.24661731043E+03  0.24661731043E+03  0.00000000000E+00 0.  1.
          6    1    1    2  502    0 -0.79285072978E+02  0.27824671978E+03  0.15398204626E+03  0.37013758311E+03  0.17200000000E+03 0. -1.
         -6    1    1    2    0  501  0.79285072978E+02 -0.27824671978E+03  0.65899129835E+02  0.34297821385E+03  0.17200000000E+03 0.  1.
</event>
<event>
 4    1  0.3205520E-002  0.1953044E+03  0.7818608E-02  0.1153762E+00
         -2   -1    0    0    0  501 -0.00000000000E+00  0.00000000000E+00  0.33528675433E+02  0.33528675433E+02  0.00000000000E+00 0.  1.
          2   -1    0    0  502    0  0.00000000000E+00 -0.00000000000E+00 -0.12699458519E+04  0.12699458519E+04  0.00000000000E+00 0. -1.
          6    1    1    2  502    0 -0.90243139281E+02  0.20395677431E+02 -0.40785135079E+03  0.45220187106E+03  0.17200000000E+03 0.  1.
         -6    1    1    2    0  501  0.90243139281E+02 -0.20395677431E+02 -0.82856582569E+03  0.85127265629E+03  0.17200000000E+03 0. -1.
</event>
<event>
 4    1  0.3205520E-002  0.2317317E+03  0.7818608E-02  0.1125427E+00
         -1   -1    0    0    0  501 -0.00000000000E+00  0.00000000000E+00  0.66888976471E+03  0.66888976471E+03  0.00000000000E+00 0.  1.
          1   -1    0    0  502    0  0.00000000000E+00 -0.00000000000E+00 -0.80670204843E+02  0.80670204843E+02  0.00000000000E+00 0. -1.
          6    1    1    2  502    0  0.74345327024E+02  0.13633911052E+03  0.32011977987E+03  0.39519141459E+03  0.17200000000E+03 0. -1.
         -6    1    1    2    0  501 -0.74345327024E+02 -0.13633911052E+03  0.26809978000E+03  0.35436855496E+03  0.17200000000E+03 0.  1.
</event>
<event>
 4    1  0.3205520E-002  0.3148472E+03  0.7818608E-02  0.1078046E+00
          2   -1    0    0  502    0  0.00000000000E+00  0.00000000000E+00  0.86766920661E+03  0.86766920661E+03  0.00000000000E+00 0. -1.
         -2   -1    0    0    0  501 -0.00000000000E+00 -0.00000000000E+00 -0.30560213308E+03  0.30560213308E+03  0.00000000000E+00 0.  1.
          6    1    1    2  502    0  0.24379523824E+03 -0.10054159226E+03  0.74523891630E+03  0.80901778246E+03  0.17200000000E+03 0. -1.
         -6    1    1    2    0  501 -0.24379523824E+03  0.10054159226E+03 -0.18317184277E+03  0.36425355722E+03  0.17200000000E+03 0.  1.
</event>
<event>
 4    1  0.3205520E-002  0.3453814E+03  0.7818608E-02  0.1064527E+00
         -2   -1    0    0    0  501 -0.00000000000E+00  0.00000000000E+00  0.47078699693E+03  0.47078699693E+03  0.00000000000E+00 0.  1.
          2   -1    0    0  502    0  0.00000000000E+00 -0.00000000000E+00 -0.35707398697E+03  0.35707398697E+03  0.00000000000E+00 0. -1.
          6    1    1    2  502    0 -0.40676275537E+02 -0.29673173788E+03 -0.16620461547E+03  0.38329134854E+03  0.17200000000E+03 0. -1.
         -6    1    1    2    0  501  0.40676275537E+02  0.29673173788E+03  0.27991762543E+03  0.44456963536E+03  0.17200000000E+03 0.  1.
</event>
<event>
 4    1  0.3205520E-002  0.2682811E+03  0.7818608E-02  0.1102267E+00
         -2   -1    0    0    0  501 -0.00000000000E+00  0.00000000000E+00  0.10693988564E+03  0.10693988564E+03  0.00000000000E+00 0.  1.
          2   -1    0    0  502    0  0.00000000000E+00 -0.00000000000E+00 -0.67858752501E+03  0.67858752501E+03  0.00000000000E+00 0. -1.
          6    1    1    2  502    0  0.20483939967E+03 -0.20774215685E+02 -0.32133824103E+03  0.41860842423E+03  0.17200000000E+03 0. -1.
         -6    1    1    2    0  501 -0.20483939967E+03  0.20774215685E+02 -0.25030939834E+03  0.36691898641E+03  0.17200000000E+03 0.  1.
</event>
<event>
 4    1  0.3205520E-002  0.1930842E+03  0.7818608E-02  0.1155709E+00
         -1   -1    0    0    0  501 -0.00000000000E+00  0.00000000000E+00  0.23202922875E+03  0.23202922875E+03  0.00000000000E+00 0.  1.
          1   -1    0    0  502    0  0.00000000000E+00 -0.00000000000E+00 -0.16983117093E+03  0.16983117093E+03  0.00000000000E+00 0. -1.
          6    1    1    2  502    0  0.27040282227E+02 -0.83464454281E+02  0.77751371935E+02  0.20815082952E+03  0.17200000000E+03 0.  1.
         -6    1    1    2    0  501 -0.27040282227E+02  0.83464454281E+02 -0.15553314113E+02  0.19370957016E+03  0.17200000000E+03 0. -1.
</event>
<event>
 4    1  0.3205520E-002  0.3193296E+03  0.7818608E-02  0.1075958E+00
          1   -1    0    0  502    0  0.00000000000E+00  0.00000000000E+00  0.10682476951E+04  0.10682476951E+04  0.00000000000E+00 0. -1.
         -1   -1    0    0    0  501 -0.00000000000E+00 -0.00000000000E+00 -0.41942046197E+03  0.41942046197E+03  0.00000000000E+00 0.  1.
          6    1    1    2  502    0 -0.82712562905E+02  0.25601955818E+03  0.97814523736E+03  0.10289506731E+04  0.17200000000E+03 0. -1.
         -6    1    1    2    0  501  0.82712562905E+02 -0.25601955818E+03 -0.32931800422E+03  0.45871748401E+03  0.17200000000E+03 0.  1.
</event>
<event>
 4    1  0.3205520E-002  0.3144833E+03  0.7818608E-02  0.1078217E+00
          3   -1    0    0  502    0  0.00000000000E+00  0.00000000000E+00  0.86979516150E+02  0.86979516150E+02  0.00000000000E+00 0. -1.
         -3   -1    0    0    0  501 -0.00000000000E+00 -0.00000000000E+00 -0.11377050810E+04  0.11377050810E+04  0.00000000000E+00 0.  1.
          6    1    1    2  502    0  0.20078974562E+02 -0.26251206390E+03 -0.51062931894E+03  0.59970163438E+03  0.17200000000E+03 0.  1.
         -6    1    1    2    0  501 -0.20078974562E+02  0.26251206390E+03 -0.54009624592E+03  0.62498296278E+03  0.17200000000E+03 0. -1.
</event>
<event>
 4    1  0.3205520E-002  0.2412639E+03  0.7818608E-02  0.1118954E+00
          1   -1    0    0  502    0  0.00000000000E+00  0.00000000000E+00  0.68783498152E+03  0.68783498152E+03  0.00000000000E+00 0. -1.
         -1   -1    0    0    0  501 -0.00000000000E+00 -0.00000000000E+00 -0.10116268180E+03  0.10116268180E+03  0.00000000000E+00 0.  1.
          6    1    1    2  502    0  0.15531949591E+03 -0.67082979158E+02  0.13383333427E+03  0.27589786745E+03  0.17200000000E+03 0. -1.
         -6    1    1    2    0  501 -0.15531949591E+03  0.67082979158E+02  0.45283896545E+03  0.51309979588E+03  0.17200000000E+03 0. -1.
</event>
<event>
 4    1  0.3205520E-002  0.3996324E+03  0.7818608E-02  0.1043907E+00
         -2   -1    0    0    0  501 -0.00000000000E+00  0.00000000000E+00  0.93232204115E+02  0.93232204115E+02  0.00000000000E+00 0.  1.
          2   -1    0    0  502    0  0.00000000000E+00 -0.00000000000E+00 -0.20974222651E+04  0.20974222651E+04  0.00000000000E+00 0. -1.
          6    1    1    2  502    0  0.23826355254E+03 -0.27083670357E+03 -0.14710267492E+04  0.15243443631E+04  0.17200000000E+03 0. -1.
         -6    1    1    2    0  501 -0.23826355254E+03  0.27083670357E+03 -0.53316331179E+03  0.66631010611E+03  0.17200000000E+03 0.  1.
</event>
<event>
 4    1  0.3205520E-002  0.2227145E+03  0.7818608E-02  0.1131875E+00
          2   -1    0    0  502    0  0.00000000000E+00  0.00000000000E+00  0.24203368114E+03  0.24203368114E+03  0.00000000000E+00 0. -1.
         -2   -1    0    0    0  501 -0.00000000000E+00 -0.00000000000E+00 -0.20634939514E+03  0.20634939514E+03  0.00000000000E+00 0.  1.
          6    1    1    2  502    0 -0.56046723745E+02  0.12990957142E+03  0.36388037053E+02  0.22566750149E+03  0.17200000000E+03 0. -1.
         -6    1    1    2    0  501  0.56046723745E+02 -0.12990957142E+03 -0.70375104844E+00  0.22271557479E+03  0.17200000000E+03 0. -1.
</event>
<event>
 4    1  0.3205520E-002  0.1885243E+03  0.7818608E-02  0.1159799E+00
         -2   -1    0    0    0  501 -0.00000000000E+00  0.00000000000E+00  0.19484790972E+03  0.19484790972E+03  0.00000000000E+00 0.  1.
          2   -1    0    0  502    0  0.00000000000E+00 -0.00000000000E+00 -0.55409035879E+03  0.55409035879E+03  0.00000000000E+00 0. -1.
          6    1    1    2  502    0 -0.12977686668E+02  0.76085362379E+02 -0.48632063976E+03  0.52158332736E+03  0.17200000000E+03 0. -1.
         -6    1    1    2    0  501  0.12977686668E+02 -0.76085362379E+02  0.12707819069E+03  0.22735494116E+03  0.17200000000E+03 0.  1.
</event>
<event>
 4    1  0.3205520E-002  0.4065343E+03  0.7818608E-02  0.1041540E+00
         -1   -1    0    0    0  501 -0.00000000000E+00  0.00000000000E+00  0.21345091635E+03  0.21345091635E+03  0.00000000000E+00 0.  1.
          1   -1    0    0  502    0  0.00000000000E+00 -0.00000000000E+00 -0.77431344982E+03  0.77431344982E+03  0.00000000000E+00 0. -1.
          6    1    1    2  502    0 -0.19439231665E+02 -0.36784267698E+03 -0.28382338163E+03  0.49580826001E+03  0.17200000000E+03 0. -1.
         -6    1    1    2    0  501  0.19439231665E+02  0.36784267698E+03 -0.27703915184E+03  0.49195610616E+03  0.17200000000E+03 0.  1.
</event>
<event>
 4    1  0.3205520E-002  0.2130848E+03  0.7818608E-02  0.1139146E+00
          3   -1    0    0  502    0  0.00000000000E+00  0.00000000000E+00  0.81616332883E+02  0.81616332883E+02  0.00000000000E+00 0. -1.
         -3   -1    0    0    0  501 -0.00000000000E+00 -0.00000000000E+00 -0.56577931786E+03  0.56577931786E+03  0.00000000000E+00 0.  1.
          6    1    1    2  502    0 -0.49092903780E+02 -0.11580593210E+03 -0.20023552081E+03  0.29240278881E+03  0.17200000000E+03 0. -1.
         -6    1    1    2    0  501  0.49092903780E+02  0.11580593210E+03 -0.28392746417E+03  0.35499286193E+03  0.17200000000E+03 0.  1.
</event>
<event>
 4    1  0.3205520E-002  0.5550161E+03  0.7818608E-02  0.1000340E+00
          1   -1    0    0  502    0  0.00000000000E+00  0.00000000000E+00  0.92755805987E+02  0.92755805987E+02  0.00000000000E+00 0. -1.
         -1   -1    0    0    0  501 -0.00000000000E+00 -0.00000000000E+00 -0.33543390455E+04  0.33543390455E+04  0.00000000000E+00 0.  1.
          6    1    1    2  502    0 -0.31449044455E+03  0.42373887941E+03 -0.14589861727E+04  0.15609879980E+04  0.17200000000E+03 0. -1.
         -6    1    1    2    0  501  0.31449044455E+03 -0.42373887941E+03 -0.18025970668E+04  0.18861068535E+04  0.17200000000E+03 0.  1.
</event>
<event>
 4    1  0.3205520E-002  0.2584274E+03  0.7818608E-02  0.1108092E+00
          2   -1    0    0  502    0  0.00000000000E+00  0.00000000000E+00  0.19191385837E+04  0.19191385837E+04  0.00000000000E+00 0. -1.
         -2   -1    0    0    0  501 -0.00000000000E+00 -0.00000000000E+00 -0.11232144967E+03  0.11232144967E+03  0.00000000000E+00 0.  1.
          6    1    1    2  502    0 -0.64772820586E+02  0.18167327789E+03  0.17472479933E+04  0.17662559973E+04  0.17200000000E+03 0. -1.
         -6    1    1    2    0  501  0.64772820586E+02 -0.18167327789E+03  0.59569140750E+02  0.26520403601E+03  0.17200000000E+03 0.  1.
</event>
<event>
 4    1  0.3205520E-002  0.4375209E+03  0.7818608E-02  0.1031510E+00
          1   -1    0    0  502    0  0.00000000000E+00  0.00000000000E+00  0.20864821452E+04  0.20864821452E+04  0.00000000000E+00 0. -1.
         -1   -1    0    0    0  501 -0.00000000000E+00 -0.00000000000E+00 -0.98911059841E+02  0.98911059841E+02  0.00000000000E+00 0.  1.
          6    1    1    2  502    0 -0.38353471070E+03  0.12141522146E+03  0.12878984603E+04  0.13601863749E+04  0.17200000000E+03 0. -1.
         -6    1    1    2    0  501  0.38353471070E+03 -0.12141522146E+03  0.69967262506E+03  0.82520683018E+03  0.17200000000E+03 0.  1.
</event>
<event>
 4    1  0.3205520E-002  0.2741745E+03  0.7818608E-02  0.1098914E+00
          2   -1    0    0  502    0  0.00000000000E+00  0.00000000000E+00  0.38014912974E+03  0.38014912974E+03  0.00000000000E+00 0. -1.
         -2   -1    0    0    0  501 -0.00000000000E+00 -0.00000000000E+00 -0.25483145290E+03  0.25483145290E+03  0.00000000000E+00 0.  1.
          6    1    1    2  502    0 -0.21005880542E+03  0.38248744984E+02  0.21293139783E+03  0.34714758880E+03  0.17200000000E+03 0. -1.
         -6    1    1    2    0  501  0.21005880542E+03 -0.38248744984E+02 -0.87613720995E+02  0.28783299383E+03  0.17200000000E+03 0.  1.
</event>
<event>
 4    1  0.3205520E-002  0.2303312E+03  0.7818608E-02  0.1126407E+00
         -1   -1    0    0    0  501 -0.00000000000E+00  0.00000000000E+00  0.13987403971E+03  0.13987403971E+03  0.00000000000E+00 0.  1.
          1   -1    0    0  502    0  0.00000000000E+00 -0.00000000000E+00 -0.48455593888E+03  0.48455593888E+03  0.00000000000E+00 0. -1.
          6    1    1    2  502    0  0.14577748718E+03 -0.47089185110E+02 -0.31786373339E+03  0.39254276217E+03  0.17200000000E+03 0. -1.
         -6    1    1    2    0  501 -0.14577748718E+03  0.47089185110E+02 -0.26818165772E+02  0.23188721642E+03  0.17200000000E+03 0.  1.
</event>
<event>
 4    1  0.3205520E-002  0.1767222E+03  0.7818608E-02  0.1171014E+00
         -2   -1    0    0    0  501 -0.00000000000E+00  0.00000000000E+00  0.11507738335E+04  0.11507738335E+04  0.00000000000E+00 0.  1.
          2   -1    0    0  502    0  0.00000000000E+00 -0.00000000000E+00 -0.27456289531E+02  0.27456289531E+02  0.00000000000E+00 0. -1.
          6    1    1    2  502    0 -0.14170397192E+01  0.40555364070E+02  0.62499756959E+03  0.64950189188E+03  0.17200000000E+03 0.  1.
         -6    1    1    2    0  501  0.14170397192E+01 -0.40555364070E+02  0.49831997439E+03  0.52872823117E+03  0.17200000000E+03 0. -1.
</event>
<event>
 4    1  0.3205520E-002  0.1779646E+03  0.7818608E-02  0.1169788E+00
         -2   -1    0    0    0  501 -0.00000000000E+00  0.00000000000E+00  0.60333792751E+03  0.60333792751E+03  0.00000000000E+00 0.  1.
          2   -1    0    0  502    0  0.00000000000E+00 -0.00000000000E+00 -0.54746470288E+02  0.54746470288E+02  0.00000000000E+00 0. -1.
          6    1    1    2  502    0 -0.75329068883E+01  0.45062637748E+02  0.34104409544E+03  0.38468488538E+03  0.17200000000E+03 0. -1.
         -6    1    1    2    0  501  0.75329068883E+01 -0.45062637748E+02  0.20754736178E+03  0.27339951242E+03  0.17200000000E+03 0. -1.
</event>
<event>
 4    1  0.3205520E-002  0.2040935E+03  0.7818608E-02  0.1146331E+00
         -1   -1    0    0    0  501 -0.00000000000E+00  0.00000000000E+00  0.23316720743E+03  0.23316720743E+03  0.00000000000E+00 0.  1.
          1   -1    0    0  502    0  0.00000000000E+00 -0.00000000000E+00 -0.19731029195E+03  0.19731029195E+03  0.00000000000E+00 0. -1.
          6    1    1    2  502    0 -0.13236396482E+02 -0.10906391609E+03 -0.48272423760E+02  0.20972450234E+03  0.17200000000E+03 0. -1.
         -6    1    1    2    0  501  0.13236396482E+02  0.10906391609E+03  0.84129339238E+02  0.22075299705E+03  0.17200000000E+03 0.  1.
</event>
<event>
 4    1  0.3205520E-002  0.2548894E+03  0.7818608E-02  0.1110253E+00
          1   -1    0    0  502    0  0.00000000000E+00  0.00000000000E+00  0.69869671204E+02  0.69869671204E+02  0.00000000000E+00 0. -1.
         -1   -1    0    0    0  501 -0.00000000000E+00 -0.00000000000E+00 -0.95725040077E+03  0.95725040077E+03  0.00000000000E+00 0.  1.
          6    1    1    2  502    0  0.90718557353E+02 -0.16478698994E+03 -0.53057109137E+03  0.58862066877E+03  0.17200000000E+03 0. -1.
         -6    1    1    2    0  501 -0.90718557353E+02  0.16478698994E+03 -0.35680963820E+03  0.43849940321E+03  0.17200000000E+03 0. -1.
</event>
<event>
 4    1  0.3205520E-002  0.2322685E+03  0.7818608E-02  0.1125053E+00
          1   -1    0    0  502    0  0.00000000000E+00  0.00000000000E+00  0.85052879412E+03  0.85052879412E+03  0.00000000000E+00 0. -1.
         -1   -1    0    0    0  501 -0.00000000000E+00 -0.00000000000E+00 -0.33703949950E+03  0.33703949950E+03  0.00000000000E+00 0.  1.
          6    1    1    2  502    0 -0.13701093311E+03  0.74784025609E+02  0.79174510346E+03  0.82511148043E+03  0.17200000000E+03 0. -1.
         -6    1    1    2    0  501  0.13701093311E+03 -0.74784025609E+02 -0.27825580884E+03  0.36245681319E+03  0.17200000000E+03 0.  1.
</event>
<event>
 4    1  0.3205520E-002  0.2895700E+03  0.7818608E-02  0.1090574E+00
         -1   -1    0    0    0  501 -0.00000000000E+00  0.00000000000E+00  0.29562917175E+03  0.29562917175E+03  0.00000000000E+00 0.  1.
          1   -1    0    0  502    0  0.00000000000E+00 -0.00000000000E+00 -0.43737383007E+03  0.43737383007E+03  0.00000000000E+00 0. -1.
          6    1    1    2  502    0  0.11362894726E+03 -0.20335985665E+03 -0.28816305965E+03  0.40852015605E+03  0.17200000000E+03 0. -1.
         -6    1    1    2    0  501 -0.11362894726E+03  0.20335985665E+03  0.14641840133E+03  0.32448284577E+03  0.17200000000E+03 0.  1.
</event>
<event>
 4    1  0.3205520E-002  0.2104592E+03  0.7818608E-02  0.1141203E+00
          2   -1    0    0  502    0  0.00000000000E+00  0.00000000000E+00  0.14725393223E+04  0.14725393223E+04  0.00000000000E+00 0. -1.
         -2   -1    0    0    0  501 -0.00000000000E+00 -0.00000000000E+00 -0.30828503850E+02  0.30828503850E+02  0.00000000000E+00 0.  1.
          6    1    1    2  502    0  0.12082533450E+03  0.10502392739E+02  0.60367973957E+03  0.63931392107E+03  0.17200000000E+03 0. -1.
         -6    1    1    2    0  501 -0.12082533450E+03 -0.10502392739E+02  0.83803107886E+03  0.86405390506E+03  0.17200000000E+03 0.  1.
</event>
<event>
 4    1  0.3205520E-002  0.2104820E+03  0.7818608E-02  0.1141185E+00
          2   -1    0    0  502    0  0.00000000000E+00  0.00000000000E+00  0.44791419785E+02  0.44791419785E+02  0.00000000000E+00 0. -1.
         -2   -1    0    0    0  501 -0.00000000000E+00 -0.00000000000E+00 -0.14982900286E+04  0.14982900286E+04  0.00000000000E+00 0.  1.
          6    1    1    2  502    0 -0.40042704813E+01  0.12125437140E+03 -0.27696327359E+03  0.34786680164E+03  0.17200000000E+03 0. -1.
         -6    1    1    2    0  501  0.40042704813E+01 -0.12125437140E+03 -0.11765353353E+04  0.11952146468E+04  0.17200000000E+03 0.  1.
</event>
<event>
 4    1  0.3205520E-002  0.5987427E+03  0.7818608E-02  0.9908018E-01
         -2   -1    0    0    0  501 -0.00000000000E+00  0.00000000000E+00  0.12545901445E+04  0.12545901445E+04  0.00000000000E+00 0.  1.
          2   -1    0    0  502    0  0.00000000000E+00 -0.00000000000E+00 -0.37974465774E+03  0.37974465774E+03  0.00000000000E+00 0. -1.
          6    1    1    2  502    0 -0.32886754316E+03  0.46984569721E+03  0.84398622891E+03  0.10347973689E+04  0.17200000000E+03 0. -1.
         -6    1    1    2    0  501  0.32886754316E+03 -0.46984569721E+03  0.30859257835E+02  0.59953743330E+03  0.17200000000E+03 0.  1.
</event>
<event>
 4    1  0.3205520E-002  0.2572089E+03  0.7818608E-02  0.1108832E+00
         -2   -1    0    0    0  501 -0.00000000000E+00  0.00000000000E+00  0.12010416022E+03  0.12010416022E+03  0.00000000000E+00 0.  1.
          2   -1    0    0  502    0  0.00000000000E+00 -0.00000000000E+00 -0.55662166427E+03  0.55662166427E+03  0.00000000000E+00 0. -1.
          6    1    1    2  502    0  0.15858801082E+03  0.10687504069E+03 -0.18373055849E+03  0.31609073005E+03  0.17200000000E+03 0.  1.
         -6    1    1    2    0  501 -0.15858801082E+03 -0.10687504069E+03 -0.25278694556E+03  0.36063509444E+03  0.17200000000E+03 0.  1.
</event>
<event>
 4    1  0.3205520E-002  0.2738998E+03  0.7818608E-02  0.1099068E+00
          2   -1    0    0  502    0  0.00000000000E+00  0.00000000000E+00  0.11229870756E+04  0.11229870756E+04  0.00000000000E+00 0. -1.
         -2   -1    0    0    0  501 -0.00000000000E+00 -0.00000000000E+00 -0.88611229285E+02  0.88611229285E+02  0.00000000000E+00 0.  1.
          6    1    1    2  502    0  0.21101004492E+03  0.30197129034E+02  0.81770902676E+03  0.86236254447E+03  0.17200000000E+03 0. -1.
         -6    1    1    2    0  501 -0.21101004492E+03 -0.30197129034E+02  0.21666681958E+03  0.34923576043E+03  0.17200000000E+03 0.  1.
</event>
<event>
 4    1  0.3205520E-002  0.2662836E+03  0.7818608E-02  0.1103426E+00
          1   -1    0    0  502    0  0.00000000000E+00  0.00000000000E+00  0.11800805107E+04  0.11800805107E+04  0.00000000000E+00 0. -1.
         -1   -1    0    0    0  501 -0.00000000000E+00 -0.00000000000E+00 -0.62938964104E+02  0.62938964104E+02  0.00000000000E+00 0.  1.
          6    1    1    2  502    0 -0.80097490323E+02 -0.18683507231E+03  0.69088159267E+03  0.74042172260E+03  0.17200000000E+03 0. -1.
         -6    1    1    2    0  501  0.80097490323E+02  0.18683507231E+03  0.42625995390E+03  0.50259775219E+03  0.17200000000E+03 0.  1.
</event>
<event>
 4    1  0.3205520E-002  0.2524169E+03  0.7818608E-02  0.1111787E+00
         -1   -1    0    0    0  501 -0.00000000000E+00  0.00000000000E+00  0.37348782125E+02  0.37348782125E+02  0.00000000000E+00 0.  1.
          1   -1    0    0  502    0  0.00000000000E+00 -0.00000000000E+00 -0.25644578366E+04  0.25644578366E+04  0.00000000000E+00 0. -1.
          6    1    1    2  502    0  0.17735943260E+03  0.51709761968E+02 -0.20162605241E+04  0.20319992050E+04  0.17200000000E+03 0. -1.
         -6    1    1    2    0  501 -0.17735943260E+03 -0.51709761968E+02 -0.51084853031E+03  0.56980741373E+03  0.17200000000E+03 0.  1.
</event>
<event>
 4    1  0.3205520E-002  0.2866796E+03  0.7818608E-02  0.1092096E+00
          4   -1    0    0  502    0  0.00000000000E+00  0.00000000000E+00  0.10288134328E+03  0.10288134328E+03  0.00000000000E+00 0. -1.
         -4   -1    0    0    0  501 -0.00000000000E+00 -0.00000000000E+00 -0.11582168936E+04  0.11582168936E+04  0.00000000000E+00 0.  1.
          6    1    1    2  502    0  0.22901984122E+03 -0.12293650156E+02 -0.17642932661E+03  0.33661926385E+03  0.17200000000E+03 0. -1.
         -6    1    1    2    0  501 -0.22901984122E+03  0.12293650156E+02 -0.87890622368E+03  0.92447897301E+03  0.17200000000E+03 0.  1.
</event>
<event>
 4    1  0.3205520E-002  0.2983360E+03  0.7818608E-02  0.1086075E+00
         -2   -1    0    0    0  501 -0.00000000000E+00  0.00000000000E+00  0.13110418933E+03  0.13110418933E+03  0.00000000000E+00 0.  1.
          2   -1    0    0  502    0  0.00000000000E+00 -0.00000000000E+00 -0.22449800684E+04  0.22449800684E+04  0.00000000000E+00 0. -1.
          6    1    1    2  502    0  0.23036803760E+03 -0.79692939277E+02 -0.20492195512E+04  0.20708223406E+04  0.17200000000E+03 0. -1.
         -6    1    1    2    0  501 -0.23036803760E+03  0.79692939277E+02 -0.64656327868E+02  0.30526191713E+03  0.17200000000E+03 0.  1.
</event>
<event>
 4    1  0.3205520E-002  0.2533991E+03  0.7818608E-02  0.1111175E+00
         -2   -1    0    0    0  501 -0.00000000000E+00  0.00000000000E+00  0.55137149642E+03  0.55137149642E+03  0.00000000000E+00 0.  1.
          2   -1    0    0  502    0  0.00000000000E+00 -0.00000000000E+00 -0.12070561905E+03  0.12070561905E+03  0.00000000000E+00 0. -1.
          6    1    1    2  502    0  0.24834629486E+02  0.18441897915E+03  0.15228879015E+03  0.29563997412E+03  0.17200000000E+03 0. -1.
         -6    1    1    2    0  501 -0.24834629486E+02 -0.18441897915E+03  0.27837708723E+03  0.37643714135E+03  0.17200000000E+03 0.  1.
</event>
<event>
 4    1  0.3205520E-002  0.3819075E+03  0.7818608E-02  0.1050231E+00
          2   -1    0    0  502    0  0.00000000000E+00  0.00000000000E+00  0.16757043475E+04  0.16757043475E+04  0.00000000000E+00 0. -1.
         -2   -1    0    0    0  501 -0.00000000000E+00 -0.00000000000E+00 -0.87051618084E+02  0.87051618084E+02  0.00000000000E+00 0.  1.
          6    1    1    2  502    0  0.26833587238E+03 -0.21039293925E+03  0.78415016602E+03  0.87220686318E+03  0.17200000000E+03 0. -1.
         -6    1    1    2    0  501 -0.26833587238E+03  0.21039293925E+03  0.80450256340E+03  0.89054910242E+03  0.17200000000E+03 0.  1.
</event>
<event>
 4    1  0.3205520E-002  0.1844186E+03  0.7818608E-02  0.1163594E+00
          1   -1    0    0  502    0  0.00000000000E+00  0.00000000000E+00  0.37969272937E+02  0.37969272937E+02  0.00000000000E+00 0. -1.
         -1   -1    0    0    0  501 -0.00000000000E+00 -0.00000000000E+00 -0.40112100874E+04  0.40112100874E+04  0.00000000000E+00 0.  1.
          6    1    1    2  502    0  0.36875663857E+02 -0.55375135899E+02 -0.20234537617E+03  0.27377704710E+03  0.17200000000E+03 0. -1.
         -6    1    1    2    0  501 -0.36875663857E+02  0.55375135899E+02 -0.37708954383E+04  0.37754023133E+04  0.17200000000E+03 0.  1.
</event>
<event>
 4    1  0.3205520E-002  0.1959537E+03  0.7818608E-02  0.1153198E+00
         -2   -1    0    0    0  501 -0.00000000000E+00  0.00000000000E+00  0.35647813789E+02  0.35647813789E+02  0.00000000000E+00 0.  1.
          2   -1    0    0  502    0  0.00000000000E+00 -0.00000000000E+00 -0.11076604994E+04  0.11076604994E+04  0.00000000000E+00 0. -1.
          6    1    1    2  502    0  0.81914505627E+02  0.45867945834E+02 -0.44112251256E+03  0.48268719247E+03  0.17200000000E+03 0. -1.
         -6    1    1    2    0  501 -0.81914505627E+02 -0.45867945834E+02 -0.63089017301E+03  0.66062112068E+03  0.17200000000E+03 0. -1.
</event>
<event>
 4    1  0.3205520E-002  0.2254224E+03  0.7818608E-02  0.1129904E+00
          2   -1    0    0  502    0  0.00000000000E+00  0.00000000000E+00  0.64034207868E+03  0.64034207868E+03  0.00000000000E+00 0. -1.
         -2   -1    0    0    0  501 -0.00000000000E+00 -0.00000000000E+00 -0.83802136226E+02  0.83802136226E+02  0.00000000000E+00 0.  1.
          6    1    1    2  502    0 -0.12776716600E+03  0.70048724966E+02  0.19487554044E+03  0.29797944365E+03  0.17200000000E+03 0. -1.
         -6    1    1    2    0  501  0.12776716600E+03 -0.70048724966E+02  0.36166440201E+03  0.42616477125E+03  0.17200000000E+03 0.  1.
</event>
<event>
 4    1  0.3205520E-002  0.2582926E+03  0.7818608E-02  0.1108173E+00
          2   -1    0    0  502    0  0.00000000000E+00  0.00000000000E+00  0.90951464586E+03  0.90951464586E+03  0.00000000000E+00 0. -1.
         -2   -1    0    0    0  501 -0.00000000000E+00 -0.00000000000E+00 -0.76524582707E+02  0.76524582707E+02  0.00000000000E+00 0.  1.
          6    1    1    2  502    0 -0.16098572429E+03 -0.10589925590E+03  0.51687447595E+03  0.57781855258E+03  0.17200000000E+03 0. -1.
         -6    1    1    2    0  501  0.16098572429E+03  0.10589925590E+03  0.31611558721E+03  0.40822067598E+03  0.17200000000E+03 0.  1.
</event>
<event>
 4    1  0.3205520E-002  0.2249072E+03  0.7818608E-02  0.1130277E+00
          1   -1    0    0  502    0  0.00000000000E+00  0.00000000000E+00  0.61440878859E+02  0.61440878859E+02  0.00000000000E+00 0. -1.
         -1   -1    0    0    0  501 -0.00000000000E+00 -0.00000000000E+00 -0.84480070169E+03  0.84480070169E+03  0.00000000000E+00 0.  1.
          6    1    1    2  502    0  0.48219945193E+02  0.13665311153E+03 -0.31936397960E+03  0.39061053169E+03  0.17200000000E+03 0. -1.
         -6    1    1    2    0  501 -0.48219945193E+02 -0.13665311153E+03 -0.46399584324E+03  0.51563104886E+03  0.17200000000E+03 0.  1.
</event>
<event>
 4    1  0.3205520E-002  0.5725360E+03  0.7818608E-02  0.9964082E-01
          1   -1    0    0  502    0  0.00000000000E+00  0.00000000000E+00  0.37270658776E+03  0.37270658776E+03  0.00000000000E+00 0. -1.
         -1   -1    0    0    0  501 -0.00000000000E+00 -0.00000000000E+00 -0.16322762622E+04  0.16322762622E+04  0.00000000000E+00 0.  1.
          6    1    1    2  502    0  0.16473647941E+03  0.52064897423E+03  0.51008395364E+02  0.57480372164E+03  0.17200000000E+03 0. -1.
         -6    1    1    2    0  501 -0.16473647941E+03 -0.52064897423E+03 -0.13105780698E+04  0.14301791283E+04  0.17200000000E+03 0.  1.
</event>
<event>
 4    1  0.3205520E-002  0.2059100E+03  0.7818608E-02  0.1144846E+00
          2   -1    0    0  502    0  0.00000000000E+00  0.00000000000E+00  0.26120176542E+04  0.26120176542E+04  0.00000000000E+00 0. -1.
         -2   -1    0    0    0  501 -0.00000000000E+00 -0.00000000000E+00 -0.16895389058E+02  0.16895389058E+02  0.00000000000E+00 0.  1.
          6    1    1    2  502    0 -0.95145566240E+02  0.61337026438E+02  0.15579762450E+04  0.15715243841E+04  0.17200000000E+03 0. -1.
         -6    1    1    2    0  501  0.95145566240E+02 -0.61337026438E+02  0.10371460201E+04  0.10573886592E+04  0.17200000000E+03 0.  1.
</event>
<event>
 4    1  0.3205520E-002  0.2052591E+03  0.7818608E-02  0.1145376E+00
          2   -1    0    0  502    0  0.00000000000E+00  0.00000000000E+00  0.14120515649E+04  0.14120515649E+04  0.00000000000E+00 0. -1.
         -2   -1    0    0    0  501 -0.00000000000E+00 -0.00000000000E+00 -0.36112199175E+02  0.36112199175E+02  0.00000000000E+00 0.  1.
          6    1    1    2  502    0  0.22040603784E+02  0.10982493572E+03  0.98980939407E+03  0.10108679149E+04  0.17200000000E+03 0. -1.
         -6    1    1    2    0  501 -0.22040603784E+02 -0.10982493572E+03  0.38612997163E+03  0.43729584918E+03  0.17200000000E+03 0. -1.
</event>
<event>
 4    1  0.3205520E-002  0.1748844E+03  0.7818608E-02  0.1172848E+00
          2   -1    0    0  502    0  0.00000000000E+00  0.00000000000E+00  0.27794661682E+03  0.27794661682E+03  0.00000000000E+00 0. -1.
         -2   -1    0    0    0  501 -0.00000000000E+00 -0.00000000000E+00 -0.11004247908E+03  0.11004247908E+03  0.00000000000E+00 0.  1.
          6    1    1    2  502    0 -0.64386785413E+01 -0.30969559111E+02  0.85247845626E+02  0.19455530154E+03  0.17200000000E+03 0. -1.
         -6    1    1    2    0  501  0.64386785413E+01  0.30969559111E+02  0.82656292115E+02  0.19343379436E+03  0.17200000000E+03 0.  1.
</event>
<event>
 4    1  0.3205520E-002  0.5308503E+03  0.7818608E-02  0.1006026E+00
          1   -1    0    0  502    0  0.00000000000E+00  0.00000000000E+00  0.40999384858E+04  0.40999384858E+04  0.00000000000E+00 0. -1.
         -1   -1    0    0    0  501 -0.00000000000E+00 -0.00000000000E+00 -0.81699772702E+02  0.81699772702E+02  0.00000000000E+00 0.  1.
          6    1    1    2  502    0  0.30301807982E+03  0.40049736134E+03  0.11761714930E+04  0.12904191079E+04  0.17200000000E+03 0. -1.
         -6    1    1    2    0  501 -0.30301807982E+03 -0.40049736134E+03  0.28420672201E+04  0.28912191505E+04  0.17200000000E+03 0.  1.
</event>
<event>
 4    1  0.3205520E-002  0.1894778E+03  0.7818608E-02  0.1158933E+00
          2   -1    0    0  502    0  0.00000000000E+00  0.00000000000E+00  0.81704328383E+03  0.81704328383E+03  0.00000000000E+00 0. -1.
         -2   -1    0    0    0  501 -0.00000000000E+00 -0.00000000000E+00 -0.45092754927E+02  0.45092754927E+02  0.00000000000E+00 0.  1.
          6    1    1    2  502    0 -0.18353061365E+02 -0.77337056844E+02  0.31708840406E+03  0.36938721040E+03  0.17200000000E+03 0. -1.
         -6    1    1    2    0  501  0.18353061365E+02  0.77337056844E+02  0.45486212485E+03  0.49274882835E+03  0.17200000000E+03 0.  1.
</event>
<event>
 4    1  0.3205520E-002  0.2526552E+03  0.7818608E-02  0.1111638E+00
         -2   -1    0    0    0  501 -0.00000000000E+00  0.00000000000E+00  0.91385828331E+02  0.91385828331E+02  0.00000000000E+00 0.  1.
          2   -1    0    0  502    0  0.00000000000E+00 -0.00000000000E+00 -0.92700360978E+03  0.92700360978E+03  0.00000000000E+00 0. -1.
          6    1    1    2  502    0  0.16935604646E+03  0.74626820000E+02 -0.67060637226E+03  0.71662231283E+03  0.17200000000E+03 0. -1.
         -6    1    1    2    0  501 -0.16935604646E+03 -0.74626820000E+02 -0.16501140919E+03  0.30176712528E+03  0.17200000000E+03 0.  1.
</event>
<event>
 4    1  0.3205520E-002  0.6161845E+03  0.7818608E-02  0.9872386E-01
          2   -1    0    0  502    0  0.00000000000E+00  0.00000000000E+00  0.27203826709E+03  0.27203826709E+03  0.00000000000E+00 0. -1.
         -2   -1    0    0    0  501 -0.00000000000E+00 -0.00000000000E+00 -0.13970945263E+04  0.13970945263E+04  0.00000000000E+00 0.  1.
          6    1    1    2  502    0 -0.59053730628E+03 -0.36947004419E+02 -0.53614656447E+03  0.81678426151E+03  0.17200000000E+03 0.  1.
         -6    1    1    2    0  501  0.59053730628E+03  0.36947004419E+02 -0.58890969473E+03  0.85234853188E+03  0.17200000000E+03 0.  1.
</event>
<event>
 4    1  0.3205520E-002  0.3231903E+03  0.7818608E-02  0.1074190E+00
          2   -1    0    0  502    0  0.00000000000E+00  0.00000000000E+00  0.10061911350E+04  0.10061911350E+04  0.00000000000E+00 0. -1.
         -2   -1    0    0    0  501 -0.00000000000E+00 -0.00000000000E+00 -0.15087605638E+03  0.15087605638E+03  0.00000000000E+00 0.  1.
          6    1    1    2  502    0  0.27004935980E+03 -0.44060132328E+02  0.75078641148E+03  0.81739353291E+03  0.17200000000E+03 0. -1.
         -6    1    1    2    0  501 -0.27004935980E+03  0.44060132328E+02  0.10452866712E+03  0.33967365844E+03  0.17200000000E+03 0.  1.
</event>
<event>
 4    1  0.3205520E-002  0.2752082E+03  0.7818608E-02  0.1098335E+00
         -2   -1    0    0    0  501 -0.00000000000E+00  0.00000000000E+00  0.11804067694E+03  0.11804067694E+03  0.00000000000E+00 0.  1.
          2   -1    0    0  502    0  0.00000000000E+00 -0.00000000000E+00 -0.20615386700E+04  0.20615386700E+04  0.00000000000E+00 0. -1.
          6    1    1    2  502    0  0.14375891127E+03  0.15965250054E+03 -0.18761805765E+04  0.18962576568E+04  0.17200000000E+03 0. -1.
         -6    1    1    2    0  501 -0.14375891127E+03 -0.15965250054E+03 -0.67317416530E+02  0.28332169007E+03  0.17200000000E+03 0.  1.
</event>
<event>
 4    1  0.3205520E-002  0.1733122E+03  0.7818608E-02  0.1174437E+00
          1   -1    0    0  502    0  0.00000000000E+00  0.00000000000E+00  0.87499001372E+03  0.87499001372E+03  0.00000000000E+00 0. -1.
         -1   -1    0    0    0  501 -0.00000000000E+00 -0.00000000000E+00 -0.34586419193E+02  0.34586419193E+02  0.00000000000E+00 0.  1.
          6    1    1    2  502    0 -0.21247455090E+02 -0.12925800157E+01  0.45947252569E+03  0.49107242539E+03  0.17200000000E+03 0.  1.
         -6    1    1    2    0  501  0.21247455090E+02  0.12925800157E+01  0.38093106884E+03  0.41850400753E+03  0.17200000000E+03 0.  1.
</event>
<event>
 4    1  0.3205520E-002  0.1878883E+03  0.7818608E-02  0.1160380E+00
         -4   -1    0    0    0  501 -0.00000000000E+00  0.00000000000E+00  0.15704807572E+03  0.15704807572E+03  0.00000000000E+00 0.  1.
          4   -1    0    0  502    0  0.00000000000E+00 -0.00000000000E+00 -0.30556484077E+03  0.30556484077E+03  0.00000000000E+00 0. -1.
          6    1    1    2  502    0  0.70659755034E+02 -0.26929732136E+02  0.44670750585E+02  0.19312557421E+03  0.17200000000E+03 0. -1.
         -6    1    1    2    0  501 -0.70659755034E+02  0.26929732136E+02 -0.19318751564E+03  0.26948734229E+03  0.17200000000E+03 0. -1.
</event>
<event>
 4    1  0.3205520E-002  0.4378322E+03  0.7818608E-02  0.1031414E+00
         -2   -1    0    0    0  501 -0.00000000000E+00  0.00000000000E+00  0.39829680612E+03  0.39829680612E+03  0.00000000000E+00 0.  1.
          2   -1    0    0  502    0  0.00000000000E+00 -0.00000000000E+00 -0.50785335147E+03  0.50785335147E+03  0.00000000000E+00 0. -1.
          6    1    1    2  502    0  0.32602700011E+03 -0.23626133930E+03 -0.15839430124E+03  0.46560259870E+03  0.17200000000E+03 0. -1.
         -6    1    1    2    0  501 -0.32602700011E+03  0.23626133930E+03  0.48837755890E+02  0.44054755890E+03  0.17200000000E+03 0.  1.
</event>
<event>
 4    1  0.3205520E-002  0.2677977E+03  0.7818608E-02  0.1102547E+00
         -2   -1    0    0    0  501 -0.00000000000E+00  0.00000000000E+00  0.14414154174E+03  0.14414154174E+03  0.00000000000E+00 0.  1.
          2   -1    0    0  502    0  0.00000000000E+00 -0.00000000000E+00 -0.54809579177E+03  0.54809579177E+03  0.00000000000E+00 0. -1.
          6    1    1    2  502    0 -0.12479771203E+03  0.16296356752E+03 -0.96853625665E+02  0.28477397717E+03  0.17200000000E+03 0.  1.
         -6    1    1    2    0  501  0.12479771203E+03 -0.16296356752E+03 -0.30710062437E+03  0.40746335634E+03  0.17200000000E+03 0.  1.
</event>
<event>
 4    1  0.3205520E-002  0.3020795E+03  0.7818608E-02  0.1084206E+00
         -2   -1    0    0    0  501 -0.00000000000E+00  0.00000000000E+00  0.10855597481E+04  0.10855597481E+04  0.00000000000E+00 0.  1.
          2   -1    0    0  502    0  0.00000000000E+00 -0.00000000000E+00 -0.99476625445E+02  0.99476625445E+02  0.00000000000E+00 0. -1.
          6    1    1    2  502    0 -0.20521074574E+03 -0.13984481226E+03  0.25978303905E+03  0.39842094456E+03  0.17200000000E+03 0. -1.
         -6    1    1    2    0  501  0.20521074574E+03  0.13984481226E+03  0.72630008364E+03  0.78661542903E+03  0.17200000000E+03 0.  1.
</event>
<event>
 4    1  0.3205520E-002  0.1900989E+03  0.7818608E-02  0.1158372E+00
          1   -1    0    0  502    0  0.00000000000E+00  0.00000000000E+00  0.15386900573E+04  0.15386900573E+04  0.00000000000E+00 0. -1.
         -1   -1    0    0    0  501 -0.00000000000E+00 -0.00000000000E+00 -0.68287581896E+02  0.68287581896E+02  0.00000000000E+00 0.  1.
          6    1    1    2  502    0  0.50074532244E+02 -0.63609088107E+02  0.84388626978E+02  0.20798801704E+03  0.17200000000E+03 0.  1.
         -6    1    1    2    0  501 -0.50074532244E+02  0.63609088107E+02  0.13860138484E+04  0.13989896222E+04  0.17200000000E+03 0. -1.
</event>
<event>
 4    1  0.3205520E-002  0.2145726E+03  0.7818608E-02  0.1137995E+00
         -4   -1    0    0    0  501 -0.00000000000E+00  0.00000000000E+00  0.10366464252E+04  0.10366464252E+04  0.00000000000E+00 0.  1.
          4   -1    0    0  502    0  0.00000000000E+00 -0.00000000000E+00 -0.63691202696E+02  0.63691202696E+02  0.00000000000E+00 0. -1.
          6    1    1    2  502    0  0.10340892392E+02 -0.12786887362E+03  0.18379967386E+03  0.28253088859E+03  0.17200000000E+03 0. -1.
         -6    1    1    2    0  501 -0.10340892392E+02  0.12786887362E+03  0.78915554862E+03  0.81780673928E+03  0.17200000000E+03 0.  1.
</event>
<event>
 4    1  0.3205520E-002  0.9213083E+03  0.7818608E-02  0.9399330E-01
         -2   -1    0    0    0  501 -0.00000000000E+00  0.00000000000E+00  0.24707531478E+03  0.24707531478E+03  0.00000000000E+00 0.  1.
          2   -1    0    0  502    0  0.00000000000E+00 -0.00000000000E+00 -0.34364753584E+04  0.34364753584E+04  0.00000000000E+00 0. -1.
          6    1    1    2  502    0 -0.73833407480E+03  0.52353400154E+03 -0.16268781783E+04  0.18696367733E+04  0.17200000000E+03 0. -1.
         -6    1    1    2    0  501  0.73833407480E+03 -0.52353400154E+03 -0.15625218652E+04  0.18139138999E+04  0.17200000000E+03 0.  1.
</event>
<event>
 4    1  0.3205520E-002  0.3192198E+03  0.7818608E-02  0.1076009E+00
         -4   -1    0    0    0  501 -0.00000000000E+00  0.00000000000E+00  0.32788110351E+03  0.32788110351E+03  0.00000000000E+00 0.  1.
          4   -1    0    0  502    0  0.00000000000E+00 -0.00000000000E+00 -0.31307531084E+03  0.31307531084E+03  0.00000000000E+00 0. -1.
          6    1    1    2  502    0  0.16404733785E+03 -0.21308620403E+03  0.34800332689E+02  0.32111107511E+03  0.17200000000E+03 0. -1.
         -6    1    1    2    0  501 -0.16404733785E+03  0.21308620403E+03 -0.19994540027E+02  0.31984533924E+03  0.17200000000E+03 0.  1.
</event>
<event>
 4    1  0.3205520E-002  0.2737643E+03  0.7818608E-02  0.1099144E+00
          2   -1    0    0  502    0  0.00000000000E+00  0.00000000000E+00  0.14338573900E+04  0.14338573900E+04  0.00000000000E+00 0. -1.
         -2   -1    0    0    0  501 -0.00000000000E+00 -0.00000000000E+00 -0.61285406620E+02  0.61285406620E+02  0.00000000000E+00 0.  1.
          6    1    1    2  502    0 -0.19538420442E+03 -0.84781608740E+02  0.97302087359E+03  0.10107999451E+04  0.17200000000E+03 0.  1.
         -6    1    1    2    0  501  0.19538420442E+03  0.84781608740E+02  0.39955110982E+03  0.48434285158E+03  0.17200000000E+03 0. -1.
</event>
<event>
 4    1  0.3205520E-002  0.1884023E+03  0.7818608E-02  0.1159910E+00
         -2   -1    0    0    0  501 -0.00000000000E+00  0.00000000000E+00  0.31818000218E+02  0.31818000218E+02  0.00000000000E+00 0.  1.
          2   -1    0    0  502    0  0.00000000000E+00 -0.00000000000E+00 -0.14128975895E+04  0.14128975895E+04  0.00000000000E+00 0. -1.
          6    1    1    2  502    0 -0.46742562852E+02  0.61045633376E+02 -0.35917272567E+03  0.40558659174E+03  0.17200000000E+03 0. -1.
         -6    1    1    2    0  501  0.46742562852E+02 -0.61045633376E+02 -0.10219068637E+04  0.10391289980E+04  0.17200000000E+03 0. -1.
</event>
<event>
 4    1  0.3205520E-002  0.1995302E+03  0.7818608E-02  0.1150136E+00
          1   -1    0    0  502    0  0.00000000000E+00  0.00000000000E+00  0.46334909929E+03  0.46334909929E+03  0.00000000000E+00 0. -1.
         -1   -1    0    0    0  501 -0.00000000000E+00 -0.00000000000E+00 -0.10555370080E+03  0.10555370080E+03  0.00000000000E+00 0.  1.
          6    1    1    2  502    0 -0.96948071985E+02  0.28798483461E+02  0.56227023522E+02  0.20730113238E+03  0.17200000000E+03 0.  1.
         -6    1    1    2    0  501  0.96948071985E+02 -0.28798483461E+02  0.30156837497E+03  0.36160166771E+03  0.17200000000E+03 0. -1.
</event>
<event>
 4    1  0.3205520E-002  0.2044279E+03  0.7818608E-02  0.1146056E+00
         -2   -1    0    0    0  501 -0.00000000000E+00  0.00000000000E+00  0.12505169854E+03  0.12505169854E+03  0.00000000000E+00 0.  1.
          2   -1    0    0  502    0  0.00000000000E+00 -0.00000000000E+00 -0.44819595054E+03  0.44819595054E+03  0.00000000000E+00 0. -1.
          6    1    1    2  502    0  0.42272313466E+02  0.10207742031E+03 -0.30613152388E+03  0.36811310508E+03  0.17200000000E+03 0. -1.
         -6    1    1    2    0  501 -0.42272313466E+02 -0.10207742031E+03 -0.17012728121E+02  0.20513454400E+03  0.17200000000E+03 0.  1.
</event>
<event>
 4    1  0.3205520E-002  0.1928651E+03  0.7818608E-02  0.1155902E+00
          2   -1    0    0  502    0  0.00000000000E+00  0.00000000000E+00  0.47805857037E+04  0.47805857037E+04  0.00000000000E+00 0. -1.
         -2   -1    0    0    0  501 -0.00000000000E+00 -0.00000000000E+00 -0.10465815441E+02  0.10465815441E+02  0.00000000000E+00 0.  1.
          6    1    1    2  502    0  0.43212218372E+02  0.75800096357E+02  0.35984064422E+04  0.36035712666E+04  0.17200000000E+03 0. -1.
         -6    1    1    2    0  501 -0.43212218372E+02 -0.75800096357E+02  0.11717134461E+04  0.11874802525E+04  0.17200000000E+03 0.  1.
</event>
<event>
 4    1  0.3205520E-002  0.2108955E+03  0.7818608E-02  0.1140859E+00
         -2   -1    0    0    0  501 -0.00000000000E+00  0.00000000000E+00  0.14863857727E+03  0.14863857727E+03  0.00000000000E+00 0.  1.
          2   -1    0    0  502    0  0.00000000000E+00 -0.00000000000E+00 -0.30780409354E+03  0.30780409354E+03  0.00000000000E+00 0. -1.
          6    1    1    2  502    0  0.11903151338E+03  0.26914674919E+02 -0.41489270636E+02  0.21493780608E+03  0.17200000000E+03 0.  1.
         -6    1    1    2    0  501 -0.11903151338E+03 -0.26914674919E+02 -0.11767624563E+03  0.24150486473E+03  0.17200000000E+03 0.  1.
</event>
<event>
 4    1  0.3205520E-002  0.1800076E+03  0.7818608E-02  0.1167796E+00
         -1   -1    0    0    0  501 -0.00000000000E+00  0.00000000000E+00  0.15523358246E+03  0.15523358246E+03  0.00000000000E+00 0.  1.
          1   -1    0    0  502    0  0.00000000000E+00 -0.00000000000E+00 -0.25279228663E+03  0.25279228663E+03  0.00000000000E+00 0. -1.
          6    1    1    2  502    0 -0.42457601764E+02  0.31876037193E+02 -0.13394866572E+03  0.22437685875E+03  0.17200000000E+03 0. -1.
         -6    1    1    2    0  501  0.42457601764E+02 -0.31876037193E+02  0.36389961551E+02  0.18364901033E+03  0.17200000000E+03 0.  1.
</event>
<event>
 4    1  0.3205520E-002  0.4848898E+03  0.7818608E-02  0.1017800E+00
          1   -1    0    0  502    0  0.00000000000E+00  0.00000000000E+00  0.15036177169E+04  0.15036177169E+04  0.00000000000E+00 0. -1.
         -1   -1    0    0    0  501 -0.00000000000E+00 -0.00000000000E+00 -0.22327785209E+03  0.22327785209E+03  0.00000000000E+00 0.  1.
          6    1    1    2  502    0 -0.59766204880E+02  0.44940198356E+03  0.11128391576E+04  0.12138900827E+04  0.17200000000E+03 0. -1.
         -6    1    1    2    0  501  0.59766204880E+02 -0.44940198356E+03  0.16750070716E+03  0.51300548630E+03  0.17200000000E+03 0.  1.
</event>
<event>
 4    1  0.3205520E-002  0.1989939E+03  0.7818608E-02  0.1150591E+00
          2   -1    0    0  502    0  0.00000000000E+00  0.00000000000E+00  0.27015586501E+03  0.27015586501E+03  0.00000000000E+00 0. -1.
         -2   -1    0    0    0  501 -0.00000000000E+00 -0.00000000000E+00 -0.15744744581E+03  0.15744744581E+03  0.00000000000E+00 0.  1.
          6    1    1    2  502    0  0.39545535968E+01  0.99994661480E+02  0.11253292026E+03  0.22860933699E+03  0.17200000000E+03 0. -1.
         -6    1    1    2    0  501 -0.39545535968E+01 -0.99994661480E+02  0.17549894693E+00  0.19899397382E+03  0.17200000000E+03 0.  1.
</event>
<event>
 4    1  0.3205520E-002  0.3567858E+03  0.7818608E-02  0.1059864E+00
          2   -1    0    0  502    0  0.00000000000E+00  0.00000000000E+00  0.13760002800E+04  0.13760002800E+04  0.00000000000E+00 0. -1.
         -2   -1    0    0    0  501 -0.00000000000E+00 -0.00000000000E+00 -0.24652213453E+03  0.24652213453E+03  0.00000000000E+00 0.  1.
          6    1    1    2  502    0  0.33863021192E+02 -0.31074979916E+03  0.12059601739E+04  0.12576311395E+04  0.17200000000E+03 0. -1.
         -6    1    1    2    0  501 -0.33863021192E+02  0.31074979916E+03 -0.76482028519E+02  0.36489127500E+03  0.17200000000E+03 0.  1.
</event>
<event>
 4    1  0.3205520E-002  0.2027159E+03  0.7818608E-02  0.1147468E+00
          2   -1    0    0  502    0  0.00000000000E+00  0.00000000000E+00  0.11906702765E+03  0.11906702765E+03  0.00000000000E+00 0. -1.
         -2   -1    0    0    0  501 -0.00000000000E+00 -0.00000000000E+00 -0.34603712234E+03  0.34603712234E+03  0.00000000000E+00 0.  1.
          6    1    1    2  502    0 -0.10378972079E+03  0.27155540032E+02 -0.10158529711E+03  0.22674501557E+03  0.17200000000E+03 0.  1.
         -6    1    1    2    0  501  0.10378972079E+03 -0.27155540032E+02 -0.12538479758E+03  0.23835913442E+03  0.17200000000E+03 0.  1.
</event>
<event>
 4    1  0.3205520E-002  0.4360319E+03  0.7818608E-02  0.1031971E+00
          2   -1    0    0  502    0  0.00000000000E+00  0.00000000000E+00  0.52822109327E+03  0.52822109327E+03  0.00000000000E+00 0. -1.
         -2   -1    0    0    0  501 -0.00000000000E+00 -0.00000000000E+00 -0.38532705044E+03  0.38532705044E+03  0.00000000000E+00 0.  1.
          6    1    1    2  502    0 -0.11974088076E+03 -0.38236359384E+03  0.18870955185E+03  0.47511587153E+03  0.17200000000E+03 0. -1.
         -6    1    1    2    0  501  0.11974088076E+03  0.38236359384E+03 -0.45815509024E+02  0.43843227218E+03  0.17200000000E+03 0.  1.
</event>
<event>
 4    1  0.3205520E-002  0.2868901E+03  0.7818608E-02  0.1091984E+00
          1   -1    0    0  502    0  0.00000000000E+00  0.00000000000E+00  0.37715558219E+03  0.37715558219E+03  0.00000000000E+00 0. -1.
         -1   -1    0    0    0  501 -0.00000000000E+00 -0.00000000000E+00 -0.22851331561E+03  0.22851331561E+03  0.00000000000E+00 0.  1.
          6    1    1    2  502    0 -0.21469134458E+03  0.81421987416E+02  0.10073364839E+02  0.28706686704E+03  0.17200000000E+03 0.  1.
         -6    1    1    2    0  501  0.21469134458E+03 -0.81421987416E+02  0.13856890174E+03  0.31860203076E+03  0.17200000000E+03 0.  1.
</event>
<event>
 4    1  0.3205520E-002  0.1812341E+03  0.7818608E-02  0.1166614E+00
          2   -1    0    0  502    0  0.00000000000E+00  0.00000000000E+00  0.12675931742E+04  0.12675931742E+04  0.00000000000E+00 0. -1.
         -2   -1    0    0    0  501 -0.00000000000E+00 -0.00000000000E+00 -0.35823189019E+02  0.35823189019E+02  0.00000000000E+00 0.  1.
          6    1    1    2  502    0  0.42601123249E+02 -0.38038590003E+02  0.95868070981E+03  0.97566105456E+03  0.17200000000E+03 0. -1.
         -6    1    1    2    0  501 -0.42601123249E+02  0.38038590003E+02  0.27308927539E+03  0.32775530868E+03  0.17200000000E+03 0.  1.
</event>
<event>
 4    1  0.3205520E-002  0.2389119E+03  0.7818608E-02  0.1120520E+00
          2   -1    0    0  502    0  0.00000000000E+00  0.00000000000E+00  0.11089324216E+04  0.11089324216E+04  0.00000000000E+00 0. -1.
         -2   -1    0    0    0  501 -0.00000000000E+00 -0.00000000000E+00 -0.71096936244E+02  0.71096936244E+02  0.00000000000E+00 0.  1.
          6    1    1    2  502    0 -0.16554783789E+03  0.94239306544E+01  0.82890384550E+03  0.86264736839E+03  0.17200000000E+03 0. -1.
         -6    1    1    2    0  501  0.16554783789E+03 -0.94239306544E+01  0.20893163986E+03  0.31738198946E+03  0.17200000000E+03 0.  1.
</event>
<event>
 4    1  0.3205520E-002  0.1937582E+03  0.7818608E-02  0.1155115E+00
         -2   -1    0    0    0  501 -0.00000000000E+00  0.00000000000E+00  0.17756288726E+02  0.17756288726E+02  0.00000000000E+00 0.  1.
          2   -1    0    0  502    0  0.00000000000E+00 -0.00000000000E+00 -0.23807315184E+04  0.23807315184E+04  0.00000000000E+00 0. -1.
          6    1    1    2  502    0 -0.37356880533E+02  0.81010399950E+02 -0.78030647251E+03  0.80400274407E+03  0.17200000000E+03 0.  1.
         -6    1    1    2    0  501  0.37356880533E+02 -0.81010399950E+02 -0.15826687571E+04  0.15944850630E+04  0.17200000000E+03 0. -1.
</event>
<event>
 4    1  0.3205520E-002  0.2448229E+03  0.7818608E-02  0.1116621E+00
         -1   -1    0    0    0  501 -0.00000000000E+00  0.00000000000E+00  0.46662694690E+02  0.46662694690E+02  0.00000000000E+00 0.  1.
          1   -1    0    0  502    0  0.00000000000E+00 -0.00000000000E+00 -0.13333438034E+04  0.13333438034E+04  0.00000000000E+00 0. -1.
          6    1    1    2  502    0  0.11573109927E+03  0.13023278763E+03 -0.77540364791E+03  0.81313534144E+03  0.17200000000E+03 0. -1.
         -6    1    1    2    0  501 -0.11573109927E+03 -0.13023278763E+03 -0.51127746077E+03  0.56687115662E+03  0.17200000000E+03 0.  1.
</event>
<event>
 4    1  0.3205520E-002  0.2061740E+03  0.7818608E-02  0.1144632E+00
          1   -1    0    0  502    0  0.00000000000E+00  0.00000000000E+00  0.30004842216E+03  0.30004842216E+03  0.00000000000E+00 0. -1.
         -1   -1    0    0    0  501 -0.00000000000E+00 -0.00000000000E+00 -0.14584773735E+03  0.14584773735E+03  0.00000000000E+00 0.  1.
          6    1    1    2  502    0  0.96708292526E+02  0.59759664147E+02  0.39364833929E+02  0.20989831217E+03  0.17200000000E+03 0.  1.
         -6    1    1    2    0  501 -0.96708292526E+02 -0.59759664147E+02  0.11483585087E+03  0.23599784734E+03  0.17200000000E+03 0. -1.
</event>
<event>
 4    1  0.3205520E-002  0.7403381E+03  0.7818608E-02  0.9650632E-01
          2   -1    0    0  502    0  0.00000000000E+00  0.00000000000E+00  0.11885052380E+04  0.11885052380E+04  0.00000000000E+00 0. -1.
         -2   -1    0    0    0  501 -0.00000000000E+00 -0.00000000000E+00 -0.46863884456E+03  0.46863884456E+03  0.00000000000E+00 0.  1.
          6    1    1    2  502    0 -0.22567680177E+03  0.68380290739E+03  0.46454955961E+03  0.87401757897E+03  0.17200000000E+03 0. -1.
         -6    1    1    2    0  501  0.22567680177E+03 -0.68380290739E+03  0.25531683386E+03  0.78312650361E+03  0.17200000000E+03 0.  1.
</event>
<event>
 4    1  0.3205520E-002  0.1732134E+03  0.7818608E-02  0.1174538E+00
          1   -1    0    0  502    0  0.00000000000E+00  0.00000000000E+00  0.40545509197E+03  0.40545509197E+03  0.00000000000E+00 0. -1.
         -1   -1    0    0    0  501 -0.00000000000E+00 -0.00000000000E+00 -0.77841038536E+02  0.77841038536E+02  0.00000000000E+00 0.  1.
          6    1    1    2  502    0 -0.20422925595E+02 -0.13361006603E+01  0.21749960618E+03  0.27804488800E+03  0.17200000000E+03 0. -1.
         -6    1    1    2    0  501  0.20422925595E+02  0.13361006603E+01  0.11011444725E+03  0.20525124250E+03  0.17200000000E+03 0.  1.
</event>
<event>
 4    1  0.3205520E-002  0.2790305E+03  0.7818608E-02  0.1096220E+00
          2   -1    0    0  502    0  0.00000000000E+00  0.00000000000E+00  0.75700382288E+03  0.75700382288E+03  0.00000000000E+00 0. -1.
         -2   -1    0    0    0  501 -0.00000000000E+00 -0.00000000000E+00 -0.17202696563E+03  0.17202696563E+03  0.00000000000E+00 0.  1.
          6    1    1    2  502    0 -0.15018977374E+03  0.16036537044E+03  0.58705391970E+03  0.64999255750E+03  0.17200000000E+03 0. -1.
         -6    1    1    2    0  501  0.15018977374E+03 -0.16036537044E+03 -0.20770624465E+01  0.27903823101E+03  0.17200000000E+03 0.  1.
</event>
<event>
 4    1  0.3205520E-002  0.2214350E+03  0.7818608E-02  0.1132818E+00
         -3   -1    0    0    0  501 -0.00000000000E+00  0.00000000000E+00  0.10145026525E+03  0.10145026525E+03  0.00000000000E+00 0.  1.
          3   -1    0    0  502    0  0.00000000000E+00 -0.00000000000E+00 -0.59069293399E+03  0.59069293399E+03  0.00000000000E+00 0. -1.
          6    1    1    2  502    0  0.12140764022E+03 -0.68626789333E+02 -0.39216559941E+03  0.45036352947E+03  0.17200000000E+03 0. -1.
         -6    1    1    2    0  501 -0.12140764022E+03  0.68626789333E+02 -0.97077069331E+02  0.24177966976E+03  0.17200000000E+03 0.  1.
</event>
<event>
 4    1  0.3205520E-002  0.2033044E+03  0.7818608E-02  0.1146981E+00
         -1   -1    0    0    0  501 -0.00000000000E+00  0.00000000000E+00  0.21539419785E+03  0.21539419785E+03  0.00000000000E+00 0.  1.
          1   -1    0    0  502    0  0.00000000000E+00 -0.00000000000E+00 -0.29738243943E+03  0.29738243943E+03  0.00000000000E+00 0. -1.
          6    1    1    2  502    0 -0.92518640085E+02  0.56470924843E+02  0.11170791425E+03  0.23197267559E+03  0.17200000000E+03 0.  1.
         -6    1    1    2    0  501  0.92518640085E+02 -0.56470924843E+02 -0.19369615583E+03  0.28080396169E+03  0.17200000000E+03 0.  1.
</event>
<event>
 4    1  0.3205520E-002  0.4486341E+03  0.7818608E-02  0.1028130E+00
          2   -1    0    0  502    0  0.00000000000E+00  0.00000000000E+00  0.12384772584E+04  0.12384772584E+04  0.00000000000E+00 0. -1.
         -2   -1    0    0    0  501 -0.00000000000E+00 -0.00000000000E+00 -0.22220074456E+03  0.22220074456E+03  0.00000000000E+00 0.  1.
          6    1    1    2  502    0  0.37769949501E+03 -0.17038664091E+03  0.88665315685E+03  0.99369328089E+03  0.17200000000E+03 0. -1.
         -6    1    1    2    0  501 -0.37769949501E+03  0.17038664091E+03  0.12962335695E+03  0.46698472202E+03  0.17200000000E+03 0.  1.
</event>
<event>
 4    1  0.3205520E-002  0.1777886E+03  0.7818608E-02  0.1169961E+00
         -2   -1    0    0    0  501 -0.00000000000E+00  0.00000000000E+00  0.17700008451E+02  0.17700008451E+02  0.00000000000E+00 0.  1.
          2   -1    0    0  502    0  0.00000000000E+00 -0.00000000000E+00 -0.18645321425E+04  0.18645321425E+04  0.00000000000E+00 0. -1.
          6    1    1    2  502    0  0.30680370171E+01 -0.44892736210E+02 -0.73003257229E+03  0.75136963421E+03  0.17200000000E+03 0.  1.
         -6    1    1    2    0  501 -0.30680370171E+01  0.44892736210E+02 -0.11167995618E+04  0.11308625167E+04  0.17200000000E+03 0. -1.
</event>
<event>
 4    1  0.3205520E-002  0.1895075E+03  0.7818608E-02  0.1158906E+00
          4   -1    0    0  502    0  0.00000000000E+00  0.00000000000E+00  0.55734519338E+03  0.55734519338E+03  0.00000000000E+00 0. -1.
         -4   -1    0    0    0  501 -0.00000000000E+00 -0.00000000000E+00 -0.65833144824E+02  0.65833144824E+02  0.00000000000E+00 0.  1.
          6    1    1    2  502    0  0.75870224152E+02 -0.23933570221E+02  0.29114783113E+03  0.34739050975E+03  0.17200000000E+03 0. -1.
         -6    1    1    2    0  501 -0.75870224152E+02  0.23933570221E+02  0.20036421743E+03  0.27578782845E+03  0.17200000000E+03 0.  1.
</event>
<event>
 4    1  0.3205520E-002  0.2171720E+03  0.7818608E-02  0.1136009E+00
         -2   -1    0    0    0  501 -0.00000000000E+00  0.00000000000E+00  0.28520016834E+03  0.28520016834E+03  0.00000000000E+00 0.  1.
          2   -1    0    0  502    0  0.00000000000E+00 -0.00000000000E+00 -0.56528773089E+03  0.56528773089E+03  0.00000000000E+00 0. -1.
          6    1    1    2  502    0  0.12921172779E+03  0.29732596714E+02 -0.49771864067E+03  0.54303548980E+03  0.17200000000E+03 0. -1.
         -6    1    1    2    0  501 -0.12921172779E+03 -0.29732596714E+02  0.21763107812E+03  0.30745240944E+03  0.17200000000E+03 0.  1.
</event>
<event>
 4    1  0.3205520E-002  0.4994346E+03  0.7818608E-02  0.1013927E+00
         -2   -1    0    0    0  501 -0.00000000000E+00  0.00000000000E+00  0.14014726233E+03  0.14014726233E+03  0.00000000000E+00 0.  1.
          2   -1    0    0  502    0  0.00000000000E+00 -0.00000000000E+00 -0.21960265155E+04  0.21960265155E+04  0.00000000000E+00 0. -1.
          6    1    1    2  502    0 -0.44055839719E+03  0.16049669562E+03 -0.51940763608E+03  0.72056865256E+03  0.17200000000E+03 0. -1.
         -6    1    1    2    0  501  0.44055839719E+03 -0.16049669562E+03 -0.15364716171E+04  0.16156051253E+04  0.17200000000E+03 0.  1.
</event>
<event>
 4    1  0.3205520E-002  0.1745509E+03  0.7818608E-02  0.1173183E+00
         -2   -1    0    0    0  501 -0.00000000000E+00  0.00000000000E+00  0.15757314319E+03  0.15757314319E+03  0.00000000000E+00 0.  1.
          2   -1    0    0  502    0  0.00000000000E+00 -0.00000000000E+00 -0.26514585148E+03  0.26514585148E+03  0.00000000000E+00 0. -1.
          6    1    1    2  502    0  0.27183803484E+02  0.12043784671E+02 -0.16376418060E+03  0.23934644089E+03  0.17200000000E+03 0. -1.
         -6    1    1    2    0  501 -0.27183803484E+02 -0.12043784671E+02  0.56191472304E+02  0.18337255378E+03  0.17200000000E+03 0.  1.
</event>
<event>
 4    1  0.3205520E-002  0.2410134E+03  0.7818608E-02  0.1119120E+00
          2   -1    0    0  502    0  0.00000000000E+00  0.00000000000E+00  0.17855386887E+04  0.17855386887E+04  0.00000000000E+00 0. -1.
         -2   -1    0    0    0  501 -0.00000000000E+00 -0.00000000000E+00 -0.47573318439E+02  0.47573318439E+02  0.00000000000E+00 0.  1.
          6    1    1    2  502    0 -0.16829855457E+03  0.13381436297E+02  0.13843509061E+04  0.14051743300E+04  0.17200000000E+03 0. -1.
         -6    1    1    2    0  501  0.16829855457E+03 -0.13381436297E+02  0.35361446420E+03  0.42793767723E+03  0.17200000000E+03 0.  1.
</event>
<event>
 4    1  0.3205520E-002  0.1801847E+03  0.7818608E-02  0.1167624E+00
          2   -1    0    0  502    0  0.00000000000E+00  0.00000000000E+00  0.12678940459E+04  0.12678940459E+04  0.00000000000E+00 0. -1.
         -2   -1    0    0    0  501 -0.00000000000E+00 -0.00000000000E+00 -0.25713456365E+02  0.25713456365E+02  0.00000000000E+00 0.  1.
          6    1    1    2  502    0  0.36602692002E+02 -0.39278092415E+02  0.66277535086E+03  0.68683163243E+03  0.17200000000E+03 0. -1.
         -6    1    1    2    0  501 -0.36602692002E+02  0.39278092415E+02  0.57940523869E+03  0.60677586984E+03  0.17200000000E+03 0. -1.
</event>
<event>
 4    1  0.3205520E-002  0.2408068E+03  0.7818608E-02  0.1119257E+00
          2   -1    0    0  502    0  0.00000000000E+00  0.00000000000E+00  0.10785292882E+04  0.10785292882E+04  0.00000000000E+00 0. -1.
         -2   -1    0    0    0  501 -0.00000000000E+00 -0.00000000000E+00 -0.68324687997E+02  0.68324687997E+02  0.00000000000E+00 0.  1.
          6    1    1    2  502    0  0.60959522012E+02  0.15712364069E+03  0.76980271547E+03  0.80658795089E+03  0.17200000000E+03 0. -1.
         -6    1    1    2    0  501 -0.60959522012E+02 -0.15712364069E+03  0.24040188473E+03  0.34026602529E+03  0.17200000000E+03 0.  1.
</event>
<event>
 4    1  0.3205520E-002  0.6112039E+03  0.7818608E-02  0.9882430E-01
         -1   -1    0    0    0  501 -0.00000000000E+00  0.00000000000E+00  0.17149127687E+03  0.17149127687E+03  0.00000000000E+00 0.  1.
          1   -1    0    0  502    0  0.00000000000E+00 -0.00000000000E+00 -0.22405876732E+04  0.22405876732E+04  0.00000000000E+00 0. -1.
          6    1    1    2  502    0  0.33914419362E+03  0.47850546683E+03 -0.12355322464E+04  0.13784448476E+04  0.17200000000E+03 0. -1.
         -6    1    1    2    0  501 -0.33914419362E+03 -0.47850546683E+03 -0.83356414993E+03  0.10336341025E+04  0.17200000000E+03 0.  1.
</event>
<event>
 4    1  0.3205520E-002  0.2306241E+03  0.7818608E-02  0.1126201E+00
          1   -1    0    0  502    0  0.00000000000E+00  0.00000000000E+00  0.27532375329E+03  0.27532375329E+03  0.00000000000E+00 0. -1.
         -1   -1    0    0    0  501 -0.00000000000E+00 -0.00000000000E+00 -0.21410045817E+03  0.21410045817E+03  0.00000000000E+00 0.  1.
          6    1    1    2  502    0  0.12068978336E+03  0.95065498721E+02  0.10710365045E+03  0.25428068113E+03  0.17200000000E+03 0. -1.
         -6    1    1    2    0  501 -0.12068978336E+03 -0.95065498721E+02 -0.45880355332E+02  0.23514353034E+03  0.17200000000E+03 0.  1.
</event>
<event>
 4    1  0.3205520E-002  0.2009007E+03  0.7818608E-02  0.1148981E+00
          2   -1    0    0  502    0  0.00000000000E+00  0.00000000000E+00  0.32329326283E+04  0.32329326283E+04  0.00000000000E+00 0. -1.
         -2   -1    0    0    0  501 -0.00000000000E+00 -0.00000000000E+00 -0.25987305845E+02  0.25987305845E+02  0.00000000000E+00 0.  1.
          6    1    1    2  502    0 -0.10379473825E+03 -0.19384159709E+01  0.27780382622E+04  0.27852931069E+04  0.17200000000E+03 0. -1.
         -6    1    1    2    0  501  0.10379473825E+03  0.19384159709E+01  0.42890706029E+03  0.47362682727E+03  0.17200000000E+03 0.  1.
</event>
<event>
 4    1  0.3205520E-002  0.1801985E+03  0.7818608E-02  0.1167611E+00
          2   -1    0    0  502    0  0.00000000000E+00  0.00000000000E+00  0.91951936384E+02  0.91951936384E+02  0.00000000000E+00 0. -1.
         -2   -1    0    0    0  501 -0.00000000000E+00 -0.00000000000E+00 -0.36140619790E+03  0.36140619790E+03  0.00000000000E+00 0.  1.
          6    1    1    2  502    0 -0.51972354365E+02 -0.13651434912E+02 -0.16901861916E+03  0.24706027790E+03  0.17200000000E+03 0.  1.
         -6    1    1    2    0  501  0.51972354365E+02  0.13651434912E+02 -0.10043564236E+03  0.20629785638E+03  0.17200000000E+03 0.  1.
</event>
<event>
 4    1  0.3205520E-002  0.2920305E+03  0.7818608E-02  0.1089294E+00
         -1   -1    0    0    0  501 -0.00000000000E+00  0.00000000000E+00  0.62831600153E+02  0.62831600153E+02  0.00000000000E+00 0.  1.
          1   -1    0    0  502    0  0.00000000000E+00 -0.00000000000E+00 -0.16750908559E+04  0.16750908559E+04  0.00000000000E+00 0. -1.
          6    1    1    2  502    0 -0.18388947968E+03 -0.14792722549E+03 -0.42764629454E+03  0.51784472384E+03  0.17200000000E+03 0. -1.
         -6    1    1    2    0  501  0.18388947968E+03  0.14792722549E+03 -0.11846129612E+04  0.12200777322E+04  0.17200000000E+03 0.  1.
</event>
<event>
 4    1  0.3205520E-002  0.2455201E+03  0.7818608E-02  0.1116169E+00
         -1   -1    0    0    0  501 -0.00000000000E+00  0.00000000000E+00  0.28202929527E+03  0.28202929527E+03  0.00000000000E+00 0.  1.
          1   -1    0    0  502    0  0.00000000000E+00 -0.00000000000E+00 -0.21799504217E+03  0.21799504217E+03  0.00000000000E+00 0. -1.
          6    1    1    2  502    0  0.12847326355E+03 -0.11912486399E+03 -0.29242259154E+01  0.24553749971E+03  0.17200000000E+03 0. -1.
         -6    1    1    2    0  501 -0.12847326355E+03  0.11912486399E+03  0.66958479018E+02  0.25448683773E+03  0.17200000000E+03 0.  1.
</event>
<event>
 4    1  0.3205520E-002  0.2240865E+03  0.7818608E-02  0.1130873E+00
         -2   -1    0    0    0  501 -0.00000000000E+00  0.00000000000E+00  0.32220894902E+03  0.32220894902E+03  0.00000000000E+00 0.  1.
          2   -1    0    0  502    0  0.00000000000E+00 -0.00000000000E+00 -0.16706837347E+03  0.16706837347E+03  0.00000000000E+00 0. -1.
          6    1    1    2  502    0  0.12245427711E+03  0.75071274275E+02  0.14097683720E+03  0.26474367760E+03  0.17200000000E+03 0. -1.
         -6    1    1    2    0  501 -0.12245427711E+03 -0.75071274275E+02  0.14163738361E+02  0.22453364489E+03  0.17200000000E+03 0. -1.
</event>
<event>
 4    1  0.3205520E-002  0.4071862E+03  0.7818608E-02  0.1041319E+00
         -1   -1    0    0    0  501 -0.00000000000E+00  0.00000000000E+00  0.16752754461E+04  0.16752754461E+04  0.00000000000E+00 0.  1.
          1   -1    0    0  502    0  0.00000000000E+00 -0.00000000000E+00 -0.43179276023E+03  0.43179276023E+03  0.00000000000E+00 0. -1.
          6    1    1    2  502    0 -0.36858272798E+03 -0.19062394231E+02 -0.30320806313E+03  0.50767679855E+03  0.17200000000E+03 0. -1.
         -6    1    1    2    0  501  0.36858272798E+03  0.19062394231E+02  0.15466907490E+04  0.15993914078E+04  0.17200000000E+03 0.  1.
</event>
<event>
 4    1  0.3205520E-002  0.2214802E+03  0.7818608E-02  0.1132784E+00
          1   -1    0    0  502    0  0.00000000000E+00  0.00000000000E+00  0.11320960815E+04  0.11320960815E+04  0.00000000000E+00 0. -1.
         -1   -1    0    0    0  501 -0.00000000000E+00 -0.00000000000E+00 -0.48623245130E+02  0.48623245130E+02  0.00000000000E+00 0.  1.
          6    1    1    2  502    0  0.62052821013E+02 -0.12497571972E+03  0.34694742646E+03  0.41161389656E+03  0.17200000000E+03 0. -1.
         -6    1    1    2    0  501 -0.62052821013E+02  0.12497571972E+03  0.73652540991E+03  0.76910543007E+03  0.17200000000E+03 0. -1.
</event>
<event>
 4    1  0.3205520E-002  0.3058105E+03  0.7818608E-02  0.1082372E+00
         -4   -1    0    0    0  501 -0.00000000000E+00  0.00000000000E+00  0.10620571206E+03  0.10620571206E+03  0.00000000000E+00 0.  1.
          4   -1    0    0  502    0  0.00000000000E+00 -0.00000000000E+00 -0.99129571418E+03  0.99129571418E+03  0.00000000000E+00 0. -1.
          6    1    1    2  502    0 -0.24515234761E+03  0.61938722368E+02 -0.62595590353E+03  0.69666410273E+03  0.17200000000E+03 0. -1.
         -6    1    1    2    0  501  0.24515234761E+03 -0.61938722368E+02 -0.25913409859E+03  0.40083732351E+03  0.17200000000E+03 0.  1.
</event>
<event>
 4    1  0.3205520E-002  0.2490388E+03  0.7818608E-02  0.1113914E+00
         -1   -1    0    0    0  501 -0.00000000000E+00  0.00000000000E+00  0.20664532285E+03  0.20664532285E+03  0.00000000000E+00 0.  1.
          1   -1    0    0  502    0  0.00000000000E+00 -0.00000000000E+00 -0.30267581426E+03  0.30267581426E+03  0.00000000000E+00 0. -1.
          6    1    1    2  502    0  0.17948712590E+03 -0.14855220946E+02 -0.71374021972E+02  0.25906477369E+03  0.17200000000E+03 0. -1.
         -6    1    1    2    0  501 -0.17948712590E+03  0.14855220946E+02 -0.24656469436E+02  0.25025636343E+03  0.17200000000E+03 0.  1.
</event>
<event>
 4    1  0.3205520E-002  0.2541651E+03  0.7818608E-02  0.1110700E+00
          2   -1    0    0  502    0  0.00000000000E+00  0.00000000000E+00  0.11159572546E+04  0.11159572546E+04  0.00000000000E+00 0. -1.
         -2   -1    0    0    0  501 -0.00000000000E+00 -0.00000000000E+00 -0.11334215197E+03  0.11334215197E+03  0.00000000000E+00 0.  1.
          6    1    1    2  502    0  0.34613845998E+02 -0.18389616889E+03  0.93124090538E+03  0.96530282457E+03  0.17200000000E+03 0. -1.
         -6    1    1    2    0  501 -0.34613845998E+02  0.18389616889E+03  0.71374197225E+02  0.26399658198E+03  0.17200000000E+03 0.  1.
</event>
<event>
 4    1  0.3205520E-002  0.3476701E+03  0.7818608E-02  0.1063575E+00
          1   -1    0    0  502    0  0.00000000000E+00  0.00000000000E+00  0.25960890056E+03  0.25960890056E+03  0.00000000000E+00 0. -1.
         -1   -1    0    0    0  501 -0.00000000000E+00 -0.00000000000E+00 -0.60400662779E+03  0.60400662779E+03  0.00000000000E+00 0.  1.
          6    1    1    2  502    0 -0.11372470041E+03 -0.27992353368E+03 -0.37890077115E+03  0.51423757794E+03  0.17200000000E+03 0.  1.
         -6    1    1    2    0  501  0.11372470041E+03  0.27992353368E+03  0.34503043932E+02  0.34937795041E+03  0.17200000000E+03 0. -1.
</event>
<event>
 4    1  0.3205520E-002  0.1978396E+03  0.7818608E-02  0.1151575E+00
          1   -1    0    0  502    0  0.00000000000E+00  0.00000000000E+00  0.54187733285E+03  0.54187733285E+03  0.00000000000E+00 0. -1.
         -1   -1    0    0    0  501 -0.00000000000E+00 -0.00000000000E+00 -0.68883592595E+03  0.68883592595E+03  0.00000000000E+00 0.  1.
          6    1    1    2  502    0 -0.39640639961E+02 -0.89359638432E+02  0.50872092258E+03  0.54583651617E+03  0.17200000000E+03 0. -1.
         -6    1    1    2    0  501  0.39640639961E+02  0.89359638432E+02 -0.65567951568E+03  0.68487674263E+03  0.17200000000E+03 0.  1.
</event>
<event>
 4    1  0.3205520E-002  0.3575555E+03  0.7818608E-02  0.1059556E+00
          2   -1    0    0  502    0  0.00000000000E+00  0.00000000000E+00  0.97693976327E+03  0.97693976327E+03  0.00000000000E+00 0. -1.
         -2   -1    0    0    0  501 -0.00000000000E+00 -0.00000000000E+00 -0.26419808609E+03  0.26419808609E+03  0.00000000000E+00 0.  1.
          6    1    1    2  502    0  0.26360205553E+03 -0.16963456325E+03  0.79722638848E+03  0.87373671276E+03  0.17200000000E+03 0. -1.
         -6    1    1    2    0  501 -0.26360205553E+03  0.16963456325E+03 -0.84484711298E+02  0.36740113660E+03  0.17200000000E+03 0.  1.
</event>
<event>
 4    1  0.3205520E-002  0.2383471E+03  0.7818608E-02  0.1120899E+00
          2   -1    0    0  502    0  0.00000000000E+00  0.00000000000E+00  0.24007207788E+04  0.24007207788E+04  0.00000000000E+00 0. -1.
         -2   -1    0    0    0  501 -0.00000000000E+00 -0.00000000000E+00 -0.25131541634E+02  0.25131541634E+02  0.00000000000E+00 0.  1.
          6    1    1    2  502    0  0.94855843064E+01  0.16472809341E+03  0.14809529943E+04  0.15000103641E+04  0.17200000000E+03 0. -1.
         -6    1    1    2    0  501 -0.94855843064E+01 -0.16472809341E+03  0.89463624286E+03  0.92584195633E+03  0.17200000000E+03 0.  1.
</event>
<event>
 4    1  0.3205520E-002  0.5697375E+03  0.7818608E-02  0.9970260E-01
          1   -1    0    0  502    0  0.00000000000E+00  0.00000000000E+00  0.23848235033E+04  0.23848235033E+04  0.00000000000E+00 0. -1.
         -1   -1    0    0    0  501 -0.00000000000E+00 -0.00000000000E+00 -0.27630247733E+03  0.27630247733E+03  0.00000000000E+00 0.  1.
          6    1    1    2  502    0  0.46140373854E+03  0.28657185835E+03  0.20020322920E+04  0.20815220724E+04  0.17200000000E+03 0. -1.
         -6    1    1    2    0  501 -0.46140373854E+03 -0.28657185835E+03  0.10648873401E+03  0.57960390820E+03  0.17200000000E+03 0.  1.
</event>
<event>
 4    1  0.3205520E-002  0.3021291E+03  0.7818608E-02  0.1084181E+00
          2   -1    0    0  502    0  0.00000000000E+00  0.00000000000E+00  0.11722216062E+04  0.11722216062E+04  0.00000000000E+00 0. -1.
         -2   -1    0    0    0  501 -0.00000000000E+00 -0.00000000000E+00 -0.98820569762E+02  0.98820569762E+02  0.00000000000E+00 0.  1.
          6    1    1    2  502    0  0.20238798751E+03 -0.14400382174E+03  0.82931409117E+03  0.88263461295E+03  0.17200000000E+03 0. -1.
         -6    1    1    2    0  501 -0.20238798751E+03  0.14400382174E+03  0.24408694530E+03  0.38840756304E+03  0.17200000000E+03 0.  1.
</event>
<event>
 4    1  0.3205520E-002  0.2407560E+03  0.7818608E-02  0.1119290E+00
         -1   -1    0    0    0  501 -0.00000000000E+00  0.00000000000E+00  0.81642466548E+02  0.81642466548E+02  0.00000000000E+00 0.  1.
          1   -1    0    0  502    0  0.00000000000E+00 -0.00000000000E+00 -0.72212701063E+03  0.72212701063E+03  0.00000000000E+00 0. -1.
          6    1    1    2  502    0 -0.12782812468E+03  0.10972430356E+03 -0.37239328471E+03  0.44344132729E+03  0.17200000000E+03 0.  1.
         -6    1    1    2    0  501  0.12782812468E+03 -0.10972430356E+03 -0.26809125937E+03  0.36032814989E+03  0.17200000000E+03 0. -1.
</event>
<event>
 4    1  0.3205520E-002  0.3376434E+03  0.7818608E-02  0.1067804E+00
         -2   -1    0    0    0  501 -0.00000000000E+00  0.00000000000E+00  0.17444995388E+03  0.17444995388E+03  0.00000000000E+00 0.  1.
          2   -1    0    0  502    0  0.00000000000E+00 -0.00000000000E+00 -0.83997512037E+03  0.83997512037E+03  0.00000000000E+00 0. -1.
          6    1    1    2  502    0  0.20775058240E+03  0.20312247763E+03 -0.57174569564E+03  0.66400013998E+03  0.17200000000E+03 0. -1.
         -6    1    1    2    0  501 -0.20775058240E+03 -0.20312247763E+03 -0.93779470853E+02  0.35042493427E+03  0.17200000000E+03 0.  1.
</event>
<event>
 4    1  0.3205520E-002  0.8304543E+03  0.7818608E-02  0.9516953E-01
          1   -1    0    0  502    0  0.00000000000E+00  0.00000000000E+00  0.95250900881E+03  0.95250900881E+03  0.00000000000E+00 0. -1.
         -1   -1    0    0    0  501 -0.00000000000E+00 -0.00000000000E+00 -0.10403691096E+04  0.10403691096E+04  0.00000000000E+00 0.  1.
          6    1    1    2  502    0  0.35882857527E+02  0.81165430687E+03 -0.59337835225E+03  0.10206626094E+04  0.17200000000E+03 0. -1.
         -6    1    1    2    0  501 -0.35882857527E+02 -0.81165430687E+03  0.50551825147E+03  0.97221550898E+03  0.17200000000E+03 0.  1.
</event>
<event>
 4    1  0.3205520E-002  0.2734894E+03  0.7818608E-02  0.1099299E+00
          1   -1    0    0  502    0  0.00000000000E+00  0.00000000000E+00  0.17534268604E+04  0.17534268604E+04  0.00000000000E+00 0. -1.
         -1   -1    0    0    0  501 -0.00000000000E+00 -0.00000000000E+00 -0.60355707467E+02  0.60355707467E+02  0.00000000000E+00 0.  1.
          6    1    1    2  502    0 -0.21109905789E+03 -0.25488339413E+02  0.13376278098E+04  0.13653001960E+04  0.17200000000E+03 0. -1.
         -6    1    1    2    0  501  0.21109905789E+03  0.25488339413E+02  0.35544334315E+03  0.44848237187E+03  0.17200000000E+03 0.  1.
</event>
<event>
 4    1  0.3205520E-002  0.1725773E+03  0.7818608E-02  0.1175186E+00
         -2   -1    0    0    0  501 -0.00000000000E+00  0.00000000000E+00  0.81040140037E+02  0.81040140037E+02  0.00000000000E+00 0.  1.
          2   -1    0    0  502    0  0.00000000000E+00 -0.00000000000E+00 -0.38369828471E+03  0.38369828471E+03  0.00000000000E+00 0. -1.
          6    1    1    2  502    0  0.11707164649E+02 -0.78662533806E+01 -0.10359758529E+03  0.20128436433E+03  0.17200000000E+03 0.  1.
         -6    1    1    2    0  501 -0.11707164649E+02  0.78662533806E+01 -0.19906055938E+03  0.26345406041E+03  0.17200000000E+03 0. -1.
</event>
<event>
 4    1  0.3205520E-002  0.1754643E+03  0.7818608E-02  0.1172266E+00
          2   -1    0    0  502    0  0.00000000000E+00  0.00000000000E+00  0.39990873540E+04  0.39990873540E+04  0.00000000000E+00 0. -1.
         -2   -1    0    0    0  501 -0.00000000000E+00 -0.00000000000E+00 -0.79266393930E+01  0.79266393930E+01  0.00000000000E+00 0.  1.
          6    1    1    2  502    0 -0.23317646682E+01 -0.34616063020E+02  0.23353397396E+04  0.23419221610E+04  0.17200000000E+03 0.  1.
         -6    1    1    2    0  501  0.23317646682E+01  0.34616063020E+02  0.16558209750E+04  0.16650918324E+04  0.17200000000E+03 0.  1.
</event>
<event>
 4    1  0.3205520E-002  0.2068063E+03  0.7818608E-02  0.1144120E+00
         -2   -1    0    0    0  501 -0.00000000000E+00  0.00000000000E+00  0.12764313637E+03  0.12764313637E+03  0.00000000000E+00 0.  1.
          2   -1    0    0  502    0  0.00000000000E+00 -0.00000000000E+00 -0.11412105721E+04  0.11412105721E+04  0.00000000000E+00 0. -1.
          6    1    1    2  502    0 -0.95298198964E+02  0.64055352071E+02 -0.10400022274E+04  0.10603647806E+04  0.17200000000E+03 0. -1.
         -6    1    1    2    0  501  0.95298198964E+02 -0.64055352071E+02  0.26434791665E+02  0.20848892792E+03  0.17200000000E+03 0.  1.
</event>
<event>
 4    1  0.3205520E-002  0.1798050E+03  0.7818608E-02  0.1167992E+00
         -3   -1    0    0    0  501 -0.00000000000E+00  0.00000000000E+00  0.97345328552E+03  0.97345328552E+03  0.00000000000E+00 0.  1.
          3   -1    0    0  502    0  0.00000000000E+00 -0.00000000000E+00 -0.21799948168E+03  0.21799948168E+03  0.00000000000E+00 0. -1.
          6    1    1    2  502    0  0.48569869459E+02 -0.19667628493E+02 -0.17074699101E+03  0.24796044598E+03  0.17200000000E+03 0. -1.
         -6    1    1    2    0  501 -0.48569869459E+02  0.19667628493E+02  0.92620079485E+03  0.94349232123E+03  0.17200000000E+03 0.  1.
</event>
<event>
 4    1  0.3205520E-002  0.2243708E+03  0.7818608E-02  0.1130666E+00
         -1   -1    0    0    0  501 -0.00000000000E+00  0.00000000000E+00  0.11210427525E+03  0.11210427525E+03  0.00000000000E+00 0.  1.
          1   -1    0    0  502    0  0.00000000000E+00 -0.00000000000E+00 -0.45677938173E+03  0.45677938173E+03  0.00000000000E+00 0. -1.
          6    1    1    2  502    0 -0.12822153495E+03 -0.65707623643E+02 -0.20929940729E+03  0.30683626858E+03  0.17200000000E+03 0. -1.
         -6    1    1    2    0  501  0.12822153495E+03  0.65707623643E+02 -0.13537569920E+03  0.26204738839E+03  0.17200000000E+03 0. -1.
</event>
<event>
 4    1  0.3205520E-002  0.2243241E+03  0.7818608E-02  0.1130700E+00
         -1   -1    0    0    0  501 -0.00000000000E+00  0.00000000000E+00  0.37722199241E+02  0.37722199241E+02  0.00000000000E+00 0.  1.
          1   -1    0    0  502    0  0.00000000000E+00 -0.00000000000E+00 -0.13344861564E+04  0.13344861564E+04  0.00000000000E+00 0. -1.
          6    1    1    2  502    0  0.14287894459E+03 -0.17969937219E+02 -0.63525002283E+03  0.67369422067E+03  0.17200000000E+03 0.  1.
         -6    1    1    2    0  501 -0.14287894459E+03  0.17969937219E+02 -0.66151393433E+03  0.69851413498E+03  0.17200000000E+03 0.  1.
</event>
<event>
 4    1  0.3205520E-002  0.2432459E+03  0.7818608E-02  0.1117649E+00
         -1   -1    0    0    0  501 -0.00000000000E+00  0.00000000000E+00  0.77754448131E+02  0.77754448131E+02  0.00000000000E+00 0.  1.
          1   -1    0    0  502    0  0.00000000000E+00 -0.00000000000E+00 -0.82420362931E+03  0.82420362931E+03  0.00000000000E+00 0. -1.
          6    1    1    2  502    0  0.16632088329E+03 -0.43839959648E+02 -0.24830715858E+03  0.34759894028E+03  0.17200000000E+03 0. -1.
         -6    1    1    2    0  501 -0.16632088329E+03  0.43839959648E+02 -0.49814202260E+03  0.55435913716E+03  0.17200000000E+03 0. -1.
</event>
<event>
 4    1  0.3205520E-002  0.1806045E+03  0.7818608E-02  0.1167219E+00
         -2   -1    0    0    0  501 -0.00000000000E+00  0.00000000000E+00  0.21718397734E+02  0.21718397734E+02  0.00000000000E+00 0.  1.
          2   -1    0    0  502    0  0.00000000000E+00 -0.00000000000E+00 -0.20182376749E+04  0.20182376749E+04  0.00000000000E+00 0. -1.
          6    1    1    2  502    0 -0.35961793126E+02 -0.41722151795E+02 -0.15141869015E+04  0.15249196573E+04  0.17200000000E+03 0. -1.
         -6    1    1    2    0  501  0.35961793126E+02  0.41722151795E+02 -0.48233237568E+03  0.51503641536E+03  0.17200000000E+03 0.  1.
</event>
<event>
 4    1  0.3205520E-002  0.3325002E+03  0.7818608E-02  0.1070036E+00
         -2   -1    0    0    0  501 -0.00000000000E+00  0.00000000000E+00  0.39139177549E+03  0.39139177549E+03  0.00000000000E+00 0.  1.
          2   -1    0    0  502    0  0.00000000000E+00 -0.00000000000E+00 -0.35369409987E+03  0.35369409987E+03  0.00000000000E+00 0. -1.
          6    1    1    2  502    0 -0.15268137449E+03  0.24012665946E+03 -0.14832798556E+03  0.36408461379E+03  0.17200000000E+03 0. -1.
         -6    1    1    2    0  501  0.15268137449E+03 -0.24012665946E+03  0.18602566118E+03  0.38100126157E+03  0.17200000000E+03 0.  1.
</event>
<event>
 4    1  0.3205520E-002  0.2802405E+03  0.7818608E-02  0.1095558E+00
          2   -1    0    0  502    0  0.00000000000E+00  0.00000000000E+00  0.75670848894E+03  0.75670848894E+03  0.00000000000E+00 0. -1.
         -2   -1    0    0    0  501 -0.00000000000E+00 -0.00000000000E+00 -0.14071788511E+03  0.14071788511E+03  0.00000000000E+00 0.  1.
          6    1    1    2  502    0  0.14202421655E+03 -0.16964624533E+03  0.53787618202E+03  0.60650269070E+03  0.17200000000E+03 0. -1.
         -6    1    1    2    0  501 -0.14202421655E+03  0.16964624533E+03  0.78114421807E+02  0.29092368335E+03  0.17200000000E+03 0.  1.
</event>
<event>
 4    1  0.3205520E-002  0.1982677E+03  0.7818608E-02  0.1151209E+00
         -2   -1    0    0    0  501 -0.00000000000E+00  0.00000000000E+00  0.11126563811E+03  0.11126563811E+03  0.00000000000E+00 0.  1.
          2   -1    0    0  502    0  0.00000000000E+00 -0.00000000000E+00 -0.15778462653E+04  0.15778462653E+04  0.00000000000E+00 0. -1.
          6    1    1    2  502    0 -0.31134000120E+02 -0.93577534931E+02 -0.14773089134E+04  0.14905541609E+04  0.17200000000E+03 0. -1.
         -6    1    1    2    0  501  0.31134000120E+02  0.93577534931E+02  0.10728286150E+02  0.19855774256E+03  0.17200000000E+03 0.  1.
</event>
<event>
 4    1  0.3205520E-002  0.2289574E+03  0.7818608E-02  0.1127376E+00
         -1   -1    0    0    0  501 -0.00000000000E+00  0.00000000000E+00  0.42774024922E+02  0.42774024922E+02  0.00000000000E+00 0.  1.
          1   -1    0    0  502    0  0.00000000000E+00 -0.00000000000E+00 -0.28235653588E+04  0.28235653588E+04  0.00000000000E+00 0. -1.
          6    1    1    2  502    0 -0.15023777088E+03  0.16312296709E+02 -0.31221909722E+03  0.38717211094E+03  0.17200000000E+03 0.  1.
         -6    1    1    2    0  501  0.15023777088E+03 -0.16312296709E+02 -0.24685722367E+04  0.24791672728E+04  0.17200000000E+03 0. -1.
</event>
<event>
 4    1  0.3205520E-002  0.4869972E+03  0.7818608E-02  0.1017230E+00
         -2   -1    0    0    0  501 -0.00000000000E+00  0.00000000000E+00  0.39886374002E+03  0.39886374002E+03  0.00000000000E+00 0.  1.
          2   -1    0    0  502    0  0.00000000000E+00 -0.00000000000E+00 -0.91807029611E+03  0.91807029611E+03  0.00000000000E+00 0. -1.
          6    1    1    2  502    0  0.34551159782E+03  0.29699156744E+03 -0.65045326770E+03  0.81256120312E+03  0.17200000000E+03 0. -1.
         -6    1    1    2    0  501 -0.34551159782E+03 -0.29699156744E+03  0.13124671161E+03  0.50437283300E+03  0.17200000000E+03 0.  1.
</event>
<event>
 4    1  0.3205520E-002  0.2159357E+03  0.7818608E-02  0.1136950E+00
          2   -1    0    0  502    0  0.00000000000E+00  0.00000000000E+00  0.14223473459E+04  0.14223473459E+04  0.00000000000E+00 0. -1.
         -2   -1    0    0    0  501 -0.00000000000E+00 -0.00000000000E+00 -0.37193401155E+02  0.37193401155E+02  0.00000000000E+00 0.  1.
          6    1    1    2  502    0  0.96642605086E+02 -0.87774960317E+02  0.94388842159E+03  0.96827350949E+03  0.17200000000E+03 0. -1.
         -6    1    1    2    0  501 -0.96642605086E+02  0.87774960317E+02  0.44126552317E+03  0.49126723758E+03  0.17200000000E+03 0.  1.
</event>
<event>
 4    1  0.3205520E-002  0.3255480E+03  0.7818608E-02  0.1073124E+00
          1   -1    0    0  502    0  0.00000000000E+00  0.00000000000E+00  0.13714617781E+03  0.13714617781E+03  0.00000000000E+00 0. -1.
         -1   -1    0    0    0  501 -0.00000000000E+00 -0.00000000000E+00 -0.80996636075E+03  0.80996636075E+03  0.00000000000E+00 0.  1.
          6    1    1    2  502    0  0.55661376700E+02 -0.27073847850E+03 -0.23491891164E+03  0.40145785288E+03  0.17200000000E+03 0. -1.
         -6    1    1    2    0  501 -0.55661376700E+02  0.27073847850E+03 -0.43790127130E+03  0.54565468568E+03  0.17200000000E+03 0.  1.
</event>
<event>
 4    1  0.3205520E-002  0.2610945E+03  0.7818608E-02  0.1106487E+00
          1   -1    0    0  502    0  0.00000000000E+00  0.00000000000E+00  0.11735991471E+03  0.11735991471E+03  0.00000000000E+00 0. -1.
         -1   -1    0    0    0  501 -0.00000000000E+00 -0.00000000000E+00 -0.60929815420E+03  0.60929815420E+03  0.00000000000E+00 0.  1.
          6    1    1    2  502    0 -0.18721402616E+03  0.59474894390E+02 -0.32445508077E+03  0.41646302848E+03  0.17200000000E+03 0. -1.
         -6    1    1    2    0  501  0.18721402616E+03 -0.59474894390E+02 -0.16748315871E+03  0.31019504043E+03  0.17200000000E+03 0.  1.
</event>
<event>
 4    1  0.3205520E-002  0.1815341E+03  0.7818608E-02  0.1166327E+00
         -1   -1    0    0    0  501 -0.00000000000E+00  0.00000000000E+00  0.22916274804E+03  0.22916274804E+03  0.00000000000E+00 0.  1.
          1   -1    0    0  502    0  0.00000000000E+00 -0.00000000000E+00 -0.20691394797E+03  0.20691394797E+03  0.00000000000E+00 0. -1.
          6    1    1    2  502    0  0.23252256397E+02  0.53197321812E+02 -0.10929192502E+03  0.21189466098E+03  0.17200000000E+03 0. -1.
         -6    1    1    2    0  501 -0.23252256397E+02 -0.53197321812E+02  0.13154072509E+03  0.22418203504E+03  0.17200000000E+03 0.  1.
</event>
<event>
 4    1  0.3205520E-002  0.2065005E+03  0.7818608E-02  0.1144368E+00
          2   -1    0    0  502    0  0.00000000000E+00  0.00000000000E+00  0.16552828571E+04  0.16552828571E+04  0.00000000000E+00 0. -1.
         -2   -1    0    0    0  501 -0.00000000000E+00 -0.00000000000E+00 -0.38068935121E+02  0.38068935121E+02  0.00000000000E+00 0.  1.
          6    1    1    2  502    0 -0.11374928490E+03  0.10934660434E+02  0.12900187309E+04  0.13064420357E+04  0.17200000000E+03 0. -1.
         -6    1    1    2    0  501  0.11374928490E+03 -0.10934660434E+02  0.32719519109E+03  0.38690975651E+03  0.17200000000E+03 0.  1.
</event>
<event>
 4    1  0.3205520E-002  0.1769096E+03  0.7818608E-02  0.1170828E+00
         -1   -1    0    0    0  501 -0.00000000000E+00  0.00000000000E+00  0.50139582684E+02  0.50139582684E+02  0.00000000000E+00 0.  1.
          1   -1    0    0  502    0  0.00000000000E+00 -0.00000000000E+00 -0.64657303177E+03  0.64657303177E+03  0.00000000000E+00 0. -1.
          6    1    1    2  502    0  0.39234978537E+02  0.13176236049E+02 -0.23341260453E+03  0.29287956687E+03  0.17200000000E+03 0.  1.
         -6    1    1    2    0  501 -0.39234978537E+02 -0.13176236049E+02 -0.36302084456E+03  0.40383304759E+03  0.17200000000E+03 0.  1.
</event>
<event>
 4    1  0.3205520E-002  0.4941633E+03  0.7818608E-02  0.1015314E+00
         -2   -1    0    0    0  501 -0.00000000000E+00  0.00000000000E+00  0.24444022580E+03  0.24444022580E+03  0.00000000000E+00 0.  1.
          2   -1    0    0  502    0  0.00000000000E+00 -0.00000000000E+00 -0.10008448087E+04  0.10008448087E+04  0.00000000000E+00 0. -1.
          6    1    1    2  502    0  0.47913384142E+02 -0.46077941070E+03 -0.35151695315E+03  0.60643344734E+03  0.17200000000E+03 0. -1.
         -6    1    1    2    0  501 -0.47913384142E+02  0.46077941070E+03 -0.40488762979E+03  0.63885158720E+03  0.17200000000E+03 0.  1.
</event>
<event>
 4    1  0.3205520E-002  0.3727082E+03  0.7818608E-02  0.1053662E+00
         -2   -1    0    0    0  501 -0.00000000000E+00  0.00000000000E+00  0.26548382512E+03  0.26548382512E+03  0.00000000000E+00 0.  1.
          2   -1    0    0  502    0  0.00000000000E+00 -0.00000000000E+00 -0.73045452576E+03  0.73045452576E+03  0.00000000000E+00 0. -1.
          6    1    1    2  502    0 -0.25410842882E+03  0.21155687132E+03 -0.49771212310E+03  0.62179479000E+03  0.17200000000E+03 0. -1.
         -6    1    1    2    0  501  0.25410842882E+03 -0.21155687132E+03  0.32741422464E+02  0.37414356087E+03  0.17200000000E+03 0.  1.
</event>
<event>
 4    1  0.3205520E-002  0.3908167E+03  0.7818608E-02  0.1047007E+00
         -2   -1    0    0    0  501 -0.00000000000E+00  0.00000000000E+00  0.58003347095E+03  0.58003347095E+03  0.00000000000E+00 0.  1.
          2   -1    0    0  502    0  0.00000000000E+00 -0.00000000000E+00 -0.21999725799E+04  0.21999725799E+04  0.00000000000E+00 0. -1.
          6    1    1    2  502    0  0.13719251198E+03  0.32300455311E+03 -0.21141339229E+04  0.21499534810E+04  0.17200000000E+03 0. -1.
         -6    1    1    2    0  501 -0.13719251198E+03 -0.32300455311E+03  0.49419481391E+03  0.63005256985E+03  0.17200000000E+03 0.  1.
</event>
<event>
 4    1  0.3205520E-002  0.1870200E+03  0.7818608E-02  0.1161177E+00
         -2   -1    0    0    0  501 -0.00000000000E+00  0.00000000000E+00  0.82710276044E+02  0.82710276044E+02  0.00000000000E+00 0.  1.
          2   -1    0    0  502    0  0.00000000000E+00 -0.00000000000E+00 -0.91226105388E+03  0.91226105388E+03  0.00000000000E+00 0. -1.
          6    1    1    2  502    0 -0.73185627174E+02  0.60292720110E+01 -0.77914718965E+03  0.80127824836E+03  0.17200000000E+03 0. -1.
         -6    1    1    2    0  501  0.73185627174E+02 -0.60292720110E+01 -0.50403588186E+02  0.19369308157E+03  0.17200000000E+03 0.  1.
</event>
<event>
 4    1  0.3205520E-002  0.4095935E+03  0.7818608E-02  0.1040508E+00
          2   -1    0    0  502    0  0.00000000000E+00  0.00000000000E+00  0.16877436130E+04  0.16877436130E+04  0.00000000000E+00 0. -1.
         -2   -1    0    0    0  501 -0.00000000000E+00 -0.00000000000E+00 -0.10049278185E+03  0.10049278185E+03  0.00000000000E+00 0.  1.
          6    1    1    2  502    0  0.17142162302E+03  0.32984456653E+03  0.70051603400E+03  0.81147367474E+03  0.17200000000E+03 0. -1.
         -6    1    1    2    0  501 -0.17142162302E+03 -0.32984456653E+03  0.88673479711E+03  0.97676272007E+03  0.17200000000E+03 0. -1.
</event>
<event>
 4    1  0.3205520E-002  0.1956956E+03  0.7818608E-02  0.1153422E+00
          3   -1    0    0  502    0  0.00000000000E+00  0.00000000000E+00  0.57428310970E+03  0.57428310970E+03  0.00000000000E+00 0. -1.
         -3   -1    0    0    0  501 -0.00000000000E+00 -0.00000000000E+00 -0.77487747105E+02  0.77487747105E+02  0.00000000000E+00 0.  1.
          6    1    1    2  502    0 -0.93328986176E+02  0.15689613786E+01  0.37006986485E+03  0.41862688181E+03  0.17200000000E+03 0. -1.
         -6    1    1    2    0  501  0.93328986176E+02 -0.15689613786E+01  0.12672549775E+03  0.23314397500E+03  0.17200000000E+03 0.  1.
</event>
<event>
 4    1  0.3205520E-002  0.1925550E+03  0.7818608E-02  0.1156177E+00
          2   -1    0    0  502    0  0.00000000000E+00  0.00000000000E+00  0.35510787221E+03  0.35510787221E+03  0.00000000000E+00 0. -1.
         -2   -1    0    0    0  501 -0.00000000000E+00 -0.00000000000E+00 -0.11577032508E+03  0.11577032508E+03  0.00000000000E+00 0.  1.
          6    1    1    2  502    0 -0.94520493441E+00  0.86559523019E+02  0.45922285217E+02  0.19795529980E+03  0.17200000000E+03 0. -1.
         -6    1    1    2    0  501  0.94520493441E+00 -0.86559523019E+02  0.19341526191E+03  0.27292289750E+03  0.17200000000E+03 0.  1.
</event>
<event>
 4    1  0.3205520E-002  0.2137069E+03  0.7818608E-02  0.1138664E+00
         -2   -1    0    0    0  501 -0.00000000000E+00  0.00000000000E+00  0.90277643582E+02  0.90277643582E+02  0.00000000000E+00 0.  1.
          2   -1    0    0  502    0  0.00000000000E+00 -0.00000000000E+00 -0.39633015940E+04  0.39633015940E+04  0.00000000000E+00 0. -1.
          6    1    1    2  502    0 -0.24874954931E+02 -0.12436988095E+03 -0.38295337129E+04  0.38354920270E+04  0.17200000000E+03 0. -1.
         -6    1    1    2    0  501  0.24874954931E+02  0.12436988095E+03 -0.43490237505E+02  0.21808721060E+03  0.17200000000E+03 0.  1.
</event>
<event>
 4    1  0.3205520E-002  0.2214108E+03  0.7818608E-02  0.1132836E+00
         -2   -1    0    0    0  501 -0.00000000000E+00  0.00000000000E+00  0.22718904038E+03  0.22718904038E+03  0.00000000000E+00 0.  1.
          2   -1    0    0  502    0  0.00000000000E+00 -0.00000000000E+00 -0.11503773877E+04  0.11503773877E+04  0.00000000000E+00 0. -1.
          6    1    1    2  502    0 -0.13814941654E+03 -0.18800684501E+02 -0.10824271754E+04  0.11048399508E+04  0.17200000000E+03 0. -1.
         -6    1    1    2    0  501  0.13814941654E+03  0.18800684501E+02  0.15923882804E+03  0.27272647723E+03  0.17200000000E+03 0.  1.
</event>
<event>
 4    1  0.3205520E-002  0.1736372E+03  0.7818608E-02  0.1174107E+00
         -2   -1    0    0    0  501 -0.00000000000E+00  0.00000000000E+00  0.18115074334E+02  0.18115074334E+02  0.00000000000E+00 0.  1.
          2   -1    0    0  502    0  0.00000000000E+00 -0.00000000000E+00 -0.18295434784E+04  0.18295434784E+04  0.00000000000E+00 0. -1.
          6    1    1    2  502    0 -0.21190790258E+02 -0.10808830744E+02 -0.11833098843E+04  0.11959816732E+04  0.17200000000E+03 0. -1.
         -6    1    1    2    0  501  0.21190790258E+02  0.10808830744E+02 -0.62811851984E+03  0.65167687958E+03  0.17200000000E+03 0.  1.
</event>
<event>
 4    1  0.3205520E-002  0.2142404E+03  0.7818608E-02  0.1138251E+00
          1   -1    0    0  502    0  0.00000000000E+00  0.00000000000E+00  0.48581162044E+03  0.48581162044E+03  0.00000000000E+00 0. -1.
         -1   -1    0    0    0  501 -0.00000000000E+00 -0.00000000000E+00 -0.94559588683E+02  0.94559588683E+02  0.00000000000E+00 0.  1.
          6    1    1    2  502    0  0.92711678882E+02 -0.87860682907E+02  0.18715007603E+03  0.28447162593E+03  0.17200000000E+03 0.  1.
         -6    1    1    2    0  501 -0.92711678882E+02  0.87860682907E+02  0.20410195572E+03  0.29589958319E+03  0.17200000000E+03 0. -1.
</event>
<event>
 4    1  0.3205520E-002  0.2379625E+03  0.7818608E-02  0.1121158E+00
          2   -1    0    0  502    0  0.00000000000E+00  0.00000000000E+00  0.23790927344E+04  0.23790927344E+04  0.00000000000E+00 0. -1.
         -2   -1    0    0    0  501 -0.00000000000E+00 -0.00000000000E+00 -0.30339816921E+02  0.30339816921E+02  0.00000000000E+00 0.  1.
          6    1    1    2  502    0 -0.36891219749E+02 -0.16025356769E+03  0.17336298144E+04  0.17498852823E+04  0.17200000000E+03 0. -1.
         -6    1    1    2    0  501  0.36891219749E+02  0.16025356769E+03  0.61512310310E+03  0.65954726898E+03  0.17200000000E+03 0. -1.
</event>
<event>
 4    1  0.3205520E-002  0.2888127E+03  0.7818608E-02  0.1090971E+00
         -2   -1    0    0    0  501 -0.00000000000E+00  0.00000000000E+00  0.15101591492E+03  0.15101591492E+03  0.00000000000E+00 0.  1.
          2   -1    0    0  502    0  0.00000000000E+00 -0.00000000000E+00 -0.10261217862E+04  0.10261217862E+04  0.00000000000E+00 0. -1.
          6    1    1    2  502    0 -0.63694126855E+02 -0.22309601471E+03 -0.83748391636E+03  0.88588491563E+03  0.17200000000E+03 0. -1.
         -6    1    1    2    0  501  0.63694126855E+02  0.22309601471E+03 -0.37621954941E+02  0.29125278551E+03  0.17200000000E+03 0.  1.
</event>
<event>
 4    1  0.3205520E-002  0.2046657E+03  0.7818608E-02  0.1145861E+00
         -2   -1    0    0    0  501 -0.00000000000E+00  0.00000000000E+00  0.59470302595E+02  0.59470302595E+02  0.00000000000E+00 0.  1.
          2   -1    0    0  502    0  0.00000000000E+00 -0.00000000000E+00 -0.72614192833E+03  0.72614192833E+03  0.00000000000E+00 0. -1.
          6    1    1    2  502    0  0.23798483091E+02  0.10834051780E+03 -0.40138044533E+03  0.45054888468E+03  0.17200000000E+03 0. -1.
         -6    1    1    2    0  501 -0.23798483091E+02 -0.10834051780E+03 -0.26529118040E+03  0.33506334624E+03  0.17200000000E+03 0.  1.
</event>
<event>
 4    1  0.3205520E-002  0.2119799E+03  0.7818608E-02  0.1140008E+00
         -2   -1    0    0    0  501 -0.00000000000E+00  0.00000000000E+00  0.15122659797E+03  0.15122659797E+03  0.00000000000E+00 0.  1.
          2   -1    0    0  502    0  0.00000000000E+00 -0.00000000000E+00 -0.32746233639E+03  0.32746233639E+03  0.00000000000E+00 0. -1.
          6    1    1    2  502    0 -0.77117533786E+02 -0.96976036001E+02 -0.16095021824E+03  0.26615867134E+03  0.17200000000E+03 0. -1.
         -6    1    1    2    0  501  0.77117533786E+02  0.96976036001E+02 -0.15285520180E+02  0.21253026303E+03  0.17200000000E+03 0.  1.
</event>
<event>
 4    1  0.3205520E-002  0.1754145E+03  0.7818608E-02  0.1172316E+00
          1   -1    0    0  502    0  0.00000000000E+00  0.00000000000E+00  0.44403519409E+03  0.44403519409E+03  0.00000000000E+00 0. -1.
         -1   -1    0    0    0  501 -0.00000000000E+00 -0.00000000000E+00 -0.69852280333E+02  0.69852280333E+02  0.00000000000E+00 0.  1.
          6    1    1    2  502    0 -0.61006647622E+01  0.33897238363E+02  0.21000340282E+03  0.27362688113E+03  0.17200000000E+03 0. -1.
         -6    1    1    2    0  501  0.61006647622E+01 -0.33897238363E+02  0.16417951093E+03  0.24026059329E+03  0.17200000000E+03 0.  1.
</event>
<event>
 4    1  0.3205520E-002  0.1958038E+03  0.7818608E-02  0.1153328E+00
         -2   -1    0    0    0  501 -0.00000000000E+00  0.00000000000E+00  0.22353526806E+03  0.22353526806E+03  0.00000000000E+00 0.  1.
          2   -1    0    0  502    0  0.00000000000E+00 -0.00000000000E+00 -0.17550241397E+03  0.17550241397E+03  0.00000000000E+00 0. -1.
          6    1    1    2  502    0  0.84634194292E+02 -0.39902358226E+02  0.54098750799E+02  0.20313990222E+03  0.17200000000E+03 0.  1.
         -6    1    1    2    0  501 -0.84634194292E+02  0.39902358226E+02 -0.60658967092E+01  0.19589777982E+03  0.17200000000E+03 0. -1.
</event>
<event>
 4    1  0.3205520E-002  0.1772170E+03  0.7818608E-02  0.1170524E+00
         -1   -1    0    0    0  501 -0.00000000000E+00  0.00000000000E+00  0.29897099824E+02  0.29897099824E+02  0.00000000000E+00 0.  1.
          1   -1    0    0  502    0  0.00000000000E+00 -0.00000000000E+00 -0.12762622363E+04  0.12762622363E+04  0.00000000000E+00 0. -1.
          6    1    1    2  502    0 -0.12577911061E+02 -0.40787939430E+02 -0.89788052052E+03  0.91520232133E+03  0.17200000000E+03 0. -1.
         -6    1    1    2    0  501  0.12577911061E+02  0.40787939430E+02 -0.34848461591E+03  0.39095701474E+03  0.17200000000E+03 0.  1.
</event>
<event>
 4    1  0.3205520E-002  0.6228577E+03  0.7818608E-02  0.9859087E-01
          2   -1    0    0  502    0  0.00000000000E+00  0.00000000000E+00  0.12919895607E+04  0.12919895607E+04  0.00000000000E+00 0. -1.
         -2   -1    0    0    0  501 -0.00000000000E+00 -0.00000000000E+00 -0.37260131697E+03  0.37260131697E+03  0.00000000000E+00 0.  1.
          6    1    1    2  502    0 -0.16945220106E+03 -0.57415469865E+03  0.82638884162E+03  0.10348285771E+04  0.17200000000E+03 0. -1.
         -6    1    1    2    0  501  0.16945220106E+03  0.57415469865E+03  0.92999402110E+02  0.62976230057E+03  0.17200000000E+03 0.  1.
</event>
<event>
 4    1  0.3205520E-002  0.1929037E+03  0.7818608E-02  0.1155868E+00
          2   -1    0    0  502    0  0.00000000000E+00  0.00000000000E+00  0.29576461564E+03  0.29576461564E+03  0.00000000000E+00 0. -1.
         -2   -1    0    0    0  501 -0.00000000000E+00 -0.00000000000E+00 -0.18965130271E+03  0.18965130271E+03  0.00000000000E+00 0.  1.
          6    1    1    2  502    0  0.58249516655E+02 -0.65075670261E+02 -0.87754605471E+02  0.21192621318E+03  0.17200000000E+03 0.  1.
         -6    1    1    2    0  501 -0.58249516655E+02  0.65075670261E+02  0.19386791840E+03  0.27348970517E+03  0.17200000000E+03 0. -1.
</event>
<event>
 4    1  0.3205520E-002  0.1894871E+03  0.7818608E-02  0.1158925E+00
          1   -1    0    0  502    0  0.00000000000E+00  0.00000000000E+00  0.18055923063E+04  0.18055923063E+04  0.00000000000E+00 0. -1.
         -1   -1    0    0    0  501 -0.00000000000E+00 -0.00000000000E+00 -0.20152330534E+02  0.20152330534E+02  0.00000000000E+00 0.  1.
          6    1    1    2  502    0  0.55210848049E+02 -0.57211067111E+02  0.99773655188E+03  0.10155705642E+04  0.17200000000E+03 0. -1.
         -6    1    1    2    0  501 -0.55210848049E+02  0.57211067111E+02  0.78770342391E+03  0.81017407264E+03  0.17200000000E+03 0.  1.
</event>
<event>
 4    1  0.3205520E-002  0.4559510E+03  0.7818608E-02  0.1025962E+00
          2   -1    0    0  502    0  0.00000000000E+00  0.00000000000E+00  0.26280357658E+03  0.26280357658E+03  0.00000000000E+00 0. -1.
         -2   -1    0    0    0  501 -0.00000000000E+00 -0.00000000000E+00 -0.95344638117E+03  0.95344638117E+03  0.00000000000E+00 0.  1.
          6    1    1    2  502    0  0.41788519383E+03  0.60657400298E+02 -0.94346729743E+02  0.46560998792E+03  0.17200000000E+03 0. -1.
         -6    1    1    2    0  501 -0.41788519383E+03 -0.60657400298E+02 -0.59629607485E+03  0.75063996984E+03  0.17200000000E+03 0.  1.
</event>
<event>
 4    1  0.3205520E-002  0.2257819E+03  0.7818608E-02  0.1129644E+00
          4   -1    0    0  502    0  0.00000000000E+00  0.00000000000E+00  0.19072576451E+04  0.19072576451E+04  0.00000000000E+00 0. -1.
         -4   -1    0    0    0  501 -0.00000000000E+00 -0.00000000000E+00 -0.42181291902E+02  0.42181291902E+02  0.00000000000E+00 0.  1.
          6    1    1    2  502    0 -0.14176019227E+03  0.36021132965E+02  0.15225056336E+04  0.15391558981E+04  0.17200000000E+03 0. -1.
         -6    1    1    2    0  501  0.14176019227E+03 -0.36021132965E+02  0.34257071961E+03  0.41028303897E+03  0.17200000000E+03 0.  1.
</event>
<event>
 4    1  0.3205520E-002  0.2830973E+03  0.7818608E-02  0.1094009E+00
          4   -1    0    0  502    0  0.00000000000E+00  0.00000000000E+00  0.33766568711E+02  0.33766568711E+02  0.00000000000E+00 0. -1.
         -4   -1    0    0    0  501 -0.00000000000E+00 -0.00000000000E+00 -0.25299875290E+04  0.25299875290E+04  0.00000000000E+00 0.  1.
          6    1    1    2  502    0 -0.12023250672E+03  0.19001110883E+03 -0.92927771249E+03  0.97144281565E+03  0.17200000000E+03 0. -1.
         -6    1    1    2    0  501  0.12023250672E+03 -0.19001110883E+03 -0.15669432478E+04  0.15923112821E+04  0.17200000000E+03 0.  1.
</event>
<event>
 4    1  0.3205520E-002  0.2075434E+03  0.7818608E-02  0.1143526E+00
          3   -1    0    0  502    0  0.00000000000E+00  0.00000000000E+00  0.10428512180E+03  0.10428512180E+03  0.00000000000E+00 0. -1.
         -3   -1    0    0    0  501 -0.00000000000E+00 -0.00000000000E+00 -0.46978103198E+03  0.46978103198E+03  0.00000000000E+00 0.  1.
          6    1    1    2  502    0  0.16306489452E+02  0.11499718118E+03 -0.28249977737E+03  0.35054297525E+03  0.17200000000E+03 0.  1.
         -6    1    1    2    0  501 -0.16306489452E+02 -0.11499718118E+03 -0.82996132805E+02  0.22352317853E+03  0.17200000000E+03 0. -1.
</event>
<event>
 4    1  0.3205520E-002  0.4508933E+03  0.7818608E-02  0.1027456E+00
         -2   -1    0    0    0  501 -0.00000000000E+00  0.00000000000E+00  0.24355937247E+03  0.24355937247E+03  0.00000000000E+00 0.  1.
          2   -1    0    0  502    0  0.00000000000E+00 -0.00000000000E+00 -0.10360951705E+04  0.10360951705E+04  0.00000000000E+00 0. -1.
          6    1    1    2  502    0  0.41679632980E+03  0.12445842356E+01 -0.67834128980E+03  0.81452540474E+03  0.17200000000E+03 0. -1.
         -6    1    1    2    0  501 -0.41679632980E+03 -0.12445842356E+01 -0.11419450824E+03  0.46512913824E+03  0.17200000000E+03 0.  1.
</event>
<event>
 4    1  0.3205520E-002  0.6360244E+03  0.7818608E-02  0.9833363E-01
          2   -1    0    0  502    0  0.00000000000E+00  0.00000000000E+00  0.10462608108E+04  0.10462608108E+04  0.00000000000E+00 0. -1.
         -2   -1    0    0    0  501 -0.00000000000E+00 -0.00000000000E+00 -0.53954663676E+03  0.53954663676E+03  0.00000000000E+00 0.  1.
          6    1    1    2  502    0  0.59366719905E+03  0.15000745620E+03  0.67545983550E+03  0.92777851318E+03  0.17200000000E+03 0. -1.
         -6    1    1    2    0  501 -0.59366719905E+03 -0.15000745620E+03 -0.16874566150E+03  0.65802893433E+03  0.17200000000E+03 0.  1.
</event>
<event>
 4    1  0.3205520E-002  0.2345045E+03  0.7818608E-02  0.1123509E+00
         -2   -1    0    0    0  501 -0.00000000000E+00  0.00000000000E+00  0.18995752561E+03  0.18995752561E+03  0.00000000000E+00 0.  1.
          2   -1    0    0  502    0  0.00000000000E+00 -0.00000000000E+00 -0.29867298976E+03  0.29867298976E+03  0.00000000000E+00 0. -1.
          6    1    1    2  502    0  0.98574176990E+02  0.12526570870E+03 -0.97178073626E+02  0.25384236080E+03  0.17200000000E+03 0. -1.
         -6    1    1    2    0  501 -0.98574176990E+02 -0.12526570870E+03 -0.11537390531E+02  0.23478815457E+03  0.17200000000E+03 0. -1.
</event>
<event>
 4    1  0.3205520E-002  0.2307203E+03  0.7818608E-02  0.1126134E+00
         -2   -1    0    0    0  501 -0.00000000000E+00  0.00000000000E+00  0.52685753219E+02  0.52685753219E+02  0.00000000000E+00 0.  1.
          2   -1    0    0  502    0  0.00000000000E+00 -0.00000000000E+00 -0.10143243804E+04  0.10143243804E+04  0.00000000000E+00 0. -1.
          6    1    1    2  502    0  0.54277074944E+02  0.14388139629E+03 -0.44748841174E+03  0.50346572446E+03  0.17200000000E+03 0. -1.
         -6    1    1    2    0  501 -0.54277074944E+02 -0.14388139629E+03 -0.51415021548E+03  0.56354440920E+03  0.17200000000E+03 0.  1.
</event>
<event>
 4    1  0.3205520E-002  0.1987442E+03  0.7818608E-02  0.1150803E+00
          2   -1    0    0  502    0  0.00000000000E+00  0.00000000000E+00  0.14125441105E+04  0.14125441105E+04  0.00000000000E+00 0. -1.
         -2   -1    0    0    0  501 -0.00000000000E+00 -0.00000000000E+00 -0.54455451095E+02  0.54455451095E+02  0.00000000000E+00 0.  1.
          6    1    1    2  502    0  0.29265478244E+02 -0.95177683206E+02  0.11906539522E+04  0.12071272068E+04  0.17200000000E+03 0. -1.
         -6    1    1    2    0  501 -0.29265478244E+02  0.95177683206E+02  0.16743470725E+03  0.25987235480E+03  0.17200000000E+03 0.  1.
</event>
<event>
 4    1  0.3205520E-002  0.2208952E+03  0.7818608E-02  0.1133217E+00
         -1   -1    0    0    0  501 -0.00000000000E+00  0.00000000000E+00  0.26480890630E+03  0.26480890630E+03  0.00000000000E+00 0.  1.
          1   -1    0    0  502    0  0.00000000000E+00 -0.00000000000E+00 -0.66378528942E+03  0.66378528942E+03  0.00000000000E+00 0. -1.
          6    1    1    2  502    0  0.11617503531E+02 -0.13811481282E+03 -0.59411468778E+03  0.63385087374E+03  0.17200000000E+03 0. -1.
         -6    1    1    2    0  501 -0.11617503531E+02  0.13811481282E+03  0.19513830466E+03  0.29474332198E+03  0.17200000000E+03 0.  1.
</event>
<event>
 4    1  0.3205520E-002  0.4239375E+03  0.7818608E-02  0.1035792E+00
          1   -1    0    0  502    0  0.00000000000E+00  0.00000000000E+00  0.23277562001E+04  0.23277562001E+04  0.00000000000E+00 0. -1.
         -1   -1    0    0    0  501 -0.00000000000E+00 -0.00000000000E+00 -0.13077100823E+03  0.13077100823E+03  0.00000000000E+00 0.  1.
          6    1    1    2  502    0 -0.32725977745E+03  0.20746102906E+03  0.18852102779E+04  0.19322890137E+04  0.17200000000E+03 0. -1.
         -6    1    1    2    0  501  0.32725977745E+03 -0.20746102906E+03  0.31177491395E+03  0.52623819463E+03  0.17200000000E+03 0.  1.
</event>
<event>
 4    1  0.3205520E-002  0.2354869E+03  0.7818608E-02  0.1122836E+00
          1   -1    0    0  502    0  0.00000000000E+00  0.00000000000E+00  0.29367686062E+04  0.29367686062E+04  0.00000000000E+00 0. -1.
         -1   -1    0    0    0  501 -0.00000000000E+00 -0.00000000000E+00 -0.27106824676E+02  0.27106824676E+02  0.00000000000E+00 0.  1.
          6    1    1    2  502    0 -0.23329090993E+02  0.15914095396E+03  0.22711044851E+04  0.22832804628E+04  0.17200000000E+03 0. -1.
         -6    1    1    2    0  501  0.23329090993E+02 -0.15914095396E+03  0.63855729650E+03  0.68059496812E+03  0.17200000000E+03 0.  1.
</event>
<event>
 4    1  0.3205520E-002  0.4112498E+03  0.7818608E-02  0.1039952E+00
          1   -1    0    0  502    0  0.00000000000E+00  0.00000000000E+00  0.22772098286E+04  0.22772098286E+04  0.00000000000E+00 0. -1.
         -1   -1    0    0    0  501 -0.00000000000E+00 -0.00000000000E+00 -0.86248687213E+02  0.86248687213E+02  0.00000000000E+00 0.  1.
          6    1    1    2  502    0  0.57630591253E+02  0.36908144966E+03  0.65506561849E+03  0.77345805708E+03  0.17200000000E+03 0. -1.
         -6    1    1    2    0  501 -0.57630591253E+02 -0.36908144966E+03  0.15358955229E+04  0.15900004587E+04  0.17200000000E+03 0.  1.
</event>
<event>
 4    1  0.3205520E-002  0.1869870E+03  0.7818608E-02  0.1161207E+00
          2   -1    0    0  502    0  0.00000000000E+00  0.00000000000E+00  0.78244416426E+03  0.78244416426E+03  0.00000000000E+00 0. -1.
         -2   -1    0    0    0  501 -0.00000000000E+00 -0.00000000000E+00 -0.49159392388E+02  0.49159392388E+02  0.00000000000E+00 0.  1.
          6    1    1    2  502    0  0.31198039733E+02 -0.66383824609E+02  0.49207548060E+03  0.52640517518E+03  0.17200000000E+03 0. -1.
         -6    1    1    2    0  501 -0.31198039733E+02  0.66383824609E+02  0.24120929128E+03  0.30519838147E+03  0.17200000000E+03 0.  1.
</event>
<event>
 4    1  0.3205520E-002  0.2561119E+03  0.7818608E-02  0.1109502E+00
         -2   -1    0    0    0  501 -0.00000000000E+00  0.00000000000E+00  0.77201026171E+02  0.77201026171E+02  0.00000000000E+00 0.  1.
          2   -1    0    0  502    0  0.00000000000E+00 -0.00000000000E+00 -0.10769658444E+04  0.10769658444E+04  0.00000000000E+00 0. -1.
          6    1    1    2  502    0 -0.13537390034E+03  0.13297820412E+03 -0.23475209895E+03  0.34742170862E+03  0.17200000000E+03 0.  1.
         -6    1    1    2    0  501  0.13537390034E+03 -0.13297820412E+03 -0.76501271931E+03  0.80674516198E+03  0.17200000000E+03 0. -1.
</event>
<event>
 4    1  0.3205520E-002  0.2467785E+03  0.7818608E-02  0.1115358E+00
         -2   -1    0    0    0  501 -0.00000000000E+00  0.00000000000E+00  0.29281319626E+02  0.29281319626E+02  0.00000000000E+00 0.  1.
          2   -1    0    0  502    0  0.00000000000E+00 -0.00000000000E+00 -0.22354640578E+04  0.22354640578E+04  0.00000000000E+00 0. -1.
          6    1    1    2  502    0  0.98138239609E+02 -0.14725670574E+03 -0.14018926292E+04  0.14234474332E+04  0.17200000000E+03 0.  1.
         -6    1    1    2    0  501 -0.98138239609E+02  0.14725670574E+03 -0.80429010900E+03  0.84129794419E+03  0.17200000000E+03 0.  1.
</event>
<event>
 4    1  0.3205520E-002  0.1998674E+03  0.7818608E-02  0.1149851E+00
          1   -1    0    0  502    0  0.00000000000E+00  0.00000000000E+00  0.37520106664E+03  0.37520106664E+03  0.00000000000E+00 0. -1.
         -1   -1    0    0    0  501 -0.00000000000E+00 -0.00000000000E+00 -0.10647028106E+03  0.10647028106E+03  0.00000000000E+00 0.  1.
          6    1    1    2  502    0  0.42030492193E+02 -0.92716833914E+02  0.13543601933E+03  0.24143299049E+03  0.17200000000E+03 0.  1.
         -6    1    1    2    0  501 -0.42030492193E+02  0.92716833914E+02  0.13329476626E+03  0.24023835721E+03  0.17200000000E+03 0.  1.
</event>
<event>
 4    1  0.3205520E-002  0.1763285E+03  0.7818608E-02  0.1171404E+00
          1   -1    0    0  502    0  0.00000000000E+00  0.00000000000E+00  0.27223953045E+04  0.27223953045E+04  0.00000000000E+00 0. -1.
         -1   -1    0    0    0  501 -0.00000000000E+00 -0.00000000000E+00 -0.14399692468E+02  0.14399692468E+02  0.00000000000E+00 0.  1.
          6    1    1    2  502    0  0.53456499664E+01 -0.38460011917E+02  0.19763955328E+04  0.19842457132E+04  0.17200000000E+03 0. -1.
         -6    1    1    2    0  501 -0.53456499664E+01  0.38460011917E+02  0.73160007928E+03  0.75254928376E+03  0.17200000000E+03 0.  1.
</event>
<event>
 4    1  0.3205520E-002  0.2091626E+03  0.7818608E-02  0.1142231E+00
          2   -1    0    0  502    0  0.00000000000E+00  0.00000000000E+00  0.40318458296E+03  0.40318458296E+03  0.00000000000E+00 0. -1.
         -2   -1    0    0    0  501 -0.00000000000E+00 -0.00000000000E+00 -0.15631479918E+03  0.15631479918E+03  0.00000000000E+00 0.  1.
          6    1    1    2  502    0  0.23788322714E+02 -0.11661520389E+03  0.27814251964E+03  0.34801185512E+03  0.17200000000E+03 0. -1.
         -6    1    1    2    0  501 -0.23788322714E+02  0.11661520389E+03 -0.31272735860E+02  0.21148752702E+03  0.17200000000E+03 0.  1.
</event>
<event>
 4    1  0.3205520E-002  0.1853750E+03  0.7818608E-02  0.1162700E+00
         -2   -1    0    0    0  501 -0.00000000000E+00  0.00000000000E+00  0.34245598113E+02  0.34245598113E+02  0.00000000000E+00 0.  1.
          2   -1    0    0  502    0  0.00000000000E+00 -0.00000000000E+00 -0.10063694951E+04  0.10063694951E+04  0.00000000000E+00 0. -1.
          6    1    1    2  502    0 -0.11605308267E+01 -0.69127100546E+02 -0.51406420692E+03  0.54646675260E+03  0.17200000000E+03 0. -1.
         -6    1    1    2    0  501  0.11605308267E+01  0.69127100546E+02 -0.45805969002E+03  0.49414834057E+03  0.17200000000E+03 0.  1.
</event>
<event>
 4    1  0.3205520E-002  0.2465437E+03  0.7818608E-02  0.1115509E+00
          1   -1    0    0  502    0  0.00000000000E+00  0.00000000000E+00  0.10030741792E+04  0.10030741792E+04  0.00000000000E+00 0. -1.
         -1   -1    0    0    0  501 -0.00000000000E+00 -0.00000000000E+00 -0.60710525676E+02  0.60710525676E+02  0.00000000000E+00 0.  1.
          6    1    1    2  502    0 -0.27540433428E+02 -0.17447444239E+03  0.44823387035E+03  0.51156369012E+03  0.17200000000E+03 0. -1.
         -6    1    1    2    0  501  0.27540433428E+02  0.17447444239E+03  0.49412978317E+03  0.55222101475E+03  0.17200000000E+03 0. -1.
</event>
<event>
 4    1  0.3205520E-002  0.2609545E+03  0.7818608E-02  0.1106571E+00
         -1   -1    0    0    0  501 -0.00000000000E+00  0.00000000000E+00  0.49519997877E+02  0.49519997877E+02  0.00000000000E+00 0.  1.
          1   -1    0    0  502    0  0.00000000000E+00 -0.00000000000E+00 -0.14094610205E+04  0.14094610205E+04  0.00000000000E+00 0. -1.
          6    1    1    2  502    0 -0.15487391230E+03 -0.12052934933E+03 -0.56614700734E+03  0.62339368515E+03  0.17200000000E+03 0. -1.
         -6    1    1    2    0  501  0.15487391230E+03  0.12052934933E+03 -0.79379401532E+03  0.83558733326E+03  0.17200000000E+03 0. -1.
</event>
<event>
 4    1  0.3205520E-002  0.4774872E+03  0.7818608E-02  0.1019828E+00
          1   -1    0    0  502    0  0.00000000000E+00  0.00000000000E+00  0.42569644761E+03  0.42569644761E+03  0.00000000000E+00 0. -1.
         -1   -1    0    0    0  501 -0.00000000000E+00 -0.00000000000E+00 -0.57128398961E+03  0.57128398961E+03  0.00000000000E+00 0.  1.
          6    1    1    2  502    0  0.16595973693E+03 -0.41336107165E+03  0.51828608608E+02  0.48029180142E+03  0.17200000000E+03 0. -1.
         -6    1    1    2    0  501 -0.16595973693E+03  0.41336107165E+03 -0.19741615061E+03  0.51668863580E+03  0.17200000000E+03 0.  1.
</event>
<event>
 4    1  0.3205520E-002  0.1813705E+03  0.7818608E-02  0.1166483E+00
          2   -1    0    0  502    0  0.00000000000E+00  0.00000000000E+00  0.39463122605E+03  0.39463122605E+03  0.00000000000E+00 0. -1.
         -2   -1    0    0    0  501 -0.00000000000E+00 -0.00000000000E+00 -0.89918313515E+02  0.89918313515E+02  0.00000000000E+00 0.  1.
          6    1    1    2  502    0  0.57471918810E+02 -0.28719520226E+01  0.21780198392E+03  0.28343072127E+03  0.17200000000E+03 0. -1.
         -6    1    1    2    0  501 -0.57471918810E+02  0.28719520226E+01  0.86910928616E+02  0.20111881830E+03  0.17200000000E+03 0.  1.
</event>
<event>
 4    1  0.3205520E-002  0.3054720E+03  0.7818608E-02  0.1082537E+00
          4   -1    0    0  502    0  0.00000000000E+00  0.00000000000E+00  0.25737688421E+04  0.25737688421E+04  0.00000000000E+00 0. -1.
         -4   -1    0    0    0  501 -0.00000000000E+00 -0.00000000000E+00 -0.11670534604E+03  0.11670534604E+03  0.00000000000E+00 0.  1.
          6    1    1    2  502    0  0.10765878396E+02 -0.25221662616E+03  0.23454367097E+04  0.23652455453E+04  0.17200000000E+03 0. -1.
         -6    1    1    2    0  501 -0.10765878396E+02  0.25221662616E+03  0.11162678635E+03  0.32522864277E+03  0.17200000000E+03 0.  1.
</event>
<event>
 4    1  0.3205520E-002  0.1920134E+03  0.7818608E-02  0.1156658E+00
          1   -1    0    0  502    0  0.00000000000E+00  0.00000000000E+00  0.15350442134E+04  0.15350442134E+04  0.00000000000E+00 0. -1.
         -1   -1    0    0    0  501 -0.00000000000E+00 -0.00000000000E+00 -0.30995869857E+02  0.30995869857E+02  0.00000000000E+00 0.  1.
          6    1    1    2  502    0 -0.10183881976E+02 -0.84743286919E+02  0.11235366376E+04  0.11398261763E+04  0.17200000000E+03 0. -1.
         -6    1    1    2    0  501  0.10183881976E+02  0.84743286919E+02  0.38051170593E+03  0.42621390695E+03  0.17200000000E+03 0.  1.
</event>
<event>
 4    1  0.3205520E-002  0.2193114E+03  0.7818608E-02  0.1134397E+00
         -2   -1    0    0    0  501 -0.00000000000E+00  0.00000000000E+00  0.47168373887E+02  0.47168373887E+02  0.00000000000E+00 0.  1.
          2   -1    0    0  502    0  0.00000000000E+00 -0.00000000000E+00 -0.17045166968E+04  0.17045166968E+04  0.00000000000E+00 0. -1.
          6    1    1    2  502    0  0.13525372891E+03  0.14830393768E+02 -0.13838276906E+04  0.14010983509E+04  0.17200000000E+03 0. -1.
         -6    1    1    2    0  501 -0.13525372891E+03 -0.14830393768E+02 -0.27352063237E+03  0.35058671980E+03  0.17200000000E+03 0.  1.
</event>
<event>
 4    1  0.3205520E-002  0.2142291E+03  0.7818608E-02  0.1138260E+00
         -3   -1    0    0    0  501 -0.00000000000E+00  0.00000000000E+00  0.26490473123E+03  0.26490473123E+03  0.00000000000E+00 0.  1.
          3   -1    0    0  502    0  0.00000000000E+00 -0.00000000000E+00 -0.17353474814E+03  0.17353474814E+03  0.00000000000E+00 0. -1.
          6    1    1    2  502    0 -0.32781783260E+02 -0.12343201314E+03  0.54602517532E+02  0.22107813574E+03  0.17200000000E+03 0. -1.
         -6    1    1    2    0  501  0.32781783260E+02  0.12343201314E+03  0.36767465555E+02  0.21736134363E+03  0.17200000000E+03 0.  1.
</event>
<event>
 4    1  0.3205520E-002  0.3446996E+03  0.7818608E-02  0.1064812E+00
         -2   -1    0    0    0  501 -0.00000000000E+00  0.00000000000E+00  0.75770276046E+02  0.75770276046E+02  0.00000000000E+00 0.  1.
          2   -1    0    0  502    0  0.00000000000E+00 -0.00000000000E+00 -0.15902891999E+04  0.15902891999E+04  0.00000000000E+00 0. -1.
          6    1    1    2  502    0 -0.29671260385E+03  0.34574929930E+02 -0.85558805341E+03  0.92241460971E+03  0.17200000000E+03 0. -1.
         -6    1    1    2    0  501  0.29671260385E+03 -0.34574929930E+02 -0.65893087049E+03  0.74364486628E+03  0.17200000000E+03 0.  1.
</event>
<event>
 4    1  0.3205520E-002  0.1870580E+03  0.7818608E-02  0.1161142E+00
         -2   -1    0    0    0  501 -0.00000000000E+00  0.00000000000E+00  0.22154076345E+02  0.22154076345E+02  0.00000000000E+00 0.  1.
          2   -1    0    0  502    0  0.00000000000E+00 -0.00000000000E+00 -0.27532692203E+04  0.27532692203E+04  0.00000000000E+00 0. -1.
          6    1    1    2  502    0  0.39498165927E+02 -0.62020992071E+02 -0.22716657963E+04  0.22793543381E+04  0.17200000000E+03 0. -1.
         -6    1    1    2    0  501 -0.39498165927E+02  0.62020992071E+02 -0.45944934773E+03  0.49606895861E+03  0.17200000000E+03 0.  1.
</event>
<event>
 4    1  0.3205520E-002  0.1729957E+03  0.7818608E-02  0.1174759E+00
         -2   -1    0    0    0  501 -0.00000000000E+00  0.00000000000E+00  0.16965976931E+02  0.16965976931E+02  0.00000000000E+00 0.  1.
          2   -1    0    0  502    0  0.00000000000E+00 -0.00000000000E+00 -0.30092068876E+04  0.30092068876E+04  0.00000000000E+00 0. -1.
          6    1    1    2  502    0 -0.81996358037E+01  0.16621580567E+02 -0.24694576631E+04  0.24755097779E+04  0.17200000000E+03 0. -1.
         -6    1    1    2    0  501  0.81996358037E+01 -0.16621580567E+02 -0.52278324764E+03  0.55066308663E+03  0.17200000000E+03 0.  1.
</event>
<event>
 4    1  0.3205520E-002  0.1775968E+03  0.7818608E-02  0.1170149E+00
          2   -1    0    0  502    0  0.00000000000E+00  0.00000000000E+00  0.90069476553E+03  0.90069476553E+03  0.00000000000E+00 0. -1.
         -2   -1    0    0    0  501 -0.00000000000E+00 -0.00000000000E+00 -0.35263673428E+02  0.35263673428E+02  0.00000000000E+00 0.  1.
          6    1    1    2  502    0  0.18384636306E+02 -0.40232305080E+02  0.39366385214E+03  0.43187019080E+03  0.17200000000E+03 0. -1.
         -6    1    1    2    0  501 -0.18384636306E+02  0.40232305080E+02  0.47176723996E+03  0.50408824815E+03  0.17200000000E+03 0. -1.
</event>
<event>
 4    1  0.3205520E-002  0.2545295E+03  0.7818608E-02  0.1110475E+00
          1   -1    0    0  502    0  0.00000000000E+00  0.00000000000E+00  0.93116546901E+03  0.93116546901E+03  0.00000000000E+00 0. -1.
         -1   -1    0    0    0  501 -0.00000000000E+00 -0.00000000000E+00 -0.34737386295E+03  0.34737386295E+03  0.00000000000E+00 0.  1.
          6    1    1    2  502    0 -0.89676797296E+02 -0.16480084486E+03  0.86357350905E+03  0.90030242250E+03  0.17200000000E+03 0. -1.
         -6    1    1    2    0  501  0.89676797296E+02  0.16480084486E+03 -0.27978190298E+03  0.37823690946E+03  0.17200000000E+03 0.  1.
</event>
<event>
 4    1  0.3205520E-002  0.2639793E+03  0.7818608E-02  0.1104776E+00
         -1   -1    0    0    0  501 -0.00000000000E+00  0.00000000000E+00  0.36835512701E+02  0.36835512701E+02  0.00000000000E+00 0.  1.
          1   -1    0    0  502    0  0.00000000000E+00 -0.00000000000E+00 -0.18942516595E+04  0.18942516595E+04  0.00000000000E+00 0. -1.
          6    1    1    2  502    0  0.92267537594E+02 -0.17772946976E+03 -0.96351350762E+03  0.99902119210E+03  0.17200000000E+03 0. -1.
         -6    1    1    2    0  501 -0.92267537594E+02  0.17772946976E+03 -0.89390263919E+03  0.93206598010E+03  0.17200000000E+03 0.  1.
</event>
<event>
 4    1  0.3205520E-002  0.2089056E+03  0.7818608E-02  0.1142436E+00
          2   -1    0    0  502    0  0.00000000000E+00  0.00000000000E+00  0.22792613647E+03  0.22792613647E+03  0.00000000000E+00 0. -1.
         -2   -1    0    0    0  501 -0.00000000000E+00 -0.00000000000E+00 -0.32757188089E+03  0.32757188089E+03  0.00000000000E+00 0.  1.
          6    1    1    2  502    0 -0.54742391045E+02  0.10517033903E+03 -0.22885364579E+03  0.30986371323E+03  0.17200000000E+03 0.  1.
         -6    1    1    2    0  501  0.54742391045E+02 -0.10517033903E+03  0.12920790136E+03  0.24563430413E+03  0.17200000000E+03 0. -1.
</event>
<event>
 4    1  0.3205520E-002  0.2037111E+03  0.7818608E-02  0.1146645E+00
         -2   -1    0    0    0  501 -0.00000000000E+00  0.00000000000E+00  0.14295471880E+02  0.14295471880E+02  0.00000000000E+00 0.  1.
          2   -1    0    0  502    0  0.00000000000E+00 -0.00000000000E+00 -0.29253606668E+04  0.29253606668E+04  0.00000000000E+00 0. -1.
          6    1    1    2  502    0  0.90941865105E+02 -0.60363694660E+02 -0.13267153763E+04  0.13422637178E+04  0.17200000000E+03 0. -1.
         -6    1    1    2    0  501 -0.90941865105E+02  0.60363694660E+02 -0.15843498186E+04  0.15973924208E+04  0.17200000000E+03 0.  1.
</event>
<event>
 4    1  0.3205520E-002  0.3361238E+03  0.7818608E-02  0.1068459E+00
          1   -1    0    0  502    0  0.00000000000E+00  0.00000000000E+00  0.42418545071E+03  0.42418545071E+03  0.00000000000E+00 0. -1.
         -1   -1    0    0    0  501 -0.00000000000E+00 -0.00000000000E+00 -0.12021060433E+04  0.12021060433E+04  0.00000000000E+00 0.  1.
          6    1    1    2  502    0 -0.26165979973E+03 -0.12218575943E+03  0.32847004311E+03  0.46996997758E+03  0.17200000000E+03 0. -1.
         -6    1    1    2    0  501  0.26165979973E+03  0.12218575943E+03 -0.11063906358E+04  0.11563215165E+04  0.17200000000E+03 0.  1.
</event>
<event>
 4    1  0.3205520E-002  0.3193691E+03  0.7818608E-02  0.1075940E+00
          2   -1    0    0  502    0  0.00000000000E+00  0.00000000000E+00  0.84871108171E+03  0.84871108171E+03  0.00000000000E+00 0. -1.
         -2   -1    0    0    0  501 -0.00000000000E+00 -0.00000000000E+00 -0.15146770346E+03  0.15146770346E+03  0.00000000000E+00 0.  1.
          6    1    1    2  502    0  0.22958096367E+03 -0.14037527311E+03  0.57591487599E+03  0.65853973347E+03  0.17200000000E+03 0. -1.
         -6    1    1    2    0  501 -0.22958096367E+03  0.14037527311E+03  0.12132850226E+03  0.34163905169E+03  0.17200000000E+03 0.  1.
</event>
<event>
 4    1  0.3205520E-002  0.3262218E+03  0.7818608E-02  0.1072821E+00
          3   -1    0    0  502    0  0.00000000000E+00  0.00000000000E+00  0.17842612114E+04  0.17842612114E+04  0.00000000000E+00 0. -1.
         -3   -1    0    0    0  501 -0.00000000000E+00 -0.00000000000E+00 -0.72720402723E+02  0.72720402723E+02  0.00000000000E+00 0.  1.
          6    1    1    2  502    0  0.25654395506E+03 -0.10498496149E+03  0.12494945569E+04  0.12913780588E+04  0.17200000000E+03 0.  1.
         -6    1    1    2    0  501 -0.25654395506E+03  0.10498496149E+03  0.46204625180E+03  0.56560355535E+03  0.17200000000E+03 0.  1.
</event>
<event>
 4    1  0.3205520E-002  0.1887206E+03  0.7818608E-02  0.1159620E+00
          2   -1    0    0  502    0  0.00000000000E+00  0.00000000000E+00  0.38507378562E+02  0.38507378562E+02  0.00000000000E+00 0. -1.
         -2   -1    0    0    0  501 -0.00000000000E+00 -0.00000000000E+00 -0.93833409909E+03  0.93833409909E+03  0.00000000000E+00 0.  1.
          6    1    1    2  502    0  0.76005170831E+02  0.15958778860E+02 -0.50835495548E+03  0.54225476428E+03  0.17200000000E+03 0.  1.
         -6    1    1    2    0  501 -0.76005170831E+02 -0.15958778860E+02 -0.39147176504E+03  0.43458671337E+03  0.17200000000E+03 0. -1.
</event>
<event>
 4    1  0.3205520E-002  0.1827649E+03  0.7818608E-02  0.1165154E+00
          1   -1    0    0  502    0  0.00000000000E+00  0.00000000000E+00  0.11497697934E+04  0.11497697934E+04  0.00000000000E+00 0. -1.
         -1   -1    0    0    0  501 -0.00000000000E+00 -0.00000000000E+00 -0.43376077579E+02  0.43376077579E+02  0.00000000000E+00 0.  1.
          6    1    1    2  502    0 -0.61488410931E+02 -0.61793830321E+01  0.21037137748E+03  0.27867387017E+03  0.17200000000E+03 0.  1.
         -6    1    1    2    0  501  0.61488410931E+02  0.61793830321E+01  0.89602233829E+03  0.91447200076E+03  0.17200000000E+03 0.  1.
</event>
<event>
 4    1  0.3205520E-002  0.4713589E+03  0.7818608E-02  0.1021537E+00
         -2   -1    0    0    0  501 -0.00000000000E+00  0.00000000000E+00  0.39583696839E+03  0.39583696839E+03  0.00000000000E+00 0.  1.
          2   -1    0    0  502    0  0.00000000000E+00 -0.00000000000E+00 -0.59362180680E+03  0.59362180680E+03  0.00000000000E+00 0. -1.
          6    1    1    2  502    0 -0.41594944741E+03 -0.13993307274E+03  0.16567136704E+02  0.47164995247E+03  0.17200000000E+03 0. -1.
         -6    1    1    2    0  501  0.41594944741E+03  0.13993307274E+03 -0.21435197512E+03  0.51780882272E+03  0.17200000000E+03 0.  1.
</event>
<event>
 4    1  0.3205520E-002  0.2873867E+03  0.7818608E-02  0.1091721E+00
         -2   -1    0    0    0  501 -0.00000000000E+00  0.00000000000E+00  0.12518144780E+03  0.12518144780E+03  0.00000000000E+00 0.  1.
          2   -1    0    0  502    0  0.00000000000E+00 -0.00000000000E+00 -0.11786279964E+04  0.11786279964E+04  0.00000000000E+00 0. -1.
          6    1    1    2  502    0  0.18851214822E+03  0.13217529773E+03 -0.95925644691E+03  0.10013810815E+04  0.17200000000E+03 0. -1.
         -6    1    1    2    0  501 -0.18851214822E+03 -0.13217529773E+03 -0.94190101743E+02  0.30242836279E+03  0.17200000000E+03 0.  1.
</event>
<event>
 4    1  0.3205520E-002  0.2345339E+03  0.7818608E-02  0.1123489E+00
         -1   -1    0    0    0  501 -0.00000000000E+00  0.00000000000E+00  0.11821848836E+03  0.11821848836E+03  0.00000000000E+00 0.  1.
          1   -1    0    0  502    0  0.00000000000E+00 -0.00000000000E+00 -0.48420818443E+03  0.48420818443E+03  0.00000000000E+00 0. -1.
          6    1    1    2  502    0  0.11752855937E+03 -0.10774600110E+03 -0.12346011322E+03  0.26504445396E+03  0.17200000000E+03 0. -1.
         -6    1    1    2    0  501 -0.11752855937E+03  0.10774600110E+03 -0.24252958285E+03  0.33738221883E+03  0.17200000000E+03 0. -1.
</event>
<event>
 4    1  0.3205520E-002  0.3605755E+03  0.7818608E-02  0.1058356E+00
         -2   -1    0    0    0  501 -0.00000000000E+00  0.00000000000E+00  0.12542743302E+03  0.12542743302E+03  0.00000000000E+00 0.  1.
          2   -1    0    0  502    0  0.00000000000E+00 -0.00000000000E+00 -0.10392330924E+04  0.10392330924E+04  0.00000000000E+00 0. -1.
          6    1    1    2  502    0 -0.23229475213E+03  0.21556860320E+03 -0.48636546794E+03  0.60544697782E+03  0.17200000000E+03 0. -1.
         -6    1    1    2    0  501  0.23229475213E+03 -0.21556860320E+03 -0.42744019143E+03  0.55921354759E+03  0.17200000000E+03 0.  1.
</event>
<event>
 4    1  0.3205520E-002  0.4559075E+03  0.7818608E-02  0.1025975E+00
          2   -1    0    0  502    0  0.00000000000E+00  0.00000000000E+00  0.22152027366E+03  0.22152027366E+03  0.00000000000E+00 0. -1.
         -2   -1    0    0    0  501 -0.00000000000E+00 -0.00000000000E+00 -0.94844306353E+03  0.94844306353E+03  0.00000000000E+00 0.  1.
          6    1    1    2  502    0  0.23912407905E+03 -0.34797609685E+03 -0.30295560768E+03  0.54738815239E+03  0.17200000000E+03 0. -1.
         -6    1    1    2    0  501 -0.23912407905E+03  0.34797609685E+03 -0.42396718219E+03  0.62257518480E+03  0.17200000000E+03 0.  1.
</event>
<event>
 4    1  0.3205520E-002  0.3000638E+03  0.7818608E-02  0.1085209E+00
         -2   -1    0    0    0  501 -0.00000000000E+00  0.00000000000E+00  0.41971882626E+02  0.41971882626E+02  0.00000000000E+00 0.  1.
          2   -1    0    0  502    0  0.00000000000E+00 -0.00000000000E+00 -0.22480446430E+04  0.22480446430E+04  0.00000000000E+00 0. -1.
          6    1    1    2  502    0  0.29415018333E+02  0.24410861207E+03 -0.85813672154E+03  0.90908574438E+03  0.17200000000E+03 0. -1.
         -6    1    1    2    0  501 -0.29415018333E+02 -0.24410861207E+03 -0.13479360388E+04  0.13809307812E+04  0.17200000000E+03 0. -1.
</event>
<event>
 4    1  0.3205520E-002  0.6065215E+03  0.7818608E-02  0.9891968E-01
          2   -1    0    0  502    0  0.00000000000E+00  0.00000000000E+00  0.43335122037E+03  0.43335122037E+03  0.00000000000E+00 0. -1.
         -2   -1    0    0    0  501 -0.00000000000E+00 -0.00000000000E+00 -0.10290876286E+04  0.10290876286E+04  0.00000000000E+00 0.  1.
          6    1    1    2  502    0 -0.44227263880E+03 -0.37772903984E+03  0.81123735229E+01  0.60657573738E+03  0.17200000000E+03 0. -1.
         -6    1    1    2    0  501  0.44227263880E+03  0.37772903984E+03 -0.60384878178E+03  0.85586311162E+03  0.17200000000E+03 0.  1.
</event>
<event>
 4    1  0.3205520E-002  0.2165837E+03  0.7818608E-02  0.1136456E+00
          2   -1    0    0  502    0  0.00000000000E+00  0.00000000000E+00  0.19624055847E+04  0.19624055847E+04  0.00000000000E+00 0. -1.
         -2   -1    0    0    0  501 -0.00000000000E+00 -0.00000000000E+00 -0.29287172717E+02  0.29287172717E+02  0.00000000000E+00 0.  1.
          6    1    1    2  502    0  0.67790919522E+02  0.11282235358E+03  0.13935222346E+04  0.14102527116E+04  0.17200000000E+03 0. -1.
         -6    1    1    2    0  501 -0.67790919522E+02 -0.11282235358E+03  0.53959617736E+03  0.58144004579E+03  0.17200000000E+03 0.  1.
</event>
<event>
 4    1  0.3205520E-002  0.3576805E+03  0.7818608E-02  0.1059506E+00
          1   -1    0    0  502    0  0.00000000000E+00  0.00000000000E+00  0.12855799047E+04  0.12855799047E+04  0.00000000000E+00 0. -1.
         -1   -1    0    0    0  501 -0.00000000000E+00 -0.00000000000E+00 -0.18854835444E+03  0.18854835444E+03  0.00000000000E+00 0.  1.
          6    1    1    2  502    0 -0.30564214506E+03  0.70243835486E+02  0.10550032273E+04  0.11139870407E+04  0.17200000000E+03 0. -1.
         -6    1    1    2    0  501  0.30564214506E+03 -0.70243835486E+02  0.42028322913E+02  0.36014121839E+03  0.17200000000E+03 0.  1.
</event>
<event>
 4    1  0.3205520E-002  0.1827154E+03  0.7818608E-02  0.1165201E+00
          1   -1    0    0  502    0  0.00000000000E+00  0.00000000000E+00  0.24193866631E+02  0.24193866631E+02  0.00000000000E+00 0. -1.
         -1   -1    0    0    0  501 -0.00000000000E+00 -0.00000000000E+00 -0.13808523668E+04  0.13808523668E+04  0.00000000000E+00 0.  1.
          6    1    1    2  502    0  0.61651316858E+02  0.17041831576E+00 -0.69685989771E+03  0.72041559600E+03  0.17200000000E+03 0. -1.
         -6    1    1    2    0  501 -0.61651316858E+02 -0.17041831576E+00 -0.65979860248E+03  0.68463063746E+03  0.17200000000E+03 0.  1.
</event>
<event>
 4    1  0.3205520E-002  0.2030042E+03  0.7818608E-02  0.1147229E+00
          1   -1    0    0  502    0  0.00000000000E+00  0.00000000000E+00  0.12709596947E+03  0.12709596947E+03  0.00000000000E+00 0. -1.
         -1   -1    0    0    0  501 -0.00000000000E+00 -0.00000000000E+00 -0.32909188058E+03  0.32909188058E+03  0.00000000000E+00 0.  1.
          6    1    1    2  502    0  0.10583321651E+03 -0.20640345837E+02 -0.73327026517E+02  0.21584148445E+03  0.17200000000E+03 0.  1.
         -6    1    1    2    0  501 -0.10583321651E+03  0.20640345837E+02 -0.12866888460E+03  0.24034636560E+03  0.17200000000E+03 0. -1.
</event>
<event>
 4    1  0.3205520E-002  0.3421428E+03  0.7818608E-02  0.1065887E+00
         -3   -1    0    0    0  501 -0.00000000000E+00  0.00000000000E+00  0.37842768003E+03  0.37842768003E+03  0.00000000000E+00 0.  1.
          3   -1    0    0  502    0  0.00000000000E+00 -0.00000000000E+00 -0.30942769755E+03  0.30942769755E+03  0.00000000000E+00 0. -1.
          6    1    1    2  502    0  0.13265487988E+03  0.26434897563E+03  0.28613024477E+02  0.34333715680E+03  0.17200000000E+03 0. -1.
         -6    1    1    2    0  501 -0.13265487988E+03 -0.26434897563E+03  0.40386958006E+02  0.34451822078E+03  0.17200000000E+03 0.  1.
</event>
<event>
 4    1  0.3205520E-002  0.3411206E+03  0.7818608E-02  0.1066320E+00
          1   -1    0    0  502    0  0.00000000000E+00  0.00000000000E+00  0.74475124995E+03  0.74475124995E+03  0.00000000000E+00 0. -1.
         -1   -1    0    0    0  501 -0.00000000000E+00 -0.00000000000E+00 -0.15677067297E+03  0.15677067297E+03  0.00000000000E+00 0.  1.
          6    1    1    2  502    0  0.13132683286E+03  0.26369026134E+03  0.32010443168E+03  0.46779283678E+03  0.17200000000E+03 0. -1.
         -6    1    1    2    0  501 -0.13132683286E+03 -0.26369026134E+03  0.26787614529E+03  0.43372908614E+03  0.17200000000E+03 0.  1.
</event>
<event>
 4    1  0.3205520E-002  0.1771136E+03  0.7818608E-02  0.1170626E+00
          1   -1    0    0  502    0  0.00000000000E+00  0.00000000000E+00  0.18622315219E+03  0.18622315219E+03  0.00000000000E+00 0. -1.
         -1   -1    0    0    0  501 -0.00000000000E+00 -0.00000000000E+00 -0.63902400734E+03  0.63902400734E+03  0.00000000000E+00 0.  1.
          6    1    1    2  502    0 -0.39625575242E+02  0.14664176422E+02  0.12768624893E+03  0.21834148128E+03  0.17200000000E+03 0. -1.
         -6    1    1    2    0  501  0.39625575242E+02 -0.14664176422E+02 -0.58048710408E+03  0.60690567824E+03  0.17200000000E+03 0.  1.
</event>
<event>
 4    1  0.3205520E-002  0.2745924E+03  0.7818608E-02  0.1098680E+00
          2   -1    0    0  502    0  0.00000000000E+00  0.00000000000E+00  0.19582298363E+03  0.19582298363E+03  0.00000000000E+00 0. -1.
         -2   -1    0    0    0  501 -0.00000000000E+00 -0.00000000000E+00 -0.60515099691E+03  0.60515099691E+03  0.00000000000E+00 0.  1.
          6    1    1    2  502    0  0.10920858781E+03  0.18409365653E+03  0.36865845128E+02  0.27705609642E+03  0.17200000000E+03 0. -1.
         -6    1    1    2    0  501 -0.10920858781E+03 -0.18409365653E+03 -0.44619385841E+03  0.52391788413E+03  0.17200000000E+03 0.  1.
</event>
<event>
 4    1  0.3205520E-002  0.2151252E+03  0.7818608E-02  0.1137570E+00
         -2   -1    0    0    0  501 -0.00000000000E+00  0.00000000000E+00  0.31319157630E+02  0.31319157630E+02  0.00000000000E+00 0.  1.
          2   -1    0    0  502    0  0.00000000000E+00 -0.00000000000E+00 -0.15260841103E+04  0.15260841103E+04  0.00000000000E+00 0. -1.
          6    1    1    2  502    0  0.76004606707E+02  0.10448990332E+03 -0.88610439241E+03  0.91184419414E+03  0.17200000000E+03 0.  1.
         -6    1    1    2    0  501 -0.76004606707E+02 -0.10448990332E+03 -0.60866056026E+03  0.64555907379E+03  0.17200000000E+03 0.  1.
</event>
<event>
 4    1  0.3205520E-002  0.2377989E+03  0.7818608E-02  0.1121268E+00
         -1   -1    0    0    0  501 -0.00000000000E+00  0.00000000000E+00  0.58927471350E+03  0.58927471350E+03  0.00000000000E+00 0.  1.
          1   -1    0    0  502    0  0.00000000000E+00 -0.00000000000E+00 -0.11605394669E+03  0.11605394669E+03  0.00000000000E+00 0. -1.
          6    1    1    2  502    0  0.39427599230E+02 -0.15940442043E+03  0.89874398874E+02  0.25421587757E+03  0.17200000000E+03 0. -1.
         -6    1    1    2    0  501 -0.39427599230E+02  0.15940442043E+03  0.38334636794E+03  0.45111278262E+03  0.17200000000E+03 0.  1.
</event>
<event>
 4    1  0.3205520E-002  0.1903849E+03  0.7818608E-02  0.1158115E+00
          4   -1    0    0  502    0  0.00000000000E+00  0.00000000000E+00  0.86413573196E+02  0.86413573196E+02  0.00000000000E+00 0. -1.
         -4   -1    0    0    0  501 -0.00000000000E+00 -0.00000000000E+00 -0.42221389529E+03  0.42221389529E+03  0.00000000000E+00 0.  1.
          6    1    1    2  502    0  0.80588984900E+02 -0.12954600356E+02 -0.18846628802E+03  0.26789167191E+03  0.17200000000E+03 0.  1.
         -6    1    1    2    0  501 -0.80588984900E+02  0.12954600356E+02 -0.14733403407E+03  0.24073579658E+03  0.17200000000E+03 0.  1.
</event>
<event>
 4    1  0.3205520E-002  0.3974782E+03  0.7818608E-02  0.1044656E+00
         -1   -1    0    0    0  501 -0.00000000000E+00  0.00000000000E+00  0.76380753647E+03  0.76380753647E+03  0.00000000000E+00 0.  1.
          1   -1    0    0  502    0  0.00000000000E+00 -0.00000000000E+00 -0.22155226128E+03  0.22155226128E+03  0.00000000000E+00 0. -1.
          6    1    1    2  502    0 -0.31919151235E+03 -0.16285473649E+03  0.14418435497E+03  0.42282149303E+03  0.17200000000E+03 0.  1.
         -6    1    1    2    0  501  0.31919151235E+03  0.16285473649E+03  0.39807092022E+03  0.56253830472E+03  0.17200000000E+03 0.  1.
</event>
<event>
 4    1  0.3205520E-002  0.3686828E+03  0.7818608E-02  0.1055198E+00
         -2   -1    0    0    0  501 -0.00000000000E+00  0.00000000000E+00  0.83688043182E+02  0.83688043182E+02  0.00000000000E+00 0.  1.
          2   -1    0    0  502    0  0.00000000000E+00 -0.00000000000E+00 -0.16440125272E+04  0.16440125272E+04  0.00000000000E+00 0. -1.
          6    1    1    2  502    0 -0.32567645329E+03  0.16669633065E+02 -0.68535603802E+03  0.77822871172E+03  0.17200000000E+03 0. -1.
         -6    1    1    2    0  501  0.32567645329E+03 -0.16669633065E+02 -0.87496844596E+03  0.94947185862E+03  0.17200000000E+03 0. -1.
</event>
<event>
 4    1  0.3205520E-002  0.1732271E+03  0.7818608E-02  0.1174524E+00
          2   -1    0    0  502    0  0.00000000000E+00  0.00000000000E+00  0.10382858585E+04  0.10382858585E+04  0.00000000000E+00 0. -1.
         -2   -1    0    0    0  501 -0.00000000000E+00 -0.00000000000E+00 -0.28913509221E+02  0.28913509221E+02  0.00000000000E+00 0.  1.
          6    1    1    2  502    0  0.15571548481E+02 -0.13459510819E+02  0.51572855851E+03  0.54404372767E+03  0.17200000000E+03 0. -1.
         -6    1    1    2    0  501 -0.15571548481E+02  0.13459510819E+02  0.49364379079E+03  0.52315564007E+03  0.17200000000E+03 0. -1.
</event>
<event>
 4    1  0.3205520E-002  0.3097197E+03  0.7818608E-02  0.1080480E+00
          2   -1    0    0  502    0  0.00000000000E+00  0.00000000000E+00  0.10998153568E+04  0.10998153568E+04  0.00000000000E+00 0. -1.
         -2   -1    0    0    0  501 -0.00000000000E+00 -0.00000000000E+00 -0.10096395721E+03  0.10096395721E+03  0.00000000000E+00 0.  1.
          6    1    1    2  502    0  0.25309055531E+03 -0.47827644908E+02  0.72093905794E+03  0.78465243137E+03  0.17200000000E+03 0.  1.
         -6    1    1    2    0  501 -0.25309055531E+03  0.47827644908E+02  0.27791234163E+03  0.41612688261E+03  0.17200000000E+03 0.  1.
</event>
<event>
 4    1  0.3205520E-002  0.2962653E+03  0.7818608E-02  0.1087123E+00
         -2   -1    0    0    0  501 -0.00000000000E+00  0.00000000000E+00  0.37947808266E+02  0.37947808266E+02  0.00000000000E+00 0.  1.
          2   -1    0    0  502    0  0.00000000000E+00 -0.00000000000E+00 -0.35001790784E+04  0.35001790784E+04  0.00000000000E+00 0. -1.
          6    1    1    2  502    0  0.23428670983E+03  0.57435531023E+02 -0.70083093497E+03  0.76087916389E+03  0.17200000000E+03 0. -1.
         -6    1    1    2    0  501 -0.23428670983E+03 -0.57435531023E+02 -0.27614003352E+04  0.27772477228E+04  0.17200000000E+03 0.  1.
</event>
<event>
 4    1  0.3205520E-002  0.2889905E+03  0.7818608E-02  0.1090877E+00
         -2   -1    0    0    0  501 -0.00000000000E+00  0.00000000000E+00  0.37172199201E+03  0.37172199201E+03  0.00000000000E+00 0.  1.
          2   -1    0    0  502    0  0.00000000000E+00 -0.00000000000E+00 -0.24687690311E+03  0.24687690311E+03  0.00000000000E+00 0. -1.
          6    1    1    2  502    0 -0.35310407925E+02  0.22953149214E+03  0.15518306143E+03  0.32802029410E+03  0.17200000000E+03 0.  1.
         -6    1    1    2    0  501  0.35310407925E+02 -0.22953149214E+03 -0.30337972529E+02  0.29057860101E+03  0.17200000000E+03 0.  1.
</event>
<event>
 4    1  0.3205520E-002  0.2599943E+03  0.7818608E-02  0.1107147E+00
         -2   -1    0    0    0  501 -0.00000000000E+00  0.00000000000E+00  0.39492971333E+02  0.39492971333E+02  0.00000000000E+00 0.  1.
          2   -1    0    0  502    0  0.00000000000E+00 -0.00000000000E+00 -0.17133129463E+04  0.17133129463E+04  0.00000000000E+00 0. -1.
          6    1    1    2  502    0 -0.76195826610E+02  0.17946366347E+03 -0.86444857585E+03  0.90270058756E+03  0.17200000000E+03 0. -1.
         -6    1    1    2    0  501  0.76195826610E+02 -0.17946366347E+03 -0.80937139911E+03  0.85010533006E+03  0.17200000000E+03 0.  1.
</event>
<event>
 4    1  0.3205520E-002  0.3713772E+03  0.7818608E-02  0.1054168E+00
         -1   -1    0    0    0  501 -0.00000000000E+00  0.00000000000E+00  0.23996609049E+03  0.23996609049E+03  0.00000000000E+00 0.  1.
          1   -1    0    0  502    0  0.00000000000E+00 -0.00000000000E+00 -0.12514102876E+04  0.12514102876E+04  0.00000000000E+00 0. -1.
          6    1    1    2  502    0 -0.14098994815E+03  0.29742030793E+03 -0.10540521990E+04  0.11175629930E+04  0.17200000000E+03 0. -1.
         -6    1    1    2    0  501  0.14098994815E+03 -0.29742030793E+03  0.42608001920E+02  0.37381338509E+03  0.17200000000E+03 0.  1.
</event>
<event>
 4    1  0.3205520E-002  0.5196810E+03  0.7818608E-02  0.1008766E+00
         -1   -1    0    0    0  501 -0.00000000000E+00  0.00000000000E+00  0.88825789462E+03  0.88825789462E+03  0.00000000000E+00 0.  1.
          1   -1    0    0  502    0  0.00000000000E+00 -0.00000000000E+00 -0.48658139449E+03  0.48658139449E+03  0.00000000000E+00 0. -1.
          6    1    1    2  502    0  0.47568041907E+03 -0.11921593344E+03 -0.22020014163E+03  0.56440801044E+03  0.17200000000E+03 0. -1.
         -6    1    1    2    0  501 -0.47568041907E+03  0.11921593344E+03  0.62187664176E+03  0.81043127866E+03  0.17200000000E+03 0.  1.
</event>
<event>
 4    1  0.3205520E-002  0.2240230E+03  0.7818608E-02  0.1130919E+00
         -2   -1    0    0    0  501 -0.00000000000E+00  0.00000000000E+00  0.22843632582E+03  0.22843632582E+03  0.00000000000E+00 0.  1.
          2   -1    0    0  502    0  0.00000000000E+00 -0.00000000000E+00 -0.23100850849E+03  0.23100850849E+03  0.00000000000E+00 0. -1.
          6    1    1    2  502    0 -0.14139571935E+03 -0.24689425927E+02 -0.52124056616E+02  0.23000703137E+03  0.17200000000E+03 0.  1.
         -6    1    1    2    0  501  0.14139571935E+03  0.24689425927E+02  0.49551873951E+02  0.22943780293E+03  0.17200000000E+03 0.  1.
</event>
<event>
 4    1  0.3205520E-002  0.3180464E+03  0.7818608E-02  0.1076552E+00
         -1   -1    0    0    0  501 -0.00000000000E+00  0.00000000000E+00  0.10559031435E+03  0.10559031435E+03  0.00000000000E+00 0.  1.
          1   -1    0    0  502    0  0.00000000000E+00 -0.00000000000E+00 -0.96021782467E+03  0.96021782467E+03  0.00000000000E+00 0. -1.
          6    1    1    2  502    0 -0.83024115461E+02 -0.25431572781E+03 -0.40159202715E+03  0.51227887857E+03  0.17200000000E+03 0. -1.
         -6    1    1    2    0  501  0.83024115461E+02  0.25431572781E+03 -0.45303548317E+03  0.55352926045E+03  0.17200000000E+03 0. -1.
</event>
<event>
 4    1  0.3205520E-002  0.3147053E+03  0.7818608E-02  0.1078112E+00
          2   -1    0    0  502    0  0.00000000000E+00  0.00000000000E+00  0.25578641977E+03  0.25578641977E+03  0.00000000000E+00 0. -1.
         -2   -1    0    0    0  501 -0.00000000000E+00 -0.00000000000E+00 -0.53449562141E+03  0.53449562141E+03  0.00000000000E+00 0.  1.
          6    1    1    2  502    0  0.25792713691E+03 -0.54120182143E+02  0.68080046668E+02  0.32198492950E+03  0.17200000000E+03 0. -1.
         -6    1    1    2    0  501 -0.25792713691E+03  0.54120182143E+02 -0.34678924831E+03  0.46829711168E+03  0.17200000000E+03 0.  1.
</event>
<event>
 4    1  0.3205520E-002  0.1941811E+03  0.7818608E-02  0.1154743E+00
         -1   -1    0    0    0  501 -0.00000000000E+00  0.00000000000E+00  0.99846280960E+02  0.99846280960E+02  0.00000000000E+00 0.  1.
          1   -1    0    0  502    0  0.00000000000E+00 -0.00000000000E+00 -0.13476322900E+04  0.13476322900E+04  0.00000000000E+00 0. -1.
          6    1    1    2  502    0  0.58616444614E+02 -0.68457276872E+02 -0.12379092039E+04  0.12530464810E+04  0.17200000000E+03 0. -1.
         -6    1    1    2    0  501 -0.58616444614E+02  0.68457276872E+02 -0.98768051187E+01  0.19443208998E+03  0.17200000000E+03 0.  1.
</event>
<event>
 4    1  0.3205520E-002  0.3231320E+03  0.7818608E-02  0.1074217E+00
          2   -1    0    0  502    0  0.00000000000E+00  0.00000000000E+00  0.32196698437E+03  0.32196698437E+03  0.00000000000E+00 0. -1.
         -2   -1    0    0    0  501 -0.00000000000E+00 -0.00000000000E+00 -0.32868772061E+03  0.32868772061E+03  0.00000000000E+00 0.  1.
          6    1    1    2  502    0 -0.23011594032E+03  0.14790858317E+03  0.34222206817E+02  0.32493915492E+03  0.17200000000E+03 0. -1.
         -6    1    1    2    0  501  0.23011594032E+03 -0.14790858317E+03 -0.40942943058E+02  0.32571555006E+03  0.17200000000E+03 0.  1.
</event>
<event>
 4    1  0.3205520E-002  0.1827864E+03  0.7818608E-02  0.1165133E+00
         -2   -1    0    0    0  501 -0.00000000000E+00  0.00000000000E+00  0.91856766054E+02  0.91856766054E+02  0.00000000000E+00 0.  1.
          2   -1    0    0  502    0  0.00000000000E+00 -0.00000000000E+00 -0.36712675664E+03  0.36712675664E+03  0.00000000000E+00 0. -1.
          6    1    1    2  502    0 -0.61247749918E+02  0.86931829136E+01 -0.15971670420E+03  0.24273500757E+03  0.17200000000E+03 0.  1.
         -6    1    1    2    0  501  0.61247749918E+02 -0.86931829136E+01 -0.11555328639E+03  0.21624851513E+03  0.17200000000E+03 0.  1.
</event>
<event>
 4    1  0.3205520E-002  0.4674587E+03  0.7818608E-02  0.1022640E+00
         -2   -1    0    0    0  501 -0.00000000000E+00  0.00000000000E+00  0.33558393581E+03  0.33558393581E+03  0.00000000000E+00 0.  1.
          2   -1    0    0  502    0  0.00000000000E+00 -0.00000000000E+00 -0.68327389604E+03  0.68327389604E+03  0.00000000000E+00 0. -1.
          6    1    1    2  502    0 -0.16432527680E+03  0.40240635326E+03 -0.28429255064E+03  0.54711966159E+03  0.17200000000E+03 0. -1.
         -6    1    1    2    0  501  0.16432527680E+03 -0.40240635326E+03 -0.63397409593E+02  0.47173817027E+03  0.17200000000E+03 0.  1.
</event>
<event>
 4    1  0.3205520E-002  0.1740584E+03  0.7818608E-02  0.1173680E+00
         -2   -1    0    0    0  501 -0.00000000000E+00  0.00000000000E+00  0.49904448967E+02  0.49904448967E+02  0.00000000000E+00 0.  1.
          2   -1    0    0  502    0  0.00000000000E+00 -0.00000000000E+00 -0.11240790644E+04  0.11240790644E+04  0.00000000000E+00 0. -1.
          6    1    1    2  502    0  0.25759174548E+02 -0.69848401107E+01 -0.93517217823E+03  0.95123252993E+03  0.17200000000E+03 0. -1.
         -6    1    1    2    0  501 -0.25759174548E+02  0.69848401107E+01 -0.13900243715E+03  0.22275098339E+03  0.17200000000E+03 0.  1.
</event>
<event>
 4    1  0.3205520E-002  0.4114571E+03  0.7818608E-02  0.1039883E+00
          2   -1    0    0  502    0  0.00000000000E+00  0.00000000000E+00  0.85958004181E+03  0.85958004181E+03  0.00000000000E+00 0. -1.
         -2   -1    0    0    0  501 -0.00000000000E+00 -0.00000000000E+00 -0.20173488627E+03  0.20173488627E+03  0.00000000000E+00 0.  1.
          6    1    1    2  502    0  0.19683497665E+03  0.31775611574E+03  0.41062194354E+03  0.58129797664E+03  0.17200000000E+03 0. -1.
         -6    1    1    2    0  501 -0.19683497665E+03 -0.31775611574E+03  0.24722321200E+03  0.48001695145E+03  0.17200000000E+03 0.  1.
</event>
<event>
 4    1  0.3205520E-002  0.2352186E+03  0.7818608E-02  0.1123020E+00
         -1   -1    0    0    0  501 -0.00000000000E+00  0.00000000000E+00  0.86365029906E+03  0.86365029906E+03  0.00000000000E+00 0.  1.
          1   -1    0    0  502    0  0.00000000000E+00 -0.00000000000E+00 -0.84295300175E+02  0.84295300175E+02  0.00000000000E+00 0. -1.
          6    1    1    2  502    0  0.29453226277E+02  0.15772217765E+03  0.15746933234E+03  0.28306248160E+03  0.17200000000E+03 0. -1.
         -6    1    1    2    0  501 -0.29453226277E+02 -0.15772217765E+03  0.62188566654E+03  0.66488311763E+03  0.17200000000E+03 0.  1.
</event>
<event>
 4    1  0.3205520E-002  0.1754155E+03  0.7818608E-02  0.1172315E+00
          1   -1    0    0  502    0  0.00000000000E+00  0.00000000000E+00  0.12438550597E+04  0.12438550597E+04  0.00000000000E+00 0. -1.
         -1   -1    0    0    0  501 -0.00000000000E+00 -0.00000000000E+00 -0.22412099383E+03  0.22412099383E+03  0.00000000000E+00 0.  1.
          6    1    1    2  502    0  0.49879898212E+01  0.34083756537E+02  0.12021628029E+04  0.12148934057E+04  0.17200000000E+03 0. -1.
         -6    1    1    2    0  501 -0.49879898212E+01 -0.34083756537E+02 -0.18242873708E+03  0.25308264779E+03  0.17200000000E+03 0.  1.
</event>
<event>
 4    1  0.3205520E-002  0.3743173E+03  0.7818608E-02  0.1053054E+00
          2   -1    0    0  502    0  0.00000000000E+00  0.00000000000E+00  0.17326992217E+04  0.17326992217E+04  0.00000000000E+00 0. -1.
         -2   -1    0    0    0  501 -0.00000000000E+00 -0.00000000000E+00 -0.88413105529E+02  0.88413105529E+02  0.00000000000E+00 0.  1.
          6    1    1    2  502    0  0.15933263294E+03 -0.29179191923E+03  0.55607719619E+03  0.67032474232E+03  0.17200000000E+03 0. -1.
         -6    1    1    2    0  501 -0.15933263294E+03  0.29179191923E+03  0.10882089200E+04  0.11507875849E+04  0.17200000000E+03 0.  1.
</event>
<event>
 4    1  0.3205520E-002  0.2318557E+03  0.7818608E-02  0.1125340E+00
         -2   -1    0    0    0  501 -0.00000000000E+00  0.00000000000E+00  0.30484832549E+03  0.30484832549E+03  0.00000000000E+00 0.  1.
          2   -1    0    0  502    0  0.00000000000E+00 -0.00000000000E+00 -0.27373360018E+03  0.27373360018E+03  0.00000000000E+00 0. -1.
          6    1    1    2  502    0  0.51557258751E+02  0.14667970973E+03 -0.15700061362E+03  0.28001121559E+03  0.17200000000E+03 0. -1.
         -6    1    1    2    0  501 -0.51557258751E+02 -0.14667970973E+03  0.18811533894E+03  0.29857071008E+03  0.17200000000E+03 0.  1.
</event>
<event>
 4    1  0.3205520E-002  0.1794449E+03  0.7818608E-02  0.1168341E+00
         -1   -1    0    0    0  501 -0.00000000000E+00  0.00000000000E+00  0.11265580805E+03  0.11265580805E+03  0.00000000000E+00 0.  1.
          1   -1    0    0  502    0  0.00000000000E+00 -0.00000000000E+00 -0.30289151909E+03  0.30289151909E+03  0.00000000000E+00 0. -1.
          6    1    1    2  502    0  0.21561884962E+02  0.46384951750E+02 -0.14442933035E+03  0.23034823658E+03  0.17200000000E+03 0.  1.
         -6    1    1    2    0  501 -0.21561884962E+02 -0.46384951750E+02 -0.45806380701E+02  0.18519909056E+03  0.17200000000E+03 0.  1.
</event>
<event>
 4    1  0.3205520E-002  0.2499730E+03  0.7818608E-02  0.1113322E+00
         -2   -1    0    0    0  501 -0.00000000000E+00  0.00000000000E+00  0.49528800069E+02  0.49528800069E+02  0.00000000000E+00 0.  1.
          2   -1    0    0  502    0  0.00000000000E+00 -0.00000000000E+00 -0.12759551972E+04  0.12759551972E+04  0.00000000000E+00 0. -1.
          6    1    1    2  502    0 -0.17911367715E+03 -0.28649757399E+02 -0.68346066997E+03  0.72773965492E+03  0.17200000000E+03 0. -1.
         -6    1    1    2    0  501  0.17911367715E+03  0.28649757399E+02 -0.54296572714E+03  0.59774434233E+03  0.17200000000E+03 0.  1.
</event>
<event>
 4    1  0.3205520E-002  0.2116820E+03  0.7818608E-02  0.1140241E+00
         -2   -1    0    0    0  501 -0.00000000000E+00  0.00000000000E+00  0.18370709943E+03  0.18370709943E+03  0.00000000000E+00 0.  1.
          2   -1    0    0  502    0  0.00000000000E+00 -0.00000000000E+00 -0.12553252800E+04  0.12553252800E+04  0.00000000000E+00 0. -1.
          6    1    1    2  502    0  0.11843305590E+03  0.34624960816E+02 -0.11816502132E+04  0.12004609544E+04  0.17200000000E+03 0. -1.
         -6    1    1    2    0  501 -0.11843305590E+03 -0.34624960816E+02  0.11003203263E+03  0.23857142504E+03  0.17200000000E+03 0.  1.
</event>
<event>
 4    1  0.3205520E-002  0.1810903E+03  0.7818608E-02  0.1166752E+00
          1   -1    0    0  502    0  0.00000000000E+00  0.00000000000E+00  0.19992457441E+04  0.19992457441E+04  0.00000000000E+00 0. -1.
         -1   -1    0    0    0  501 -0.00000000000E+00 -0.00000000000E+00 -0.25219425241E+02  0.25219425241E+02  0.00000000000E+00 0.  1.
          6    1    1    2  502    0 -0.17234018733E+02 -0.53969420420E+02  0.15855046474E+04  0.15958128639E+04  0.17200000000E+03 0. -1.
         -6    1    1    2    0  501  0.17234018733E+02  0.53969420420E+02  0.38852167141E+03  0.42865230537E+03  0.17200000000E+03 0.  1.
</event>
<event>
 4    1  0.3205520E-002  0.3025510E+03  0.7818608E-02  0.1083972E+00
          1   -1    0    0  502    0  0.00000000000E+00  0.00000000000E+00  0.87252172877E+02  0.87252172877E+02  0.00000000000E+00 0. -1.
         -1   -1    0    0    0  501 -0.00000000000E+00 -0.00000000000E+00 -0.12112917043E+04  0.12112917043E+04  0.00000000000E+00 0.  1.
          6    1    1    2  502    0 -0.24392503687E+03  0.49534727920E+02 -0.32444330418E+03  0.44362210327E+03  0.17200000000E+03 0. -1.
         -6    1    1    2    0  501  0.24392503687E+03 -0.49534727920E+02 -0.79959622728E+03  0.85492177394E+03  0.17200000000E+03 0.  1.
</event>
<event>
 4    1  0.3205520E-002  0.1913055E+03  0.7818608E-02  0.1157289E+00
          2   -1    0    0  502    0  0.00000000000E+00  0.00000000000E+00  0.25747131073E+03  0.25747131073E+03  0.00000000000E+00 0. -1.
         -2   -1    0    0    0  501 -0.00000000000E+00 -0.00000000000E+00 -0.29899451877E+03  0.29899451877E+03  0.00000000000E+00 0.  1.
          6    1    1    2  502    0  0.73748370312E+02 -0.39685923250E+02  0.18075971018E+03  0.26319549284E+03  0.17200000000E+03 0. -1.
         -6    1    1    2    0  501 -0.73748370312E+02  0.39685923250E+02 -0.22228291822E+03  0.29327033666E+03  0.17200000000E+03 0.  1.
</event>
<event>
 4    1  0.3205520E-002  0.2402929E+03  0.7818608E-02  0.1119598E+00
         -1   -1    0    0    0  501 -0.00000000000E+00  0.00000000000E+00  0.43606663967E+02  0.43606663967E+02  0.00000000000E+00 0.  1.
          1   -1    0    0  502    0  0.00000000000E+00 -0.00000000000E+00 -0.15226017329E+04  0.15226017329E+04  0.00000000000E+00 0. -1.
          6    1    1    2  502    0 -0.15953558443E+03  0.52010437408E+02 -0.10222333545E+04  0.10500960524E+04  0.17200000000E+03 0. -1.
         -6    1    1    2    0  501  0.15953558443E+03 -0.52010437408E+02 -0.45676171446E+03  0.51611234445E+03  0.17200000000E+03 0.  1.
</event>
<event>
 4    1  0.3205520E-002  0.2401356E+03  0.7818608E-02  0.1119703E+00
         -3   -1    0    0    0  501 -0.00000000000E+00  0.00000000000E+00  0.16946605396E+04  0.16946605396E+04  0.00000000000E+00 0.  1.
          3   -1    0    0  502    0  0.00000000000E+00 -0.00000000000E+00 -0.36930708202E+02  0.36930708202E+02  0.00000000000E+00 0. -1.
          6    1    1    2  502    0 -0.33589340075E+01  0.16754051618E+03  0.58611524370E+03  0.63340049407E+03  0.17200000000E+03 0. -1.
         -6    1    1    2    0  501  0.33589340075E+01 -0.16754051618E+03  0.10716145877E+04  0.10981907537E+04  0.17200000000E+03 0.  1.
</event>
<event>
 4    1  0.3205520E-002  0.2435876E+03  0.7818608E-02  0.1117426E+00
          1   -1    0    0  502    0  0.00000000000E+00  0.00000000000E+00  0.30807300588E+03  0.30807300588E+03  0.00000000000E+00 0. -1.
         -1   -1    0    0    0  501 -0.00000000000E+00 -0.00000000000E+00 -0.28287722709E+03  0.28287722709E+03  0.00000000000E+00 0.  1.
          6    1    1    2  502    0  0.99603672754E+02  0.14081914639E+03 -0.15432294061E+03  0.28835827301E+03  0.17200000000E+03 0. -1.
         -6    1    1    2    0  501 -0.99603672754E+02 -0.14081914639E+03  0.17951871940E+03  0.30259195996E+03  0.17200000000E+03 0.  1.
</event>
<event>
 4    1  0.3205520E-002  0.1733146E+03  0.7818608E-02  0.1174435E+00
          1   -1    0    0  502    0  0.00000000000E+00  0.00000000000E+00  0.67284972058E+02  0.67284972058E+02  0.00000000000E+00 0. -1.
         -1   -1    0    0    0  501 -0.00000000000E+00 -0.00000000000E+00 -0.56032436951E+03  0.56032436951E+03  0.00000000000E+00 0.  1.
          6    1    1    2  502    0 -0.21294394053E+02  0.71440283387E+00 -0.10504045946E+03  0.20266094768E+03  0.17200000000E+03 0. -1.
         -6    1    1    2    0  501  0.21294394053E+02 -0.71440283387E+00 -0.38799893799E+03  0.42494839389E+03  0.17200000000E+03 0.  1.
</event>
<event>
 4    1  0.3205520E-002  0.3031429E+03  0.7818608E-02  0.1083680E+00
          2   -1    0    0  502    0  0.00000000000E+00  0.00000000000E+00  0.49476253666E+03  0.49476253666E+03  0.00000000000E+00 0. -1.
         -2   -1    0    0    0  501 -0.00000000000E+00 -0.00000000000E+00 -0.20255856677E+03  0.20255856677E+03  0.00000000000E+00 0.  1.
          6    1    1    2  502    0 -0.22722940633E+03  0.10333638056E+03  0.24657820775E+03  0.39076389699E+03  0.17200000000E+03 0. -1.
         -6    1    1    2    0  501  0.22722940633E+03 -0.10333638056E+03  0.45625762133E+02  0.30655720644E+03  0.17200000000E+03 0.  1.
</event>
<event>
 4    1  0.3205520E-002  0.4760257E+03  0.7818608E-02  0.1020233E+00
          2   -1    0    0  502    0  0.00000000000E+00  0.00000000000E+00  0.33018868091E+03  0.33018868091E+03  0.00000000000E+00 0. -1.
         -2   -1    0    0    0  501 -0.00000000000E+00 -0.00000000000E+00 -0.72712048898E+03  0.72712048898E+03  0.00000000000E+00 0.  1.
          6    1    1    2  502    0 -0.44381296187E+03 -0.68187381519E+01 -0.73169794013E+02  0.48161629859E+03  0.17200000000E+03 0. -1.
         -6    1    1    2    0  501  0.44381296187E+03  0.68187381519E+01 -0.32376201406E+03  0.57569287129E+03  0.17200000000E+03 0.  1.
</event>
<event>
 4    1  0.3205520E-002  0.1864298E+03  0.7818608E-02  0.1161721E+00
          1   -1    0    0  502    0  0.00000000000E+00  0.00000000000E+00  0.13365484418E+04  0.13365484418E+04  0.00000000000E+00 0. -1.
         -1   -1    0    0    0  501 -0.00000000000E+00 -0.00000000000E+00 -0.84808408719E+02  0.84808408719E+02  0.00000000000E+00 0.  1.
          6    1    1    2  502    0  0.49732656840E+02  0.51949347642E+02  0.12176459917E+04  0.12318351485E+04  0.17200000000E+03 0. -1.
         -6    1    1    2    0  501 -0.49732656840E+02 -0.51949347642E+02  0.34094041326E+02  0.18952170200E+03  0.17200000000E+03 0.  1.
</event>
<event>
 4    1  0.3205520E-002  0.2074127E+03  0.7818608E-02  0.1143631E+00
          1   -1    0    0  502    0  0.00000000000E+00  0.00000000000E+00  0.42961420516E+03  0.42961420516E+03  0.00000000000E+00 0. -1.
         -1   -1    0    0    0  501 -0.00000000000E+00 -0.00000000000E+00 -0.13263149245E+03  0.13263149245E+03  0.00000000000E+00 0.  1.
          6    1    1    2  502    0 -0.75178043322E+02  0.88228610780E+02  0.28764084381E+03  0.35462273050E+03  0.17200000000E+03 0. -1.
         -6    1    1    2    0  501  0.75178043322E+02 -0.88228610780E+02  0.93418689100E+01  0.20762296711E+03  0.17200000000E+03 0.  1.
</event>
<event>
 4    1  0.3205520E-002  0.2061936E+03  0.7818608E-02  0.1144616E+00
         -1   -1    0    0    0  501 -0.00000000000E+00  0.00000000000E+00  0.66670459747E+03  0.66670459747E+03  0.00000000000E+00 0.  1.
          1   -1    0    0  502    0  0.00000000000E+00 -0.00000000000E+00 -0.12867757986E+03  0.12867757986E+03  0.00000000000E+00 0. -1.
          6    1    1    2  502    0  0.14541159332E+02 -0.11278449863E+03 -0.13436728321E+02  0.20663091277E+03  0.17200000000E+03 0. -1.
         -6    1    1    2    0  501 -0.14541159332E+02  0.11278449863E+03  0.55146374593E+03  0.58875126456E+03  0.17200000000E+03 0.  1.
</event>
<event>
 4    1  0.3205520E-002  0.4293619E+03  0.7818608E-02  0.1034062E+00
         -2   -1    0    0    0  501 -0.00000000000E+00  0.00000000000E+00  0.43812981179E+03  0.43812981179E+03  0.00000000000E+00 0.  1.
          2   -1    0    0  502    0  0.00000000000E+00 -0.00000000000E+00 -0.42621484618E+03  0.42621484618E+03  0.00000000000E+00 0. -1.
          6    1    1    2  502    0  0.18120857727E+03  0.34918628395E+03 -0.42892025030E+02  0.43149893996E+03  0.17200000000E+03 0. -1.
         -6    1    1    2    0  501 -0.18120857727E+03 -0.34918628395E+03  0.54806990637E+02  0.43284571801E+03  0.17200000000E+03 0.  1.
</event>
<event>
 4    1  0.3205520E-002  0.3772301E+03  0.7818608E-02  0.1051962E+00
          4   -1    0    0  502    0  0.00000000000E+00  0.00000000000E+00  0.74795920837E+03  0.74795920837E+03  0.00000000000E+00 0. -1.
         -4   -1    0    0    0  501 -0.00000000000E+00 -0.00000000000E+00 -0.63165496263E+03  0.63165496263E+03  0.00000000000E+00 0.  1.
          6    1    1    2  502    0  0.15255267487E+03 -0.29907557082E+03  0.63479130053E+03  0.73841892642E+03  0.17200000000E+03 0. -1.
         -6    1    1    2    0  501 -0.15255267487E+03  0.29907557082E+03 -0.51848705480E+03  0.64119524457E+03  0.17200000000E+03 0.  1.
</event>
<event>
 4    1  0.3205520E-002  0.3815078E+03  0.7818608E-02  0.1050378E+00
         -2   -1    0    0    0  501 -0.00000000000E+00  0.00000000000E+00  0.36536325780E+03  0.36536325780E+03  0.00000000000E+00 0.  1.
          2   -1    0    0  502    0  0.00000000000E+00 -0.00000000000E+00 -0.55345585843E+03  0.55345585843E+03  0.00000000000E+00 0. -1.
          6    1    1    2  502    0  0.30674973095E+02 -0.33915077012E+03 -0.33723904701E+03  0.50919384685E+03  0.17200000000E+03 0. -1.
         -6    1    1    2    0  501 -0.30674973095E+02  0.33915077012E+03  0.14914644637E+03  0.40962526938E+03  0.17200000000E+03 0.  1.
</event>
<event>
 4    1  0.3205520E-002  0.1796649E+03  0.7818608E-02  0.1168128E+00
          2   -1    0    0  502    0  0.00000000000E+00  0.00000000000E+00  0.56970579990E+03  0.56970579990E+03  0.00000000000E+00 0. -1.
         -2   -1    0    0    0  501 -0.00000000000E+00 -0.00000000000E+00 -0.57292492339E+02  0.57292492339E+02  0.00000000000E+00 0.  1.
          6    1    1    2  502    0  0.37797503585E+02 -0.35592255944E+02  0.22326406553E+03  0.28657687087E+03  0.17200000000E+03 0.  1.
         -6    1    1    2    0  501 -0.37797503585E+02  0.35592255944E+02  0.28914924203E+03  0.34042142137E+03  0.17200000000E+03 0. -1.
</event>
<event>
 4    1  0.3205520E-002  0.2152597E+03  0.7818608E-02  0.1137467E+00
         -2   -1    0    0    0  501 -0.00000000000E+00  0.00000000000E+00  0.15296564825E+03  0.15296564825E+03  0.00000000000E+00 0.  1.
          2   -1    0    0  502    0  0.00000000000E+00 -0.00000000000E+00 -0.79614850857E+03  0.79614850857E+03  0.00000000000E+00 0. -1.
          6    1    1    2  502    0  0.10920571372E+03  0.69475418773E+02 -0.69511192841E+03  0.72767940382E+03  0.17200000000E+03 0. -1.
         -6    1    1    2    0  501 -0.10920571372E+03 -0.69475418773E+02  0.51929068100E+02  0.22143475300E+03  0.17200000000E+03 0.  1.
</event>
<event>
 4    1  0.3205520E-002  0.1874522E+03  0.7818608E-02  0.1160780E+00
         -2   -1    0    0    0  501 -0.00000000000E+00  0.00000000000E+00  0.46821072182E+02  0.46821072182E+02  0.00000000000E+00 0.  1.
          2   -1    0    0  502    0  0.00000000000E+00 -0.00000000000E+00 -0.76722741140E+03  0.76722741140E+03  0.00000000000E+00 0. -1.
          6    1    1    2  502    0  0.13307678888E+01 -0.74515557080E+02 -0.30006984870E+03  0.35380821541E+03  0.17200000000E+03 0.  1.
         -6    1    1    2    0  501 -0.13307678888E+01  0.74515557080E+02 -0.42033649052E+03  0.46024026818E+03  0.17200000000E+03 0. -1.
</event>
<event>
 4    1  0.3205520E-002  0.2595789E+03  0.7818608E-02  0.1107397E+00
         -1   -1    0    0    0  501 -0.00000000000E+00  0.00000000000E+00  0.30593085543E+02  0.30593085543E+02  0.00000000000E+00 0.  1.
          1   -1    0    0  502    0  0.00000000000E+00 -0.00000000000E+00 -0.23790591106E+04  0.23790591106E+04  0.00000000000E+00 0. -1.
          6    1    1    2  502    0 -0.66693555626E+02  0.18261750886E+03 -0.15024569670E+04  0.15247157514E+04  0.17200000000E+03 0. -1.
         -6    1    1    2    0  501  0.66693555626E+02 -0.18261750886E+03 -0.84600905803E+03  0.88493644471E+03  0.17200000000E+03 0.  1.
</event>
<event>
 4    1  0.3205520E-002  0.2292834E+03  0.7818608E-02  0.1127145E+00
          2   -1    0    0  502    0  0.00000000000E+00  0.00000000000E+00  0.94186393079E+03  0.94186393079E+03  0.00000000000E+00 0. -1.
         -2   -1    0    0    0  501 -0.00000000000E+00 -0.00000000000E+00 -0.78783355067E+02  0.78783355067E+02  0.00000000000E+00 0.  1.
          6    1    1    2  502    0 -0.11170565571E+03  0.10251211452E+03  0.70708104865E+03  0.74332664186E+03  0.17200000000E+03 0. -1.
         -6    1    1    2    0  501  0.11170565571E+03 -0.10251211452E+03  0.15599952708E+03  0.27732064400E+03  0.17200000000E+03 0.  1.
</event>
<event>
 4    1  0.3205520E-002  0.2434413E+03  0.7818608E-02  0.1117521E+00
         -2   -1    0    0    0  501 -0.00000000000E+00  0.00000000000E+00  0.24553933927E+03  0.24553933927E+03  0.00000000000E+00 0.  1.
          2   -1    0    0  502    0  0.00000000000E+00 -0.00000000000E+00 -0.56536383980E+03  0.56536383980E+03  0.00000000000E+00 0. -1.
          6    1    1    2  502    0  0.71740239461E+02 -0.15663008949E+03 -0.46684931078E+03  0.52650918877E+03  0.17200000000E+03 0. -1.
         -6    1    1    2    0  501 -0.71740239461E+02  0.15663008949E+03  0.14702481024E+03  0.28439399030E+03  0.17200000000E+03 0.  1.
</event>
<event>
 4    1  0.3205520E-002  0.2516264E+03  0.7818608E-02  0.1112281E+00
          2   -1    0    0  502    0  0.00000000000E+00  0.00000000000E+00  0.24203641757E+04  0.24203641757E+04  0.00000000000E+00 0. -1.
         -2   -1    0    0    0  501 -0.00000000000E+00 -0.00000000000E+00 -0.56521349874E+02  0.56521349874E+02  0.00000000000E+00 0.  1.
          6    1    1    2  502    0  0.11056352030E+03 -0.14665448525E+03  0.27424120636E+03  0.37218821761E+03  0.17200000000E+03 0. -1.
         -6    1    1    2    0  501 -0.11056352030E+03  0.14665448525E+03  0.20896016194E+04  0.21046973079E+04  0.17200000000E+03 0.  1.
</event>
<event>
 4    1  0.3205520E-002  0.1809847E+03  0.7818608E-02  0.1166853E+00
          2   -1    0    0  502    0  0.00000000000E+00  0.00000000000E+00  0.16351586378E+04  0.16351586378E+04  0.00000000000E+00 0. -1.
         -2   -1    0    0    0  501 -0.00000000000E+00 -0.00000000000E+00 -0.30769860730E+02  0.30769860730E+02  0.00000000000E+00 0.  1.
          6    1    1    2  502    0 -0.77853193375E+01  0.55775157483E+02  0.12942596524E+04  0.13068525270E+04  0.17200000000E+03 0. -1.
         -6    1    1    2    0  501  0.77853193375E+01 -0.55775157483E+02  0.31012912465E+03  0.35907597155E+03  0.17200000000E+03 0.  1.
</event>
<event>
 4    1  0.3205520E-002  0.2344252E+03  0.7818608E-02  0.1123563E+00
          2   -1    0    0  502    0  0.00000000000E+00  0.00000000000E+00  0.46801191609E+03  0.46801191609E+03  0.00000000000E+00 0. -1.
         -2   -1    0    0    0  501 -0.00000000000E+00 -0.00000000000E+00 -0.12576600109E+03  0.12576600109E+03  0.00000000000E+00 0.  1.
          6    1    1    2  502    0 -0.28949501993E+02 -0.15663051860E+03  0.24759153927E+03  0.34096446052E+03  0.17200000000E+03 0. -1.
         -6    1    1    2    0  501  0.28949501993E+02  0.15663051860E+03  0.94654375740E+02  0.25281345666E+03  0.17200000000E+03 0.  1.
</event>
<event>
 4    1  0.3205520E-002  0.1836182E+03  0.7818608E-02  0.1164347E+00
         -1   -1    0    0    0  501 -0.00000000000E+00  0.00000000000E+00  0.45168447955E+02  0.45168447955E+02  0.00000000000E+00 0.  1.
          1   -1    0    0  502    0  0.00000000000E+00 -0.00000000000E+00 -0.22450825010E+04  0.22450825010E+04  0.00000000000E+00 0. -1.
          6    1    1    2  502    0 -0.60729149168E+02  0.21061734149E+02 -0.20355472128E+04  0.20438121444E+04  0.17200000000E+03 0. -1.
         -6    1    1    2    0  501  0.60729149168E+02 -0.21061734149E+02 -0.16436684026E+03  0.24643880454E+03  0.17200000000E+03 0.  1.
</event>
<event>
 4    1  0.3205520E-002  0.4069374E+03  0.7818608E-02  0.1041404E+00
          1   -1    0    0  502    0  0.00000000000E+00  0.00000000000E+00  0.14205214123E+04  0.14205214123E+04  0.00000000000E+00 0. -1.
         -1   -1    0    0    0  501 -0.00000000000E+00 -0.00000000000E+00 -0.13173643120E+03  0.13173643120E+03  0.00000000000E+00 0.  1.
          6    1    1    2  502    0 -0.34736093750E+03  0.12391291742E+03  0.38109696754E+03  0.55752392834E+03  0.17200000000E+03 0. -1.
         -6    1    1    2    0  501  0.34736093750E+03 -0.12391291742E+03  0.90768801360E+03  0.99473391520E+03  0.17200000000E+03 0.  1.
</event>
<event>
 4    1  0.3205520E-002  0.2029780E+03  0.7818608E-02  0.1147251E+00
          2   -1    0    0  502    0  0.00000000000E+00  0.00000000000E+00  0.36480096221E+03  0.36480096221E+03  0.00000000000E+00 0. -1.
         -2   -1    0    0    0  501 -0.00000000000E+00 -0.00000000000E+00 -0.12452908223E+03  0.12452908223E+03  0.00000000000E+00 0.  1.
          6    1    1    2  502    0  0.25087702385E+02  0.10481732964E+03  0.19477901683E+03  0.28131642469E+03  0.17200000000E+03 0. -1.
         -6    1    1    2    0  501 -0.25087702385E+02 -0.10481732964E+03  0.45492863157E+02  0.20801361975E+03  0.17200000000E+03 0.  1.
</event>
<event>
 4    1  0.3205520E-002  0.1850835E+03  0.7818608E-02  0.1162972E+00
          2   -1    0    0  502    0  0.00000000000E+00  0.00000000000E+00  0.50064245514E+03  0.50064245514E+03  0.00000000000E+00 0. -1.
         -2   -1    0    0    0  501 -0.00000000000E+00 -0.00000000000E+00 -0.74496096614E+02  0.74496096614E+02  0.00000000000E+00 0.  1.
          6    1    1    2  502    0 -0.66510699671E+02  0.15755250684E+02  0.29517432595E+03  0.34840175630E+03  0.17200000000E+03 0. -1.
         -6    1    1    2    0  501  0.66510699671E+02 -0.15755250684E+02  0.13097203258E+03  0.22673679545E+03  0.17200000000E+03 0.  1.
</event>
<event>
 4    1  0.3205520E-002  0.2081001E+03  0.7818608E-02  0.1143079E+00
          2   -1    0    0  502    0  0.00000000000E+00  0.00000000000E+00  0.24778209211E+04  0.24778209211E+04  0.00000000000E+00 0. -1.
         -2   -1    0    0    0  501 -0.00000000000E+00 -0.00000000000E+00 -0.23254890618E+02  0.23254890618E+02  0.00000000000E+00 0.  1.
          6    1    1    2  502    0 -0.26896311232E+02 -0.11400974051E+03  0.18506056490E+04  0.18622692879E+04  0.17200000000E+03 0. -1.
         -6    1    1    2    0  501  0.26896311232E+02  0.11400974051E+03  0.60396038142E+03  0.63880652377E+03  0.17200000000E+03 0.  1.
</event>
<event>
 4    1  0.3205520E-002  0.1786717E+03  0.7818608E-02  0.1169095E+00
          2   -1    0    0  502    0  0.00000000000E+00  0.00000000000E+00  0.22120700787E+04  0.22120700787E+04  0.00000000000E+00 0. -1.
         -2   -1    0    0    0  501 -0.00000000000E+00 -0.00000000000E+00 -0.21155241980E+02  0.21155241980E+02  0.00000000000E+00 0.  1.
          6    1    1    2  502    0  0.45764222536E+02  0.15659463111E+02  0.46595456435E+03  0.49903631019E+03  0.17200000000E+03 0.  1.
         -6    1    1    2    0  501 -0.45764222536E+02 -0.15659463111E+02  0.17249602724E+04  0.17341890105E+04  0.17200000000E+03 0. -1.
</event>
<event>
 4    1  0.3205520E-002  0.4318171E+03  0.7818608E-02  0.1033287E+00
          2   -1    0    0  502    0  0.00000000000E+00  0.00000000000E+00  0.14560524661E+03  0.14560524661E+03  0.00000000000E+00 0. -1.
         -2   -1    0    0    0  501 -0.00000000000E+00 -0.00000000000E+00 -0.13830105024E+04  0.13830105024E+04  0.00000000000E+00 0.  1.
          6    1    1    2  502    0 -0.37742920436E+03 -0.12012166439E+03 -0.41074710279E+03  0.59596912757E+03  0.17200000000E+03 0. -1.
         -6    1    1    2    0  501  0.37742920436E+03  0.12012166439E+03 -0.82665815301E+03  0.93264662145E+03  0.17200000000E+03 0.  1.
</event>
<event>
 4    1  0.3205520E-002  0.2238139E+03  0.7818608E-02  0.1131071E+00
          2   -1    0    0  502    0  0.00000000000E+00  0.00000000000E+00  0.13275218916E+04  0.13275218916E+04  0.00000000000E+00 0. -1.
         -2   -1    0    0    0  501 -0.00000000000E+00 -0.00000000000E+00 -0.37737049762E+02  0.37737049762E+02  0.00000000000E+00 0.  1.
          6    1    1    2  502    0  0.50929914340E+02 -0.13384616393E+03  0.63871096583E+03  0.67678973814E+03  0.17200000000E+03 0. -1.
         -6    1    1    2    0  501 -0.50929914340E+02  0.13384616393E+03  0.65107387599E+03  0.68846920321E+03  0.17200000000E+03 0.  1.
</event>
<event>
 4    1  0.3205520E-002  0.2656999E+03  0.7818608E-02  0.1103766E+00
         -2   -1    0    0    0  501 -0.00000000000E+00  0.00000000000E+00  0.18472726376E+03  0.18472726376E+03  0.00000000000E+00 0.  1.
          2   -1    0    0  502    0  0.00000000000E+00 -0.00000000000E+00 -0.76919506932E+03  0.76919506932E+03  0.00000000000E+00 0. -1.
          6    1    1    2  502    0  0.11668679861E+03  0.16551921796E+03 -0.63056097230E+03  0.68425401736E+03  0.17200000000E+03 0. -1.
         -6    1    1    2    0  501 -0.11668679861E+03 -0.16551921796E+03  0.46093166734E+02  0.26966831572E+03  0.17200000000E+03 0.  1.
</event>
<event>
 4    1  0.3205520E-002  0.3130397E+03  0.7818608E-02  0.1078898E+00
         -2   -1    0    0    0  501 -0.00000000000E+00  0.00000000000E+00  0.10010879542E+03  0.10010879542E+03  0.00000000000E+00 0.  1.
          2   -1    0    0  502    0  0.00000000000E+00 -0.00000000000E+00 -0.14577927786E+04  0.14577927786E+04  0.00000000000E+00 0. -1.
          6    1    1    2  502    0  0.25629418417E+03 -0.52183497080E+02 -0.23237086629E+03  0.38985900748E+03  0.17200000000E+03 0.  1.
         -6    1    1    2    0  501 -0.25629418417E+03  0.52183497080E+02 -0.11253131169E+04  0.11680425666E+04  0.17200000000E+03 0.  1.
</event>
<event>
 4    1  0.3205520E-002  0.2839787E+03  0.7818608E-02  0.1093536E+00
         -3   -1    0    0    0  501 -0.00000000000E+00  0.00000000000E+00  0.70433534886E+02  0.70433534886E+02  0.00000000000E+00 0.  1.
          3   -1    0    0  502    0  0.00000000000E+00 -0.00000000000E+00 -0.11451294685E+04  0.11451294685E+04  0.00000000000E+00 0. -1.
          6    1    1    2  502    0  0.16558028295E+03  0.15376295633E+03 -0.54464923185E+03  0.61423665032E+03  0.17200000000E+03 0. -1.
         -6    1    1    2    0  501 -0.16558028295E+03 -0.15376295633E+03 -0.53004670177E+03  0.60132635307E+03  0.17200000000E+03 0.  1.
</event>
<event>
 4    1  0.3205520E-002  0.2550483E+03  0.7818608E-02  0.1110155E+00
         -1   -1    0    0    0  501 -0.00000000000E+00  0.00000000000E+00  0.10336024536E+03  0.10336024536E+03  0.00000000000E+00 0.  1.
          1   -1    0    0  502    0  0.00000000000E+00 -0.00000000000E+00 -0.29175244881E+04  0.29175244881E+04  0.00000000000E+00 0. -1.
          6    1    1    2  502    0  0.32254106890E+02  0.18554059487E+03 -0.27447293476E+04  0.27565537962E+04  0.17200000000E+03 0. -1.
         -6    1    1    2    0  501 -0.32254106890E+02 -0.18554059487E+03 -0.69434895213E+02  0.26433093733E+03  0.17200000000E+03 0.  1.
</event>
<event>
 4    1  0.3205520E-002  0.2223695E+03  0.7818608E-02  0.1132129E+00
         -2   -1    0    0    0  501 -0.00000000000E+00  0.00000000000E+00  0.28604538294E+02  0.28604538294E+02  0.00000000000E+00 0.  1.
          2   -1    0    0  502    0  0.00000000000E+00 -0.00000000000E+00 -0.20351223176E+04  0.20351223176E+04  0.00000000000E+00 0. -1.
          6    1    1    2  502    0  0.64233388168E+02 -0.12545225761E+03 -0.14036632133E+04  0.14211680455E+04  0.17200000000E+03 0. -1.
         -6    1    1    2    0  501 -0.64233388168E+02  0.12545225761E+03 -0.60285456597E+03  0.64255881038E+03  0.17200000000E+03 0.  1.
</event>
<event>
 4    1  0.3205520E-002  0.1769941E+03  0.7818608E-02  0.1170744E+00
          2   -1    0    0  502    0  0.00000000000E+00  0.00000000000E+00  0.38190661594E+03  0.38190661594E+03  0.00000000000E+00 0. -1.
         -2   -1    0    0    0  501 -0.00000000000E+00 -0.00000000000E+00 -0.84992008082E+02  0.84992008082E+02  0.00000000000E+00 0.  1.
          6    1    1    2  502    0  0.34653277737E+02 -0.23282201910E+02  0.10485923219E+03  0.20572401211E+03  0.17200000000E+03 0.  1.
         -6    1    1    2    0  501 -0.34653277737E+02  0.23282201910E+02  0.19205537567E+03  0.26117461191E+03  0.17200000000E+03 0.  1.
</event>
<event>
 4    1  0.3205520E-002  0.1895503E+03  0.7818608E-02  0.1158868E+00
         -2   -1    0    0    0  501 -0.00000000000E+00  0.00000000000E+00  0.16165513372E+02  0.16165513372E+02  0.00000000000E+00 0.  1.
          2   -1    0    0  502    0  0.00000000000E+00 -0.00000000000E+00 -0.23236931119E+04  0.23236931119E+04  0.00000000000E+00 0. -1.
          6    1    1    2  502    0  0.78867758222E+02 -0.11189267341E+02 -0.90972967740E+03  0.92926713540E+03  0.17200000000E+03 0.  1.
         -6    1    1    2    0  501 -0.78867758222E+02  0.11189267341E+02 -0.13977979211E+04  0.14105914899E+04  0.17200000000E+03 0. -1.
</event>
<event>
 4    1  0.3205520E-002  0.2933310E+03  0.7818608E-02  0.1088623E+00
         -2   -1    0    0    0  501 -0.00000000000E+00  0.00000000000E+00  0.51292272958E+03  0.51292272958E+03  0.00000000000E+00 0.  1.
          2   -1    0    0  502    0  0.00000000000E+00 -0.00000000000E+00 -0.18576509824E+03  0.18576509824E+03  0.00000000000E+00 0. -1.
          6    1    1    2  502    0  0.12297624050E+03  0.20331235031E+03  0.54790346187E+02  0.29840417147E+03  0.17200000000E+03 0. -1.
         -6    1    1    2    0  501 -0.12297624050E+03 -0.20331235031E+03  0.27236728516E+03  0.40028365635E+03  0.17200000000E+03 0.  1.
</event>
<event>
 4    1  0.3205520E-002  0.2666745E+03  0.7818608E-02  0.1103198E+00
         -2   -1    0    0    0  501 -0.00000000000E+00  0.00000000000E+00  0.13300014356E+03  0.13300014356E+03  0.00000000000E+00 0.  1.
          2   -1    0    0  502    0  0.00000000000E+00 -0.00000000000E+00 -0.57483569532E+03  0.57483569532E+03  0.00000000000E+00 0. -1.
          6    1    1    2  502    0 -0.56554286113E+02 -0.19578792278E+03 -0.31443490206E+03  0.41229189371E+03  0.17200000000E+03 0.  1.
         -6    1    1    2    0  501  0.56554286113E+02  0.19578792278E+03 -0.12740064969E+03  0.29554394517E+03  0.17200000000E+03 0.  1.
</event>
<event>
 4    1  0.3205520E-002  0.2917748E+03  0.7818608E-02  0.1089426E+00
          3   -1    0    0  502    0  0.00000000000E+00  0.00000000000E+00  0.80780975943E+03  0.80780975943E+03  0.00000000000E+00 0. -1.
         -3   -1    0    0    0  501 -0.00000000000E+00 -0.00000000000E+00 -0.21399574680E+03  0.21399574680E+03  0.00000000000E+00 0.  1.
          6    1    1    2  502    0  0.23058725965E+03  0.48765296629E+02  0.66087931404E+03  0.72242231845E+03  0.17200000000E+03 0. -1.
         -6    1    1    2    0  501 -0.23058725965E+03 -0.48765296629E+02 -0.67065301412E+02  0.29938318778E+03  0.17200000000E+03 0.  1.
</event>
<event>
 4    1  0.3205520E-002  0.2569300E+03  0.7818608E-02  0.1109002E+00
          1   -1    0    0  502    0  0.00000000000E+00  0.00000000000E+00  0.36357989446E+03  0.36357989446E+03  0.00000000000E+00 0. -1.
         -1   -1    0    0    0  501 -0.00000000000E+00 -0.00000000000E+00 -0.32563604125E+03  0.32563604125E+03  0.00000000000E+00 0.  1.
          6    1    1    2  502    0  0.73791918618E+02 -0.17602206547E+03  0.24819005267E+03  0.35722726244E+03  0.17200000000E+03 0. -1.
         -6    1    1    2    0  501 -0.73791918618E+02  0.17602206547E+03 -0.21024619947E+03  0.33198867327E+03  0.17200000000E+03 0.  1.
</event>
<event>
 4    1  0.3205520E-002  0.4114870E+03  0.7818608E-02  0.1039873E+00
          2   -1    0    0  502    0  0.00000000000E+00  0.00000000000E+00  0.30024813787E+03  0.30024813787E+03  0.00000000000E+00 0. -1.
         -2   -1    0    0    0  501 -0.00000000000E+00 -0.00000000000E+00 -0.63793557991E+03  0.63793557991E+03  0.00000000000E+00 0.  1.
          6    1    1    2  502    0  0.37337196003E+03  0.18192578537E+02 -0.90808933189E+01  0.41158723629E+03  0.17200000000E+03 0. -1.
         -6    1    1    2    0  501 -0.37337196003E+03 -0.18192578537E+02 -0.32860654872E+03  0.52659648149E+03  0.17200000000E+03 0.  1.
</event>
<event>
 4    1  0.3205520E-002  0.3977300E+03  0.7818608E-02  0.1044569E+00
         -2   -1    0    0    0  501 -0.00000000000E+00  0.00000000000E+00  0.22670397866E+03  0.22670397866E+03  0.00000000000E+00 0.  1.
          2   -1    0    0  502    0  0.00000000000E+00 -0.00000000000E+00 -0.97612196054E+03  0.97612196054E+03  0.00000000000E+00 0. -1.
          6    1    1    2  502    0  0.35831872700E+03  0.14589794793E+02 -0.69586142972E+03  0.80150627047E+03  0.17200000000E+03 0. -1.
         -6    1    1    2    0  501 -0.35831872700E+03 -0.14589794793E+02 -0.53556552158E+02  0.40131966873E+03  0.17200000000E+03 0.  1.
</event>
<event>
 4    1  0.3205520E-002  0.2965975E+03  0.7818608E-02  0.1086954E+00
         -2   -1    0    0    0  501 -0.00000000000E+00  0.00000000000E+00  0.93827757453E+03  0.93827757453E+03  0.00000000000E+00 0.  1.
          2   -1    0    0  502    0  0.00000000000E+00 -0.00000000000E+00 -0.95431387094E+02  0.95431387094E+02  0.00000000000E+00 0. -1.
          6    1    1    2  502    0 -0.29729478128E+02 -0.23979626513E+03  0.35296093484E+03  0.46103309226E+03  0.17200000000E+03 0.  1.
         -6    1    1    2    0  501  0.29729478128E+02  0.23979626513E+03  0.48988525260E+03  0.57267586937E+03  0.17200000000E+03 0.  1.
</event>
<event>
 4    1  0.3205520E-002  0.2547228E+03  0.7818608E-02  0.1110356E+00
          2   -1    0    0  502    0  0.00000000000E+00  0.00000000000E+00  0.16987700257E+04  0.16987700257E+04  0.00000000000E+00 0. -1.
         -2   -1    0    0    0  501 -0.00000000000E+00 -0.00000000000E+00 -0.41184003428E+02  0.41184003428E+02  0.00000000000E+00 0.  1.
          6    1    1    2  502    0  0.18781652829E+03 -0.49678755797E+01  0.10631838410E+04  0.10932719734E+04  0.17200000000E+03 0. -1.
         -6    1    1    2    0  501 -0.18781652829E+03  0.49678755797E+01  0.59440218131E+03  0.64668205575E+03  0.17200000000E+03 0.  1.
</event>
<event>
 4    1  0.3205520E-002  0.1753127E+03  0.7818608E-02  0.1172418E+00
         -2   -1    0    0    0  501 -0.00000000000E+00  0.00000000000E+00  0.21560442953E+02  0.21560442953E+02  0.00000000000E+00 0.  1.
          2   -1    0    0  502    0  0.00000000000E+00 -0.00000000000E+00 -0.15933894758E+04  0.15933894758E+04  0.00000000000E+00 0. -1.
          6    1    1    2  502    0 -0.20437761507E+02  0.27071191673E+02 -0.10480171737E+04  0.10625791960E+04  0.17200000000E+03 0. -1.
         -6    1    1    2    0  501  0.20437761507E+02 -0.27071191673E+02 -0.52381185917E+03  0.55237072272E+03  0.17200000000E+03 0.  1.
</event>
<event>
 4    1  0.3205520E-002  0.2227565E+03  0.7818608E-02  0.1131845E+00
         -2   -1    0    0    0  501 -0.00000000000E+00  0.00000000000E+00  0.79081859224E+02  0.79081859224E+02  0.00000000000E+00 0.  1.
          2   -1    0    0  502    0  0.00000000000E+00 -0.00000000000E+00 -0.68607959295E+03  0.68607959295E+03  0.00000000000E+00 0. -1.
          6    1    1    2  502    0 -0.81567593458E+02 -0.11568568355E+03 -0.41533164641E+03  0.47129696179E+03  0.17200000000E+03 0. -1.
         -6    1    1    2    0  501  0.81567593458E+02  0.11568568355E+03 -0.19166608731E+03  0.29386449038E+03  0.17200000000E+03 0. -1.
</event>
<event>
 4    1  0.3205520E-002  0.1749782E+03  0.7818608E-02  0.1172754E+00
         -3   -1    0    0    0  501 -0.00000000000E+00  0.00000000000E+00  0.15732292486E+03  0.15732292486E+03  0.00000000000E+00 0.  1.
          3   -1    0    0  502    0  0.00000000000E+00 -0.00000000000E+00 -0.19503582785E+03  0.19503582785E+03  0.00000000000E+00 0. -1.
          6    1    1    2  502    0 -0.13212414300E+02  0.29305263103E+02 -0.27042302506E+02  0.17705550673E+03  0.17200000000E+03 0. -1.
         -6    1    1    2    0  501  0.13212414300E+02 -0.29305263103E+02 -0.10670600487E+02  0.17530324598E+03  0.17200000000E+03 0.  1.
</event>
<event>
 4    1  0.3205520E-002  0.1805400E+03  0.7818608E-02  0.1167281E+00
         -2   -1    0    0    0  501 -0.00000000000E+00  0.00000000000E+00  0.35478540518E+02  0.35478540518E+02  0.00000000000E+00 0.  1.
          2   -1    0    0  502    0  0.00000000000E+00 -0.00000000000E+00 -0.18169621436E+04  0.18169621436E+04  0.00000000000E+00 0. -1.
          6    1    1    2  502    0 -0.45627950181E+01 -0.54679602234E+02 -0.15419790390E+04  0.15525121690E+04  0.17200000000E+03 0. -1.
         -6    1    1    2    0  501  0.45627950181E+01  0.54679602234E+02 -0.23950456408E+03  0.29992851517E+03  0.17200000000E+03 0.  1.
</event>
<event>
 4    1  0.3205520E-002  0.2428476E+03  0.7818608E-02  0.1117910E+00
         -1   -1    0    0    0  501 -0.00000000000E+00  0.00000000000E+00  0.48297026021E+03  0.48297026021E+03  0.00000000000E+00 0.  1.
          1   -1    0    0  502    0  0.00000000000E+00 -0.00000000000E+00 -0.28210167182E+03  0.28210167182E+03  0.00000000000E+00 0. -1.
          6    1    1    2  502    0 -0.12206385151E+03  0.12038010564E+03 -0.18765005374E+03  0.30689981484E+03  0.17200000000E+03 0. -1.
         -6    1    1    2    0  501  0.12206385151E+03 -0.12038010564E+03  0.38851864213E+03  0.45817211718E+03  0.17200000000E+03 0.  1.
</event>
<event>
 4    1  0.3205520E-002  0.1816795E+03  0.7818608E-02  0.1166187E+00
          2   -1    0    0  502    0  0.00000000000E+00  0.00000000000E+00  0.74382134966E+03  0.74382134966E+03  0.00000000000E+00 0. -1.
         -2   -1    0    0    0  501 -0.00000000000E+00 -0.00000000000E+00 -0.50340585054E+02  0.50340585054E+02  0.00000000000E+00 0.  1.
          6    1    1    2  502    0  0.23989382346E+02  0.53366128306E+02  0.48342786981E+03  0.51643967646E+03  0.17200000000E+03 0. -1.
         -6    1    1    2    0  501 -0.23989382346E+02 -0.53366128306E+02  0.21005289479E+03  0.27772225825E+03  0.17200000000E+03 0.  1.
</event>
<event>
 4    1  0.3205520E-002  0.2052794E+03  0.7818608E-02  0.1145360E+00
          1   -1    0    0  502    0  0.00000000000E+00  0.00000000000E+00  0.21445696457E+03  0.21445696457E+03  0.00000000000E+00 0. -1.
         -1   -1    0    0    0  501 -0.00000000000E+00 -0.00000000000E+00 -0.23124574998E+03  0.23124574998E+03  0.00000000000E+00 0.  1.
          6    1    1    2  502    0 -0.50195010681E+02 -0.10018035814E+03  0.77995466716E+02  0.21959721328E+03  0.17200000000E+03 0. -1.
         -6    1    1    2    0  501  0.50195010681E+02  0.10018035814E+03 -0.94784252118E+02  0.22610550127E+03  0.17200000000E+03 0.  1.
</event>
<event>
 4    1  0.3205520E-002  0.1857284E+03  0.7818608E-02  0.1162371E+00
          2   -1    0    0  502    0  0.00000000000E+00  0.00000000000E+00  0.21855022986E+04  0.21855022986E+04  0.00000000000E+00 0. -1.
         -2   -1    0    0    0  501 -0.00000000000E+00 -0.00000000000E+00 -0.21148919885E+02  0.21148919885E+02  0.00000000000E+00 0.  1.
          6    1    1    2  502    0 -0.20475335156E+02 -0.67020878099E+02  0.52645357435E+03  0.55825478358E+03  0.17200000000E+03 0. -1.
         -6    1    1    2    0  501  0.20475335156E+02  0.67020878099E+02  0.16378998044E+04  0.16483964349E+04  0.17200000000E+03 0. -1.
</event>
<event>
 4    1  0.3205520E-002  0.2945721E+03  0.7818608E-02  0.1087986E+00
         -2   -1    0    0    0  501 -0.00000000000E+00  0.00000000000E+00  0.43850863400E+02  0.43850863400E+02  0.00000000000E+00 0.  1.
          2   -1    0    0  502    0  0.00000000000E+00 -0.00000000000E+00 -0.23597194248E+04  0.23597194248E+04  0.00000000000E+00 0. -1.
          6    1    1    2  502    0  0.17312965065E+03 -0.16496916495E+03 -0.16407765034E+04  0.16670093687E+04  0.17200000000E+03 0. -1.
         -6    1    1    2    0  501 -0.17312965065E+03  0.16496916495E+03 -0.67509205800E+03  0.73656091947E+03  0.17200000000E+03 0.  1.
</event>
<event>
 4    1  0.3205520E-002  0.5781844E+03  0.7818608E-02  0.9951730E-01
          1   -1    0    0  502    0  0.00000000000E+00  0.00000000000E+00  0.13274549072E+04  0.13274549072E+04  0.00000000000E+00 0. -1.
         -1   -1    0    0    0  501 -0.00000000000E+00 -0.00000000000E+00 -0.26484424344E+03  0.26484424344E+03  0.00000000000E+00 0.  1.
          6    1    1    2  502    0  0.64652238636E+02  0.54820914780E+03  0.70776924602E+03  0.91391164087E+03  0.17200000000E+03 0. -1.
         -6    1    1    2    0  501 -0.64652238636E+02 -0.54820914780E+03  0.35484141778E+03  0.67838750981E+03  0.17200000000E+03 0.  1.
</event>
<event>
 4    1  0.3205520E-002  0.2363542E+03  0.7818608E-02  0.1122246E+00
         -1   -1    0    0    0  501 -0.00000000000E+00  0.00000000000E+00  0.10853800514E+03  0.10853800514E+03  0.00000000000E+00 0.  1.
          1   -1    0    0  502    0  0.00000000000E+00 -0.00000000000E+00 -0.57360420107E+03  0.57360420107E+03  0.00000000000E+00 0. -1.
          6    1    1    2  502    0 -0.67121769924E+02  0.14756009794E+03 -0.12322494844E+03  0.26654774885E+03  0.17200000000E+03 0. -1.
         -6    1    1    2    0  501  0.67121769924E+02 -0.14756009794E+03 -0.34184124749E+03  0.41559445736E+03  0.17200000000E+03 0. -1.
</event>
<event>
 4    1  0.3205520E-002  0.5118573E+03  0.7818608E-02  0.1010730E+00
         -2   -1    0    0    0  501 -0.00000000000E+00  0.00000000000E+00  0.86342219466E+02  0.86342219466E+02  0.00000000000E+00 0.  1.
          2   -1    0    0  502    0  0.00000000000E+00 -0.00000000000E+00 -0.38687352102E+04  0.38687352102E+04  0.00000000000E+00 0. -1.
          6    1    1    2  502    0 -0.48194401490E+03 -0.11994015315E+02 -0.28095451303E+04  0.28557909113E+04  0.17200000000E+03 0. -1.
         -6    1    1    2    0  501  0.48194401490E+03  0.11994015315E+02 -0.97284786043E+03  0.10992865184E+04  0.17200000000E+03 0.  1.
</event>
<event>
 4    1  0.3205520E-002  0.2044189E+03  0.7818608E-02  0.1146063E+00
          2   -1    0    0  502    0  0.00000000000E+00  0.00000000000E+00  0.22188820290E+04  0.22188820290E+04  0.00000000000E+00 0. -1.
         -2   -1    0    0    0  501 -0.00000000000E+00 -0.00000000000E+00 -0.39632983075E+02  0.39632983075E+02  0.00000000000E+00 0.  1.
          6    1    1    2  502    0 -0.10969358113E+03  0.13053603404E+02  0.19077151144E+04  0.19186359832E+04  0.17200000000E+03 0. -1.
         -6    1    1    2    0  501  0.10969358113E+03 -0.13053603404E+02  0.27153393153E+03  0.33987902889E+03  0.17200000000E+03 0.  1.
</event>
<event>
 4    1  0.3205520E-002  0.1860346E+03  0.7818608E-02  0.1162087E+00
          2   -1    0    0  502    0  0.00000000000E+00  0.00000000000E+00  0.26404442473E+04  0.26404442473E+04  0.00000000000E+00 0. -1.
         -2   -1    0    0    0  501 -0.00000000000E+00 -0.00000000000E+00 -0.15767080066E+02  0.15767080066E+02  0.00000000000E+00 0.  1.
          6    1    1    2  502    0 -0.52757631754E+02 -0.47344435206E+02  0.18578288649E+04  0.18671199625E+04  0.17200000000E+03 0. -1.
         -6    1    1    2    0  501  0.52757631754E+02  0.47344435206E+02  0.76684830237E+03  0.78909136487E+03  0.17200000000E+03 0.  1.
</event>
<event>
 4    1  0.3205520E-002  0.2614516E+03  0.7818608E-02  0.1106274E+00
         -1   -1    0    0    0  501 -0.00000000000E+00  0.00000000000E+00  0.30515571430E+03  0.30515571430E+03  0.00000000000E+00 0.  1.
          1   -1    0    0  502    0  0.00000000000E+00 -0.00000000000E+00 -0.41717047653E+03  0.41717047653E+03  0.00000000000E+00 0. -1.
          6    1    1    2  502    0 -0.70432694528E+02 -0.18388090397E+03 -0.30176632333E+03  0.39927417297E+03  0.17200000000E+03 0. -1.
         -6    1    1    2    0  501  0.70432694528E+02  0.18388090397E+03  0.18975156110E+03  0.32305201786E+03  0.17200000000E+03 0.  1.
</event>
<event>
 4    1  0.3205520E-002  0.4158134E+03  0.7818608E-02  0.1038438E+00
          2   -1    0    0  502    0  0.00000000000E+00  0.00000000000E+00  0.19209448014E+04  0.19209448014E+04  0.00000000000E+00 0. -1.
         -2   -1    0    0    0  501 -0.00000000000E+00 -0.00000000000E+00 -0.93739132301E+02  0.93739132301E+02  0.00000000000E+00 0.  1.
          6    1    1    2  502    0 -0.13621302949E+03  0.35321780560E+03  0.11145696860E+04  0.11896076633E+04  0.17200000000E+03 0. -1.
         -6    1    1    2    0  501  0.13621302949E+03 -0.35321780560E+03  0.71263598309E+03  0.82507627041E+03  0.17200000000E+03 0.  1.
</event>
<event>
 4    1  0.3205520E-002  0.2973581E+03  0.7818608E-02  0.1086569E+00
         -2   -1    0    0    0  501 -0.00000000000E+00  0.00000000000E+00  0.66951149577E+02  0.66951149577E+02  0.00000000000E+00 0.  1.
          2   -1    0    0  502    0  0.00000000000E+00 -0.00000000000E+00 -0.13232091272E+04  0.13232091272E+04  0.00000000000E+00 0. -1.
          6    1    1    2  502    0  0.20866841075E+03  0.12367431820E+03 -0.59781244593E+03  0.66768372987E+03  0.17200000000E+03 0. -1.
         -6    1    1    2    0  501 -0.20866841075E+03 -0.12367431820E+03 -0.65844553172E+03  0.72247654693E+03  0.17200000000E+03 0. -1.
</event>
<event>
 4    1  0.3205520E-002  0.3795713E+03  0.7818608E-02  0.1051092E+00
         -1   -1    0    0    0  501 -0.00000000000E+00  0.00000000000E+00  0.10590597416E+04  0.10590597416E+04  0.00000000000E+00 0.  1.
          1   -1    0    0  502    0  0.00000000000E+00 -0.00000000000E+00 -0.31556554726E+04  0.31556554726E+04  0.00000000000E+00 0. -1.
          6    1    1    2  502    0 -0.27773349859E+03 -0.19327298121E+03 -0.31097311275E+04  0.31328105635E+04  0.17200000000E+03 0. -1.
         -6    1    1    2    0  501  0.27773349859E+03  0.19327298121E+03  0.10131353965E+04  0.10819046507E+04  0.17200000000E+03 0.  1.
</event>
<event>
 4    1  0.3205520E-002  0.2147205E+03  0.7818608E-02  0.1137881E+00
         -2   -1    0    0    0  501 -0.00000000000E+00  0.00000000000E+00  0.50589419354E+02  0.50589419354E+02  0.00000000000E+00 0.  1.
          2   -1    0    0  502    0  0.00000000000E+00 -0.00000000000E+00 -0.91849746048E+03  0.91849746048E+03  0.00000000000E+00 0. -1.
          6    1    1    2  502    0  0.50992376168E+02  0.11798597039E+03 -0.39122500842E+03  0.44627560862E+03  0.17200000000E+03 0.  1.
         -6    1    1    2    0  501 -0.50992376168E+02 -0.11798597039E+03 -0.47668303271E+03  0.52281127122E+03  0.17200000000E+03 0.  1.
</event>
<event>
 4    1  0.3205520E-002  0.1759911E+03  0.7818608E-02  0.1171740E+00
         -1   -1    0    0    0  501 -0.00000000000E+00  0.00000000000E+00  0.15185632136E+03  0.15185632136E+03  0.00000000000E+00 0.  1.
          1   -1    0    0  502    0  0.00000000000E+00 -0.00000000000E+00 -0.28418536050E+03  0.28418536050E+03  0.00000000000E+00 0. -1.
          6    1    1    2  502    0 -0.21954359584E+02  0.30114389540E+02 -0.18200182642E+03  0.25317491025E+03  0.17200000000E+03 0. -1.
         -6    1    1    2    0  501  0.21954359584E+02 -0.30114389540E+02  0.49672787277E+02  0.18286677161E+03  0.17200000000E+03 0.  1.
</event>
<event>
 4    1  0.3205520E-002  0.1899471E+03  0.7818608E-02  0.1158509E+00
         -3   -1    0    0    0  501 -0.00000000000E+00  0.00000000000E+00  0.32535819515E+03  0.32535819515E+03  0.00000000000E+00 0.  1.
          3   -1    0    0  502    0  0.00000000000E+00 -0.00000000000E+00 -0.20107893407E+03  0.20107893407E+03  0.00000000000E+00 0. -1.
          6    1    1    2  502    0 -0.75467954589E+02  0.28292766473E+02 -0.11414036438E+03  0.22160305861E+03  0.17200000000E+03 0. -1.
         -6    1    1    2    0  501  0.75467954589E+02 -0.28292766473E+02  0.23841962546E+03  0.30483407062E+03  0.17200000000E+03 0.  1.
</event>
<event>
 4    1  0.3205520E-002  0.1832583E+03  0.7818608E-02  0.1164686E+00
         -2   -1    0    0    0  501 -0.00000000000E+00  0.00000000000E+00  0.16048985399E+03  0.16048985399E+03  0.00000000000E+00 0.  1.
          2   -1    0    0  502    0  0.00000000000E+00 -0.00000000000E+00 -0.21180082494E+04  0.21180082494E+04  0.00000000000E+00 0. -1.
          6    1    1    2  502    0 -0.32807876198E+02  0.54066979420E+02 -0.20602667108E+04  0.20684009560E+04  0.17200000000E+03 0. -1.
         -6    1    1    2    0  501  0.32807876198E+02 -0.54066979420E+02  0.10274831545E+03  0.21009714737E+03  0.17200000000E+03 0.  1.
</event>
<event>
 4    1  0.3205520E-002  0.2312542E+03  0.7818608E-02  0.1125760E+00
         -2   -1    0    0    0  501 -0.00000000000E+00  0.00000000000E+00  0.21803934873E+02  0.21803934873E+02  0.00000000000E+00 0.  1.
          2   -1    0    0  502    0  0.00000000000E+00 -0.00000000000E+00 -0.24572662622E+04  0.24572662622E+04  0.00000000000E+00 0. -1.
          6    1    1    2  502    0  0.77302636154E+02  0.13386118966E+03 -0.12711633731E+04  0.12920274133E+04  0.17200000000E+03 0. -1.
         -6    1    1    2    0  501 -0.77302636154E+02 -0.13386118966E+03 -0.11642989542E+04  0.11870427838E+04  0.17200000000E+03 0.  1.
</event>
<event>
 4    1  0.3205520E-002  0.3845489E+03  0.7818608E-02  0.1049265E+00
          2   -1    0    0  502    0  0.00000000000E+00  0.00000000000E+00  0.15361299840E+04  0.15361299840E+04  0.00000000000E+00 0. -1.
         -2   -1    0    0    0  501 -0.00000000000E+00 -0.00000000000E+00 -0.12026394203E+03  0.12026394203E+03  0.00000000000E+00 0.  1.
          6    1    1    2  502    0  0.28575611318E+03 -0.19140878377E+03  0.10778874784E+04  0.11444296810E+04  0.17200000000E+03 0. -1.
         -6    1    1    2    0  501 -0.28575611318E+03  0.19140878377E+03  0.33797856357E+03  0.51196424500E+03  0.17200000000E+03 0.  1.
</event>
<event>
 4    1  0.3205520E-002  0.1733890E+03  0.7818608E-02  0.1174359E+00
          1   -1    0    0  502    0  0.00000000000E+00  0.00000000000E+00  0.14915679932E+04  0.14915679932E+04  0.00000000000E+00 0. -1.
         -1   -1    0    0    0  501 -0.00000000000E+00 -0.00000000000E+00 -0.20155898005E+02  0.20155898005E+02  0.00000000000E+00 0.  1.
          6    1    1    2  502    0  0.21584839584E+02 -0.37208804848E+01  0.73406282045E+03  0.75426253693E+03  0.17200000000E+03 0.  1.
         -6    1    1    2    0  501 -0.21584839584E+02  0.37208804848E+01  0.73734927479E+03  0.75746135432E+03  0.17200000000E+03 0.  1.
</event>
<event>
 4    1  0.3205520E-002  0.1779639E+03  0.7818608E-02  0.1169788E+00
          2   -1    0    0  502    0  0.00000000000E+00  0.00000000000E+00  0.85888239653E+03  0.85888239653E+03  0.00000000000E+00 0. -1.
         -2   -1    0    0    0  501 -0.00000000000E+00 -0.00000000000E+00 -0.38021296067E+02  0.38021296067E+02  0.00000000000E+00 0.  1.
          6    1    1    2  502    0  0.37133811851E+02 -0.26612299560E+02  0.33255794566E+03  0.37718155004E+03  0.17200000000E+03 0. -1.
         -6    1    1    2    0  501 -0.37133811851E+02  0.26612299560E+02  0.48830315480E+03  0.51972214255E+03  0.17200000000E+03 0.  1.
</event>
<event>
 4    1  0.3205520E-002  0.2056308E+03  0.7818608E-02  0.1145073E+00
          1   -1    0    0  502    0  0.00000000000E+00  0.00000000000E+00  0.27501119860E+04  0.27501119860E+04  0.00000000000E+00 0. -1.
         -1   -1    0    0    0  501 -0.00000000000E+00 -0.00000000000E+00 -0.17113304165E+02  0.17113304165E+02  0.00000000000E+00 0.  1.
          6    1    1    2  502    0 -0.10955743136E+03 -0.26404375955E+02  0.18074223587E+04  0.18190820775E+04  0.17200000000E+03 0. -1.
         -6    1    1    2    0  501  0.10955743136E+03  0.26404375955E+02  0.92557632317E+03  0.94814321274E+03  0.17200000000E+03 0.  1.
</event>
<event>
 4    1  0.3205520E-002  0.1768947E+03  0.7818608E-02  0.1170843E+00
         -2   -1    0    0    0  501 -0.00000000000E+00  0.00000000000E+00  0.73012060107E+02  0.73012060107E+02  0.00000000000E+00 0.  1.
          2   -1    0    0  502    0  0.00000000000E+00 -0.00000000000E+00 -0.13246757881E+04  0.13246757881E+04  0.00000000000E+00 0. -1.
          6    1    1    2  502    0  0.12872564091E+02 -0.39268839312E+02 -0.12006121040E+04  0.12135737180E+04  0.17200000000E+03 0. -1.
         -6    1    1    2    0  501 -0.12872564091E+02  0.39268839312E+02 -0.51051624000E+02  0.18411413026E+03  0.17200000000E+03 0.  1.
</event>
<event>
 4    1  0.3205520E-002  0.2853503E+03  0.7818608E-02  0.1092802E+00
          2   -1    0    0  502    0  0.00000000000E+00  0.00000000000E+00  0.27961264727E+03  0.27961264727E+03  0.00000000000E+00 0. -1.
         -2   -1    0    0    0  501 -0.00000000000E+00 -0.00000000000E+00 -0.31150136296E+03  0.31150136296E+03  0.00000000000E+00 0.  1.
          6    1    1    2  502    0  0.26156359538E+01  0.22767070763E+03 -0.91386334049E+02  0.29962685913E+03  0.17200000000E+03 0.  1.
         -6    1    1    2    0  501 -0.26156359538E+01 -0.22767070763E+03  0.59497618359E+02  0.29148715110E+03  0.17200000000E+03 0. -1.
</event>
<event>
 4    1  0.3205520E-002  0.5529289E+03  0.7818608E-02  0.1000818E+00
         -1   -1    0    0    0  501 -0.00000000000E+00  0.00000000000E+00  0.42721358448E+03  0.42721358448E+03  0.00000000000E+00 0.  1.
          1   -1    0    0  502    0  0.00000000000E+00 -0.00000000000E+00 -0.78570030400E+03  0.78570030400E+03  0.00000000000E+00 0. -1.
          6    1    1    2  502    0 -0.10210702539E+03  0.51548081606E+03 -0.36034126271E+03  0.65998192549E+03  0.17200000000E+03 0. -1.
         -6    1    1    2    0  501  0.10210702539E+03 -0.51548081606E+03  0.18545431934E+01  0.55293196299E+03  0.17200000000E+03 0.  1.
</event>
<event>
 4    1  0.3205520E-002  0.3573861E+03  0.7818608E-02  0.1059624E+00
         -1   -1    0    0    0  501 -0.00000000000E+00  0.00000000000E+00  0.21995723397E+03  0.21995723397E+03  0.00000000000E+00 0.  1.
          1   -1    0    0  502    0  0.00000000000E+00 -0.00000000000E+00 -0.58251336650E+03  0.58251336650E+03  0.00000000000E+00 0. -1.
          6    1    1    2  502    0 -0.16767528885E+03  0.26462386852E+03 -0.15876907987E+03  0.39106574256E+03  0.17200000000E+03 0. -1.
         -6    1    1    2    0  501  0.16767528885E+03 -0.26462386852E+03 -0.20378705266E+03  0.41140485791E+03  0.17200000000E+03 0.  1.
</event>
<event>
 4    1  0.3205520E-002  0.1903793E+03  0.7818608E-02  0.1158120E+00
         -2   -1    0    0    0  501 -0.00000000000E+00  0.00000000000E+00  0.25063546173E+02  0.25063546173E+02  0.00000000000E+00 0.  1.
          2   -1    0    0  502    0  0.00000000000E+00 -0.00000000000E+00 -0.16929447021E+04  0.16929447021E+04  0.00000000000E+00 0. -1.
          6    1    1    2  502    0 -0.50244328584E+02  0.64309988293E+02 -0.11619529496E+04  0.11774459326E+04  0.17200000000E+03 0. -1.
         -6    1    1    2    0  501  0.50244328584E+02 -0.64309988293E+02 -0.50592820629E+03  0.54056231562E+03  0.17200000000E+03 0.  1.
</event>
<event>
 4    1  0.3205520E-002  0.3887366E+03  0.7818608E-02  0.1047751E+00
         -2   -1    0    0    0  501 -0.00000000000E+00  0.00000000000E+00  0.15505750140E+03  0.15505750140E+03  0.00000000000E+00 0.  1.
          2   -1    0    0  502    0  0.00000000000E+00 -0.00000000000E+00 -0.10186727354E+04  0.10186727354E+04  0.00000000000E+00 0. -1.
          6    1    1    2  502    0 -0.34395578620E+03 -0.56802933101E+02 -0.55390253991E+03  0.67670095300E+03  0.17200000000E+03 0. -1.
         -6    1    1    2    0  501  0.34395578620E+03  0.56802933101E+02 -0.30971269406E+03  0.49702928378E+03  0.17200000000E+03 0.  1.
</event>
<event>
 4    1  0.3205520E-002  0.5948179E+03  0.7818608E-02  0.9916216E-01
          2   -1    0    0  502    0  0.00000000000E+00  0.00000000000E+00  0.17511328114E+04  0.17511328114E+04  0.00000000000E+00 0. -1.
         -2   -1    0    0    0  501 -0.00000000000E+00 -0.00000000000E+00 -0.62196493800E+03  0.62196493800E+03  0.00000000000E+00 0.  1.
          6    1    1    2  502    0  0.21915109687E+03 -0.52554462956E+03  0.15395414984E+04  0.16504533881E+04  0.17200000000E+03 0. -1.
         -6    1    1    2    0  501 -0.21915109687E+03  0.52554462956E+03 -0.41037362497E+03  0.72264436135E+03  0.17200000000E+03 0.  1.
</event>
<event>
 4    1  0.3205520E-002  0.6172800E+03  0.7818608E-02  0.9870190E-01
          2   -1    0    0  502    0  0.00000000000E+00  0.00000000000E+00  0.54862057314E+03  0.54862057314E+03  0.00000000000E+00 0. -1.
         -2   -1    0    0    0  501 -0.00000000000E+00 -0.00000000000E+00 -0.90857073465E+03  0.90857073465E+03  0.00000000000E+00 0.  1.
          6    1    1    2  502    0  0.49456552806E+03 -0.32688773014E+03  0.17365825380E+03  0.64124241811E+03  0.17200000000E+03 0. -1.
         -6    1    1    2    0  501 -0.49456552806E+03  0.32688773014E+03 -0.53360841531E+03  0.81594888968E+03  0.17200000000E+03 0.  1.
</event>
<event>
 4    1  0.3205520E-002  0.3028566E+03  0.7818608E-02  0.1083821E+00
         -2   -1    0    0    0  501 -0.00000000000E+00  0.00000000000E+00  0.55188553685E+02  0.55188553685E+02  0.00000000000E+00 0.  1.
          2   -1    0    0  502    0  0.00000000000E+00 -0.00000000000E+00 -0.18583637242E+04  0.18583637242E+04  0.00000000000E+00 0. -1.
          6    1    1    2  502    0 -0.29097988521E+02  0.24757101163E+03 -0.12126168133E+04  0.12498646466E+04  0.17200000000E+03 0. -1.
         -6    1    1    2    0  501  0.29097988521E+02 -0.24757101163E+03 -0.59055835718E+03  0.66368763132E+03  0.17200000000E+03 0.  1.
</event>
<event>
 4    1  0.3205520E-002  0.1854579E+03  0.7818608E-02  0.1162623E+00
         -2   -1    0    0    0  501 -0.00000000000E+00  0.00000000000E+00  0.18703456402E+03  0.18703456402E+03  0.00000000000E+00 0.  1.
          2   -1    0    0  502    0  0.00000000000E+00 -0.00000000000E+00 -0.40089405287E+03  0.40089405287E+03  0.00000000000E+00 0. -1.
          6    1    1    2  502    0 -0.68686392604E+02 -0.96339460729E+01  0.10934668221E+03  0.21529359107E+03  0.17200000000E+03 0.  1.
         -6    1    1    2    0  501  0.68686392604E+02  0.96339460729E+01 -0.32320617107E+03  0.37263502582E+03  0.17200000000E+03 0. -1.
</event>
<event>
 4    1  0.3205520E-002  0.3653907E+03  0.7818608E-02  0.1056470E+00
         -1   -1    0    0    0  501 -0.00000000000E+00  0.00000000000E+00  0.96208124586E+02  0.96208124586E+02  0.00000000000E+00 0.  1.
          1   -1    0    0  502    0  0.00000000000E+00 -0.00000000000E+00 -0.14492105596E+04  0.14492105596E+04  0.00000000000E+00 0. -1.
          6    1    1    2  502    0  0.31293699157E+03  0.77438899431E+02 -0.83566335666E+03  0.91205459787E+03  0.17200000000E+03 0. -1.
         -6    1    1    2    0  501 -0.31293699157E+03 -0.77438899431E+02 -0.51733907836E+03  0.63336408632E+03  0.17200000000E+03 0.  1.
</event>
<event>
 4    1  0.3205520E-002  0.2368422E+03  0.7818608E-02  0.1121914E+00
         -2   -1    0    0    0  501 -0.00000000000E+00  0.00000000000E+00  0.46326645515E+03  0.46326645515E+03  0.00000000000E+00 0.  1.
          2   -1    0    0  502    0  0.00000000000E+00 -0.00000000000E+00 -0.16656592028E+03  0.16656592028E+03  0.00000000000E+00 0. -1.
          6    1    1    2  502    0 -0.15673528030E+03  0.44094034729E+02 -0.16208307822E+02  0.23739616937E+03  0.17200000000E+03 0. -1.
         -6    1    1    2    0  501  0.15673528030E+03 -0.44094034729E+02  0.31290884269E+03  0.39243620606E+03  0.17200000000E+03 0.  1.
</event>
<event>
 4    1  0.3205520E-002  0.1850432E+03  0.7818608E-02  0.1163010E+00
         -2   -1    0    0    0  501 -0.00000000000E+00  0.00000000000E+00  0.62315829839E+02  0.62315829839E+02  0.00000000000E+00 0.  1.
          2   -1    0    0  502    0  0.00000000000E+00 -0.00000000000E+00 -0.55751377987E+03  0.55751377987E+03  0.00000000000E+00 0. -1.
          6    1    1    2  502    0  0.60411350749E+02 -0.31740617587E+02 -0.28481297352E+03  0.33964603338E+03  0.17200000000E+03 0. -1.
         -6    1    1    2    0  501 -0.60411350749E+02  0.31740617587E+02 -0.21038497651E+03  0.28018357633E+03  0.17200000000E+03 0.  1.
</event>
<event>
 4    1  0.3205520E-002  0.3803123E+03  0.7818608E-02  0.1050818E+00
          2   -1    0    0  502    0  0.00000000000E+00  0.00000000000E+00  0.55772576114E+03  0.55772576114E+03  0.00000000000E+00 0. -1.
         -2   -1    0    0    0  501 -0.00000000000E+00 -0.00000000000E+00 -0.30010391763E+03  0.30010391763E+03  0.00000000000E+00 0.  1.
          6    1    1    2  502    0 -0.13711670518E+03  0.31024583765E+03  0.28690043925E+03  0.47639199475E+03  0.17200000000E+03 0. -1.
         -6    1    1    2    0  501  0.13711670518E+03 -0.31024583765E+03 -0.29278595744E+02  0.38143768402E+03  0.17200000000E+03 0.  1.
</event>
<event>
 4    1  0.3205520E-002  0.4172362E+03  0.7818608E-02  0.1037970E+00
          2   -1    0    0  502    0  0.00000000000E+00  0.00000000000E+00  0.37852067703E+03  0.37852067703E+03  0.00000000000E+00 0. -1.
         -2   -1    0    0    0  501 -0.00000000000E+00 -0.00000000000E+00 -0.46592604976E+03  0.46592604976E+03  0.00000000000E+00 0.  1.
          6    1    1    2  502    0 -0.75612944562E+02 -0.37253827188E+03  0.42683101661E+01  0.41725807346E+03  0.17200000000E+03 0. -1.
         -6    1    1    2    0  501  0.75612944562E+02  0.37253827188E+03 -0.91673682894E+02  0.42718865333E+03  0.17200000000E+03 0.  1.
</event>
<event>
 4    1  0.3205520E-002  0.2091509E+03  0.7818608E-02  0.1142240E+00
         -2   -1    0    0    0  501 -0.00000000000E+00  0.00000000000E+00  0.46552039847E+02  0.46552039847E+02  0.00000000000E+00 0.  1.
          2   -1    0    0  502    0  0.00000000000E+00 -0.00000000000E+00 -0.20729507317E+04  0.20729507317E+04  0.00000000000E+00 0. -1.
          6    1    1    2  502    0 -0.91757050015E+01 -0.11864196065E+03 -0.17967660599E+04  0.18088981128E+04  0.17200000000E+03 0. -1.
         -6    1    1    2    0  501  0.91757050015E+01  0.11864196065E+03 -0.22963263192E+03  0.31060465874E+03  0.17200000000E+03 0.  1.
</event>
<event>
 4    1  0.3205520E-002  0.2892241E+03  0.7818608E-02  0.1090755E+00
         -2   -1    0    0    0  501 -0.00000000000E+00  0.00000000000E+00  0.13664138237E+03  0.13664138237E+03  0.00000000000E+00 0.  1.
          2   -1    0    0  502    0  0.00000000000E+00 -0.00000000000E+00 -0.79495810459E+03  0.79495810459E+03  0.00000000000E+00 0. -1.
          6    1    1    2  502    0 -0.15442806305E+03  0.17383477028E+03 -0.10581309431E+03  0.30797234445E+03  0.17200000000E+03 0. -1.
         -6    1    1    2    0  501  0.15442806305E+03 -0.17383477028E+03 -0.55250362791E+03  0.62362714251E+03  0.17200000000E+03 0. -1.
</event>
<event>
 4    1  0.3205520E-002  0.3090742E+03  0.7818608E-02  0.1080791E+00
          2   -1    0    0  502    0  0.00000000000E+00  0.00000000000E+00  0.35635109809E+03  0.35635109809E+03  0.00000000000E+00 0. -1.
         -2   -1    0    0    0  501 -0.00000000000E+00 -0.00000000000E+00 -0.28848579209E+03  0.28848579209E+03  0.00000000000E+00 0.  1.
          6    1    1    2  502    0  0.30970576135E+02  0.25491891916E+03  0.11970493372E+03  0.33144547528E+03  0.17200000000E+03 0. -1.
         -6    1    1    2    0  501 -0.30970576135E+02 -0.25491891916E+03 -0.51839627719E+02  0.31339141490E+03  0.17200000000E+03 0. -1.
</event>
<event>
 4    1  0.3205520E-002  0.4652715E+03  0.7818608E-02  0.1023263E+00
         -2   -1    0    0    0  501 -0.00000000000E+00  0.00000000000E+00  0.72349853087E+03  0.72349853087E+03  0.00000000000E+00 0.  1.
          2   -1    0    0  502    0  0.00000000000E+00 -0.00000000000E+00 -0.30159698395E+03  0.30159698395E+03  0.00000000000E+00 0. -1.
          6    1    1    2  502    0  0.30474006622E+03 -0.30663825929E+03  0.25655489572E+03  0.53131717885E+03  0.17200000000E+03 0. -1.
         -6    1    1    2    0  501 -0.30474006622E+03  0.30663825929E+03  0.16534665119E+03  0.49377833598E+03  0.17200000000E+03 0.  1.
</event>
<event>
 4    1  0.3205520E-002  0.2095809E+03  0.7818608E-02  0.1141898E+00
         -1   -1    0    0    0  501 -0.00000000000E+00  0.00000000000E+00  0.73375623009E+02  0.73375623009E+02  0.00000000000E+00 0.  1.
          1   -1    0    0  502    0  0.00000000000E+00 -0.00000000000E+00 -0.62949266926E+03  0.62949266926E+03  0.00000000000E+00 0. -1.
          6    1    1    2  502    0  0.10769821651E+02  0.11926517365E+03 -0.35588554477E+03  0.41301173311E+03  0.17200000000E+03 0.  1.
         -6    1    1    2    0  501 -0.10769821651E+02 -0.11926517365E+03 -0.20023150148E+03  0.28985655916E+03  0.17200000000E+03 0.  1.
</event>
<event>
 4    1  0.3205520E-002  0.1956278E+03  0.7818608E-02  0.1153481E+00
         -2   -1    0    0    0  501 -0.00000000000E+00  0.00000000000E+00  0.16310687527E+02  0.16310687527E+02  0.00000000000E+00 0.  1.
          2   -1    0    0  502    0  0.00000000000E+00 -0.00000000000E+00 -0.24388450769E+04  0.24388450769E+04  0.00000000000E+00 0. -1.
          6    1    1    2  502    0 -0.33771205594E+00 -0.93199427143E+02 -0.14503588313E+04  0.14634927354E+04  0.17200000000E+03 0. -1.
         -6    1    1    2    0  501  0.33771205594E+00  0.93199427143E+02 -0.97217555816E+03  0.99166302904E+03  0.17200000000E+03 0. -1.
</event>
<event>
 4    1  0.3205520E-002  0.3107190E+03  0.7818608E-02  0.1080002E+00
          1   -1    0    0  502    0  0.00000000000E+00  0.00000000000E+00  0.97047345261E+03  0.97047345261E+03  0.00000000000E+00 0. -1.
         -1   -1    0    0    0  501 -0.00000000000E+00 -0.00000000000E+00 -0.17639099848E+03  0.17639099848E+03  0.00000000000E+00 0.  1.
          6    1    1    2  502    0 -0.21786159517E+03  0.13963741266E+03  0.77568227038E+03  0.83560114065E+03  0.17200000000E+03 0. -1.
         -6    1    1    2    0  501  0.21786159517E+03 -0.13963741266E+03  0.18400183739E+02  0.31126331044E+03  0.17200000000E+03 0.  1.
</event>
<event>
 4    1  0.3205520E-002  0.1787686E+03  0.7818608E-02  0.1169000E+00
          1   -1    0    0  502    0  0.00000000000E+00  0.00000000000E+00  0.25138160434E+04  0.25138160434E+04  0.00000000000E+00 0. -1.
         -1   -1    0    0    0  501 -0.00000000000E+00 -0.00000000000E+00 -0.18839884670E+02  0.18839884670E+02  0.00000000000E+00 0.  1.
          6    1    1    2  502    0  0.26459007834E+02 -0.40916101936E+02  0.19696357922E+04  0.19777318727E+04  0.17200000000E+03 0. -1.
         -6    1    1    2    0  501 -0.26459007834E+02  0.40916101936E+02  0.52534036658E+03  0.55492405540E+03  0.17200000000E+03 0.  1.
</event>
<event>
 4    1  0.3205520E-002  0.2147507E+03  0.7818608E-02  0.1137858E+00
         -1   -1    0    0    0  501 -0.00000000000E+00  0.00000000000E+00  0.45854036802E+03  0.45854036802E+03  0.00000000000E+00 0.  1.
          1   -1    0    0  502    0  0.00000000000E+00 -0.00000000000E+00 -0.17321161172E+03  0.17321161172E+03  0.00000000000E+00 0. -1.
          6    1    1    2  502    0 -0.56855000926E+02  0.11533155417E+03 -0.61888150953E+02  0.22349049588E+03  0.17200000000E+03 0. -1.
         -6    1    1    2    0  501  0.56855000926E+02 -0.11533155417E+03  0.34721690725E+03  0.40826148386E+03  0.17200000000E+03 0.  1.
</event>
<event>
 4    1  0.3205520E-002  0.3199225E+03  0.7818608E-02  0.1075685E+00
         -2   -1    0    0    0  501 -0.00000000000E+00  0.00000000000E+00  0.69303682093E+02  0.69303682093E+02  0.00000000000E+00 0.  1.
          2   -1    0    0  502    0  0.00000000000E+00 -0.00000000000E+00 -0.14892036628E+04  0.14892036628E+04  0.00000000000E+00 0. -1.
          6    1    1    2  502    0  0.14069821792E+03 -0.23015304360E+03 -0.78095434448E+03  0.84394318539E+03  0.17200000000E+03 0. -1.
         -6    1    1    2    0  501 -0.14069821792E+03  0.23015304360E+03 -0.63894563626E+03  0.71456415954E+03  0.17200000000E+03 0. -1.
</event>
<event>
 4    1  0.3205520E-002  0.2066564E+03  0.7818608E-02  0.1144241E+00
          2   -1    0    0  502    0  0.00000000000E+00  0.00000000000E+00  0.11867941859E+04  0.11867941859E+04  0.00000000000E+00 0. -1.
         -2   -1    0    0    0  501 -0.00000000000E+00 -0.00000000000E+00 -0.39600710049E+03  0.39600710049E+03  0.00000000000E+00 0.  1.
          6    1    1    2  502    0 -0.53997942248E+02 -0.10103006380E+03  0.11499807899E+04  0.11684017583E+04  0.17200000000E+03 0. -1.
         -6    1    1    2    0  501  0.53997942248E+02  0.10103006380E+03 -0.35919370450E+03  0.41439952813E+03  0.17200000000E+03 0.  1.
</event>
<event>
 4    1  0.3205520E-002  0.2015358E+03  0.7818608E-02  0.1148450E+00
         -1   -1    0    0    0  501 -0.00000000000E+00  0.00000000000E+00  0.82246460508E+03  0.82246460508E+03  0.00000000000E+00 0.  1.
          1   -1    0    0  502    0  0.00000000000E+00 -0.00000000000E+00 -0.78831499842E+03  0.78831499842E+03  0.00000000000E+00 0. -1.
          6    1    1    2  502    0  0.38160831188E+01  0.10496714315E+03 -0.76268016140E+03  0.78885847414E+03  0.17200000000E+03 0. -1.
         -6    1    1    2    0  501 -0.38160831188E+01 -0.10496714315E+03  0.79682976805E+03  0.82192112936E+03  0.17200000000E+03 0.  1.
</event>
<event>
 4    1  0.3205520E-002  0.2631968E+03  0.7818608E-02  0.1105238E+00
          2   -1    0    0  502    0  0.00000000000E+00  0.00000000000E+00  0.48863311807E+03  0.48863311807E+03  0.00000000000E+00 0. -1.
         -2   -1    0    0    0  501 -0.00000000000E+00 -0.00000000000E+00 -0.19710278879E+03  0.19710278879E+03  0.00000000000E+00 0.  1.
          6    1    1    2  502    0  0.15485273223E+03  0.12533632183E+03  0.32743359309E+03  0.42010155930E+03  0.17200000000E+03 0. -1.
         -6    1    1    2    0  501 -0.15485273223E+03 -0.12533632183E+03 -0.35903263805E+02  0.26563434755E+03  0.17200000000E+03 0.  1.
</event>
<event>
 4    1  0.3205520E-002  0.1906622E+03  0.7818608E-02  0.1157865E+00
         -2   -1    0    0    0  501 -0.00000000000E+00  0.00000000000E+00  0.33000504596E+02  0.33000504596E+02  0.00000000000E+00 0.  1.
          2   -1    0    0  502    0  0.00000000000E+00 -0.00000000000E+00 -0.13565321755E+04  0.13565321755E+04  0.00000000000E+00 0. -1.
          6    1    1    2  502    0  0.59884223643E+02  0.56408700869E+02 -0.36055579422E+03  0.40786338708E+03  0.17200000000E+03 0.  1.
         -6    1    1    2    0  501 -0.59884223643E+02 -0.56408700869E+02 -0.96297587666E+03  0.98166929299E+03  0.17200000000E+03 0. -1.
</event>
<event>
 4    1  0.3205520E-002  0.1964584E+03  0.7818608E-02  0.1152762E+00
         -1   -1    0    0    0  501 -0.00000000000E+00  0.00000000000E+00  0.25038626988E+03  0.25038626988E+03  0.00000000000E+00 0.  1.
          1   -1    0    0  502    0  0.00000000000E+00 -0.00000000000E+00 -0.19255467338E+03  0.19255467338E+03  0.00000000000E+00 0. -1.
          6    1    1    2  502    0 -0.94170393973E+02 -0.11992535532E+02 -0.69998031812E+02  0.20855600799E+03  0.17200000000E+03 0. -1.
         -6    1    1    2    0  501  0.94170393973E+02  0.11992535532E+02  0.12782962831E+03  0.23438493527E+03  0.17200000000E+03 0.  1.
</event>
<event>
 4    1  0.3205520E-002  0.4736302E+03  0.7818608E-02  0.1020901E+00
          1   -1    0    0  502    0  0.00000000000E+00  0.00000000000E+00  0.72938400077E+03  0.72938400077E+03  0.00000000000E+00 0. -1.
         -1   -1    0    0    0  501 -0.00000000000E+00 -0.00000000000E+00 -0.75423210743E+03  0.75423210743E+03  0.00000000000E+00 0.  1.
          6    1    1    2  502    0  0.30606726997E+03  0.31790624884E+03  0.55844431137E+03  0.73224695677E+03  0.17200000000E+03 0. -1.
         -6    1    1    2    0  501 -0.30606726997E+03 -0.31790624884E+03 -0.58329241803E+03  0.75136915143E+03  0.17200000000E+03 0.  1.
</event>
<event>
 4    1  0.3205520E-002  0.4032521E+03  0.7818608E-02  0.1042659E+00
          2   -1    0    0  502    0  0.00000000000E+00  0.00000000000E+00  0.83716726577E+03  0.83716726577E+03  0.00000000000E+00 0. -1.
         -2   -1    0    0    0  501 -0.00000000000E+00 -0.00000000000E+00 -0.20073215998E+03  0.20073215998E+03  0.00000000000E+00 0.  1.
          6    1    1    2  502    0 -0.77997158991E+01  0.36464694287E+03  0.22489704608E+03  0.46172601166E+03  0.17200000000E+03 0. -1.
         -6    1    1    2    0  501  0.77997158991E+01 -0.36464694287E+03  0.41153805971E+03  0.57617341409E+03  0.17200000000E+03 0.  1.
</event>
<event>
 4    1  0.3205520E-002  0.1853158E+03  0.7818608E-02  0.1162755E+00
          3   -1    0    0  502    0  0.00000000000E+00  0.00000000000E+00  0.37209485062E+02  0.37209485062E+02  0.00000000000E+00 0. -1.
         -3   -1    0    0    0  501 -0.00000000000E+00 -0.00000000000E+00 -0.93987397996E+03  0.93987397996E+03  0.00000000000E+00 0.  1.
          6    1    1    2  502    0 -0.58315296919E+02  0.36840948610E+02 -0.38574599651E+03  0.42795081864E+03  0.17200000000E+03 0. -1.
         -6    1    1    2    0  501  0.58315296919E+02 -0.36840948610E+02 -0.51691849839E+03  0.54913264638E+03  0.17200000000E+03 0.  1.
</event>
<event>
 4    1  0.3205520E-002  0.2073907E+03  0.7818608E-02  0.1143649E+00
         -2   -1    0    0    0  501 -0.00000000000E+00  0.00000000000E+00  0.62589223504E+02  0.62589223504E+02  0.00000000000E+00 0.  1.
          2   -1    0    0  502    0  0.00000000000E+00 -0.00000000000E+00 -0.68922247187E+03  0.68922247187E+03  0.00000000000E+00 0. -1.
          6    1    1    2  502    0 -0.94087950280E+02  0.67633976369E+02 -0.29292014585E+03  0.35890543183E+03  0.17200000000E+03 0. -1.
         -6    1    1    2    0  501  0.94087950280E+02 -0.67633976369E+02 -0.33371310252E+03  0.39290626355E+03  0.17200000000E+03 0.  1.
</event>
<event>
 4    1  0.3205520E-002  0.2695131E+03  0.7818608E-02  0.1101559E+00
         -2   -1    0    0    0  501 -0.00000000000E+00  0.00000000000E+00  0.17752347493E+03  0.17752347493E+03  0.00000000000E+00 0.  1.
          2   -1    0    0  502    0  0.00000000000E+00 -0.00000000000E+00 -0.89777037208E+03  0.89777037208E+03  0.00000000000E+00 0. -1.
          6    1    1    2  502    0 -0.44828307086E+02 -0.20259255650E+03 -0.75675871377E+03  0.80331878599E+03  0.17200000000E+03 0. -1.
         -6    1    1    2    0  501  0.44828307086E+02  0.20259255650E+03  0.36511816617E+02  0.27197506102E+03  0.17200000000E+03 0.  1.
</event>
<event>
 4    1  0.3205520E-002  0.2200153E+03  0.7818608E-02  0.1133872E+00
          1   -1    0    0  502    0  0.00000000000E+00  0.00000000000E+00  0.14398703143E+04  0.14398703143E+04  0.00000000000E+00 0. -1.
         -1   -1    0    0    0  501 -0.00000000000E+00 -0.00000000000E+00 -0.49136001146E+02  0.49136001146E+02  0.00000000000E+00 0.  1.
          6    1    1    2  502    0 -0.86063420981E+02 -0.10684482305E+03  0.11137493321E+04  0.11352727881E+04  0.17200000000E+03 0. -1.
         -6    1    1    2    0  501  0.86063420981E+02  0.10684482305E+03  0.27698498107E+03  0.35373352737E+03  0.17200000000E+03 0.  1.
</event>
<event>
 4    1  0.3205520E-002  0.2911595E+03  0.7818608E-02  0.1089745E+00
          1   -1    0    0  502    0  0.00000000000E+00  0.00000000000E+00  0.65243323631E+03  0.65243323631E+03  0.00000000000E+00 0. -1.
         -1   -1    0    0    0  501 -0.00000000000E+00 -0.00000000000E+00 -0.13108545161E+03  0.13108545161E+03  0.00000000000E+00 0.  1.
          6    1    1    2  502    0  0.11307821999E+03  0.20592035838E+03  0.22397217877E+03  0.36733828373E+03  0.17200000000E+03 0.  1.
         -6    1    1    2    0  501 -0.11307821999E+03 -0.20592035838E+03  0.29737560594E+03  0.41618040420E+03  0.17200000000E+03 0. -1.
</event>
<event>
 4    1  0.3205520E-002  0.1755545E+03  0.7818608E-02  0.1172176E+00
          1   -1    0    0  502    0  0.00000000000E+00  0.00000000000E+00  0.38132710959E+04  0.38132710959E+04  0.00000000000E+00 0. -1.
         -1   -1    0    0    0  501 -0.00000000000E+00 -0.00000000000E+00 -0.87117170123E+01  0.87117170123E+01  0.00000000000E+00 0.  1.
          6    1    1    2  502    0 -0.34211522220E+02 -0.80586519483E+01  0.24160075990E+04  0.24223773630E+04  0.17200000000E+03 0. -1.
         -6    1    1    2    0  501  0.34211522220E+02  0.80586519483E+01  0.13885517798E+04  0.13996054499E+04  0.17200000000E+03 0.  1.
</event>
<event>
 4    1  0.3205520E-002  0.1778668E+03  0.7818608E-02  0.1169884E+00
         -2   -1    0    0    0  501 -0.00000000000E+00  0.00000000000E+00  0.30425529819E+02  0.30425529819E+02  0.00000000000E+00 0.  1.
          2   -1    0    0  502    0  0.00000000000E+00 -0.00000000000E+00 -0.12033712360E+04  0.12033712360E+04  0.00000000000E+00 0. -1.
          6    1    1    2  502    0  0.32701612155E+02 -0.31355870858E+02 -0.81391033741E+03  0.83311861306E+03  0.17200000000E+03 0. -1.
         -6    1    1    2    0  501 -0.32701612155E+02  0.31355870858E+02 -0.35903536877E+03  0.40067815276E+03  0.17200000000E+03 0.  1.
</event>
<event>
 4    1  0.3205520E-002  0.1728538E+03  0.7818608E-02  0.1174904E+00
         -2   -1    0    0    0  501 -0.00000000000E+00  0.00000000000E+00  0.45424741621E+02  0.45424741621E+02  0.00000000000E+00 0.  1.
          2   -1    0    0  502    0  0.00000000000E+00 -0.00000000000E+00 -0.11342255883E+04  0.11342255883E+04  0.00000000000E+00 0. -1.
          6    1    1    2  502    0  0.16244223577E+02 -0.55289407501E+01 -0.92668844688E+03  0.94267169342E+03  0.17200000000E+03 0. -1.
         -6    1    1    2    0  501 -0.16244223577E+02  0.55289407501E+01 -0.16211239976E+03  0.23697863646E+03  0.17200000000E+03 0.  1.
</event>
<event>
 4    1  0.3205520E-002  0.2595142E+03  0.7818608E-02  0.1107435E+00
          2   -1    0    0  502    0  0.00000000000E+00  0.00000000000E+00  0.65538319825E+02  0.65538319825E+02  0.00000000000E+00 0. -1.
         -2   -1    0    0    0  501 -0.00000000000E+00 -0.00000000000E+00 -0.11302978807E+04  0.11302978807E+04  0.00000000000E+00 0.  1.
          6    1    1    2  502    0  0.99059835231E+02 -0.16718490249E+03 -0.35215646362E+03  0.43744921699E+03  0.17200000000E+03 0. -1.
         -6    1    1    2    0  501 -0.99059835231E+02  0.16718490249E+03 -0.71260309725E+03  0.75838698353E+03  0.17200000000E+03 0.  1.
</event>
<event>
 4    1  0.3205520E-002  0.2463563E+03  0.7818608E-02  0.1115629E+00
         -3   -1    0    0    0  501 -0.00000000000E+00  0.00000000000E+00  0.17353310738E+03  0.17353310738E+03  0.00000000000E+00 0.  1.
          3   -1    0    0  502    0  0.00000000000E+00 -0.00000000000E+00 -0.70825693289E+03  0.70825693289E+03  0.00000000000E+00 0. -1.
          6    1    1    2  502    0  0.92877739545E+02 -0.14993708388E+03 -0.58104769920E+03  0.63111633822E+03  0.17200000000E+03 0. -1.
         -6    1    1    2    0  501 -0.92877739545E+02  0.14993708388E+03  0.46323873688E+02  0.25067370205E+03  0.17200000000E+03 0.  1.
</event>
<event>
 4    1  0.3205520E-002  0.1951082E+03  0.7818608E-02  0.1153933E+00
         -2   -1    0    0    0  501 -0.00000000000E+00  0.00000000000E+00  0.13120332470E+03  0.13120332470E+03  0.00000000000E+00 0.  1.
          2   -1    0    0  502    0  0.00000000000E+00 -0.00000000000E+00 -0.30090386171E+03  0.30090386171E+03  0.00000000000E+00 0. -1.
          6    1    1    2  502    0 -0.58793682761E+02  0.70897954245E+02 -0.12571507419E+03  0.23210234150E+03  0.17200000000E+03 0. -1.
         -6    1    1    2    0  501  0.58793682761E+02 -0.70897954245E+02 -0.43985462817E+02  0.20000484491E+03  0.17200000000E+03 0.  1.
</event>
<event>
 4    1  0.3205520E-002  0.1843292E+03  0.7818608E-02  0.1163678E+00
         -2   -1    0    0    0  501 -0.00000000000E+00  0.00000000000E+00  0.13234386017E+04  0.13234386017E+04  0.00000000000E+00 0.  1.
          2   -1    0    0  502    0  0.00000000000E+00 -0.00000000000E+00 -0.29456301502E+02  0.29456301502E+02  0.00000000000E+00 0. -1.
          6    1    1    2  502    0 -0.91483989964E+01  0.65647112895E+02  0.40457892255E+03  0.44459120685E+03  0.17200000000E+03 0. -1.
         -6    1    1    2    0  501  0.91483989964E+01 -0.65647112895E+02  0.88940337766E+03  0.90830369636E+03  0.17200000000E+03 0.  1.
</event>
<event>
 4    1  0.3205520E-002  0.1767317E+03  0.7818608E-02  0.1171004E+00
          2   -1    0    0  502    0  0.00000000000E+00  0.00000000000E+00  0.30715412902E+03  0.30715412902E+03  0.00000000000E+00 0. -1.
         -2   -1    0    0    0  501 -0.00000000000E+00 -0.00000000000E+00 -0.10431551015E+03  0.10431551015E+03  0.00000000000E+00 0.  1.
          6    1    1    2  502    0 -0.22782357278E+02 -0.33631411032E+02  0.13406657028E+03  0.22182865657E+03  0.17200000000E+03 0. -1.
         -6    1    1    2    0  501  0.22782357278E+02  0.33631411032E+02  0.68772048598E+02  0.18964098259E+03  0.17200000000E+03 0.  1.
</event>
<event>
 4    1  0.3205520E-002  0.1878930E+03  0.7818608E-02  0.1160376E+00
         -1   -1    0    0    0  501 -0.00000000000E+00  0.00000000000E+00  0.17497580279E+03  0.17497580279E+03  0.00000000000E+00 0.  1.
          1   -1    0    0  502    0  0.00000000000E+00 -0.00000000000E+00 -0.23860096239E+03  0.23860096239E+03  0.00000000000E+00 0. -1.
          6    1    1    2  502    0 -0.36614647283E+02 -0.66175044361E+02 -0.11306449308E+03  0.21928827713E+03  0.17200000000E+03 0. -1.
         -6    1    1    2    0  501  0.36614647283E+02  0.66175044361E+02  0.49439333484E+02  0.19428848805E+03  0.17200000000E+03 0.  1.
</event>
<event>
 4    1  0.3205520E-002  0.1842440E+03  0.7818608E-02  0.1163758E+00
         -2   -1    0    0    0  501 -0.00000000000E+00  0.00000000000E+00  0.11081663779E+03  0.11081663779E+03  0.00000000000E+00 0.  1.
          2   -1    0    0  502    0  0.00000000000E+00 -0.00000000000E+00 -0.36910371783E+03  0.36910371783E+03  0.00000000000E+00 0. -1.
          6    1    1    2  502    0 -0.32340655415E+02  0.57584229950E+02 -0.30180599343E+02  0.18669957179E+03  0.17200000000E+03 0.  1.
         -6    1    1    2    0  501  0.32340655415E+02 -0.57584229950E+02 -0.22810648069E+03  0.29322078382E+03  0.17200000000E+03 0. -1.
</event>
<event>
 4    1  0.3205520E-002  0.1783440E+03  0.7818608E-02  0.1169415E+00
          1   -1    0    0  502    0  0.00000000000E+00  0.00000000000E+00  0.31986583131E+04  0.31986583131E+04  0.00000000000E+00 0. -1.
         -1   -1    0    0    0  501 -0.00000000000E+00 -0.00000000000E+00 -0.11345048986E+02  0.11345048986E+02  0.00000000000E+00 0.  1.
          6    1    1    2  502    0  0.60172664045E+01 -0.46758624645E+02  0.21577379111E+04  0.21650957183E+04  0.17200000000E+03 0. -1.
         -6    1    1    2    0  501 -0.60172664045E+01  0.46758624645E+02  0.10295753530E+04  0.10449076438E+04  0.17200000000E+03 0.  1.
</event>
<event>
 4    1  0.3205520E-002  0.2305447E+03  0.7818608E-02  0.1126257E+00
         -1   -1    0    0    0  501 -0.00000000000E+00  0.00000000000E+00  0.77819115511E+02  0.77819115511E+02  0.00000000000E+00 0.  1.
          1   -1    0    0  502    0  0.00000000000E+00 -0.00000000000E+00 -0.95481655493E+03  0.95481655493E+03  0.00000000000E+00 0. -1.
          6    1    1    2  502    0  0.10445555115E+03  0.11249841545E+03 -0.71397931014E+03  0.75027815572E+03  0.17200000000E+03 0. -1.
         -6    1    1    2    0  501 -0.10445555115E+03 -0.11249841545E+03 -0.16301812927E+03  0.28235751471E+03  0.17200000000E+03 0.  1.
</event>
<event>
 4    1  0.3205520E-002  0.2087276E+03  0.7818608E-02  0.1142578E+00
          2   -1    0    0  502    0  0.00000000000E+00  0.00000000000E+00  0.22402070934E+04  0.22402070934E+04  0.00000000000E+00 0. -1.
         -2   -1    0    0    0  501 -0.00000000000E+00 -0.00000000000E+00 -0.20981269610E+02  0.20981269610E+02  0.00000000000E+00 0.  1.
          6    1    1    2  502    0 -0.51023709897E+02  0.10667612809E+03  0.14152606125E+04  0.14305697524E+04  0.17200000000E+03 0. -1.
         -6    1    1    2    0  501  0.51023709897E+02 -0.10667612809E+03  0.80396521124E+03  0.83061861053E+03  0.17200000000E+03 0.  1.
</event>
<event>
 4    1  0.3205520E-002  0.1733936E+03  0.7818608E-02  0.1174354E+00
         -1   -1    0    0    0  501 -0.00000000000E+00  0.00000000000E+00  0.44791695525E+02  0.44791695525E+02  0.00000000000E+00 0.  1.
          1   -1    0    0  502    0  0.00000000000E+00 -0.00000000000E+00 -0.69537162543E+03  0.69537162543E+03  0.00000000000E+00 0. -1.
          6    1    1    2  502    0  0.12339338439E+02  0.18140134552E+02 -0.25632735254E+03  0.30946572575E+03  0.17200000000E+03 0.  1.
         -6    1    1    2    0  501 -0.12339338439E+02 -0.18140134552E+02 -0.39425257737E+03  0.43069759521E+03  0.17200000000E+03 0. -1.
</event>
<event>
 4    1  0.3205520E-002  0.2406660E+03  0.7818608E-02  0.1119350E+00
         -3   -1    0    0    0  501 -0.00000000000E+00  0.00000000000E+00  0.52238207754E+02  0.52238207754E+02  0.00000000000E+00 0.  1.
          3   -1    0    0  502    0  0.00000000000E+00 -0.00000000000E+00 -0.15601535365E+04  0.15601535365E+04  0.00000000000E+00 0. -1.
          6    1    1    2  502    0  0.16831881784E+03  0.22108809244E+01 -0.11875985010E+04  0.12117385494E+04  0.17200000000E+03 0. -1.
         -6    1    1    2    0  501 -0.16831881784E+03 -0.22108809244E+01 -0.32031682770E+03  0.40065319484E+03  0.17200000000E+03 0.  1.
</event>
<event>
 4    1  0.3205520E-002  0.1881778E+03  0.7818608E-02  0.1160115E+00
          1   -1    0    0  502    0  0.00000000000E+00  0.00000000000E+00  0.40192944408E+03  0.40192944408E+03  0.00000000000E+00 0. -1.
         -1   -1    0    0    0  501 -0.00000000000E+00 -0.00000000000E+00 -0.89278202501E+02  0.89278202501E+02  0.00000000000E+00 0.  1.
          6    1    1    2  502    0 -0.85655532956E+01  0.75851912855E+02  0.18451337656E+03  0.26354519065E+03  0.17200000000E+03 0. -1.
         -6    1    1    2    0  501  0.85655532956E+01 -0.75851912855E+02  0.12813786502E+03  0.22766245593E+03  0.17200000000E+03 0.  1.
</event>
<event>
 4    1  0.3205520E-002  0.2433282E+03  0.7818608E-02  0.1117595E+00
         -1   -1    0    0    0  501 -0.00000000000E+00  0.00000000000E+00  0.51491001168E+02  0.51491001168E+02  0.00000000000E+00 0.  1.
          1   -1    0    0  502    0  0.00000000000E+00 -0.00000000000E+00 -0.11955734454E+04  0.11955734454E+04  0.00000000000E+00 0. -1.
          6    1    1    2  502    0 -0.17073571664E+03  0.21769928737E+02 -0.69393585676E+03  0.73536085565E+03  0.17200000000E+03 0. -1.
         -6    1    1    2    0  501  0.17073571664E+03 -0.21769928737E+02 -0.45014658743E+03  0.51170359087E+03  0.17200000000E+03 0.  1.
</event>
<event>
 4    1  0.3205520E-002  0.2609505E+03  0.7818608E-02  0.1106573E+00
          2   -1    0    0  502    0  0.00000000000E+00  0.00000000000E+00  0.30142371323E+04  0.30142371323E+04  0.00000000000E+00 0. -1.
         -2   -1    0    0    0  501 -0.00000000000E+00 -0.00000000000E+00 -0.38624664662E+02  0.38624664662E+02  0.00000000000E+00 0.  1.
          6    1    1    2  502    0 -0.87224371544E+02 -0.17579268664E+03  0.24712710118E+04  0.24850101758E+04  0.17200000000E+03 0. -1.
         -6    1    1    2    0  501  0.87224371544E+02  0.17579268664E+03  0.50434145579E+03  0.56785162120E+03  0.17200000000E+03 0.  1.
</event>
<event>
 4    1  0.3205520E-002  0.2055485E+03  0.7818608E-02  0.1145140E+00
          1   -1    0    0  502    0  0.00000000000E+00  0.00000000000E+00  0.76300158036E+03  0.76300158036E+03  0.00000000000E+00 0. -1.
         -1   -1    0    0    0  501 -0.00000000000E+00 -0.00000000000E+00 -0.58572495030E+02  0.58572495030E+02  0.00000000000E+00 0.  1.
          6    1    1    2  502    0  0.45029546308E+02 -0.10314327720E+03  0.44821322986E+03  0.49309765269E+03  0.17200000000E+03 0. -1.
         -6    1    1    2    0  501 -0.45029546308E+02  0.10314327720E+03  0.25621585547E+03  0.32847642269E+03  0.17200000000E+03 0.  1.
</event>
<event>
 4    1  0.3205520E-002  0.5682480E+03  0.7818608E-02  0.9973563E-01
         -2   -1    0    0    0  501 -0.00000000000E+00  0.00000000000E+00  0.16166139150E+03  0.16166139150E+03  0.00000000000E+00 0.  1.
          2   -1    0    0  502    0  0.00000000000E+00 -0.00000000000E+00 -0.21732294705E+04  0.21732294705E+04  0.00000000000E+00 0. -1.
          6    1    1    2  502    0 -0.38738268572E+03  0.37849226889E+03 -0.13378348747E+04  0.14535157016E+04  0.17200000000E+03 0. -1.
         -6    1    1    2    0  501  0.38738268572E+03 -0.37849226889E+03 -0.67373320430E+03  0.88137516041E+03  0.17200000000E+03 0.  1.
</event>
<event>
 4    1  0.3205520E-002  0.1776938E+03  0.7818608E-02  0.1170054E+00
         -2   -1    0    0    0  501 -0.00000000000E+00  0.00000000000E+00  0.89706759242E+02  0.89706759242E+02  0.00000000000E+00 0.  1.
          2   -1    0    0  502    0  0.00000000000E+00 -0.00000000000E+00 -0.54125069861E+03  0.54125069861E+03  0.00000000000E+00 0. -1.
          6    1    1    2  502    0 -0.43526654902E+02 -0.98251003666E+01 -0.41232875155E+03  0.44898786358E+03  0.17200000000E+03 0. -1.
         -6    1    1    2    0  501  0.43526654902E+02  0.98251003666E+01 -0.39215187815E+02  0.18196959427E+03  0.17200000000E+03 0.  1.
</event>
<event>
 4    1  0.3205520E-002  0.3317078E+03  0.7818608E-02  0.1070384E+00
          2   -1    0    0  502    0  0.00000000000E+00  0.00000000000E+00  0.56414842391E+03  0.56414842391E+03  0.00000000000E+00 0. -1.
         -2   -1    0    0    0  501 -0.00000000000E+00 -0.00000000000E+00 -0.38730102053E+03  0.38730102053E+03  0.00000000000E+00 0.  1.
          6    1    1    2  502    0  0.27605696089E+03 -0.65104427842E+02  0.42360515367E+03  0.53802542542E+03  0.17200000000E+03 0. -1.
         -6    1    1    2    0  501 -0.27605696089E+03  0.65104427842E+02 -0.24675775028E+03  0.41342401902E+03  0.17200000000E+03 0.  1.
</event>
<event>
 4    1  0.3205520E-002  0.2268918E+03  0.7818608E-02  0.1128847E+00
          2   -1    0    0  502    0  0.00000000000E+00  0.00000000000E+00  0.40987971984E+03  0.40987971984E+03  0.00000000000E+00 0. -1.
         -2   -1    0    0    0  501 -0.00000000000E+00 -0.00000000000E+00 -0.12562124184E+03  0.12562124184E+03  0.00000000000E+00 0.  1.
          6    1    1    2  502    0  0.22962737357E+02  0.14618009669E+03  0.14580260794E+03  0.26970040500E+03  0.17200000000E+03 0. -1.
         -6    1    1    2    0  501 -0.22962737357E+02 -0.14618009669E+03  0.13845587007E+03  0.26580055668E+03  0.17200000000E+03 0. -1.
</event>
<event>
 4    1  0.3205520E-002  0.4958149E+03  0.7818608E-02  0.1014877E+00
         -2   -1    0    0    0  501 -0.00000000000E+00  0.00000000000E+00  0.11371017191E+03  0.11371017191E+03  0.00000000000E+00 0.  1.
          2   -1    0    0  502    0  0.00000000000E+00 -0.00000000000E+00 -0.24674046302E+04  0.24674046302E+04  0.00000000000E+00 0. -1.
          6    1    1    2  502    0  0.45180906661E+03  0.11007733345E+03 -0.16309465349E+04  0.17046463128E+04  0.17200000000E+03 0. -1.
         -6    1    1    2    0  501 -0.45180906661E+03 -0.11007733345E+03 -0.72274792341E+03  0.87646848934E+03  0.17200000000E+03 0.  1.
</event>
<event>
 4    1  0.3205520E-002  0.2290612E+03  0.7818608E-02  0.1127302E+00
         -1   -1    0    0    0  501 -0.00000000000E+00  0.00000000000E+00  0.18903186531E+02  0.18903186531E+02  0.00000000000E+00 0.  1.
          1   -1    0    0  502    0  0.00000000000E+00 -0.00000000000E+00 -0.27762982594E+04  0.27762982594E+04  0.00000000000E+00 0. -1.
          6    1    1    2  502    0 -0.35958731168E+02 -0.14694214112E+03 -0.13576869914E+04  0.13768743551E+04  0.17200000000E+03 0. -1.
         -6    1    1    2    0  501  0.35958731168E+02  0.14694214112E+03 -0.13997080815E+04  0.14183270908E+04  0.17200000000E+03 0. -1.
</event>
<event>
 4    1  0.3205520E-002  0.2386511E+03  0.7818608E-02  0.1120695E+00
          1   -1    0    0  502    0  0.00000000000E+00  0.00000000000E+00  0.23789645532E+03  0.23789645532E+03  0.00000000000E+00 0. -1.
         -1   -1    0    0    0  501 -0.00000000000E+00 -0.00000000000E+00 -0.24362870255E+03  0.24362870255E+03  0.00000000000E+00 0.  1.
          6    1    1    2  502    0  0.15875152292E+03 -0.46565028205E+02  0.28822978277E+02  0.24038534056E+03  0.17200000000E+03 0. -1.
         -6    1    1    2    0  501 -0.15875152292E+03  0.46565028205E+02 -0.34555225505E+02  0.24113981731E+03  0.17200000000E+03 0.  1.
</event>
<event>
 4    1  0.3205520E-002  0.2945480E+03  0.7818608E-02  0.1087998E+00
         -2   -1    0    0    0  501 -0.00000000000E+00  0.00000000000E+00  0.51886097306E+03  0.51886097306E+03  0.00000000000E+00 0.  1.
          2   -1    0    0  502    0  0.00000000000E+00 -0.00000000000E+00 -0.22721264406E+03  0.22721264406E+03  0.00000000000E+00 0. -1.
          6    1    1    2  502    0  0.22257674836E+03 -0.87373533430E+02 -0.45875798306E+02  0.29809919846E+03  0.17200000000E+03 0. -1.
         -6    1    1    2    0  501 -0.22257674836E+03  0.87373533430E+02  0.33752412731E+03  0.44797441866E+03  0.17200000000E+03 0.  1.
</event>
<event>
 4    1  0.3205520E-002  0.1760986E+03  0.7818608E-02  0.1171633E+00
          1   -1    0    0  502    0  0.00000000000E+00  0.00000000000E+00  0.14170922979E+04  0.14170922979E+04  0.00000000000E+00 0. -1.
         -1   -1    0    0    0  501 -0.00000000000E+00 -0.00000000000E+00 -0.24469129927E+02  0.24469129927E+02  0.00000000000E+00 0.  1.
          6    1    1    2  502    0  0.37676294017E+02 -0.26829633577E+01  0.93062177284E+03  0.94713651894E+03  0.17200000000E+03 0. -1.
         -6    1    1    2    0  501 -0.37676294017E+02  0.26829633577E+01  0.46200139511E+03  0.49442490887E+03  0.17200000000E+03 0.  1.
</event>
<event>
 4    1  0.3205520E-002  0.5711387E+03  0.7818608E-02  0.9967162E-01
          2   -1    0    0  502    0  0.00000000000E+00  0.00000000000E+00  0.56885485146E+03  0.56885485146E+03  0.00000000000E+00 0. -1.
         -2   -1    0    0    0  501 -0.00000000000E+00 -0.00000000000E+00 -0.57847348964E+03  0.57847348964E+03  0.00000000000E+00 0.  1.
          6    1    1    2  502    0  0.30322472908E+03 -0.45240490852E+03  0.48746399803E+02  0.57321518566E+03  0.17200000000E+03 0. -1.
         -6    1    1    2    0  501 -0.30322472908E+03  0.45240490852E+03 -0.58365037980E+02  0.57411315543E+03  0.17200000000E+03 0.  1.
</event>
<event>
 4    1  0.3205520E-002  0.2267352E+03  0.7818608E-02  0.1128959E+00
         -1   -1    0    0    0  501 -0.00000000000E+00  0.00000000000E+00  0.20520537188E+03  0.20520537188E+03  0.00000000000E+00 0.  1.
          1   -1    0    0  502    0  0.00000000000E+00 -0.00000000000E+00 -0.40900499541E+03  0.40900499541E+03  0.00000000000E+00 0. -1.
          6    1    1    2  502    0 -0.14521445630E+03 -0.27158610176E+02  0.89266656806E+02  0.24367471030E+03  0.17200000000E+03 0. -1.
         -6    1    1    2    0  501  0.14521445630E+03  0.27158610176E+02 -0.29306628034E+03  0.37053565698E+03  0.17200000000E+03 0. -1.
</event>
<event>
 4    1  0.3205520E-002  0.2890322E+03  0.7818608E-02  0.1090856E+00
          1   -1    0    0  502    0  0.00000000000E+00  0.00000000000E+00  0.83983674990E+03  0.83983674990E+03  0.00000000000E+00 0. -1.
         -1   -1    0    0    0  501 -0.00000000000E+00 -0.00000000000E+00 -0.11617450146E+03  0.11617450146E+03  0.00000000000E+00 0.  1.
          6    1    1    2  502    0  0.16546344207E+03  0.16302589031E+03  0.54308129075E+03  0.61520474635E+03  0.17200000000E+03 0. -1.
         -6    1    1    2    0  501 -0.16546344207E+03 -0.16302589031E+03  0.18058095769E+03  0.34080650500E+03  0.17200000000E+03 0.  1.
</event>
<event>
 4    1  0.3205520E-002  0.2699441E+03  0.7818608E-02  0.1101312E+00
         -2   -1    0    0    0  501 -0.00000000000E+00  0.00000000000E+00  0.59454992121E+02  0.59454992121E+02  0.00000000000E+00 0.  1.
          2   -1    0    0  502    0  0.00000000000E+00 -0.00000000000E+00 -0.12419891400E+04  0.12419891400E+04  0.00000000000E+00 0. -1.
          6    1    1    2  502    0  0.43607913476E+01 -0.20800671735E+03 -0.66594965712E+03  0.71858107182E+03  0.17200000000E+03 0. -1.
         -6    1    1    2    0  501 -0.43607913476E+01  0.20800671735E+03 -0.51658449075E+03  0.58286306029E+03  0.17200000000E+03 0.  1.
</event>
<event>
 4    1  0.3205520E-002  0.2767757E+03  0.7818608E-02  0.1097463E+00
         -1   -1    0    0    0  501 -0.00000000000E+00  0.00000000000E+00  0.12773181175E+03  0.12773181175E+03  0.00000000000E+00 0.  1.
          1   -1    0    0  502    0  0.00000000000E+00 -0.00000000000E+00 -0.60001301437E+03  0.60001301437E+03  0.00000000000E+00 0. -1.
          6    1    1    2  502    0 -0.24194440362E+02  0.21548875457E+03 -0.22825707865E+03  0.35875627973E+03  0.17200000000E+03 0.  1.
         -6    1    1    2    0  501  0.24194440362E+02 -0.21548875457E+03 -0.24402412396E+03  0.36898854639E+03  0.17200000000E+03 0.  1.
</event>
<event>
 4    1  0.3205520E-002  0.2150150E+03  0.7818608E-02  0.1137655E+00
         -1   -1    0    0    0  501 -0.00000000000E+00  0.00000000000E+00  0.43129376697E+03  0.43129376697E+03  0.00000000000E+00 0.  1.
          1   -1    0    0  502    0  0.00000000000E+00 -0.00000000000E+00 -0.11355950498E+03  0.11355950498E+03  0.00000000000E+00 0. -1.
          6    1    1    2  502    0 -0.33145333593E+02 -0.12469494024E+03  0.94360156837E+02  0.23480902976E+03  0.17200000000E+03 0. -1.
         -6    1    1    2    0  501  0.33145333593E+02  0.12469494024E+03  0.22337410516E+03  0.31004424219E+03  0.17200000000E+03 0.  1.
</event>
<event>
 4    1  0.3205520E-002  0.2032449E+03  0.7818608E-02  0.1147030E+00
         -1   -1    0    0    0  501 -0.00000000000E+00  0.00000000000E+00  0.99745332778E+02  0.99745332778E+02  0.00000000000E+00 0.  1.
          1   -1    0    0  502    0  0.00000000000E+00 -0.00000000000E+00 -0.64074730871E+03  0.64074730871E+03  0.00000000000E+00 0. -1.
          6    1    1    2  502    0 -0.91672885624E+02  0.57624381615E+02 -0.50317502111E+02  0.20938084519E+03  0.17200000000E+03 0.  1.
         -6    1    1    2    0  501  0.91672885624E+02 -0.57624381615E+02 -0.49068447382E+03  0.53111179630E+03  0.17200000000E+03 0. -1.
</event>
<event>
 4    1  0.3205520E-002  0.1953739E+03  0.7818608E-02  0.1153702E+00
         -2   -1    0    0    0  501 -0.00000000000E+00  0.00000000000E+00  0.60404294107E+02  0.60404294107E+02  0.00000000000E+00 0.  1.
          2   -1    0    0  502    0  0.00000000000E+00 -0.00000000000E+00 -0.65301187139E+03  0.65301187139E+03  0.00000000000E+00 0. -1.
          6    1    1    2  502    0  0.65905589815E+01 -0.92431196165E+02 -0.23220316607E+03  0.30346214233E+03  0.17200000000E+03 0. -1.
         -6    1    1    2    0  501 -0.65905589815E+01  0.92431196165E+02 -0.36040441121E+03  0.40995402317E+03  0.17200000000E+03 0. -1.
</event>
<event>
 4    1  0.3205520E-002  0.2331440E+03  0.7818608E-02  0.1124446E+00
         -1   -1    0    0    0  501 -0.00000000000E+00  0.00000000000E+00  0.12317908239E+04  0.12317908239E+04  0.00000000000E+00 0.  1.
          1   -1    0    0  502    0  0.00000000000E+00 -0.00000000000E+00 -0.62765381872E+02  0.62765381872E+02  0.00000000000E+00 0. -1.
          6    1    1    2  502    0 -0.74871202387E+02  0.13844280490E+03  0.23179549644E+03  0.32876322688E+03  0.17200000000E+03 0. -1.
         -6    1    1    2    0  501  0.74871202387E+02 -0.13844280490E+03  0.93722994555E+03  0.96579297886E+03  0.17200000000E+03 0.  1.
</event>
<event>
 4    1  0.3205520E-002  0.4389449E+03  0.7818608E-02  0.1031071E+00
         -1   -1    0    0    0  501 -0.00000000000E+00  0.00000000000E+00  0.24526200028E+03  0.24526200028E+03  0.00000000000E+00 0.  1.
          1   -1    0    0  502    0  0.00000000000E+00 -0.00000000000E+00 -0.78778025647E+03  0.78778025647E+03  0.00000000000E+00 0. -1.
          6    1    1    2  502    0 -0.33593132364E+03 -0.22414012876E+03 -0.29856343031E+03  0.53086040862E+03  0.17200000000E+03 0. -1.
         -6    1    1    2    0  501  0.33593132364E+03  0.22414012876E+03 -0.24395482588E+03  0.50218184813E+03  0.17200000000E+03 0.  1.
</event>
<event>
 4    1  0.3205520E-002  0.1820205E+03  0.7818608E-02  0.1165862E+00
         -2   -1    0    0    0  501 -0.00000000000E+00  0.00000000000E+00  0.66515287633E+02  0.66515287633E+02  0.00000000000E+00 0.  1.
          2   -1    0    0  502    0  0.00000000000E+00 -0.00000000000E+00 -0.52783290646E+03  0.52783290646E+03  0.00000000000E+00 0. -1.
          6    1    1    2  502    0 -0.52187912287E+02  0.28703358665E+02 -0.30118653159E+03  0.35191588171E+03  0.17200000000E+03 0. -1.
         -6    1    1    2    0  501  0.52187912287E+02 -0.28703358665E+02 -0.16013108723E+03  0.24243231238E+03  0.17200000000E+03 0.  1.
</event>
<event>
 4    1  0.3205520E-002  0.2098992E+03  0.7818608E-02  0.1141646E+00
         -2   -1    0    0    0  501 -0.00000000000E+00  0.00000000000E+00  0.27007060473E+03  0.27007060473E+03  0.00000000000E+00 0.  1.
          2   -1    0    0  502    0  0.00000000000E+00 -0.00000000000E+00 -0.18800485440E+03  0.18800485440E+03  0.00000000000E+00 0. -1.
          6    1    1    2  502    0 -0.89257838604E+02 -0.80664189504E+02 -0.42271661453E+02  0.21411344325E+03  0.17200000000E+03 0. -1.
         -6    1    1    2    0  501  0.89257838604E+02  0.80664189504E+02  0.12433741178E+03  0.24396201587E+03  0.17200000000E+03 0. -1.
</event>
<event>
 4    1  0.3205520E-002  0.1350781E+04  0.7818608E-02  0.8990237E-01
          2   -1    0    0  502    0  0.00000000000E+00  0.00000000000E+00  0.19789436466E+04  0.19789436466E+04  0.00000000000E+00 0. -1.
         -2   -1    0    0    0  501 -0.00000000000E+00 -0.00000000000E+00 -0.15449944530E+04  0.15449944530E+04  0.00000000000E+00 0.  1.
          6    1    1    2  502    0  0.12650044467E+04 -0.44134872416E+03  0.13358271800E+04  0.18997481942E+04  0.17200000000E+03 0. -1.
         -6    1    1    2    0  501 -0.12650044467E+04  0.44134872416E+03 -0.90187798645E+03  0.16241899054E+04  0.17200000000E+03 0.  1.
</event>
<event>
 4    1  0.3205520E-002  0.2035783E+03  0.7818608E-02  0.1146755E+00
         -1   -1    0    0    0  501 -0.00000000000E+00  0.00000000000E+00  0.53619033074E+02  0.53619033074E+02  0.00000000000E+00 0.  1.
          1   -1    0    0  502    0  0.00000000000E+00 -0.00000000000E+00 -0.11568896941E+04  0.11568896941E+04  0.00000000000E+00 0. -1.
          6    1    1    2  502    0 -0.91603654451E+02 -0.58897393861E+02 -0.90031837900E+03  0.92304784063E+03  0.17200000000E+03 0. -1.
         -6    1    1    2    0  501  0.91603654451E+02  0.58897393861E+02 -0.20295228199E+03  0.28746088652E+03  0.17200000000E+03 0.  1.
</event>
<event>
 4    1  0.3205520E-002  0.1902330E+03  0.7818608E-02  0.1158251E+00
          2   -1    0    0  502    0  0.00000000000E+00  0.00000000000E+00  0.18458014962E+03  0.18458014962E+03  0.00000000000E+00 0. -1.
         -2   -1    0    0    0  501 -0.00000000000E+00 -0.00000000000E+00 -0.79775087474E+03  0.79775087474E+03  0.00000000000E+00 0.  1.
          6    1    1    2  502    0  0.73184047588E+01  0.80938422959E+02  0.11997580588E+03  0.22490616122E+03  0.17200000000E+03 0. -1.
         -6    1    1    2    0  501 -0.73184047588E+01 -0.80938422959E+02 -0.73314653101E+03  0.75742486313E+03  0.17200000000E+03 0.  1.
</event>
<event>
 4    1  0.3205520E-002  0.4154676E+03  0.7818608E-02  0.1038552E+00
          2   -1    0    0  502    0  0.00000000000E+00  0.00000000000E+00  0.11883377960E+04  0.11883377960E+04  0.00000000000E+00 0. -1.
         -2   -1    0    0    0  501 -0.00000000000E+00 -0.00000000000E+00 -0.20655555918E+03  0.20655555918E+03  0.00000000000E+00 0.  1.
          6    1    1    2  502    0  0.28816736994E+03  0.24492630946E+03  0.87083620996E+03  0.96486736639E+03  0.17200000000E+03 0. -1.
         -6    1    1    2    0  501 -0.28816736994E+03 -0.24492630946E+03  0.11094602688E+03  0.43002598880E+03  0.17200000000E+03 0.  1.
</event>
<event>
 4    1  0.3205520E-002  0.3203516E+03  0.7818608E-02  0.1075488E+00
          2   -1    0    0  502    0  0.00000000000E+00  0.00000000000E+00  0.35644711456E+03  0.35644711456E+03  0.00000000000E+00 0. -1.
         -2   -1    0    0    0  501 -0.00000000000E+00 -0.00000000000E+00 -0.42000164040E+03  0.42000164040E+03  0.00000000000E+00 0.  1.
          6    1    1    2  502    0 -0.17278827993E+03 -0.20781087092E+03 -0.24949452230E+03  0.40604515071E+03  0.17200000000E+03 0.  1.
         -6    1    1    2    0  501  0.17278827993E+03  0.20781087092E+03  0.18593999646E+03  0.37040360425E+03  0.17200000000E+03 0. -1.
</event>
<event>
 4    1  0.3205520E-002  0.2483694E+03  0.7818608E-02  0.1114340E+00
          2   -1    0    0  502    0  0.00000000000E+00  0.00000000000E+00  0.11016999341E+04  0.11016999341E+04  0.00000000000E+00 0. -1.
         -2   -1    0    0    0  501 -0.00000000000E+00 -0.00000000000E+00 -0.59677183566E+02  0.59677183566E+02  0.00000000000E+00 0.  1.
          6    1    1    2  502    0  0.13372673959E+03  0.11924974179E+03  0.66529510825E+03  0.71014429721E+03  0.17200000000E+03 0. -1.
         -6    1    1    2    0  501 -0.13372673959E+03 -0.11924974179E+03  0.37672764228E+03  0.45123282046E+03  0.17200000000E+03 0.  1.
</event>
<event>
 4    1  0.3205520E-002  0.2260735E+03  0.7818608E-02  0.1129434E+00
         -3   -1    0    0    0  501 -0.00000000000E+00  0.00000000000E+00  0.20171364174E+03  0.20171364174E+03  0.00000000000E+00 0.  1.
          3   -1    0    0  502    0  0.00000000000E+00 -0.00000000000E+00 -0.25908689919E+03  0.25908689919E+03  0.00000000000E+00 0. -1.
          6    1    1    2  502    0 -0.14212514606E+03 -0.36409481033E+02 -0.62896227849E+02  0.23465963208E+03  0.17200000000E+03 0.  1.
         -6    1    1    2    0  501  0.14212514606E+03  0.36409481033E+02  0.55229703918E+01  0.22614090885E+03  0.17200000000E+03 0.  1.
</event>
<event>
 4    1  0.3205520E-002  0.2783480E+03  0.7818608E-02  0.1096595E+00
         -2   -1    0    0    0  501 -0.00000000000E+00  0.00000000000E+00  0.92468780344E+02  0.92468780344E+02  0.00000000000E+00 0.  1.
          2   -1    0    0  502    0  0.00000000000E+00 -0.00000000000E+00 -0.15212329401E+04  0.15212329401E+04  0.00000000000E+00 0. -1.
          6    1    1    2  502    0  0.60756372303E+02 -0.21024341653E+03 -0.12551592141E+04  0.12856524740E+04  0.17200000000E+03 0. -1.
         -6    1    1    2    0  501 -0.60756372303E+02  0.21024341653E+03 -0.17360494560E+03  0.32804924647E+03  0.17200000000E+03 0.  1.
</event>
<event>
 4    1  0.3205520E-002  0.3856124E+03  0.7818608E-02  0.1048879E+00
         -1   -1    0    0    0  501 -0.00000000000E+00  0.00000000000E+00  0.76483580576E+02  0.76483580576E+02  0.00000000000E+00 0.  1.
          1   -1    0    0  502    0  0.00000000000E+00 -0.00000000000E+00 -0.24856341061E+04  0.24856341061E+04  0.00000000000E+00 0. -1.
          6    1    1    2  502    0  0.21558865992E+03  0.26950779457E+03 -0.18024857360E+04  0.18432720228E+04  0.17200000000E+03 0. -1.
         -6    1    1    2    0  501 -0.21558865992E+03 -0.26950779457E+03 -0.60666478960E+03  0.71884566394E+03  0.17200000000E+03 0.  1.
</event>
<event>
 4    1  0.3205520E-002  0.2978257E+03  0.7818608E-02  0.1086333E+00
          1   -1    0    0  502    0  0.00000000000E+00  0.00000000000E+00  0.39810544090E+03  0.39810544090E+03  0.00000000000E+00 0. -1.
         -1   -1    0    0    0  501 -0.00000000000E+00 -0.00000000000E+00 -0.27708934950E+03  0.27708934950E+03  0.00000000000E+00 0.  1.
          6    1    1    2  502    0 -0.18430083330E+03  0.15858540458E+03 -0.88917217085E+02  0.31081569973E+03  0.17200000000E+03 0. -1.
         -6    1    1    2    0  501  0.18430083330E+03 -0.15858540458E+03  0.20993330849E+03  0.36437909067E+03  0.17200000000E+03 0.  1.
</event>
<event>
 4    1  0.3205520E-002  0.2929130E+03  0.7818608E-02  0.1088838E+00
         -1   -1    0    0    0  501 -0.00000000000E+00  0.00000000000E+00  0.71242938796E+03  0.71242938796E+03  0.00000000000E+00 0.  1.
          1   -1    0    0  502    0  0.00000000000E+00 -0.00000000000E+00 -0.17945021045E+03  0.17945021045E+03  0.00000000000E+00 0. -1.
          6    1    1    2  502    0  0.19133251482E+03  0.14002094584E+03  0.52223271967E+03  0.59876958005E+03  0.17200000000E+03 0.  1.
         -6    1    1    2    0  501 -0.19133251482E+03 -0.14002094584E+03  0.10746457836E+02  0.29311001835E+03  0.17200000000E+03 0.  1.
</event>
<event>
 4    1  0.3205520E-002  0.2391687E+03  0.7818608E-02  0.1120348E+00
          1   -1    0    0  502    0  0.00000000000E+00  0.00000000000E+00  0.19548129237E+03  0.19548129237E+03  0.00000000000E+00 0. -1.
         -1   -1    0    0    0  501 -0.00000000000E+00 -0.00000000000E+00 -0.51587781495E+03  0.51587781495E+03  0.00000000000E+00 0.  1.
          6    1    1    2  502    0 -0.49149622472E+02 -0.15875132574E+03  0.73787345109E+02  0.25029231133E+03  0.17200000000E+03 0. -1.
         -6    1    1    2    0  501  0.49149622472E+02  0.15875132574E+03 -0.39418386769E+03  0.46106679598E+03  0.17200000000E+03 0.  1.
</event>
<event>
 4    1  0.3205520E-002  0.2272971E+03  0.7818608E-02  0.1128557E+00
         -1   -1    0    0    0  501 -0.00000000000E+00  0.00000000000E+00  0.11587147591E+03  0.11587147591E+03  0.00000000000E+00 0.  1.
          1   -1    0    0  502    0  0.00000000000E+00 -0.00000000000E+00 -0.58336325246E+03  0.58336325246E+03  0.00000000000E+00 0. -1.
          6    1    1    2  502    0 -0.31544561904E+02 -0.14520649638E+03 -0.40347607770E+03  0.46309494842E+03  0.17200000000E+03 0. -1.
         -6    1    1    2    0  501  0.31544561904E+02  0.14520649638E+03 -0.64015698861E+02  0.23613977995E+03  0.17200000000E+03 0.  1.
</event>
<event>
 4    1  0.3205520E-002  0.2728089E+03  0.7818608E-02  0.1099683E+00
          2   -1    0    0  502    0  0.00000000000E+00  0.00000000000E+00  0.61704914460E+02  0.61704914460E+02  0.00000000000E+00 0. -1.
         -2   -1    0    0    0  501 -0.00000000000E+00 -0.00000000000E+00 -0.12195329808E+04  0.12195329808E+04  0.00000000000E+00 0.  1.
          6    1    1    2  502    0 -0.20297505652E+03  0.60347307237E+02 -0.51177633479E+03  0.57994800449E+03  0.17200000000E+03 0. -1.
         -6    1    1    2    0  501  0.20297505652E+03 -0.60347307237E+02 -0.64605173152E+03  0.70128989074E+03  0.17200000000E+03 0.  1.
</event>
<event>
 4    1  0.3205520E-002  0.2613087E+03  0.7818608E-02  0.1106359E+00
          1   -1    0    0  502    0  0.00000000000E+00  0.00000000000E+00  0.40896165341E+03  0.40896165341E+03  0.00000000000E+00 0. -1.
         -1   -1    0    0    0  501 -0.00000000000E+00 -0.00000000000E+00 -0.20963388651E+03  0.20963388651E+03  0.00000000000E+00 0.  1.
          6    1    1    2  502    0 -0.56414947660E+02 -0.18845582833E+03  0.23920498913E+03  0.35426158750E+03  0.17200000000E+03 0. -1.
         -6    1    1    2    0  501  0.56414947660E+02  0.18845582833E+03 -0.39877222232E+02  0.26433395243E+03  0.17200000000E+03 0.  1.
</event>
<event>
 4    1  0.3205520E-002  0.1855090E+03  0.7818608E-02  0.1162575E+00
         -2   -1    0    0    0  501 -0.00000000000E+00  0.00000000000E+00  0.18395645449E+02  0.18395645449E+02  0.00000000000E+00 0.  1.
          2   -1    0    0  502    0  0.00000000000E+00 -0.00000000000E+00 -0.28344368637E+04  0.28344368637E+04  0.00000000000E+00 0. -1.
          6    1    1    2  502    0 -0.16530485137E+02 -0.67500615238E+02 -0.22397492090E+04  0.22474185434E+04  0.17200000000E+03 0. -1.
         -6    1    1    2    0  501  0.16530485137E+02  0.67500615238E+02 -0.57629200920E+03  0.60541396570E+03  0.17200000000E+03 0.  1.
</event>
<event>
 4    1  0.3205520E-002  0.3202634E+03  0.7818608E-02  0.1075528E+00
          2   -1    0    0  502    0  0.00000000000E+00  0.00000000000E+00  0.50451163471E+03  0.50451163471E+03  0.00000000000E+00 0. -1.
         -2   -1    0    0    0  501 -0.00000000000E+00 -0.00000000000E+00 -0.20332709491E+03  0.20332709491E+03  0.00000000000E+00 0.  1.
          6    1    1    2  502    0  0.18840848810E+03  0.19361532882E+03  0.15445686168E+03  0.35556374403E+03  0.17200000000E+03 0. -1.
         -6    1    1    2    0  501 -0.18840848810E+03 -0.19361532882E+03  0.14672767812E+03  0.35227498559E+03  0.17200000000E+03 0. -1.
</event>
<event>
 4    1  0.3205520E-002  0.2828119E+03  0.7818608E-02  0.1094163E+00
          2   -1    0    0  502    0  0.00000000000E+00  0.00000000000E+00  0.98610846654E+03  0.98610846654E+03  0.00000000000E+00 0. -1.
         -2   -1    0    0    0  501 -0.00000000000E+00 -0.00000000000E+00 -0.11796249428E+03  0.11796249428E+03  0.00000000000E+00 0.  1.
          6    1    1    2  502    0  0.44327687009E+02  0.22007635975E+03  0.74262806747E+03  0.79465652615E+03  0.17200000000E+03 0. -1.
         -6    1    1    2    0  501 -0.44327687009E+02 -0.22007635975E+03  0.12551790479E+03  0.30941443467E+03  0.17200000000E+03 0.  1.
</event>
<event>
 4    1  0.3205520E-002  0.2010649E+03  0.7818608E-02  0.1148844E+00
         -2   -1    0    0    0  501 -0.00000000000E+00  0.00000000000E+00  0.21152855534E+02  0.21152855534E+02  0.00000000000E+00 0.  1.
          2   -1    0    0  502    0  0.00000000000E+00 -0.00000000000E+00 -0.19139265054E+04  0.19139265054E+04  0.00000000000E+00 0. -1.
          6    1    1    2  502    0  0.95643817365E+02 -0.41174671227E+02 -0.98298223689E+03  0.10033350245E+04  0.17200000000E+03 0.  1.
         -6    1    1    2    0  501 -0.95643817365E+02  0.41174671227E+02 -0.90979141301E+03  0.93174433647E+03  0.17200000000E+03 0.  1.
</event>
<event>
 4    1  0.3205520E-002  0.1845600E+03  0.7818608E-02  0.1163461E+00
          2   -1    0    0  502    0  0.00000000000E+00  0.00000000000E+00  0.13146129174E+03  0.13146129174E+03  0.00000000000E+00 0. -1.
         -2   -1    0    0    0  501 -0.00000000000E+00 -0.00000000000E+00 -0.44554108473E+03  0.44554108473E+03  0.00000000000E+00 0.  1.
          6    1    1    2  502    0  0.52306843539E+02 -0.41741870910E+02 -0.34366399584E+03  0.39008631315E+03  0.17200000000E+03 0.  1.
         -6    1    1    2    0  501 -0.52306843539E+02  0.41741870910E+02  0.29584202850E+02  0.18691606332E+03  0.17200000000E+03 0. -1.
</event>
<event>
 4    1  0.3205520E-002  0.2600378E+03  0.7818608E-02  0.1107121E+00
          2   -1    0    0  502    0  0.00000000000E+00  0.00000000000E+00  0.79877367061E+03  0.79877367061E+03  0.00000000000E+00 0. -1.
         -2   -1    0    0    0  501 -0.00000000000E+00 -0.00000000000E+00 -0.85469807434E+02  0.85469807434E+02  0.00000000000E+00 0.  1.
          6    1    1    2  502    0  0.12633864086E+03 -0.14857382881E+03  0.39983828379E+03  0.47695941962E+03  0.17200000000E+03 0.  1.
         -6    1    1    2    0  501 -0.12633864086E+03  0.14857382881E+03  0.31346557938E+03  0.40728405842E+03  0.17200000000E+03 0. -1.
</event>
<event>
 4    1  0.3205520E-002  0.4613626E+03  0.7818608E-02  0.1024387E+00
          1   -1    0    0  502    0  0.00000000000E+00  0.00000000000E+00  0.22257332941E+03  0.22257332941E+03  0.00000000000E+00 0. -1.
         -1   -1    0    0    0  501 -0.00000000000E+00 -0.00000000000E+00 -0.10018008029E+04  0.10018008029E+04  0.00000000000E+00 0.  1.
          6    1    1    2  502    0  0.17634106768E+03 -0.39009655003E+03 -0.25920154924E+03  0.52918893944E+03  0.17200000000E+03 0.  1.
         -6    1    1    2    0  501 -0.17634106768E+03  0.39009655003E+03 -0.52002592428E+03  0.69518519290E+03  0.17200000000E+03 0.  1.
</event>
<event>
 4    1  0.3205520E-002  0.3727597E+03  0.7818608E-02  0.1053643E+00
         -2   -1    0    0    0  501 -0.00000000000E+00  0.00000000000E+00  0.35478098547E+03  0.35478098547E+03  0.00000000000E+00 0.  1.
          2   -1    0    0  502    0  0.00000000000E+00 -0.00000000000E+00 -0.49541850332E+03  0.49541850332E+03  0.00000000000E+00 0. -1.
          6    1    1    2  502    0 -0.20512423757E+03 -0.25940281169E+03 -0.26487210151E+03  0.45728219046E+03  0.17200000000E+03 0. -1.
         -6    1    1    2    0  501  0.20512423757E+03  0.25940281169E+03  0.12423458366E+03  0.39291729833E+03  0.17200000000E+03 0.  1.
</event>
<event>
 4    1  0.3205520E-002  0.3285156E+03  0.7818608E-02  0.1071796E+00
         -1   -1    0    0    0  501 -0.00000000000E+00  0.00000000000E+00  0.11743907665E+03  0.11743907665E+03  0.00000000000E+00 0.  1.
          1   -1    0    0  502    0  0.00000000000E+00 -0.00000000000E+00 -0.16898260119E+04  0.16898260119E+04  0.00000000000E+00 0. -1.
          6    1    1    2  502    0  0.27266695639E+03  0.63176161538E+02 -0.17587195309E+03  0.37263043404E+03  0.17200000000E+03 0.  1.
         -6    1    1    2    0  501 -0.27266695639E+03 -0.63176161538E+02 -0.13965149822E+04  0.14346346545E+04  0.17200000000E+03 0. -1.
</event>
<event>
 4    1  0.3205520E-002  0.1861132E+03  0.7818608E-02  0.1162014E+00
         -1   -1    0    0    0  501 -0.00000000000E+00  0.00000000000E+00  0.29363928145E+02  0.29363928145E+02  0.00000000000E+00 0.  1.
          1   -1    0    0  502    0  0.00000000000E+00 -0.00000000000E+00 -0.12349416063E+04  0.12349416063E+04  0.00000000000E+00 0. -1.
          6    1    1    2  502    0  0.28656429916E+02 -0.65060850688E+02 -0.73659286078E+03  0.75974150065E+03  0.17200000000E+03 0. -1.
         -6    1    1    2    0  501 -0.28656429916E+02  0.65060850688E+02 -0.46898481742E+03  0.50456403384E+03  0.17200000000E+03 0.  1.
</event>
<event>
 4    1  0.3205520E-002  0.4315652E+03  0.7818608E-02  0.1033367E+00
          2   -1    0    0  502    0  0.00000000000E+00  0.00000000000E+00  0.22380112239E+04  0.22380112239E+04  0.00000000000E+00 0. -1.
         -2   -1    0    0    0  501 -0.00000000000E+00 -0.00000000000E+00 -0.11293500625E+03  0.11293500625E+03  0.00000000000E+00 0.  1.
          6    1    1    2  502    0 -0.28996600387E+03 -0.26941468014E+03  0.16654893753E+04  0.17204951068E+04  0.17200000000E+03 0. -1.
         -6    1    1    2    0  501  0.28996600387E+03  0.26941468014E+03  0.45958684236E+03  0.63045112336E+03  0.17200000000E+03 0.  1.
</event>
<event>
 4    1  0.3205520E-002  0.2273995E+03  0.7818608E-02  0.1128484E+00
          2   -1    0    0  502    0  0.00000000000E+00  0.00000000000E+00  0.33680378416E+03  0.33680378416E+03  0.00000000000E+00 0. -1.
         -2   -1    0    0    0  501 -0.00000000000E+00 -0.00000000000E+00 -0.17778464754E+03  0.17778464754E+03  0.00000000000E+00 0.  1.
          6    1    1    2  502    0 -0.89313654382E+02 -0.11895202599E+03  0.17453788626E+03  0.28666005492E+03  0.17200000000E+03 0.  1.
         -6    1    1    2    0  501  0.89313654382E+02  0.11895202599E+03 -0.15518749641E+02  0.22792837677E+03  0.17200000000E+03 0.  1.
</event>
<event>
 4    1  0.3205520E-002  0.1811504E+03  0.7818608E-02  0.1166694E+00
         -2   -1    0    0    0  501 -0.00000000000E+00  0.00000000000E+00  0.66727001506E+02  0.66727001506E+02  0.00000000000E+00 0.  1.
          2   -1    0    0  502    0  0.00000000000E+00 -0.00000000000E+00 -0.64457024410E+03  0.64457024410E+03  0.00000000000E+00 0. -1.
          6    1    1    2  502    0 -0.22297236472E+02  0.52290461771E+02 -0.11577096583E+03  0.21498459404E+03  0.17200000000E+03 0.  1.
         -6    1    1    2    0  501  0.22297236472E+02 -0.52290461771E+02 -0.46207227677E+03  0.49631265156E+03  0.17200000000E+03 0. -1.
</event>
<event>
 4    1  0.3205520E-002  0.4250562E+03  0.7818608E-02  0.1035433E+00
          2   -1    0    0  502    0  0.00000000000E+00  0.00000000000E+00  0.91284535748E+03  0.91284535748E+03  0.00000000000E+00 0. -1.
         -2   -1    0    0    0  501 -0.00000000000E+00 -0.00000000000E+00 -0.28864724346E+03  0.28864724346E+03  0.00000000000E+00 0.  1.
          6    1    1    2  502    0  0.21674253728E+03 -0.32266304858E+03  0.64889737811E+03  0.77571939366E+03  0.17200000000E+03 0. -1.
         -6    1    1    2    0  501 -0.21674253728E+03  0.32266304858E+03 -0.24699264085E+02  0.42577320727E+03  0.17200000000E+03 0.  1.
</event>
<event>
 4    1  0.3205520E-002  0.1840061E+03  0.7818608E-02  0.1163981E+00
          4   -1    0    0  502    0  0.00000000000E+00  0.00000000000E+00  0.32142325890E+03  0.32142325890E+03  0.00000000000E+00 0. -1.
         -4   -1    0    0    0  501 -0.00000000000E+00 -0.00000000000E+00 -0.10588976855E+03  0.10588976855E+03  0.00000000000E+00 0.  1.
          6    1    1    2  502    0 -0.63941081042E+02  0.13630784434E+02  0.92351482564E+02  0.20588117073E+03  0.17200000000E+03 0.  1.
         -6    1    1    2    0  501  0.63941081042E+02 -0.13630784434E+02  0.12318200778E+03  0.22143185672E+03  0.17200000000E+03 0. -1.
</event>
<event>
 4    1  0.3205520E-002  0.2933543E+03  0.7818608E-02  0.1088611E+00
          2   -1    0    0  502    0  0.00000000000E+00  0.00000000000E+00  0.31920076091E+04  0.31920076091E+04  0.00000000000E+00 0. -1.
         -2   -1    0    0    0  501 -0.00000000000E+00 -0.00000000000E+00 -0.40849606838E+02  0.40849606838E+02  0.00000000000E+00 0.  1.
          6    1    1    2  502    0 -0.40727537684E+02  0.23412393746E+03  0.25181334781E+04  0.25351633012E+04  0.17200000000E+03 0. -1.
         -6    1    1    2    0  501  0.40727537684E+02 -0.23412393746E+03  0.63302452417E+03  0.69769391471E+03  0.17200000000E+03 0.  1.
</event>
<event>
 4    1  0.3205520E-002  0.2134933E+03  0.7818608E-02  0.1138829E+00
         -1   -1    0    0    0  501 -0.00000000000E+00  0.00000000000E+00  0.16293545155E+02  0.16293545155E+02  0.00000000000E+00 0.  1.
          1   -1    0    0  502    0  0.00000000000E+00 -0.00000000000E+00 -0.29104392277E+04  0.29104392277E+04  0.00000000000E+00 0. -1.
          6    1    1    2  502    0  0.12048096331E+03 -0.38467144201E+02 -0.17354823413E+04  0.17485646516E+04  0.17200000000E+03 0.  1.
         -6    1    1    2    0  501 -0.12048096331E+03  0.38467144201E+02 -0.11586633412E+04  0.11781681213E+04  0.17200000000E+03 0.  1.
</event>
<event>
 4    1  0.3205520E-002  0.2985015E+03  0.7818608E-02  0.1085992E+00
         -1   -1    0    0    0  501 -0.00000000000E+00  0.00000000000E+00  0.46800395568E+03  0.46800395568E+03  0.00000000000E+00 0.  1.
          1   -1    0    0  502    0  0.00000000000E+00 -0.00000000000E+00 -0.10272438553E+04  0.10272438553E+04  0.00000000000E+00 0. -1.
          6    1    1    2  502    0 -0.24221029570E+03 -0.29211188058E+02 -0.95441408377E+03  0.10000046821E+04  0.17200000000E+03 0. -1.
         -6    1    1    2    0  501  0.24221029570E+03  0.29211188058E+02  0.39517418419E+03  0.49524312888E+03  0.17200000000E+03 0.  1.
</event>
<event>
 4    1  0.3205520E-002  0.2004799E+03  0.7818608E-02  0.1149335E+00
         -3   -1    0    0    0  501 -0.00000000000E+00  0.00000000000E+00  0.43438393064E+02  0.43438393064E+02  0.00000000000E+00 0.  1.
          3   -1    0    0  502    0  0.00000000000E+00 -0.00000000000E+00 -0.97695770046E+03  0.97695770046E+03  0.00000000000E+00 0. -1.
          6    1    1    2  502    0 -0.22009112714E+02  0.10061699420E+03 -0.58411434463E+03  0.61756112909E+03  0.17200000000E+03 0. -1.
         -6    1    1    2    0  501  0.22009112714E+02 -0.10061699420E+03 -0.34940496277E+03  0.40283496444E+03  0.17200000000E+03 0.  1.
</event>
<event>
 4    1  0.3205520E-002  0.1893648E+03  0.7818608E-02  0.1159035E+00
          1   -1    0    0  502    0  0.00000000000E+00  0.00000000000E+00  0.31965433662E+03  0.31965433662E+03  0.00000000000E+00 0. -1.
         -1   -1    0    0    0  501 -0.00000000000E+00 -0.00000000000E+00 -0.25388086436E+03  0.25388086436E+03  0.00000000000E+00 0.  1.
          6    1    1    2  502    0 -0.78929843374E+02 -0.67168465833E+01 -0.18135314969E+03  0.26219840027E+03  0.17200000000E+03 0.  1.
         -6    1    1    2    0  501  0.78929843374E+02  0.67168465833E+01  0.24712662194E+03  0.31133680071E+03  0.17200000000E+03 0. -1.
</event>
<event>
 4    1  0.3205520E-002  0.6254701E+03  0.7818608E-02  0.9853929E-01
         -1   -1    0    0    0  501 -0.00000000000E+00  0.00000000000E+00  0.25237532027E+03  0.25237532027E+03  0.00000000000E+00 0.  1.
          1   -1    0    0  502    0  0.00000000000E+00 -0.00000000000E+00 -0.15764421294E+04  0.15764421294E+04  0.00000000000E+00 0. -1.
          6    1    1    2  502    0 -0.40798581281E+03 -0.44178781905E+03 -0.78018332815E+03  0.99994946174E+03  0.17200000000E+03 0. -1.
         -6    1    1    2    0  501  0.40798581281E+03  0.44178781905E+03 -0.54388348098E+03  0.82886798792E+03  0.17200000000E+03 0.  1.
</event>
<event>
 4    1  0.3205520E-002  0.2371917E+03  0.7818608E-02  0.1121678E+00
          1   -1    0    0  502    0  0.00000000000E+00  0.00000000000E+00  0.45693550971E+02  0.45693550971E+02  0.00000000000E+00 0. -1.
         -1   -1    0    0    0  501 -0.00000000000E+00 -0.00000000000E+00 -0.12368007406E+04  0.12368007406E+04  0.00000000000E+00 0.  1.
          6    1    1    2  502    0 -0.12952539701E+02 -0.16281316053E+03 -0.63853693191E+03  0.68116760561E+03  0.17200000000E+03 0.  1.
         -6    1    1    2    0  501  0.12952539701E+02  0.16281316053E+03 -0.55257025773E+03  0.60132668596E+03  0.17200000000E+03 0. -1.
</event>
<event>
 4    1  0.3205520E-002  0.3313338E+03  0.7818608E-02  0.1070548E+00
          2   -1    0    0  502    0  0.00000000000E+00  0.00000000000E+00  0.18264080703E+04  0.18264080703E+04  0.00000000000E+00 0. -1.
         -2   -1    0    0    0  501 -0.00000000000E+00 -0.00000000000E+00 -0.67958488040E+02  0.67958488040E+02  0.00000000000E+00 0.  1.
          6    1    1    2  502    0  0.44754875786E+02  0.27963388482E+03  0.12011499070E+04  0.12460109179E+04  0.17200000000E+03 0. -1.
         -6    1    1    2    0  501 -0.44754875786E+02 -0.27963388482E+03  0.55729967525E+03  0.64835564043E+03  0.17200000000E+03 0.  1.
</event>
<event>
 4    1  0.3205520E-002  0.6110963E+03  0.7818608E-02  0.9882648E-01
          1   -1    0    0  502    0  0.00000000000E+00  0.00000000000E+00  0.39799304938E+03  0.39799304938E+03  0.00000000000E+00 0. -1.
         -1   -1    0    0    0  501 -0.00000000000E+00 -0.00000000000E+00 -0.10313737996E+04  0.10313737996E+04  0.00000000000E+00 0.  1.
          6    1    1    2  502    0  0.12907969215E+03 -0.57200797757E+03 -0.10200189386E+03  0.61955070792E+03  0.17200000000E+03 0. -1.
         -6    1    1    2    0  501 -0.12907969215E+03  0.57200797757E+03 -0.53137885638E+03  0.80981614107E+03  0.17200000000E+03 0.  1.
</event>
<event>
 4    1  0.3205520E-002  0.2198405E+03  0.7818608E-02  0.1134002E+00
          2   -1    0    0  502    0  0.00000000000E+00  0.00000000000E+00  0.95585397198E+03  0.95585397198E+03  0.00000000000E+00 0. -1.
         -2   -1    0    0    0  501 -0.00000000000E+00 -0.00000000000E+00 -0.56630373387E+02  0.56630373387E+02  0.00000000000E+00 0.  1.
          6    1    1    2  502    0 -0.32433666705E+02 -0.13301844547E+03  0.61533038371E+03  0.65342278097E+03  0.17200000000E+03 0. -1.
         -6    1    1    2    0  501  0.32433666705E+02  0.13301844547E+03  0.28389321488E+03  0.35906156440E+03  0.17200000000E+03 0.  1.
</event>
<event>
 4    1  0.3205520E-002  0.2809881E+03  0.7818608E-02  0.1095150E+00
          2   -1    0    0  502    0  0.00000000000E+00  0.00000000000E+00  0.70923569505E+03  0.70923569505E+03  0.00000000000E+00 0. -1.
         -2   -1    0    0    0  501 -0.00000000000E+00 -0.00000000000E+00 -0.11132810631E+03  0.11132810631E+03  0.00000000000E+00 0.  1.
          6    1    1    2  502    0 -0.21462671940E+03 -0.57495100668E+02  0.30170545772E+03  0.41228691284E+03  0.17200000000E+03 0.  1.
         -6    1    1    2    0  501  0.21462671940E+03  0.57495100668E+02  0.29620213102E+03  0.40827688852E+03  0.17200000000E+03 0.  1.
</event>
<event>
 4    1  0.3205520E-002  0.2013424E+03  0.7818608E-02  0.1148611E+00
          2   -1    0    0  502    0  0.00000000000E+00  0.00000000000E+00  0.13711249749E+04  0.13711249749E+04  0.00000000000E+00 0. -1.
         -2   -1    0    0    0  501 -0.00000000000E+00 -0.00000000000E+00 -0.45354047153E+02  0.45354047153E+02  0.00000000000E+00 0.  1.
          6    1    1    2  502    0 -0.92204938580E+02 -0.49527714280E+02  0.10807501703E+04  0.10993451122E+04  0.17200000000E+03 0. -1.
         -6    1    1    2    0  501  0.92204938580E+02  0.49527714280E+02  0.24502075745E+03  0.31713390983E+03  0.17200000000E+03 0.  1.
</event>
<event>
 4    1  0.3205520E-002  0.1922539E+03  0.7818608E-02  0.1156444E+00
          1   -1    0    0  502    0  0.00000000000E+00  0.00000000000E+00  0.23712417476E+03  0.23712417476E+03  0.00000000000E+00 0. -1.
         -1   -1    0    0    0  501 -0.00000000000E+00 -0.00000000000E+00 -0.16333980830E+03  0.16333980830E+03  0.00000000000E+00 0.  1.
          6    1    1    2  502    0  0.80388719595E+02 -0.30252339779E+02  0.79699589093E+02  0.20811913608E+03  0.17200000000E+03 0.  1.
         -6    1    1    2    0  501 -0.80388719595E+02  0.30252339779E+02 -0.59152226270E+01  0.19234484698E+03  0.17200000000E+03 0.  1.
</event>
<event>
 4    1  0.3205520E-002  0.2970950E+03  0.7818608E-02  0.1086702E+00
          2   -1    0    0  502    0  0.00000000000E+00  0.00000000000E+00  0.10137509751E+04  0.10137509751E+04  0.00000000000E+00 0. -1.
         -2   -1    0    0    0  501 -0.00000000000E+00 -0.00000000000E+00 -0.11454376678E+03  0.11454376678E+03  0.00000000000E+00 0.  1.
          6    1    1    2  502    0 -0.16937324238E+03 -0.17318819004E+03  0.72590328820E+03  0.78434751751E+03  0.17200000000E+03 0. -1.
         -6    1    1    2    0  501  0.16937324238E+03  0.17318819004E+03  0.17330392008E+03  0.34394722432E+03  0.17200000000E+03 0.  1.
</event>
<event>
 4    1  0.3205520E-002  0.2373197E+03  0.7818608E-02  0.1121591E+00
         -2   -1    0    0    0  501 -0.00000000000E+00  0.00000000000E+00  0.47945424983E+02  0.47945424983E+02  0.00000000000E+00 0.  1.
          2   -1    0    0  502    0  0.00000000000E+00 -0.00000000000E+00 -0.19226768991E+04  0.19226768991E+04  0.00000000000E+00 0. -1.
          6    1    1    2  502    0  0.15688168040E+03 -0.46095567110E+02 -0.15519329022E+04  0.15699733743E+04  0.17200000000E+03 0. -1.
         -6    1    1    2    0  501 -0.15688168040E+03  0.46095567110E+02 -0.32279857183E+03  0.40064894974E+03  0.17200000000E+03 0.  1.
</event>
<event>
 4    1  0.3205520E-002  0.8684659E+03  0.7818608E-02  0.9465882E-01
          2   -1    0    0  502    0  0.00000000000E+00  0.00000000000E+00  0.15876375160E+04  0.15876375160E+04  0.00000000000E+00 0. -1.
         -2   -1    0    0    0  501 -0.00000000000E+00 -0.00000000000E+00 -0.48497804723E+03  0.48497804723E+03  0.00000000000E+00 0.  1.
          6    1    1    2  502    0  0.85046659977E+03 -0.36817230250E+02  0.69948076845E+03  0.11151261324E+04  0.17200000000E+03 0. -1.
         -6    1    1    2    0  501 -0.85046659977E+03  0.36817230250E+02  0.40317870034E+03  0.95748943084E+03  0.17200000000E+03 0.  1.
</event>
<event>
 4    1  0.3205520E-002  0.1765592E+03  0.7818608E-02  0.1171175E+00
         -2   -1    0    0    0  501 -0.00000000000E+00  0.00000000000E+00  0.66192745625E+02  0.66192745625E+02  0.00000000000E+00 0.  1.
          2   -1    0    0  502    0  0.00000000000E+00 -0.00000000000E+00 -0.66986980742E+03  0.66986980742E+03  0.00000000000E+00 0. -1.
          6    1    1    2  502    0  0.67959332205E+01  0.39280525083E+02 -0.50239375090E+03  0.53251537565E+03  0.17200000000E+03 0. -1.
         -6    1    1    2    0  501 -0.67959332205E+01 -0.39280525083E+02 -0.10128331089E+03  0.20354717739E+03  0.17200000000E+03 0.  1.
</event>
<event>
 4    1  0.3205520E-002  0.1912342E+03  0.7818608E-02  0.1157353E+00
         -2   -1    0    0    0  501 -0.00000000000E+00  0.00000000000E+00  0.10322835093E+03  0.10322835093E+03  0.00000000000E+00 0.  1.
          2   -1    0    0  502    0  0.00000000000E+00 -0.00000000000E+00 -0.59270546312E+03  0.59270546312E+03  0.00000000000E+00 0. -1.
          6    1    1    2  502    0  0.79506507358E+02  0.25791987326E+02 -0.46544023488E+03  0.50319491608E+03  0.17200000000E+03 0. -1.
         -6    1    1    2    0  501 -0.79506507358E+02 -0.25791987326E+02 -0.24036877311E+02  0.19273889798E+03  0.17200000000E+03 0.  1.
</event>
<event>
 4    1  0.3205520E-002  0.2370809E+03  0.7818608E-02  0.1121753E+00
         -1   -1    0    0    0  501 -0.00000000000E+00  0.00000000000E+00  0.15846944585E+04  0.15846944585E+04  0.00000000000E+00 0.  1.
          1   -1    0    0  502    0  0.00000000000E+00 -0.00000000000E+00 -0.11445208692E+03  0.11445208692E+03  0.00000000000E+00 0. -1.
          6    1    1    2  502    0 -0.13853010488E+03 -0.86213473383E+02  0.29362327065E+02  0.23889223345E+03  0.17200000000E+03 0. -1.
         -6    1    1    2    0  501  0.13853010488E+03  0.86213473383E+02  0.14408800445E+04  0.14602543120E+04  0.17200000000E+03 0.  1.
</event>
<event>
 4    1  0.3205520E-002  0.2255357E+03  0.7818608E-02  0.1129822E+00
         -2   -1    0    0    0  501 -0.00000000000E+00  0.00000000000E+00  0.21352203302E+03  0.21352203302E+03  0.00000000000E+00 0.  1.
          2   -1    0    0  502    0  0.00000000000E+00 -0.00000000000E+00 -0.47391763628E+03  0.47391763628E+03  0.00000000000E+00 0. -1.
          6    1    1    2  502    0  0.14588423597E+03 -0.34545559577E+00 -0.37259409748E+03  0.43553724424E+03  0.17200000000E+03 0. -1.
         -6    1    1    2    0  501 -0.14588423597E+03  0.34545559577E+00  0.11219849421E+03  0.25190242506E+03  0.17200000000E+03 0.  1.
</event>
<event>
 4    1  0.3205520E-002  0.1722040E+03  0.7818608E-02  0.1175569E+00
          1   -1    0    0  502    0  0.00000000000E+00  0.00000000000E+00  0.89529526476E+02  0.89529526476E+02  0.00000000000E+00 0. -1.
         -1   -1    0    0    0  501 -0.00000000000E+00 -0.00000000000E+00 -0.33432803844E+03  0.33432803844E+03  0.00000000000E+00 0.  1.
          6    1    1    2  502    0 -0.58297365136E+00  0.83594525690E+01 -0.10197477043E+03  0.20013264129E+03  0.17200000000E+03 0. -1.
         -6    1    1    2    0  501  0.58297365136E+00 -0.83594525690E+01 -0.14282374154E+03  0.22372492363E+03  0.17200000000E+03 0.  1.
</event>
<event>
 4    1  0.3205520E-002  0.2901289E+03  0.7818608E-02  0.1090282E+00
         -1   -1    0    0    0  501 -0.00000000000E+00  0.00000000000E+00  0.98965563372E+03  0.98965563372E+03  0.00000000000E+00 0.  1.
          1   -1    0    0  502    0  0.00000000000E+00 -0.00000000000E+00 -0.13422853339E+03  0.13422853339E+03  0.00000000000E+00 0. -1.
          6    1    1    2  502    0 -0.78031628712E+02 -0.22023132500E+03  0.87590100199E+02  0.30306236527E+03  0.17200000000E+03 0. -1.
         -6    1    1    2    0  501  0.78031628712E+02  0.22023132500E+03  0.76783700014E+03  0.82082180184E+03  0.17200000000E+03 0.  1.
</event>
<event>
 4    1  0.3205520E-002  0.1929949E+03  0.7818608E-02  0.1155787E+00
          2   -1    0    0  502    0  0.00000000000E+00  0.00000000000E+00  0.14075032064E+03  0.14075032064E+03  0.00000000000E+00 0. -1.
         -2   -1    0    0    0  501 -0.00000000000E+00 -0.00000000000E+00 -0.29534340657E+03  0.29534340657E+03  0.00000000000E+00 0.  1.
          6    1    1    2  502    0 -0.86223846161E+02  0.15116052181E+02 -0.69835370603E+01  0.19312124811E+03  0.17200000000E+03 0. -1.
         -6    1    1    2    0  501  0.86223846161E+02 -0.15116052181E+02 -0.14760954887E+03  0.24297247910E+03  0.17200000000E+03 0. -1.
</event>
<event>
 4    1  0.3205520E-002  0.2126796E+03  0.7818608E-02  0.1139461E+00
         -2   -1    0    0    0  501 -0.00000000000E+00  0.00000000000E+00  0.46929145990E+02  0.46929145990E+02  0.00000000000E+00 0.  1.
          2   -1    0    0  502    0  0.00000000000E+00 -0.00000000000E+00 -0.98792935382E+03  0.98792935382E+03  0.00000000000E+00 0. -1.
          6    1    1    2  502    0 -0.10874581130E+03 -0.61830029964E+02 -0.55128323520E+03  0.59088561456E+03  0.17200000000E+03 0. -1.
         -6    1    1    2    0  501  0.10874581130E+03  0.61830029964E+02 -0.38971697263E+03  0.44397288525E+03  0.17200000000E+03 0.  1.
</event>
<event>
 4    1  0.3205520E-002  0.1720359E+03  0.7818608E-02  0.1175741E+00
          1   -1    0    0  502    0  0.00000000000E+00  0.00000000000E+00  0.13970029310E+03  0.13970029310E+03  0.00000000000E+00 0. -1.
         -1   -1    0    0    0  501 -0.00000000000E+00 -0.00000000000E+00 -0.21204848155E+03  0.21204848155E+03  0.00000000000E+00 0.  1.
          6    1    1    2  502    0 -0.33410986026E+01  0.10913595884E+01 -0.41472060736E+02  0.17696408061E+03  0.17200000000E+03 0.  1.
         -6    1    1    2    0  501  0.33410986026E+01 -0.10913595884E+01 -0.30876127710E+02  0.17478469403E+03  0.17200000000E+03 0.  1.
</event>
<event>
 4    1  0.3205520E-002  0.1913822E+03  0.7818608E-02  0.1157221E+00
         -1   -1    0    0    0  501 -0.00000000000E+00  0.00000000000E+00  0.18637546494E+03  0.18637546494E+03  0.00000000000E+00 0.  1.
          1   -1    0    0  502    0  0.00000000000E+00 -0.00000000000E+00 -0.20175162875E+03  0.20175162875E+03  0.00000000000E+00 0. -1.
          6    1    1    2  502    0  0.28388020736E+02 -0.78976484441E+02  0.23551643696E+02  0.19282594415E+03  0.17200000000E+03 0. -1.
         -6    1    1    2    0  501 -0.28388020736E+02  0.78976484441E+02 -0.38927807499E+02  0.19530114954E+03  0.17200000000E+03 0. -1.
</event>
<event>
 4    1  0.3205520E-002  0.2452867E+03  0.7818608E-02  0.1116320E+00
          2   -1    0    0  502    0  0.00000000000E+00  0.00000000000E+00  0.96237518311E+03  0.96237518311E+03  0.00000000000E+00 0. -1.
         -2   -1    0    0    0  501 -0.00000000000E+00 -0.00000000000E+00 -0.77455510793E+02  0.77455510793E+02  0.00000000000E+00 0.  1.
          6    1    1    2  502    0 -0.13792443639E+03 -0.10751000123E+03  0.67078245288E+03  0.71422310912E+03  0.17200000000E+03 0. -1.
         -6    1    1    2    0  501  0.13792443639E+03  0.10751000123E+03  0.21413721944E+03  0.32560758478E+03  0.17200000000E+03 0.  1.
</event>
<event>
 4    1  0.3205520E-002  0.1976976E+03  0.7818608E-02  0.1151696E+00
         -2   -1    0    0    0  501 -0.00000000000E+00  0.00000000000E+00  0.87750254365E+03  0.87750254365E+03  0.00000000000E+00 0.  1.
          2   -1    0    0  502    0  0.00000000000E+00 -0.00000000000E+00 -0.53496382616E+02  0.53496382616E+02  0.00000000000E+00 0. -1.
          6    1    1    2  502    0 -0.75022785954E+02  0.62224700204E+02  0.60246717467E+03  0.63407493901E+03  0.17200000000E+03 0.  1.
         -6    1    1    2    0  501  0.75022785954E+02 -0.62224700204E+02  0.22153898636E+03  0.29692398725E+03  0.17200000000E+03 0. -1.
</event>
<event>
 4    1  0.3205520E-002  0.2960859E+03  0.7818608E-02  0.1087214E+00
         -2   -1    0    0    0  501 -0.00000000000E+00  0.00000000000E+00  0.42216190541E+02  0.42216190541E+02  0.00000000000E+00 0.  1.
          2   -1    0    0  502    0  0.00000000000E+00 -0.00000000000E+00 -0.21076645990E+04  0.21076645990E+04  0.00000000000E+00 0. -1.
          6    1    1    2  502    0  0.70567755061E+01 -0.24090053599E+03 -0.11631899263E+04  0.12002823297E+04  0.17200000000E+03 0. -1.
         -6    1    1    2    0  501 -0.70567755061E+01  0.24090053599E+03 -0.90225848211E+03  0.94959845980E+03  0.17200000000E+03 0.  1.
</event>
<event>
 4    1  0.3205520E-002  0.2054549E+03  0.7818608E-02  0.1145217E+00
          2   -1    0    0  502    0  0.00000000000E+00  0.00000000000E+00  0.13491035785E+03  0.13491035785E+03  0.00000000000E+00 0. -1.
         -2   -1    0    0    0  501 -0.00000000000E+00 -0.00000000000E+00 -0.33351399445E+03  0.33351399445E+03  0.00000000000E+00 0.  1.
          6    1    1    2  502    0 -0.10541114782E+03 -0.38938703819E+02 -0.41055613102E+02  0.20951681581E+03  0.17200000000E+03 0. -1.
         -6    1    1    2    0  501  0.10541114782E+03  0.38938703819E+02 -0.15754802351E+03  0.25890753649E+03  0.17200000000E+03 0.  1.
</event>
<event>
 4    1  0.3205520E-002  0.3881223E+03  0.7818608E-02  0.1047972E+00
         -1   -1    0    0    0  501 -0.00000000000E+00  0.00000000000E+00  0.98934199109E+02  0.98934199109E+02  0.00000000000E+00 0.  1.
          1   -1    0    0  502    0  0.00000000000E+00 -0.00000000000E+00 -0.15255911514E+04  0.15255911514E+04  0.00000000000E+00 0. -1.
          6    1    1    2  502    0  0.66762239797E+02 -0.34146413663E+03 -0.74918884900E+03  0.84375522797E+03  0.17200000000E+03 0. -1.
         -6    1    1    2    0  501 -0.66762239797E+02  0.34146413663E+03 -0.67746810330E+03  0.78077012254E+03  0.17200000000E+03 0.  1.
</event>
<event>
 4    1  0.3205520E-002  0.4035055E+03  0.7818608E-02  0.1042573E+00
         -1   -1    0    0    0  501 -0.00000000000E+00  0.00000000000E+00  0.27064605473E+03  0.27064605473E+03  0.00000000000E+00 0.  1.
          1   -1    0    0  502    0  0.00000000000E+00 -0.00000000000E+00 -0.63521547658E+03  0.63521547658E+03  0.00000000000E+00 0. -1.
          6    1    1    2  502    0 -0.26070408585E+03  0.25547222859E+03 -0.28650110738E+03  0.49487328125E+03  0.17200000000E+03 0. -1.
         -6    1    1    2    0  501  0.26070408585E+03 -0.25547222859E+03 -0.78068314471E+02  0.41098825006E+03  0.17200000000E+03 0.  1.
</event>
<event>
 4    1  0.3205520E-002  0.1988256E+03  0.7818608E-02  0.1150734E+00
         -2   -1    0    0    0  501 -0.00000000000E+00  0.00000000000E+00  0.10555821629E+03  0.10555821629E+03  0.00000000000E+00 0.  1.
          2   -1    0    0  502    0  0.00000000000E+00 -0.00000000000E+00 -0.41283440630E+03  0.41283440630E+03  0.00000000000E+00 0. -1.
          6    1    1    2  502    0 -0.41565375404E+02  0.90663958585E+02 -0.74655598967E+02  0.21237959477E+03  0.17200000000E+03 0. -1.
         -6    1    1    2    0  501  0.41565375404E+02 -0.90663958585E+02 -0.23262059105E+03  0.30601302782E+03  0.17200000000E+03 0. -1.
</event>
<event>
 4    1  0.3205520E-002  0.1734394E+03  0.7818608E-02  0.1174308E+00
         -1   -1    0    0    0  501 -0.00000000000E+00  0.00000000000E+00  0.10473754762E+03  0.10473754762E+03  0.00000000000E+00 0.  1.
          1   -1    0    0  502    0  0.00000000000E+00 -0.00000000000E+00 -0.29711793518E+03  0.29711793518E+03  0.00000000000E+00 0. -1.
          6    1    1    2  502    0  0.17958394217E+02  0.13218214771E+02 -0.13288970986E+03  0.21849691099E+03  0.17200000000E+03 0. -1.
         -6    1    1    2    0  501 -0.17958394217E+02 -0.13218214771E+02 -0.59490677704E+02  0.18335857182E+03  0.17200000000E+03 0.  1.
</event>
<event>
 4    1  0.3205520E-002  0.1917328E+03  0.7818608E-02  0.1156908E+00
          3   -1    0    0  502    0  0.00000000000E+00  0.00000000000E+00  0.22154434834E+04  0.22154434834E+04  0.00000000000E+00 0. -1.
         -3   -1    0    0    0  501 -0.00000000000E+00 -0.00000000000E+00 -0.19127425867E+02  0.19127425867E+02  0.00000000000E+00 0.  1.
          6    1    1    2  502    0  0.84297336471E+02  0.84506187091E+01  0.15048377016E+04  0.15170029538E+04  0.17200000000E+03 0. -1.
         -6    1    1    2    0  501 -0.84297336471E+02 -0.84506187091E+01  0.69147835598E+03  0.71756795544E+03  0.17200000000E+03 0.  1.
</event>
<event>
 4    1  0.3205520E-002  0.2406501E+03  0.7818608E-02  0.1119361E+00
          2   -1    0    0  502    0  0.00000000000E+00  0.00000000000E+00  0.13577365262E+04  0.13577365262E+04  0.00000000000E+00 0. -1.
         -2   -1    0    0    0  501 -0.00000000000E+00 -0.00000000000E+00 -0.45207146537E+02  0.45207146537E+02  0.00000000000E+00 0.  1.
          6    1    1    2  502    0  0.15332815451E+03 -0.69418604699E+02  0.48955095523E+03  0.54550215711E+03  0.17200000000E+03 0. -1.
         -6    1    1    2    0  501 -0.15332815451E+03  0.69418604699E+02  0.82297842447E+03  0.85744151566E+03  0.17200000000E+03 0. -1.
</event>
<event>
 4    1  0.3205520E-002  0.2443307E+03  0.7818608E-02  0.1116941E+00
         -1   -1    0    0    0  501 -0.00000000000E+00  0.00000000000E+00  0.57054375409E+03  0.57054375409E+03  0.00000000000E+00 0.  1.
          1   -1    0    0  502    0  0.00000000000E+00 -0.00000000000E+00 -0.32583131129E+03  0.32583131129E+03  0.00000000000E+00 0. -1.
          6    1    1    2  502    0  0.83958043007E+01 -0.17332921824E+03 -0.24692277449E+03  0.34737352229E+03  0.17200000000E+03 0. -1.
         -6    1    1    2    0  501 -0.83958043007E+01  0.17332921824E+03  0.49163521729E+03  0.54900154308E+03  0.17200000000E+03 0.  1.
</event>
<event>
 4    1  0.3205520E-002  0.2638927E+03  0.7818608E-02  0.1104827E+00
          1   -1    0    0  502    0  0.00000000000E+00  0.00000000000E+00  0.24790220821E+04  0.24790220821E+04  0.00000000000E+00 0. -1.
         -1   -1    0    0    0  501 -0.00000000000E+00 -0.00000000000E+00 -0.85943480428E+02  0.85943480428E+02  0.00000000000E+00 0.  1.
          6    1    1    2  502    0 -0.17095015777E+03 -0.10407409802E+03  0.22487538497E+04  0.22641848976E+04  0.17200000000E+03 0. -1.
         -6    1    1    2    0  501  0.17095015777E+03  0.10407409802E+03  0.14432475198E+03  0.30078066486E+03  0.17200000000E+03 0.  1.
</event>
<event>
 4    1  0.3205520E-002  0.2908933E+03  0.7818608E-02  0.1089884E+00
         -1   -1    0    0    0  501 -0.00000000000E+00  0.00000000000E+00  0.31417631699E+03  0.31417631699E+03  0.00000000000E+00 0.  1.
          1   -1    0    0  502    0  0.00000000000E+00 -0.00000000000E+00 -0.14894278856E+04  0.14894278856E+04  0.00000000000E+00 0. -1.
          6    1    1    2  502    0 -0.95378920226E+02 -0.21433104154E+03 -0.14038280675E+04  0.14336499492E+04  0.17200000000E+03 0. -1.
         -6    1    1    2    0  501  0.95378920226E+02  0.21433104154E+03  0.22857649885E+03  0.36995425341E+03  0.17200000000E+03 0.  1.
</event>
<event>
 4    1  0.3205520E-002  0.7119612E+03  0.7818608E-02  0.9696993E-01
         -1   -1    0    0    0  501 -0.00000000000E+00  0.00000000000E+00  0.53733295818E+03  0.53733295818E+03  0.00000000000E+00 0.  1.
          1   -1    0    0  502    0  0.00000000000E+00 -0.00000000000E+00 -0.13009033990E+04  0.13009033990E+04  0.00000000000E+00 0. -1.
          6    1    1    2  502    0  0.69047754677E+03  0.23354984743E+02 -0.86364890975E+03  0.11192757199E+04  0.17200000000E+03 0. -1.
         -6    1    1    2    0  501 -0.69047754677E+03 -0.23354984743E+02  0.10007846898E+03  0.71896063721E+03  0.17200000000E+03 0.  1.
</event>
<event>
 4    1  0.3205520E-002  0.1937315E+03  0.7818608E-02  0.1155138E+00
          2   -1    0    0  502    0  0.00000000000E+00  0.00000000000E+00  0.63283456521E+03  0.63283456521E+03  0.00000000000E+00 0. -1.
         -2   -1    0    0    0  501 -0.00000000000E+00 -0.00000000000E+00 -0.59691286349E+02  0.59691286349E+02  0.00000000000E+00 0.  1.
          6    1    1    2  502    0  0.87816803564E+02 -0.15365731427E+02  0.31433301600E+03  0.36923859717E+03  0.17200000000E+03 0. -1.
         -6    1    1    2    0  501 -0.87816803564E+02  0.15365731427E+02  0.25881026286E+03  0.32328725439E+03  0.17200000000E+03 0. -1.
</event>
<event>
 4    1  0.3205520E-002  0.2398390E+03  0.7818608E-02  0.1119900E+00
          1   -1    0    0  502    0  0.00000000000E+00  0.00000000000E+00  0.18939301362E+04  0.18939301362E+04  0.00000000000E+00 0. -1.
         -1   -1    0    0    0  501 -0.00000000000E+00 -0.00000000000E+00 -0.32683017043E+02  0.32683017043E+02  0.00000000000E+00 0.  1.
          6    1    1    2  502    0  0.15440621876E+03 -0.64011419479E+02  0.67447593214E+03  0.71584951299E+03  0.17200000000E+03 0.  1.
         -6    1    1    2    0  501 -0.15440621876E+03  0.64011419479E+02  0.11867711870E+04  0.12107636402E+04  0.17200000000E+03 0.  1.
</event>
<event>
 4    1  0.3205520E-002  0.3344097E+03  0.7818608E-02  0.1069202E+00
          2   -1    0    0  502    0  0.00000000000E+00  0.00000000000E+00  0.19429716326E+03  0.19429716326E+03  0.00000000000E+00 0. -1.
         -2   -1    0    0    0  501 -0.00000000000E+00 -0.00000000000E+00 -0.78630974314E+03  0.78630974314E+03  0.00000000000E+00 0.  1.
          6    1    1    2  502    0 -0.28671413749E+03 -0.63890738269E+01 -0.42171643564E+02  0.33705825078E+03  0.17200000000E+03 0. -1.
         -6    1    1    2    0  501  0.28671413749E+03  0.63890738269E+01 -0.54984093631E+03  0.64354865561E+03  0.17200000000E+03 0.  1.
</event>
<event>
 4    1  0.3205520E-002  0.2280138E+03  0.7818608E-02  0.1128046E+00
         -4   -1    0    0    0  501 -0.00000000000E+00  0.00000000000E+00  0.36326357568E+03  0.36326357568E+03  0.00000000000E+00 0.  1.
          4   -1    0    0  502    0  0.00000000000E+00 -0.00000000000E+00 -0.14312167639E+03  0.14312167639E+03  0.00000000000E+00 0. -1.
          6    1    1    2  502    0 -0.72169110392E+01 -0.14951330545E+03  0.10922556083E+03  0.25282510842E+03  0.17200000000E+03 0. -1.
         -6    1    1    2    0  501  0.72169110392E+01  0.14951330545E+03  0.11091633846E+03  0.25356014365E+03  0.17200000000E+03 0. -1.
</event>
<event>
 4    1  0.3205520E-002  0.2348399E+03  0.7818608E-02  0.1123279E+00
         -2   -1    0    0    0  501 -0.00000000000E+00  0.00000000000E+00  0.17541286796E+03  0.17541286796E+03  0.00000000000E+00 0.  1.
          2   -1    0    0  502    0  0.00000000000E+00 -0.00000000000E+00 -0.43972996552E+03  0.43972996552E+03  0.00000000000E+00 0. -1.
          6    1    1    2  502    0 -0.13482838590E+03 -0.85948252423E+02 -0.29636132689E+03  0.37812674041E+03  0.17200000000E+03 0. -1.
         -6    1    1    2    0  501  0.13482838590E+03  0.85948252423E+02  0.32044229321E+02  0.23701609307E+03  0.17200000000E+03 0.  1.
</event>
<event>
 4    1  0.3205520E-002  0.2290185E+03  0.7818608E-02  0.1127332E+00
          2   -1    0    0  502    0  0.00000000000E+00  0.00000000000E+00  0.14052471329E+04  0.14052471329E+04  0.00000000000E+00 0. -1.
         -2   -1    0    0    0  501 -0.00000000000E+00 -0.00000000000E+00 -0.37807513413E+02  0.37807513413E+02  0.00000000000E+00 0.  1.
          6    1    1    2  502    0 -0.15020441074E+03  0.17438839803E+02  0.76531359362E+03  0.79884565137E+03  0.17200000000E+03 0. -1.
         -6    1    1    2    0  501  0.15020441074E+03 -0.17438839803E+02  0.60212602591E+03  0.64420899498E+03  0.17200000000E+03 0.  1.
</event>
<event>
 4    1  0.3205520E-002  0.2049432E+03  0.7818608E-02  0.1145634E+00
          1   -1    0    0  502    0  0.00000000000E+00  0.00000000000E+00  0.56894669917E+03  0.56894669917E+03  0.00000000000E+00 0. -1.
         -1   -1    0    0    0  501 -0.00000000000E+00 -0.00000000000E+00 -0.31815630005E+03  0.31815630005E+03  0.00000000000E+00 0.  1.
          6    1    1    2  502    0  0.57565697588E+02  0.95414450849E+02  0.51409519282E+03  0.55343978376E+03  0.17200000000E+03 0. -1.
         -6    1    1    2    0  501 -0.57565697588E+02 -0.95414450849E+02 -0.26330479370E+03  0.33366321546E+03  0.17200000000E+03 0.  1.
</event>
<event>
 4    1  0.3205520E-002  0.1856884E+03  0.7818608E-02  0.1162409E+00
         -1   -1    0    0    0  501 -0.00000000000E+00  0.00000000000E+00  0.70639285570E+03  0.70639285570E+03  0.00000000000E+00 0.  1.
          1   -1    0    0  502    0  0.00000000000E+00 -0.00000000000E+00 -0.48867958615E+02  0.48867958615E+02  0.00000000000E+00 0. -1.
          6    1    1    2  502    0 -0.31263264121E+02 -0.62600145344E+02  0.34158608510E+03  0.38879457740E+03  0.17200000000E+03 0.  1.
         -6    1    1    2    0  501  0.31263264121E+02  0.62600145344E+02  0.31593881198E+03  0.36646623691E+03  0.17200000000E+03 0.  1.
</event>
<event>
 4    1  0.3205520E-002  0.3055718E+03  0.7818608E-02  0.1082488E+00
          1   -1    0    0  502    0  0.00000000000E+00  0.00000000000E+00  0.11196306504E+04  0.11196306504E+04  0.00000000000E+00 0. -1.
         -1   -1    0    0    0  501 -0.00000000000E+00 -0.00000000000E+00 -0.11219606968E+03  0.11219606968E+03  0.00000000000E+00 0.  1.
          6    1    1    2  502    0 -0.25175476974E+03  0.20239958168E+02  0.81576293751E+03  0.87111611752E+03  0.17200000000E+03 0. -1.
         -6    1    1    2    0  501  0.25175476974E+03 -0.20239958168E+02  0.19167164323E+03  0.36071060258E+03  0.17200000000E+03 0.  1.
</event>
<event>
 4    1  0.3205520E-002  0.2723217E+03  0.7818608E-02  0.1099958E+00
          2   -1    0    0  502    0  0.00000000000E+00  0.00000000000E+00  0.23524982423E+04  0.23524982423E+04  0.00000000000E+00 0. -1.
         -2   -1    0    0    0  501 -0.00000000000E+00 -0.00000000000E+00 -0.32130224193E+02  0.32130224193E+02  0.00000000000E+00 0.  1.
          6    1    1    2  502    0  0.20784692032E+03 -0.37077673533E+02  0.99634716196E+03  0.10328924258E+04  0.17200000000E+03 0.  1.
         -6    1    1    2    0  501 -0.20784692032E+03  0.37077673533E+02  0.13240208562E+04  0.13517360407E+04  0.17200000000E+03 0. -1.
</event>
<event>
 4    1  0.3205520E-002  0.5467977E+03  0.7818608E-02  0.1002238E+00
         -1   -1    0    0    0  501 -0.00000000000E+00  0.00000000000E+00  0.35088585852E+03  0.35088585852E+03  0.00000000000E+00 0.  1.
          1   -1    0    0  502    0  0.00000000000E+00 -0.00000000000E+00 -0.90246997288E+03  0.90246997288E+03  0.00000000000E+00 0. -1.
          6    1    1    2  502    0 -0.14195054599E+03  0.49925318114E+03 -0.42385289554E+03  0.69183738945E+03  0.17200000000E+03 0. -1.
         -6    1    1    2    0  501  0.14195054599E+03 -0.49925318114E+03 -0.12773121882E+03  0.56151844195E+03  0.17200000000E+03 0.  1.
</event>
<event>
 4    1  0.3205520E-002  0.4927033E+03  0.7818608E-02  0.1015701E+00
         -2   -1    0    0    0  501 -0.00000000000E+00  0.00000000000E+00  0.18461296739E+03  0.18461296739E+03  0.00000000000E+00 0.  1.
          2   -1    0    0  502    0  0.00000000000E+00 -0.00000000000E+00 -0.14063936700E+04  0.14063936700E+04  0.00000000000E+00 0. -1.
          6    1    1    2  502    0 -0.10647505081E+03 -0.44926119394E+03 -0.81373743688E+03  0.95127555051E+03  0.17200000000E+03 0. -1.
         -6    1    1    2    0  501  0.10647505081E+03  0.44926119394E+03 -0.40804326577E+03  0.63973108691E+03  0.17200000000E+03 0.  1.
</event>
<event>
 4    1  0.3205520E-002  0.3963500E+03  0.7818608E-02  0.1045051E+00
         -2   -1    0    0    0  501 -0.00000000000E+00  0.00000000000E+00  0.39762257671E+03  0.39762257671E+03  0.00000000000E+00 0.  1.
          2   -1    0    0  502    0  0.00000000000E+00 -0.00000000000E+00 -0.39791002851E+03  0.39791002851E+03  0.00000000000E+00 0. -1.
          6    1    1    2  502    0  0.29506205353E+03 -0.20111622504E+03 -0.33679670384E+02  0.39777842023E+03  0.17200000000E+03 0. -1.
         -6    1    1    2    0  501 -0.29506205353E+03  0.20111622504E+03  0.33392218582E+02  0.39775418498E+03  0.17200000000E+03 0.  1.
</event>
<event>
 4    1  0.3205520E-002  0.2405898E+03  0.7818608E-02  0.1119401E+00
         -2   -1    0    0    0  501 -0.00000000000E+00  0.00000000000E+00  0.51972397202E+03  0.51972397202E+03  0.00000000000E+00 0.  1.
          2   -1    0    0  502    0  0.00000000000E+00 -0.00000000000E+00 -0.12418545847E+03  0.12418545847E+03  0.00000000000E+00 0. -1.
          6    1    1    2  502    0  0.13603068815E+02  0.16767355437E+03  0.30118046644E+03  0.38547780440E+03  0.17200000000E+03 0.  1.
         -6    1    1    2    0  501 -0.13603068815E+02 -0.16767355437E+03  0.94358047106E+02  0.25843162610E+03  0.17200000000E+03 0.  1.
</event>
<event>
 4    1  0.3205520E-002  0.1921660E+03  0.7818608E-02  0.1156522E+00
         -2   -1    0    0    0  501 -0.00000000000E+00  0.00000000000E+00  0.17744451959E+02  0.17744451959E+02  0.00000000000E+00 0.  1.
          2   -1    0    0  502    0  0.00000000000E+00 -0.00000000000E+00 -0.24233837545E+04  0.24233837545E+04  0.00000000000E+00 0. -1.
          6    1    1    2  502    0  0.11897663710E+02 -0.84865830749E+02 -0.16615424649E+04  0.16726180456E+04  0.17200000000E+03 0. -1.
         -6    1    1    2    0  501 -0.11897663710E+02  0.84865830749E+02 -0.74409683756E+03  0.76851016082E+03  0.17200000000E+03 0.  1.
</event>
<event>
 4    1  0.3205520E-002  0.2185888E+03  0.7818608E-02  0.1134940E+00
          2   -1    0    0  502    0  0.00000000000E+00  0.00000000000E+00  0.20779845945E+04  0.20779845945E+04  0.00000000000E+00 0. -1.
         -2   -1    0    0    0  501 -0.00000000000E+00 -0.00000000000E+00 -0.39390724817E+02  0.39390724817E+02  0.00000000000E+00 0.  1.
          6    1    1    2  502    0  0.64473189115E+02 -0.11849173054E+03  0.17023430523E+04  0.17163195943E+04  0.17200000000E+03 0. -1.
         -6    1    1    2    0  501 -0.64473189115E+02  0.11849173054E+03  0.33625081741E+03  0.40105572497E+03  0.17200000000E+03 0.  1.
</event>
<event>
 4    1  0.3205520E-002  0.2221682E+03  0.7818608E-02  0.1132277E+00
          4   -1    0    0  502    0  0.00000000000E+00  0.00000000000E+00  0.42343091204E+03  0.42343091204E+03  0.00000000000E+00 0. -1.
         -4   -1    0    0    0  501 -0.00000000000E+00 -0.00000000000E+00 -0.12420901248E+03  0.12420901248E+03  0.00000000000E+00 0.  1.
          6    1    1    2  502    0  0.43497594699E+02  0.13372616269E+03  0.21752324100E+03  0.31092617726E+03  0.17200000000E+03 0. -1.
         -6    1    1    2    0  501 -0.43497594699E+02 -0.13372616269E+03  0.81698658550E+02  0.23671374726E+03  0.17200000000E+03 0.  1.
</event>
<event>
 4    1  0.3205520E-002  0.1765610E+03  0.7818608E-02  0.1171173E+00
          2   -1    0    0  502    0  0.00000000000E+00  0.00000000000E+00  0.15727488848E+04  0.15727488848E+04  0.00000000000E+00 0. -1.
         -2   -1    0    0    0  501 -0.00000000000E+00 -0.00000000000E+00 -0.21057487045E+02  0.21057487045E+02  0.00000000000E+00 0.  1.
          6    1    1    2  502    0 -0.26120308029E+02  0.30125021834E+02  0.58275559059E+03  0.60891531907E+03  0.17200000000E+03 0.  1.
         -6    1    1    2    0  501  0.26120308029E+02 -0.30125021834E+02  0.96893580711E+03  0.98489105273E+03  0.17200000000E+03 0.  1.
</event>
<event>
 4    1  0.3205520E-002  0.1858990E+03  0.7818608E-02  0.1162213E+00
          2   -1    0    0  502    0  0.00000000000E+00  0.00000000000E+00  0.33052091526E+02  0.33052091526E+02  0.00000000000E+00 0. -1.
         -2   -1    0    0    0  501 -0.00000000000E+00 -0.00000000000E+00 -0.10591723710E+04  0.10591723710E+04  0.00000000000E+00 0.  1.
          6    1    1    2  502    0  0.69859462793E+02 -0.97004265607E+01 -0.57493653180E+03  0.60424370780E+03  0.17200000000E+03 0. -1.
         -6    1    1    2    0  501 -0.69859462793E+02  0.97004265607E+01 -0.45118374764E+03  0.48798075470E+03  0.17200000000E+03 0. -1.
</event>
<event>
 4    1  0.3205520E-002  0.2712780E+03  0.7818608E-02  0.1100550E+00
         -1   -1    0    0    0  501 -0.00000000000E+00  0.00000000000E+00  0.93521215600E+02  0.93521215600E+02  0.00000000000E+00 0.  1.
          1   -1    0    0  502    0  0.00000000000E+00 -0.00000000000E+00 -0.96008404770E+03  0.96008404770E+03  0.00000000000E+00 0. -1.
          6    1    1    2  502    0 -0.80374334784E+02 -0.19377240234E+03 -0.65702374252E+03  0.71082485595E+03  0.17200000000E+03 0. -1.
         -6    1    1    2    0  501  0.80374334784E+02  0.19377240234E+03 -0.20953908958E+03  0.34278040735E+03  0.17200000000E+03 0.  1.
</event>
<event>
 4    1  0.3205520E-002  0.2987161E+03  0.7818608E-02  0.1085884E+00
          2   -1    0    0  502    0  0.00000000000E+00  0.00000000000E+00  0.13713388031E+04  0.13713388031E+04  0.00000000000E+00 0. -1.
         -2   -1    0    0    0  501 -0.00000000000E+00 -0.00000000000E+00 -0.65978418687E+02  0.65978418687E+02  0.00000000000E+00 0.  1.
          6    1    1    2  502    0 -0.76629400185E+02 -0.23189488723E+03  0.56829563717E+03  0.64202121065E+03  0.17200000000E+03 0. -1.
         -6    1    1    2    0  501  0.76629400185E+02  0.23189488723E+03  0.73706474722E+03  0.79529601111E+03  0.17200000000E+03 0.  1.
</event>
<event>
 4    1  0.3205520E-002  0.1926295E+03  0.7818608E-02  0.1156111E+00
         -1   -1    0    0    0  501 -0.00000000000E+00  0.00000000000E+00  0.51196314576E+03  0.51196314576E+03  0.00000000000E+00 0.  1.
          1   -1    0    0  502    0  0.00000000000E+00 -0.00000000000E+00 -0.12541656481E+03  0.12541656481E+03  0.00000000000E+00 0. -1.
          6    1    1    2  502    0 -0.33372348308E+02  0.80052597666E+02 -0.13777232597E+02  0.19312157871E+03  0.17200000000E+03 0. -1.
         -6    1    1    2    0  501  0.33372348308E+02 -0.80052597666E+02  0.40032381355E+03  0.44425813186E+03  0.17200000000E+03 0.  1.
</event>
<event>
 4    1  0.3205520E-002  0.3134212E+03  0.7818608E-02  0.1078718E+00
         -1   -1    0    0    0  501 -0.00000000000E+00  0.00000000000E+00  0.18420857605E+03  0.18420857605E+03  0.00000000000E+00 0.  1.
          1   -1    0    0  502    0  0.00000000000E+00 -0.00000000000E+00 -0.59736414288E+03  0.59736414288E+03  0.00000000000E+00 0. -1.
          6    1    1    2  502    0  0.24989869310E+03 -0.78736981540E+02 -0.33458359781E+03  0.45845289071E+03  0.17200000000E+03 0. -1.
         -6    1    1    2    0  501 -0.24989869310E+03  0.78736981540E+02 -0.78571969030E+02  0.32311982823E+03  0.17200000000E+03 0.  1.
</event>
<event>
 4    1  0.3205520E-002  0.1777831E+03  0.7818608E-02  0.1169966E+00
          2   -1    0    0  502    0  0.00000000000E+00  0.00000000000E+00  0.14082049201E+03  0.14082049201E+03  0.00000000000E+00 0. -1.
         -2   -1    0    0    0  501 -0.00000000000E+00 -0.00000000000E+00 -0.22868832232E+03  0.22868832232E+03  0.00000000000E+00 0.  1.
          6    1    1    2  502    0 -0.40200857662E+02  0.20167187560E+02 -0.69092815714E+02  0.19073710073E+03  0.17200000000E+03 0.  1.
         -6    1    1    2    0  501  0.40200857662E+02 -0.20167187560E+02 -0.18775014598E+02  0.17877171360E+03  0.17200000000E+03 0. -1.
</event>
<event>
 4    1  0.3205520E-002  0.3797744E+03  0.7818608E-02  0.1051017E+00
         -1   -1    0    0    0  501 -0.00000000000E+00  0.00000000000E+00  0.11531504307E+03  0.11531504307E+03  0.00000000000E+00 0.  1.
          1   -1    0    0  502    0  0.00000000000E+00 -0.00000000000E+00 -0.16296888779E+04  0.16296888779E+04  0.00000000000E+00 0. -1.
          6    1    1    2  502    0  0.33785660511E+03  0.22305532286E+02 -0.11779202598E+04  0.12376286846E+04  0.17200000000E+03 0. -1.
         -6    1    1    2    0  501 -0.33785660511E+03 -0.22305532286E+02 -0.33645357506E+03  0.50737523644E+03  0.17200000000E+03 0.  1.
</event>
<event>
 4    1  0.3205520E-002  0.5422676E+03  0.7818608E-02  0.1003300E+00
         -2   -1    0    0    0  501 -0.00000000000E+00  0.00000000000E+00  0.27220080864E+03  0.27220080864E+03  0.00000000000E+00 0.  1.
          2   -1    0    0  502    0  0.00000000000E+00 -0.00000000000E+00 -0.12720189747E+04  0.12720189747E+04  0.00000000000E+00 0. -1.
          6    1    1    2  502    0  0.25953320465E+03 -0.44397376462E+03 -0.79967548254E+03  0.96619618369E+03  0.17200000000E+03 0. -1.
         -6    1    1    2    0  501 -0.25953320465E+03  0.44397376462E+03 -0.20014268352E+03  0.57802359965E+03  0.17200000000E+03 0.  1.
</event>
<event>
 4    1  0.3205520E-002  0.5071010E+03  0.7818608E-02  0.1011942E+00
          2   -1    0    0  502    0  0.00000000000E+00  0.00000000000E+00  0.16306660912E+03  0.16306660912E+03  0.00000000000E+00 0. -1.
         -2   -1    0    0    0  501 -0.00000000000E+00 -0.00000000000E+00 -0.15797492962E+04  0.15797492962E+04  0.00000000000E+00 0.  1.
          6    1    1    2  502    0  0.24450564970E+03  0.40961499935E+03 -0.67180321129E+03  0.84170720273E+03  0.17200000000E+03 0. -1.
         -6    1    1    2    0  501 -0.24450564970E+03 -0.40961499935E+03 -0.74487947577E+03  0.90110870257E+03  0.17200000000E+03 0.  1.
</event>
<event>
 4    1  0.3205520E-002  0.2464470E+03  0.7818608E-02  0.1115571E+00
         -1   -1    0    0    0  501 -0.00000000000E+00  0.00000000000E+00  0.10737160238E+03  0.10737160238E+03  0.00000000000E+00 0.  1.
          1   -1    0    0  502    0  0.00000000000E+00 -0.00000000000E+00 -0.14548235682E+04  0.14548235682E+04  0.00000000000E+00 0. -1.
          6    1    1    2  502    0 -0.17355907798E+03  0.32083923532E+02 -0.12843730191E+04  0.13078035724E+04  0.17200000000E+03 0. -1.
         -6    1    1    2    0  501  0.17355907798E+03 -0.32083923532E+02 -0.63078946663E+02  0.25439159815E+03  0.17200000000E+03 0.  1.
</event>
<event>
 4    1  0.3205520E-002  0.1764480E+03  0.7818608E-02  0.1171286E+00
         -1   -1    0    0    0  501 -0.00000000000E+00  0.00000000000E+00  0.21991453483E+03  0.21991453483E+03  0.00000000000E+00 0.  1.
          1   -1    0    0  502    0  0.00000000000E+00 -0.00000000000E+00 -0.23307933030E+04  0.23307933030E+04  0.00000000000E+00 0. -1.
          6    1    1    2  502    0 -0.27990283680E+02 -0.27684520075E+02 -0.22914539996E+04  0.22982374379E+04  0.17200000000E+03 0. -1.
         -6    1    1    2    0  501  0.27990283680E+02  0.27684520075E+02  0.18057523144E+03  0.25247039993E+03  0.17200000000E+03 0.  1.
</event>
<event>
 4    1  0.3205520E-002  0.2223519E+03  0.7818608E-02  0.1132142E+00
          2   -1    0    0  502    0  0.00000000000E+00  0.00000000000E+00  0.25312712168E+03  0.25312712168E+03  0.00000000000E+00 0. -1.
         -2   -1    0    0    0  501 -0.00000000000E+00 -0.00000000000E+00 -0.26653959792E+03  0.26653959792E+03  0.00000000000E+00 0.  1.
          6    1    1    2  502    0  0.99921702822E+02  0.99358009216E+02 -0.14101952049E+03  0.26329995414E+03  0.17200000000E+03 0.  1.
         -6    1    1    2    0  501 -0.99921702822E+02 -0.99358009216E+02  0.12760704425E+03  0.25636676546E+03  0.17200000000E+03 0.  1.
</event>
<event>
 4    1  0.3205520E-002  0.2180816E+03  0.7818608E-02  0.1135321E+00
         -2   -1    0    0    0  501 -0.00000000000E+00  0.00000000000E+00  0.10844865421E+03  0.10844865421E+03  0.00000000000E+00 0.  1.
          2   -1    0    0  502    0  0.00000000000E+00 -0.00000000000E+00 -0.47668555553E+03  0.47668555553E+03  0.00000000000E+00 0. -1.
          6    1    1    2  502    0  0.28703978715E+01  0.13404235263E+03 -0.26687535620E+03  0.34464771467E+03  0.17200000000E+03 0.  1.
         -6    1    1    2    0  501 -0.28703978715E+01 -0.13404235263E+03 -0.10136154512E+03  0.24048649507E+03  0.17200000000E+03 0.  1.
</event>
<event>
 4    1  0.3205520E-002  0.2382477E+03  0.7818608E-02  0.1120966E+00
         -1   -1    0    0    0  501 -0.00000000000E+00  0.00000000000E+00  0.44718766835E+02  0.44718766835E+02  0.00000000000E+00 0.  1.
          1   -1    0    0  502    0  0.00000000000E+00 -0.00000000000E+00 -0.12694942384E+04  0.12694942384E+04  0.00000000000E+00 0. -1.
          6    1    1    2  502    0 -0.15922983363E+03 -0.42706043147E+02 -0.60445634412E+03  0.64971487438E+03  0.17200000000E+03 0. -1.
         -6    1    1    2    0  501  0.15922983363E+03  0.42706043147E+02 -0.62031912742E+03  0.66449813083E+03  0.17200000000E+03 0.  1.
</event>
<event>
 4    1  0.3205520E-002  0.2234637E+03  0.7818608E-02  0.1131327E+00
         -2   -1    0    0    0  501 -0.00000000000E+00  0.00000000000E+00  0.25080902683E+02  0.25080902683E+02  0.00000000000E+00 0.  1.
          2   -1    0    0  502    0  0.00000000000E+00 -0.00000000000E+00 -0.24060189379E+04  0.24060189379E+04  0.00000000000E+00 0. -1.
          6    1    1    2  502    0  0.86848134964E+02  0.11317876181E+03 -0.16953141897E+04  0.17099784304E+04  0.17200000000E+03 0. -1.
         -6    1    1    2    0  501 -0.86848134964E+02 -0.11317876181E+03 -0.68562384560E+03  0.72112141025E+03  0.17200000000E+03 0.  1.
</event>
<event>
 4    1  0.3205520E-002  0.1886811E+03  0.7818608E-02  0.1159656E+00
          1   -1    0    0  502    0  0.00000000000E+00  0.00000000000E+00  0.55806502983E+03  0.55806502983E+03  0.00000000000E+00 0. -1.
         -1   -1    0    0    0  501 -0.00000000000E+00 -0.00000000000E+00 -0.66294001982E+02  0.66294001982E+02  0.00000000000E+00 0.  1.
          6    1    1    2  502    0  0.44196757997E+02  0.63743198766E+02  0.30652267645E+03  0.35993985607E+03  0.17200000000E+03 0. -1.
         -6    1    1    2    0  501 -0.44196757997E+02 -0.63743198766E+02  0.18524835140E+03  0.26441917575E+03  0.17200000000E+03 0.  1.
</event>
<event>
 4    1  0.3205520E-002  0.2374423E+03  0.7818608E-02  0.1121508E+00
          2   -1    0    0  502    0  0.00000000000E+00  0.00000000000E+00  0.28669324585E+03  0.28669324585E+03  0.00000000000E+00 0. -1.
         -2   -1    0    0    0  501 -0.00000000000E+00 -0.00000000000E+00 -0.19774142832E+03  0.19774142832E+03  0.00000000000E+00 0.  1.
          6    1    1    2  502    0 -0.14562515942E+03 -0.74754065371E+02  0.62452857330E+02  0.24551826151E+03  0.17200000000E+03 0.  1.
         -6    1    1    2    0  501  0.14562515942E+03  0.74754065371E+02  0.26498960193E+02  0.23891641266E+03  0.17200000000E+03 0.  1.
</event>
<event>
 4    1  0.3205520E-002  0.2066933E+03  0.7818608E-02  0.1144212E+00
         -2   -1    0    0    0  501 -0.00000000000E+00  0.00000000000E+00  0.16073825298E+02  0.16073825298E+02  0.00000000000E+00 0.  1.
          2   -1    0    0  502    0  0.00000000000E+00 -0.00000000000E+00 -0.26893363700E+04  0.26893363700E+04  0.00000000000E+00 0. -1.
          6    1    1    2  502    0 -0.50328930580E+02  0.10298108472E+03 -0.14829561085E+04  0.14972911958E+04  0.17200000000E+03 0.  1.
         -6    1    1    2    0  501  0.50328930580E+02 -0.10298108472E+03 -0.11903064362E+04  0.12081189996E+04  0.17200000000E+03 0.  1.
</event>
<event>
 4    1  0.3205520E-002  0.2072759E+03  0.7818608E-02  0.1143742E+00
         -2   -1    0    0    0  501 -0.00000000000E+00  0.00000000000E+00  0.12412318945E+03  0.12412318945E+03  0.00000000000E+00 0.  1.
          2   -1    0    0  502    0  0.00000000000E+00 -0.00000000000E+00 -0.67085193126E+03  0.67085193126E+03  0.00000000000E+00 0. -1.
          6    1    1    2  502    0 -0.53871133735E+02  0.10235820934E+03 -0.54990763992E+03  0.58767483739E+03  0.17200000000E+03 0. -1.
         -6    1    1    2    0  501  0.53871133735E+02 -0.10235820934E+03  0.31788981007E+01  0.20730028331E+03  0.17200000000E+03 0.  1.
</event>
<event>
 4    1  0.3205520E-002  0.2467260E+03  0.7818608E-02  0.1115392E+00
         -1   -1    0    0    0  501 -0.00000000000E+00  0.00000000000E+00  0.54716539839E+02  0.54716539839E+02  0.00000000000E+00 0.  1.
          1   -1    0    0  502    0  0.00000000000E+00 -0.00000000000E+00 -0.11222747790E+04  0.11222747790E+04  0.00000000000E+00 0. -1.
          6    1    1    2  502    0  0.45028898089E+02  0.17106168017E+03 -0.58862160335E+03  0.63823905554E+03  0.17200000000E+03 0.  1.
         -6    1    1    2    0  501 -0.45028898089E+02 -0.17106168017E+03 -0.47893663580E+03  0.53875226329E+03  0.17200000000E+03 0.  1.
</event>
<event>
 4    1  0.3205520E-002  0.1794165E+03  0.7818608E-02  0.1168369E+00
         -1   -1    0    0    0  501 -0.00000000000E+00  0.00000000000E+00  0.12837738453E+03  0.12837738453E+03  0.00000000000E+00 0.  1.
          1   -1    0    0  502    0  0.00000000000E+00 -0.00000000000E+00 -0.27104028252E+03  0.27104028252E+03  0.00000000000E+00 0. -1.
          6    1    1    2  502    0 -0.96246422019E+01 -0.50136329926E+02 -0.12597678044E+03  0.21922690192E+03  0.17200000000E+03 0. -1.
         -6    1    1    2    0  501  0.96246422019E+01  0.50136329926E+02 -0.16686117548E+02  0.18019076512E+03  0.17200000000E+03 0.  1.
</event>
<event>
 4    1  0.3205520E-002  0.2194733E+03  0.7818608E-02  0.1134276E+00
         -2   -1    0    0    0  501 -0.00000000000E+00  0.00000000000E+00  0.41388517159E+02  0.41388517159E+02  0.00000000000E+00 0.  1.
          2   -1    0    0  502    0  0.00000000000E+00 -0.00000000000E+00 -0.11976544563E+04  0.11976544563E+04  0.00000000000E+00 0. -1.
          6    1    1    2  502    0  0.47441952440E+02 -0.12780371969E+03 -0.68227107105E+03  0.71670240965E+03  0.17200000000E+03 0. -1.
         -6    1    1    2    0  501 -0.47441952440E+02  0.12780371969E+03 -0.47399486813E+03  0.52234056384E+03  0.17200000000E+03 0.  1.
</event>
<event>
 4    1  0.3205520E-002  0.1790204E+03  0.7818608E-02  0.1168754E+00
         -2   -1    0    0    0  501 -0.00000000000E+00  0.00000000000E+00  0.32449282018E+02  0.32449282018E+02  0.00000000000E+00 0.  1.
          2   -1    0    0  502    0  0.00000000000E+00 -0.00000000000E+00 -0.11788876855E+04  0.11788876855E+04  0.00000000000E+00 0. -1.
          6    1    1    2  502    0 -0.41573310050E+02 -0.27128607250E+02 -0.32927324990E+03  0.37479217513E+03  0.17200000000E+03 0.  1.
         -6    1    1    2    0  501  0.41573310050E+02  0.27128607250E+02 -0.81716515361E+03  0.83654479241E+03  0.17200000000E+03 0. -1.
</event>
<event>
 4    1  0.3205520E-002  0.2062113E+03  0.7818608E-02  0.1144602E+00
          2   -1    0    0  502    0  0.00000000000E+00  0.00000000000E+00  0.11490643121E+04  0.11490643121E+04  0.00000000000E+00 0. -1.
         -2   -1    0    0    0  501 -0.00000000000E+00 -0.00000000000E+00 -0.50600957384E+02  0.50600957384E+02  0.00000000000E+00 0.  1.
          6    1    1    2  502    0  0.51143431710E+02 -0.10160441600E+03  0.86013692697E+03  0.88451039626E+03  0.17200000000E+03 0. -1.
         -6    1    1    2    0  501 -0.51143431710E+02  0.10160441600E+03  0.23832642777E+03  0.31515487324E+03  0.17200000000E+03 0.  1.
</event>
<event>
 4    1  0.3205520E-002  0.1889321E+03  0.7818608E-02  0.1159428E+00
         -2   -1    0    0    0  501 -0.00000000000E+00  0.00000000000E+00  0.85012247186E+02  0.85012247186E+02  0.00000000000E+00 0.  1.
          2   -1    0    0  502    0  0.00000000000E+00 -0.00000000000E+00 -0.46998548577E+03  0.46998548577E+03  0.00000000000E+00 0. -1.
          6    1    1    2  502    0  0.63060593763E+02 -0.46202824026E+02 -0.10188386817E+03  0.21465242143E+03  0.17200000000E+03 0.  1.
         -6    1    1    2    0  501 -0.63060593763E+02  0.46202824026E+02 -0.28308937042E+03  0.34034531152E+03  0.17200000000E+03 0.  1.
</event>
<event>
 4    1  0.3205520E-002  0.2942276E+03  0.7818608E-02  0.1088162E+00
         -2   -1    0    0    0  501 -0.00000000000E+00  0.00000000000E+00  0.19032701445E+03  0.19032701445E+03  0.00000000000E+00 0.  1.
          2   -1    0    0  502    0  0.00000000000E+00 -0.00000000000E+00 -0.45977003635E+03  0.45977003635E+03  0.00000000000E+00 0. -1.
          6    1    1    2  502    0 -0.64154047803E+02 -0.22993507316E+03 -0.16835300328E+03  0.33898763020E+03  0.17200000000E+03 0.  1.
         -6    1    1    2    0  501  0.64154047803E+02  0.22993507316E+03 -0.10109001862E+03  0.31110942059E+03  0.17200000000E+03 0. -1.
</event>
<event>
 4    1  0.3205520E-002  0.1923025E+03  0.7818608E-02  0.1156401E+00
          1   -1    0    0  502    0  0.00000000000E+00  0.00000000000E+00  0.23505137181E+03  0.23505137181E+03  0.00000000000E+00 0. -1.
         -1   -1    0    0    0  501 -0.00000000000E+00 -0.00000000000E+00 -0.20467692437E+03  0.20467692437E+03  0.00000000000E+00 0.  1.
          6    1    1    2  502    0 -0.77617816406E+02 -0.37037002035E+02  0.12093543518E+03  0.22716875759E+03  0.17200000000E+03 0. -1.
         -6    1    1    2    0  501  0.77617816406E+02  0.37037002035E+02 -0.90560987738E+02  0.21255953859E+03  0.17200000000E+03 0.  1.
</event>
<event>
 4    1  0.3205520E-002  0.4025341E+03  0.7818608E-02  0.1042906E+00
          1   -1    0    0  502    0  0.00000000000E+00  0.00000000000E+00  0.53952934531E+03  0.53952934531E+03  0.00000000000E+00 0. -1.
         -1   -1    0    0    0  501 -0.00000000000E+00 -0.00000000000E+00 -0.31413488900E+03  0.31413488900E+03  0.00000000000E+00 0.  1.
          6    1    1    2  502    0  0.27599866445E+03  0.23722234617E+03  0.20219394532E+03  0.45046209144E+03  0.17200000000E+03 0. -1.
         -6    1    1    2    0  501 -0.27599866445E+03 -0.23722234617E+03  0.23200510992E+02  0.40320214287E+03  0.17200000000E+03 0.  1.
</event>
<event>
 4    1  0.3205520E-002  0.2534823E+03  0.7818608E-02  0.1111124E+00
          2   -1    0    0  502    0  0.00000000000E+00  0.00000000000E+00  0.31266244570E+03  0.31266244570E+03  0.00000000000E+00 0. -1.
         -2   -1    0    0    0  501 -0.00000000000E+00 -0.00000000000E+00 -0.13416843586E+04  0.13416843586E+04  0.00000000000E+00 0.  1.
          6    1    1    2  502    0  0.59788611228E+02  0.17633667613E+03  0.24668254420E+03  0.35370267032E+03  0.17200000000E+03 0. -1.
         -6    1    1    2    0  501 -0.59788611228E+02 -0.17633667613E+03 -0.12757044571E+04  0.13006441340E+04  0.17200000000E+03 0.  1.
</event>
<event>
 4    1  0.3205520E-002  0.3654754E+03  0.7818608E-02  0.1056437E+00
          2   -1    0    0  502    0  0.00000000000E+00  0.00000000000E+00  0.86283739432E+03  0.86283739432E+03  0.00000000000E+00 0. -1.
         -2   -1    0    0    0  501 -0.00000000000E+00 -0.00000000000E+00 -0.17681956148E+03  0.17681956148E+03  0.00000000000E+00 0.  1.
          6    1    1    2  502    0  0.29434158983E+03 -0.13172432899E+03  0.52642677372E+03  0.64085678465E+03  0.17200000000E+03 0. -1.
         -6    1    1    2    0  501 -0.29434158983E+03  0.13172432899E+03  0.15959105912E+03  0.39880017114E+03  0.17200000000E+03 0.  1.
</event>
<event>
 4    1  0.3205520E-002  0.1767754E+03  0.7818608E-02  0.1170961E+00
          2   -1    0    0  502    0  0.00000000000E+00  0.00000000000E+00  0.69048645768E+03  0.69048645768E+03  0.00000000000E+00 0. -1.
         -2   -1    0    0    0  501 -0.00000000000E+00 -0.00000000000E+00 -0.46187412432E+02  0.46187412432E+02  0.00000000000E+00 0.  1.
          6    1    1    2  502    0  0.40347453735E+02  0.61342670243E+01  0.37441962834E+03  0.41405265890E+03  0.17200000000E+03 0. -1.
         -6    1    1    2    0  501 -0.40347453735E+02 -0.61342670243E+01  0.26987941692E+03  0.32262121122E+03  0.17200000000E+03 0.  1.
</event>
<event>
 4    1  0.3205520E-002  0.1721538E+03  0.7818608E-02  0.1175620E+00
          1   -1    0    0  502    0  0.00000000000E+00  0.00000000000E+00  0.25837361329E+03  0.25837361329E+03  0.00000000000E+00 0. -1.
         -1   -1    0    0    0  501 -0.00000000000E+00 -0.00000000000E+00 -0.14109844299E+03  0.14109844299E+03  0.00000000000E+00 0.  1.
          6    1    1    2  502    0 -0.67510463447E+01 -0.27138534607E+01  0.14502233321E+03  0.22509646545E+03  0.17200000000E+03 0. -1.
         -6    1    1    2    0  501  0.67510463447E+01  0.27138534607E+01 -0.27747162914E+02  0.17437559083E+03  0.17200000000E+03 0.  1.
</event>
<event>
 4    1  0.3205520E-002  0.2235707E+03  0.7818608E-02  0.1131249E+00
         -2   -1    0    0    0  501 -0.00000000000E+00  0.00000000000E+00  0.74987575982E+03  0.74987575982E+03  0.00000000000E+00 0.  1.
          2   -1    0    0  502    0  0.00000000000E+00 -0.00000000000E+00 -0.10363991214E+03  0.10363991214E+03  0.00000000000E+00 0. -1.
          6    1    1    2  502    0  0.81975916219E+02  0.11696076190E+03  0.57804925882E+03  0.61977803792E+03  0.17200000000E+03 0.  1.
         -6    1    1    2    0  501 -0.81975916219E+02 -0.11696076190E+03  0.68186588851E+02  0.23373763403E+03  0.17200000000E+03 0.  1.
</event>
<event>
 4    1  0.3205520E-002  0.3933417E+03  0.7818608E-02  0.1046110E+00
         -2   -1    0    0    0  501 -0.00000000000E+00  0.00000000000E+00  0.22532536507E+03  0.22532536507E+03  0.00000000000E+00 0.  1.
          2   -1    0    0  502    0  0.00000000000E+00 -0.00000000000E+00 -0.13253203262E+04  0.13253203262E+04  0.00000000000E+00 0. -1.
          6    1    1    2  502    0 -0.20395605099E+03 -0.28902524407E+03 -0.10882220736E+04  0.11571278857E+04  0.17200000000E+03 0. -1.
         -6    1    1    2    0  501  0.20395605099E+03  0.28902524407E+03 -0.11772887578E+02  0.39351780560E+03  0.17200000000E+03 0.  1.
</event>
<event>
 4    1  0.3205520E-002  0.3444799E+03  0.7818608E-02  0.1064904E+00
          2   -1    0    0  502    0  0.00000000000E+00  0.00000000000E+00  0.47011911571E+03  0.47011911571E+03  0.00000000000E+00 0. -1.
         -2   -1    0    0    0  501 -0.00000000000E+00 -0.00000000000E+00 -0.28334965135E+03  0.28334965135E+03  0.00000000000E+00 0.  1.
          6    1    1    2  502    0  0.99822730927E+02 -0.28127895026E+03  0.21785825646E+03  0.40758881901E+03  0.17200000000E+03 0. -1.
         -6    1    1    2    0  501 -0.99822730927E+02  0.28127895026E+03 -0.31088792107E+02  0.34587994805E+03  0.17200000000E+03 0.  1.
</event>
<event>
 4    1  0.3205520E-002  0.3218836E+03  0.7818608E-02  0.1074786E+00
         -1   -1    0    0    0  501 -0.00000000000E+00  0.00000000000E+00  0.26869826499E+03  0.26869826499E+03  0.00000000000E+00 0.  1.
          1   -1    0    0  502    0  0.00000000000E+00 -0.00000000000E+00 -0.56455865900E+03  0.56455865900E+03  0.00000000000E+00 0. -1.
          6    1    1    2  502    0 -0.93902841205E+02 -0.25535715699E+03 -0.38250178484E+03  0.49991662967E+03  0.17200000000E+03 0. -1.
         -6    1    1    2    0  501  0.93902841205E+02  0.25535715699E+03  0.86641390831E+02  0.33334029432E+03  0.17200000000E+03 0.  1.
</event>
<event>
 4    1  0.3205520E-002  0.5438497E+03  0.7818608E-02  0.1002928E+00
          1   -1    0    0  502    0  0.00000000000E+00  0.00000000000E+00  0.63411265957E+03  0.63411265957E+03  0.00000000000E+00 0. -1.
         -1   -1    0    0    0  501 -0.00000000000E+00 -0.00000000000E+00 -0.62062988194E+03  0.62062988194E+03  0.00000000000E+00 0.  1.
          6    1    1    2  502    0  0.41556279435E+03 -0.30577132024E+03  0.31945214939E+03  0.63073148969E+03  0.17200000000E+03 0. -1.
         -6    1    1    2    0  501 -0.41556279435E+03  0.30577132024E+03 -0.30596937177E+03  0.62401105182E+03  0.17200000000E+03 0.  1.
</event>
<event>
 4    1  0.3205520E-002  0.2595713E+03  0.7818608E-02  0.1107401E+00
         -2   -1    0    0    0  501 -0.00000000000E+00  0.00000000000E+00  0.25032088081E+03  0.25032088081E+03  0.00000000000E+00 0.  1.
          2   -1    0    0  502    0  0.00000000000E+00 -0.00000000000E+00 -0.11540254912E+04  0.11540254912E+04  0.00000000000E+00 0. -1.
          6    1    1    2  502    0 -0.11671395575E+03  0.15547058283E+03 -0.10667095649E+04  0.10978372126E+04  0.17200000000E+03 0. -1.
         -6    1    1    2    0  501  0.11671395575E+03 -0.15547058283E+03  0.16300495451E+03  0.30650915939E+03  0.17200000000E+03 0.  1.
</event>
<event>
 4    1  0.3205520E-002  0.2329572E+03  0.7818608E-02  0.1124575E+00
         -1   -1    0    0    0  501 -0.00000000000E+00  0.00000000000E+00  0.68159296141E+03  0.68159296141E+03  0.00000000000E+00 0.  1.
          1   -1    0    0  502    0  0.00000000000E+00 -0.00000000000E+00 -0.92602972411E+02  0.92602972411E+02  0.00000000000E+00 0. -1.
          6    1    1    2  502    0  0.90211491355E+02 -0.12863497215E+03  0.14955780144E+03  0.27683317215E+03  0.17200000000E+03 0. -1.
         -6    1    1    2    0  501 -0.90211491355E+02  0.12863497215E+03  0.43943218756E+03  0.49736276167E+03  0.17200000000E+03 0.  1.
</event>
<event>
 4    1  0.3205520E-002  0.1779015E+03  0.7818608E-02  0.1169850E+00
          1   -1    0    0  502    0  0.00000000000E+00  0.00000000000E+00  0.15579227513E+03  0.15579227513E+03  0.00000000000E+00 0. -1.
         -1   -1    0    0    0  501 -0.00000000000E+00 -0.00000000000E+00 -0.20996992215E+03  0.20996992215E+03  0.00000000000E+00 0.  1.
          6    1    1    2  502    0  0.45361139588E+02  0.27056357251E+01 -0.60052110506E+02  0.18776370636E+03  0.17200000000E+03 0.  1.
         -6    1    1    2    0  501 -0.45361139588E+02 -0.27056357251E+01  0.58744634831E+01  0.17799849092E+03  0.17200000000E+03 0.  1.
</event>
<event>
 4    1  0.3205520E-002  0.2117753E+03  0.7818608E-02  0.1140168E+00
         -2   -1    0    0    0  501 -0.00000000000E+00  0.00000000000E+00  0.35750718097E+03  0.35750718097E+03  0.00000000000E+00 0.  1.
          2   -1    0    0  502    0  0.00000000000E+00 -0.00000000000E+00 -0.17524298876E+03  0.17524298876E+03  0.00000000000E+00 0. -1.
          6    1    1    2  502    0  0.88731381691E+02  0.85973844243E+02 -0.50859834933E+02  0.21779688428E+03  0.17200000000E+03 0. -1.
         -6    1    1    2    0  501 -0.88731381691E+02 -0.85973844243E+02  0.23312402715E+03  0.31495328546E+03  0.17200000000E+03 0.  1.
</event>
<event>
 4    1  0.3205520E-002  0.1742307E+03  0.7818608E-02  0.1173506E+00
          2   -1    0    0  502    0  0.00000000000E+00  0.00000000000E+00  0.11601370371E+04  0.11601370371E+04  0.00000000000E+00 0. -1.
         -2   -1    0    0    0  501 -0.00000000000E+00 -0.00000000000E+00 -0.26533639708E+02  0.26533639708E+02  0.00000000000E+00 0.  1.
          6    1    1    2  502    0  0.27469612421E+02  0.42144046245E+01  0.63662713457E+03  0.66003821805E+03  0.17200000000E+03 0. -1.
         -6    1    1    2    0  501 -0.27469612421E+02 -0.42144046245E+01  0.49697626285E+03  0.52663245879E+03  0.17200000000E+03 0. -1.
</event>
<event>
 4    1  0.3205520E-002  0.2818555E+03  0.7818608E-02  0.1094680E+00
          2   -1    0    0  502    0  0.00000000000E+00  0.00000000000E+00  0.62388515945E+02  0.62388515945E+02  0.00000000000E+00 0. -1.
         -2   -1    0    0    0  501 -0.00000000000E+00 -0.00000000000E+00 -0.17166843859E+04  0.17166843859E+04  0.00000000000E+00 0.  1.
          6    1    1    2  502    0  0.16075652038E+03 -0.15497053399E+03 -0.37510115750E+03  0.46919441984E+03  0.17200000000E+03 0. -1.
         -6    1    1    2    0  501 -0.16075652038E+03  0.15497053399E+03 -0.12791947125E+04  0.13098784820E+04  0.17200000000E+03 0.  1.
</event>
<event>
 4    1  0.3205520E-002  0.4777221E+03  0.7818608E-02  0.1019763E+00
          1   -1    0    0  502    0  0.00000000000E+00  0.00000000000E+00  0.13903521942E+04  0.13903521942E+04  0.00000000000E+00 0. -1.
         -1   -1    0    0    0  501 -0.00000000000E+00 -0.00000000000E+00 -0.25277695707E+03  0.25277695707E+03  0.00000000000E+00 0.  1.
          6    1    1    2  502    0 -0.41190061227E+03 -0.17021258338E+03  0.10552729616E+04  0.11583693113E+04  0.17200000000E+03 0. -1.
         -6    1    1    2    0  501  0.41190061227E+03  0.17021258338E+03  0.82302275610E+02  0.48475984002E+03  0.17200000000E+03 0.  1.
</event>
<event>
 4    1  0.3205520E-002  0.9901773E+03  0.7818608E-02  0.9319384E-01
         -2   -1    0    0    0  501 -0.00000000000E+00  0.00000000000E+00  0.74869719338E+03  0.74869719338E+03  0.00000000000E+00 0.  1.
          2   -1    0    0  502    0  0.00000000000E+00 -0.00000000000E+00 -0.23716052843E+04  0.23716052843E+04  0.00000000000E+00 0. -1.
          6    1    1    2  502    0 -0.11396952705E+03 -0.96844102602E+03  0.23259407230E+03  0.10171288397E+04  0.17200000000E+03 0.  1.
         -6    1    1    2    0  501  0.11396952705E+03  0.96844102602E+03 -0.18555021632E+04  0.21031736380E+04  0.17200000000E+03 0. -1.
</event>
<event>
 4    1  0.3205520E-002  0.1811230E+03  0.7818608E-02  0.1166721E+00
         -1   -1    0    0    0  501 -0.00000000000E+00  0.00000000000E+00  0.13933842396E+03  0.13933842396E+03  0.00000000000E+00 0.  1.
          1   -1    0    0  502    0  0.00000000000E+00 -0.00000000000E+00 -0.30717691683E+03  0.30717691683E+03  0.00000000000E+00 0. -1.
          6    1    1    2  502    0 -0.31878891571E+02  0.46960486163E+02  0.23972867038E+02  0.18270262544E+03  0.17200000000E+03 0.  1.
         -6    1    1    2    0  501  0.31878891571E+02 -0.46960486163E+02 -0.19181135990E+03  0.26381271534E+03  0.17200000000E+03 0. -1.
</event>
<event>
 4    1  0.3205520E-002  0.2663190E+03  0.7818608E-02  0.1103405E+00
         -1   -1    0    0    0  501 -0.00000000000E+00  0.00000000000E+00  0.13343408513E+04  0.13343408513E+04  0.00000000000E+00 0.  1.
          1   -1    0    0  502    0  0.00000000000E+00 -0.00000000000E+00 -0.56282979264E+02  0.56282979264E+02  0.00000000000E+00 0. -1.
          6    1    1    2  502    0  0.14853399353E+03 -0.13885042174E+03  0.47509066740E+03  0.54464385528E+03  0.17200000000E+03 0. -1.
         -6    1    1    2    0  501 -0.14853399353E+03  0.13885042174E+03  0.80296720463E+03  0.84597997527E+03  0.17200000000E+03 0. -1.
</event>
<event>
 4    1  0.3205520E-002  0.2335612E+03  0.7818608E-02  0.1124158E+00
          1   -1    0    0  502    0  0.00000000000E+00  0.00000000000E+00  0.64406591294E+03  0.64406591294E+03  0.00000000000E+00 0. -1.
         -1   -1    0    0    0  501 -0.00000000000E+00 -0.00000000000E+00 -0.14271086749E+03  0.14271086749E+03  0.00000000000E+00 0.  1.
          6    1    1    2  502    0 -0.61133994799E+02  0.14570333009E+03  0.50149439346E+03  0.55321555690E+03  0.17200000000E+03 0. -1.
         -6    1    1    2    0  501  0.61133994799E+02 -0.14570333009E+03 -0.13934800698E+00  0.23356122353E+03  0.17200000000E+03 0.  1.
</event>
<event>
 4    1  0.3205520E-002  0.5251999E+03  0.7818608E-02  0.1007403E+00
          3   -1    0    0  502    0  0.00000000000E+00  0.00000000000E+00  0.15612251547E+04  0.15612251547E+04  0.00000000000E+00 0. -1.
         -3   -1    0    0    0  501 -0.00000000000E+00 -0.00000000000E+00 -0.68904810441E+03  0.68904810441E+03  0.00000000000E+00 0.  1.
          6    1    1    2  502    0 -0.12935346789E+03 -0.47908099357E+03  0.14063128787E+04  0.15011831436E+04  0.17200000000E+03 0. -1.
         -6    1    1    2    0  501  0.12935346789E+03  0.47908099357E+03 -0.53413582833E+03  0.74909011551E+03  0.17200000000E+03 0.  1.
</event>
<event>
 4    1  0.3205520E-002  0.1989179E+03  0.7818608E-02  0.1150655E+00
         -1   -1    0    0    0  501 -0.00000000000E+00  0.00000000000E+00  0.16559741998E+03  0.16559741998E+03  0.00000000000E+00 0.  1.
          1   -1    0    0  502    0  0.00000000000E+00 -0.00000000000E+00 -0.92606237737E+03  0.92606237737E+03  0.00000000000E+00 0. -1.
          6    1    1    2  502    0 -0.99671310411E+02  0.70685220625E+01  0.89935793003E+02  0.21830433112E+03  0.17200000000E+03 0.  1.
         -6    1    1    2    0  501  0.99671310411E+02 -0.70685220625E+01 -0.85040075039E+03  0.87335546622E+03  0.17200000000E+03 0. -1.
</event>
<event>
 4    1  0.3205520E-002  0.1950828E+03  0.7818608E-02  0.1153955E+00
          2   -1    0    0  502    0  0.00000000000E+00  0.00000000000E+00  0.23056191710E+04  0.23056191710E+04  0.00000000000E+00 0. -1.
         -2   -1    0    0    0  501 -0.00000000000E+00 -0.00000000000E+00 -0.19123352570E+02  0.19123352570E+02  0.00000000000E+00 0.  1.
          6    1    1    2  502    0 -0.38421386061E+02 -0.83648608936E+02  0.15732467030E+04  0.15852957078E+04  0.17200000000E+03 0.  1.
         -6    1    1    2    0  501  0.38421386061E+02  0.83648608936E+02  0.71324911542E+03  0.73944681576E+03  0.17200000000E+03 0.  1.
</event>
<event>
 4    1  0.3205520E-002  0.2246581E+03  0.7818608E-02  0.1130457E+00
         -2   -1    0    0    0  501 -0.00000000000E+00  0.00000000000E+00  0.14153922034E+03  0.14153922034E+03  0.00000000000E+00 0.  1.
          2   -1    0    0  502    0  0.00000000000E+00 -0.00000000000E+00 -0.14004885507E+04  0.14004885507E+04  0.00000000000E+00 0. -1.
          6    1    1    2  502    0 -0.12144924973E+03  0.78341185192E+02 -0.12951337640E+04  0.13144743163E+04  0.17200000000E+03 0. -1.
         -6    1    1    2    0  501  0.12144924973E+03 -0.78341185192E+02  0.36184433572E+02  0.22755345480E+03  0.17200000000E+03 0.  1.
</event>
<event>
 4    1  0.3205520E-002  0.2571069E+03  0.7818608E-02  0.1108894E+00
         -1   -1    0    0    0  501 -0.00000000000E+00  0.00000000000E+00  0.25571305636E+03  0.25571305636E+03  0.00000000000E+00 0.  1.
          1   -1    0    0  502    0  0.00000000000E+00 -0.00000000000E+00 -0.30945470740E+03  0.30945470740E+03  0.00000000000E+00 0. -1.
          6    1    1    2  502    0 -0.16890345369E+03  0.89395565400E+02 -0.14152917450E+03  0.29348671352E+03  0.17200000000E+03 0. -1.
         -6    1    1    2    0  501  0.16890345369E+03 -0.89395565400E+02  0.87787523453E+02  0.27168105023E+03  0.17200000000E+03 0.  1.
</event>
<event>
 4    1  0.3205520E-002  0.2022350E+03  0.7818608E-02  0.1147867E+00
         -1   -1    0    0    0  501 -0.00000000000E+00  0.00000000000E+00  0.61361858642E+03  0.61361858642E+03  0.00000000000E+00 0.  1.
          1   -1    0    0  502    0  0.00000000000E+00 -0.00000000000E+00 -0.12165525097E+04  0.12165525097E+04  0.00000000000E+00 0. -1.
          6    1    1    2  502    0  0.10619605718E+03 -0.61145207674E+01 -0.11911316933E+04  0.12081778432E+04  0.17200000000E+03 0. -1.
         -6    1    1    2    0  501 -0.10619605718E+03  0.61145207674E+01  0.58819777008E+03  0.62199325290E+03  0.17200000000E+03 0.  1.
</event>
<event>
 4    1  0.3205520E-002  0.2471113E+03  0.7818608E-02  0.1115144E+00
          2   -1    0    0  502    0  0.00000000000E+00  0.00000000000E+00  0.12185639413E+04  0.12185639413E+04  0.00000000000E+00 0. -1.
         -2   -1    0    0    0  501 -0.00000000000E+00 -0.00000000000E+00 -0.51116715506E+02  0.51116715506E+02  0.00000000000E+00 0.  1.
          6    1    1    2  502    0  0.13227203916E+03  0.11825443092E+03  0.49469614896E+03  0.55298126783E+03  0.17200000000E+03 0.  1.
         -6    1    1    2    0  501 -0.13227203916E+03 -0.11825443092E+03  0.67275107683E+03  0.71669938898E+03  0.17200000000E+03 0. -1.
</event>
<event>
 4    1  0.3205520E-002  0.2057427E+03  0.7818608E-02  0.1144982E+00
          1   -1    0    0  502    0  0.00000000000E+00  0.00000000000E+00  0.14482205152E+03  0.14482205152E+03  0.00000000000E+00 0. -1.
         -1   -1    0    0    0  501 -0.00000000000E+00 -0.00000000000E+00 -0.29951276899E+03  0.29951276899E+03  0.00000000000E+00 0.  1.
          6    1    1    2  502    0 -0.18441133891E+02  0.11138207369E+03 -0.42844997105E+02  0.21015645490E+03  0.17200000000E+03 0. -1.
         -6    1    1    2    0  501  0.18441133891E+02 -0.11138207369E+03 -0.11184572036E+03  0.23417836561E+03  0.17200000000E+03 0.  1.
</event>
<event>
 4    1  0.3205520E-002  0.1802883E+03  0.7818608E-02  0.1167524E+00
         -1   -1    0    0    0  501 -0.00000000000E+00  0.00000000000E+00  0.22859325064E+03  0.22859325064E+03  0.00000000000E+00 0.  1.
          1   -1    0    0  502    0  0.00000000000E+00 -0.00000000000E+00 -0.47814165918E+03  0.47814165918E+03  0.00000000000E+00 0. -1.
          6    1    1    2  502    0  0.40741746926E+02  0.35496451559E+02  0.17142647307E+03  0.24877886503E+03  0.17200000000E+03 0.  1.
         -6    1    1    2    0  501 -0.40741746926E+02 -0.35496451559E+02 -0.42097488161E+03  0.45795604479E+03  0.17200000000E+03 0. -1.
</event>
<event>
 4    1  0.3205520E-002  0.1934588E+03  0.7818608E-02  0.1155378E+00
         -2   -1    0    0    0  501 -0.00000000000E+00  0.00000000000E+00  0.55192454282E+02  0.55192454282E+02  0.00000000000E+00 0.  1.
          2   -1    0    0  502    0  0.00000000000E+00 -0.00000000000E+00 -0.69676727772E+03  0.69676727772E+03  0.00000000000E+00 0. -1.
          6    1    1    2  502    0 -0.10998702744E+02  0.87871128701E+02 -0.25925594893E+03  0.32348099446E+03  0.17200000000E+03 0.  1.
         -6    1    1    2    0  501  0.10998702744E+02 -0.87871128701E+02 -0.38231887451E+03  0.42847873754E+03  0.17200000000E+03 0.  1.
</event>
<event>
 4    1  0.3205520E-002  0.2510748E+03  0.7818608E-02  0.1112627E+00
         -1   -1    0    0    0  501 -0.00000000000E+00  0.00000000000E+00  0.96442404280E+02  0.96442404280E+02  0.00000000000E+00 0.  1.
          1   -1    0    0  502    0  0.00000000000E+00 -0.00000000000E+00 -0.67436708640E+03  0.67436708640E+03  0.00000000000E+00 0. -1.
          6    1    1    2  502    0 -0.17426019967E+03  0.55569212639E+02 -0.35653085444E+03  0.43606513820E+03  0.17200000000E+03 0. -1.
         -6    1    1    2    0  501  0.17426019967E+03 -0.55569212639E+02 -0.22139382767E+03  0.33474435248E+03  0.17200000000E+03 0.  1.
</event>
<event>
 4    1  0.3205520E-002  0.2061774E+03  0.7818608E-02  0.1144629E+00
          2   -1    0    0  502    0  0.00000000000E+00  0.00000000000E+00  0.23905603756E+04  0.23905603756E+04  0.00000000000E+00 0. -1.
         -2   -1    0    0    0  501 -0.00000000000E+00 -0.00000000000E+00 -0.25567835489E+02  0.25567835489E+02  0.00000000000E+00 0.  1.
          6    1    1    2  502    0 -0.15406748868E+02 -0.11263995421E+03  0.18491395110E+04  0.18605983066E+04  0.17200000000E+03 0. -1.
         -6    1    1    2    0  501  0.15406748868E+02  0.11263995421E+03  0.51585302911E+03  0.55552990454E+03  0.17200000000E+03 0.  1.
</event>
<event>
 4    1  0.3205520E-002  0.1993042E+03  0.7818608E-02  0.1150327E+00
         -1   -1    0    0    0  501 -0.00000000000E+00  0.00000000000E+00  0.26694375068E+02  0.26694375068E+02  0.00000000000E+00 0.  1.
          1   -1    0    0  502    0  0.00000000000E+00 -0.00000000000E+00 -0.20578321586E+04  0.20578321586E+04  0.00000000000E+00 0. -1.
          6    1    1    2  502    0 -0.10065395577E+03 -0.26379903798E+01 -0.15640130378E+04  0.15766606992E+04  0.17200000000E+03 0. -1.
         -6    1    1    2    0  501  0.10065395577E+03  0.26379903798E+01 -0.46712474572E+03  0.50786583451E+03  0.17200000000E+03 0.  1.
</event>
<event>
 4    1  0.3205520E-002  0.2695540E+03  0.7818608E-02  0.1101535E+00
         -2   -1    0    0    0  501 -0.00000000000E+00  0.00000000000E+00  0.21243641014E+03  0.21243641014E+03  0.00000000000E+00 0.  1.
          2   -1    0    0  502    0  0.00000000000E+00 -0.00000000000E+00 -0.34434371098E+03  0.34434371098E+03  0.00000000000E+00 0. -1.
          6    1    1    2  502    0 -0.17276005571E+02 -0.20682582118E+03 -0.43128151753E+02  0.27298245026E+03  0.17200000000E+03 0.  1.
         -6    1    1    2    0  501  0.17276005571E+02  0.20682582118E+03 -0.88779149089E+02  0.28379767087E+03  0.17200000000E+03 0. -1.
</event>
<event>
 4    1  0.3205520E-002  0.1732355E+03  0.7818608E-02  0.1174515E+00
         -2   -1    0    0    0  501 -0.00000000000E+00  0.00000000000E+00  0.48613613980E+02  0.48613613980E+02  0.00000000000E+00 0.  1.
          2   -1    0    0  502    0  0.00000000000E+00 -0.00000000000E+00 -0.62922629921E+03  0.62922629921E+03  0.00000000000E+00 0. -1.
          6    1    1    2  502    0  0.17542915477E+02  0.10898473057E+02 -0.24370036818E+03  0.29899899673E+03  0.17200000000E+03 0.  1.
         -6    1    1    2    0  501 -0.17542915477E+02 -0.10898473057E+02 -0.33691231705E+03  0.37884091645E+03  0.17200000000E+03 0. -1.
</event>
<event>
 4    1  0.3205520E-002  0.1764731E+03  0.7818608E-02  0.1171261E+00
         -2   -1    0    0    0  501 -0.00000000000E+00  0.00000000000E+00  0.58920665867E+02  0.58920665867E+02  0.00000000000E+00 0.  1.
          2   -1    0    0  502    0  0.00000000000E+00 -0.00000000000E+00 -0.88211200329E+03  0.88211200329E+03  0.00000000000E+00 0. -1.
          6    1    1    2  502    0 -0.11475260327E+02  0.37776393802E+02 -0.11371429818E+03  0.20993732193E+03  0.17200000000E+03 0.  1.
         -6    1    1    2    0  501  0.11475260327E+02 -0.37776393802E+02 -0.70947703924E+03  0.73109534723E+03  0.17200000000E+03 0. -1.
</event>
<event>
 4    1  0.3205520E-002  0.2331859E+03  0.7818608E-02  0.1124417E+00
         -1   -1    0    0    0  501 -0.00000000000E+00  0.00000000000E+00  0.53882257060E+03  0.53882257060E+03  0.00000000000E+00 0.  1.
          1   -1    0    0  502    0  0.00000000000E+00 -0.00000000000E+00 -0.19687994950E+03  0.19687994950E+03  0.00000000000E+00 0. -1.
          6    1    1    2  502    0  0.15620739690E+03 -0.19771585228E+02 -0.85847126672E+02  0.24848620804E+03  0.17200000000E+03 0. -1.
         -6    1    1    2    0  501 -0.15620739690E+03  0.19771585228E+02  0.42778974777E+03  0.48721631205E+03  0.17200000000E+03 0.  1.
</event>
<event>
 4    1  0.3205520E-002  0.1792577E+03  0.7818608E-02  0.1168523E+00
          2   -1    0    0  502    0  0.00000000000E+00  0.00000000000E+00  0.35665431777E+03  0.35665431777E+03  0.00000000000E+00 0. -1.
         -2   -1    0    0    0  501 -0.00000000000E+00 -0.00000000000E+00 -0.91242280947E+02  0.91242280947E+02  0.00000000000E+00 0.  1.
          6    1    1    2  502    0  0.22335412564E+02  0.45281781897E+02  0.15780164309E+03  0.23881932289E+03  0.17200000000E+03 0.  1.
         -6    1    1    2    0  501 -0.22335412564E+02 -0.45281781897E+02  0.10761039374E+03  0.20907727583E+03  0.17200000000E+03 0. -1.
</event>
<event>
 4    1  0.3205520E-002  0.2278131E+03  0.7818608E-02  0.1128189E+00
          2   -1    0    0  502    0  0.00000000000E+00  0.00000000000E+00  0.36385247619E+03  0.36385247619E+03  0.00000000000E+00 0. -1.
         -2   -1    0    0    0  501 -0.00000000000E+00 -0.00000000000E+00 -0.23935435482E+03  0.23935435482E+03  0.00000000000E+00 0.  1.
          6    1    1    2  502    0  0.11442389749E+03  0.96031130689E+02  0.25396927804E+03  0.34117327059E+03  0.17200000000E+03 0. -1.
         -6    1    1    2    0  501 -0.11442389749E+03 -0.96031130689E+02 -0.12947115666E+03  0.26203356042E+03  0.17200000000E+03 0.  1.
</event>
<event>
 4    1  0.3205520E-002  0.1830769E+03  0.7818608E-02  0.1164858E+00
          2   -1    0    0  502    0  0.00000000000E+00  0.00000000000E+00  0.25750737666E+03  0.25750737666E+03  0.00000000000E+00 0. -1.
         -2   -1    0    0    0  501 -0.00000000000E+00 -0.00000000000E+00 -0.18328245830E+03  0.18328245830E+03  0.00000000000E+00 0.  1.
          6    1    1    2  502    0 -0.33247020465E+02  0.53176851048E+02 -0.81541025369E+02  0.20041477160E+03  0.17200000000E+03 0. -1.
         -6    1    1    2    0  501  0.33247020465E+02 -0.53176851048E+02  0.15576594373E+03  0.24037506336E+03  0.17200000000E+03 0. -1.
</event>
<event>
 4    1  0.3205520E-002  0.2819706E+03  0.7818608E-02  0.1094618E+00
         -1   -1    0    0    0  501 -0.00000000000E+00  0.00000000000E+00  0.20257100313E+03  0.20257100313E+03  0.00000000000E+00 0.  1.
          1   -1    0    0  502    0  0.00000000000E+00 -0.00000000000E+00 -0.43560863879E+03  0.43560863879E+03  0.00000000000E+00 0. -1.
          6    1    1    2  502    0 -0.16174688738E+03  0.15414716461E+03 -0.21690859720E+03  0.35574814613E+03  0.17200000000E+03 0. -1.
         -6    1    1    2    0  501  0.16174688738E+03 -0.15414716461E+03 -0.16129038466E+02  0.28243149579E+03  0.17200000000E+03 0.  1.
</event>
<event>
 4    1  0.3205520E-002  0.3678426E+03  0.7818608E-02  0.1055521E+00
         -2   -1    0    0    0  501 -0.00000000000E+00  0.00000000000E+00  0.11465337434E+03  0.11465337434E+03  0.00000000000E+00 0.  1.
          2   -1    0    0  502    0  0.00000000000E+00 -0.00000000000E+00 -0.15703065384E+04  0.15703065384E+04  0.00000000000E+00 0. -1.
          6    1    1    2  502    0 -0.85552756165E+02 -0.31369555051E+03 -0.11477661891E+04  0.12052698442E+04  0.17200000000E+03 0. -1.
         -6    1    1    2    0  501  0.85552756165E+02  0.31369555051E+03 -0.30788697493E+03  0.47969006851E+03  0.17200000000E+03 0.  1.
</event>
<event>
 4    1  0.3205520E-002  0.5636252E+03  0.7818608E-02  0.9983885E-01
         -2   -1    0    0    0  501 -0.00000000000E+00  0.00000000000E+00  0.19425717554E+03  0.19425717554E+03  0.00000000000E+00 0.  1.
          2   -1    0    0  502    0  0.00000000000E+00 -0.00000000000E+00 -0.16792386738E+04  0.16792386738E+04  0.00000000000E+00 0. -1.
          6    1    1    2  502    0 -0.45393661164E+03  0.28641034200E+03 -0.89397714956E+03  0.10568199825E+04  0.17200000000E+03 0. -1.
         -6    1    1    2    0  501  0.45393661164E+03 -0.28641034200E+03 -0.59100434872E+03  0.81667586691E+03  0.17200000000E+03 0.  1.
</event>
<event>
 4    1  0.3205520E-002  0.1743737E+03  0.7818608E-02  0.1173362E+00
          1   -1    0    0  502    0  0.00000000000E+00  0.00000000000E+00  0.15763737767E+04  0.15763737767E+04  0.00000000000E+00 0. -1.
         -1   -1    0    0    0  501 -0.00000000000E+00 -0.00000000000E+00 -0.36506472072E+02  0.36506472072E+02  0.00000000000E+00 0.  1.
          6    1    1    2  502    0  0.78873180792E+01  0.27567882598E+02  0.13237626561E+04  0.13351980257E+04  0.17200000000E+03 0. -1.
         -6    1    1    2    0  501 -0.78873180792E+01 -0.27567882598E+02  0.21610464852E+03  0.27768222314E+03  0.17200000000E+03 0.  1.
</event>
<event>
 4    1  0.3205520E-002  0.5295126E+03  0.7818608E-02  0.1006350E+00
         -1   -1    0    0    0  501 -0.00000000000E+00  0.00000000000E+00  0.28794772583E+03  0.28794772583E+03  0.00000000000E+00 0.  1.
          1   -1    0    0  502    0  0.00000000000E+00 -0.00000000000E+00 -0.13285428125E+04  0.13285428125E+04  0.00000000000E+00 0. -1.
          6    1    1    2  502    0  0.33298362687E+03  0.37406075228E+03 -0.93798805466E+03  0.10771281877E+04  0.17200000000E+03 0. -1.
         -6    1    1    2    0  501 -0.33298362687E+03 -0.37406075228E+03 -0.10260703196E+03  0.53936235053E+03  0.17200000000E+03 0.  1.
</event>
<event>
 4    1  0.3205520E-002  0.5749720E+03  0.7818608E-02  0.9958736E-01
         -1   -1    0    0    0  501 -0.00000000000E+00  0.00000000000E+00  0.43262028278E+03  0.43262028278E+03  0.00000000000E+00 0.  1.
          1   -1    0    0  502    0  0.00000000000E+00 -0.00000000000E+00 -0.79222302857E+03  0.79222302857E+03  0.00000000000E+00 0. -1.
          6    1    1    2  502    0  0.34727576948E+03  0.42474507101E+03 -0.64545435063E+02  0.57858357098E+03  0.17200000000E+03 0. -1.
         -6    1    1    2    0  501 -0.34727576948E+03 -0.42474507101E+03 -0.29505731072E+03  0.64625974038E+03  0.17200000000E+03 0.  1.
</event>
<event>
 4    1  0.3205520E-002  0.2862064E+03  0.7818608E-02  0.1092347E+00
          2   -1    0    0  502    0  0.00000000000E+00  0.00000000000E+00  0.63380813717E+03  0.63380813717E+03  0.00000000000E+00 0. -1.
         -2   -1    0    0    0  501 -0.00000000000E+00 -0.00000000000E+00 -0.25246301109E+03  0.25246301109E+03  0.00000000000E+00 0.  1.
          6    1    1    2  502    0  0.17776862289E+03 -0.14397367250E+03  0.50025876307E+03  0.57634445576E+03  0.17200000000E+03 0. -1.
         -6    1    1    2    0  501 -0.17776862289E+03  0.14397367250E+03 -0.11891363700E+03  0.30992669250E+03  0.17200000000E+03 0.  1.
</event>
<event>
 4    1  0.3205520E-002  0.1822256E+03  0.7818608E-02  0.1165666E+00
         -1   -1    0    0    0  501 -0.00000000000E+00  0.00000000000E+00  0.96123405866E+02  0.96123405866E+02  0.00000000000E+00 0.  1.
          1   -1    0    0  502    0  0.00000000000E+00 -0.00000000000E+00 -0.10174073080E+04  0.10174073080E+04  0.00000000000E+00 0. -1.
          6    1    1    2  502    0 -0.29278993480E+02  0.52582411237E+02 -0.91311683771E+03  0.93112218786E+03  0.17200000000E+03 0. -1.
         -6    1    1    2    0  501  0.29278993480E+02 -0.52582411237E+02 -0.81670644686E+01  0.18240852604E+03  0.17200000000E+03 0.  1.
</event>
<event>
 4    1  0.3205520E-002  0.2025831E+03  0.7818608E-02  0.1147578E+00
          1   -1    0    0  502    0  0.00000000000E+00  0.00000000000E+00  0.34446190361E+04  0.34446190361E+04  0.00000000000E+00 0. -1.
         -1   -1    0    0    0  501 -0.00000000000E+00 -0.00000000000E+00 -0.15533017566E+02  0.15533017566E+02  0.00000000000E+00 0.  1.
          6    1    1    2  502    0  0.94387080873E+02 -0.50467710738E+02  0.25496076235E+04  0.25576432403E+04  0.17200000000E+03 0. -1.
         -6    1    1    2    0  501 -0.94387080873E+02  0.50467710738E+02  0.87947839499E+03  0.90250881332E+03  0.17200000000E+03 0.  1.
</event>
<event>
 4    1  0.3205520E-002  0.1899540E+03  0.7818608E-02  0.1158503E+00
         -1   -1    0    0    0  501 -0.00000000000E+00  0.00000000000E+00  0.21351001138E+03  0.21351001138E+03  0.00000000000E+00 0.  1.
          1   -1    0    0  502    0  0.00000000000E+00 -0.00000000000E+00 -0.43668034361E+03  0.43668034361E+03  0.00000000000E+00 0. -1.
          6    1    1    2  502    0  0.80594058576E+02  0.17703007555E+01 -0.36611543556E+03  0.41245975367E+03  0.17200000000E+03 0. -1.
         -6    1    1    2    0  501 -0.80594058576E+02 -0.17703007555E+01  0.14294510333E+03  0.23773060133E+03  0.17200000000E+03 0.  1.
</event>
<event>
 4    1  0.3205520E-002  0.2677123E+03  0.7818608E-02  0.1102596E+00
          1   -1    0    0  502    0  0.00000000000E+00  0.00000000000E+00  0.66048603251E+03  0.66048603251E+03  0.00000000000E+00 0. -1.
         -1   -1    0    0    0  501 -0.00000000000E+00 -0.00000000000E+00 -0.17326440018E+03  0.17326440018E+03  0.00000000000E+00 0.  1.
          6    1    1    2  502    0 -0.16913268502E+03 -0.11610341755E+03 -0.11238435037E+02  0.26794807544E+03  0.17200000000E+03 0.  1.
         -6    1    1    2    0  501  0.16913268502E+03  0.11610341755E+03  0.49846006737E+03  0.56580235725E+03  0.17200000000E+03 0. -1.
</event>
<event>
 4    1  0.3205520E-002  0.2041307E+03  0.7818608E-02  0.1146300E+00
          1   -1    0    0  502    0  0.00000000000E+00  0.00000000000E+00  0.33234579854E+03  0.33234579854E+03  0.00000000000E+00 0. -1.
         -1   -1    0    0    0  501 -0.00000000000E+00 -0.00000000000E+00 -0.14916380656E+03  0.14916380656E+03  0.00000000000E+00 0.  1.
          6    1    1    2  502    0 -0.87842666376E+02  0.66098571278E+02  0.18772750260E+03  0.27732827190E+03  0.17200000000E+03 0. -1.
         -6    1    1    2    0  501  0.87842666376E+02 -0.66098571278E+02 -0.45455106187E+01  0.20418133320E+03  0.17200000000E+03 0.  1.
</event>
<event>
 4    1  0.3205520E-002  0.3266602E+03  0.7818608E-02  0.1072624E+00
          2   -1    0    0  502    0  0.00000000000E+00  0.00000000000E+00  0.12940968145E+04  0.12940968145E+04  0.00000000000E+00 0. -1.
         -2   -1    0    0    0  501 -0.00000000000E+00 -0.00000000000E+00 -0.86975046103E+02  0.86975046103E+02  0.00000000000E+00 0.  1.
          6    1    1    2  502    0  0.71963425581E+02 -0.26822401391E+03  0.76095274855E+03  0.82810382307E+03  0.17200000000E+03 0. -1.
         -6    1    1    2    0  501 -0.71963425581E+02  0.26822401391E+03  0.44616901982E+03  0.55296803751E+03  0.17200000000E+03 0.  1.
</event>
<event>
 4    1  0.3205520E-002  0.2058020E+03  0.7818608E-02  0.1144934E+00
          2   -1    0    0  502    0  0.00000000000E+00  0.00000000000E+00  0.25984220849E+03  0.25984220849E+03  0.00000000000E+00 0. -1.
         -2   -1    0    0    0  501 -0.00000000000E+00 -0.00000000000E+00 -0.16524009562E+03  0.16524009562E+03  0.00000000000E+00 0.  1.
          6    1    1    2  502    0 -0.10749636864E+02 -0.11249406740E+03  0.22558319895E+02  0.20703465336E+03  0.17200000000E+03 0. -1.
         -6    1    1    2    0  501  0.10749636864E+02  0.11249406740E+03  0.72043792969E+02  0.21804765075E+03  0.17200000000E+03 0. -1.
</event>
<event>
 4    1  0.3205520E-002  0.2138374E+03  0.7818608E-02  0.1138563E+00
          1   -1    0    0  502    0  0.00000000000E+00  0.00000000000E+00  0.75091070027E+03  0.75091070027E+03  0.00000000000E+00 0. -1.
         -1   -1    0    0    0  501 -0.00000000000E+00 -0.00000000000E+00 -0.15100565670E+03  0.15100565670E+03  0.00000000000E+00 0.  1.
          6    1    1    2  502    0  0.10337466023E+03  0.73865639463E+02  0.64831273844E+03  0.68266819165E+03  0.17200000000E+03 0. -1.
         -6    1    1    2    0  501 -0.10337466023E+03 -0.73865639463E+02 -0.48407694870E+02  0.21924816531E+03  0.17200000000E+03 0.  1.
</event>
<event>
 4    1  0.3205520E-002  0.2020191E+03  0.7818608E-02  0.1148047E+00
          1   -1    0    0  502    0  0.00000000000E+00  0.00000000000E+00  0.26317711751E+03  0.26317711751E+03  0.00000000000E+00 0. -1.
         -1   -1    0    0    0  501 -0.00000000000E+00 -0.00000000000E+00 -0.16299407701E+03  0.16299407701E+03  0.00000000000E+00 0.  1.
          6    1    1    2  502    0 -0.10161336903E+03 -0.30040387674E+02  0.31176332092E+01  0.20204311741E+03  0.17200000000E+03 0. -1.
         -6    1    1    2    0  501  0.10161336903E+03  0.30040387674E+02  0.97065407293E+02  0.22412807711E+03  0.17200000000E+03 0. -1.
</event>
<event>
 4    1  0.3205520E-002  0.2417394E+03  0.7818608E-02  0.1118639E+00
          3   -1    0    0  502    0  0.00000000000E+00  0.00000000000E+00  0.35593566212E+02  0.35593566212E+02  0.00000000000E+00 0. -1.
         -3   -1    0    0    0  501 -0.00000000000E+00 -0.00000000000E+00 -0.16426371247E+04  0.16426371247E+04  0.00000000000E+00 0.  1.
          6    1    1    2  502    0 -0.33808544995E+02 -0.16646594810E+03 -0.78471051004E+03  0.82110201203E+03  0.17200000000E+03 0. -1.
         -6    1    1    2    0  501  0.33808544995E+02  0.16646594810E+03 -0.82233304843E+03  0.85712867886E+03  0.17200000000E+03 0. -1.
</event>
<event>
 4    1  0.3205520E-002  0.4282155E+03  0.7818608E-02  0.1034425E+00
         -1   -1    0    0    0  501 -0.00000000000E+00  0.00000000000E+00  0.35989464557E+03  0.35989464557E+03  0.00000000000E+00 0.  1.
          1   -1    0    0  502    0  0.00000000000E+00 -0.00000000000E+00 -0.61281296851E+03  0.61281296851E+03  0.00000000000E+00 0. -1.
          6    1    1    2  502    0  0.37261465049E+03 -0.12224094463E+03  0.73229263685E+02  0.43443187195E+03  0.17200000000E+03 0. -1.
         -6    1    1    2    0  501 -0.37261465049E+03  0.12224094463E+03 -0.32614758663E+03  0.53827574213E+03  0.17200000000E+03 0.  1.
</event>
<event>
 4    1  0.3205520E-002  0.3077240E+03  0.7818608E-02  0.1081442E+00
          2   -1    0    0  502    0  0.00000000000E+00  0.00000000000E+00  0.75621837948E+03  0.75621837948E+03  0.00000000000E+00 0. -1.
         -2   -1    0    0    0  501 -0.00000000000E+00 -0.00000000000E+00 -0.15144621860E+03  0.15144621860E+03  0.00000000000E+00 0.  1.
          6    1    1    2  502    0  0.64496590604E+02  0.24688108849E+03  0.49124150402E+03  0.57966567720E+03  0.17200000000E+03 0. -1.
         -6    1    1    2    0  501 -0.64496590604E+02 -0.24688108849E+03  0.11353065687E+03  0.32799892089E+03  0.17200000000E+03 0.  1.
</event>
<event>
 4    1  0.3205520E-002  0.2032325E+03  0.7818608E-02  0.1147040E+00
         -1   -1    0    0    0  501 -0.00000000000E+00  0.00000000000E+00  0.43447251648E+03  0.43447251648E+03  0.00000000000E+00 0.  1.
          1   -1    0    0  502    0  0.00000000000E+00 -0.00000000000E+00 -0.11955435553E+04  0.11955435553E+04  0.00000000000E+00 0. -1.
          6    1    1    2  502    0  0.81300911745E+02 -0.71481578818E+02 -0.11624690452E+04  0.11801007310E+04  0.17200000000E+03 0. -1.
         -6    1    1    2    0  501 -0.81300911745E+02  0.71481578818E+02  0.40139800634E+03  0.44991534077E+03  0.17200000000E+03 0.  1.
</event>
<event>
 4    1  0.3205520E-002  0.1974264E+03  0.7818608E-02  0.1151929E+00
         -2   -1    0    0    0  501 -0.00000000000E+00  0.00000000000E+00  0.60249137308E+02  0.60249137308E+02  0.00000000000E+00 0.  1.
          2   -1    0    0  502    0  0.00000000000E+00 -0.00000000000E+00 -0.72523146032E+03  0.72523146032E+03  0.00000000000E+00 0. -1.
          6    1    1    2  502    0  0.94441150325E+02  0.21772943929E+02 -0.46153642385E+03  0.50198910596E+03  0.17200000000E+03 0. -1.
         -6    1    1    2    0  501 -0.94441150325E+02 -0.21772943929E+02 -0.20344589916E+03  0.28349149167E+03  0.17200000000E+03 0.  1.
</event>
<event>
 4    1  0.3205520E-002  0.3646121E+03  0.7818608E-02  0.1056772E+00
         -2   -1    0    0    0  501 -0.00000000000E+00  0.00000000000E+00  0.47311071121E+03  0.47311071121E+03  0.00000000000E+00 0.  1.
          2   -1    0    0  502    0  0.00000000000E+00 -0.00000000000E+00 -0.28371848289E+03  0.28371848289E+03  0.00000000000E+00 0. -1.
          6    1    1    2  502    0 -0.19263752269E+03  0.25738830867E+03  0.13176850645E+03  0.38769175369E+03  0.17200000000E+03 0.  1.
         -6    1    1    2    0  501  0.19263752269E+03 -0.25738830867E+03  0.57623721878E+02  0.36913744041E+03  0.17200000000E+03 0.  1.
</event>
<event>
 4    1  0.3205520E-002  0.2002477E+03  0.7818608E-02  0.1149530E+00
          2   -1    0    0  502    0  0.00000000000E+00  0.00000000000E+00  0.16460319669E+04  0.16460319669E+04  0.00000000000E+00 0. -1.
         -2   -1    0    0    0  501 -0.00000000000E+00 -0.00000000000E+00 -0.38708238532E+02  0.38708238532E+02  0.00000000000E+00 0.  1.
          6    1    1    2  502    0  0.72837201499E+02 -0.72179609922E+02  0.13165041689E+04  0.13316464924E+04  0.17200000000E+03 0.  1.
         -6    1    1    2    0  501 -0.72837201499E+02  0.72179609922E+02  0.29081955950E+03  0.35309371305E+03  0.17200000000E+03 0.  1.
</event>
<event>
 4    1  0.3205520E-002  0.2132729E+03  0.7818608E-02  0.1139000E+00
         -1   -1    0    0    0  501 -0.00000000000E+00  0.00000000000E+00  0.80230737730E+02  0.80230737730E+02  0.00000000000E+00 0.  1.
          1   -1    0    0  502    0  0.00000000000E+00 -0.00000000000E+00 -0.98136585837E+03  0.98136585837E+03  0.00000000000E+00 0. -1.
          6    1    1    2  502    0 -0.12446665336E+03 -0.20232793008E+02 -0.79550636051E+03  0.82359922494E+03  0.17200000000E+03 0. -1.
         -6    1    1    2    0  501  0.12446665336E+03  0.20232793008E+02 -0.10562876012E+03  0.23799737116E+03  0.17200000000E+03 0.  1.
</event>
<event>
 4    1  0.3205520E-002  0.2125649E+03  0.7818608E-02  0.1139551E+00
          2   -1    0    0  502    0  0.00000000000E+00  0.00000000000E+00  0.16096890433E+04  0.16096890433E+04  0.00000000000E+00 0. -1.
         -2   -1    0    0    0  501 -0.00000000000E+00 -0.00000000000E+00 -0.19459016882E+03  0.19459016882E+03  0.00000000000E+00 0.  1.
          6    1    1    2  502    0 -0.96949438743E+02  0.78744156278E+02  0.15420888146E+04  0.15566700832E+04  0.17200000000E+03 0. -1.
         -6    1    1    2    0  501  0.96949438743E+02 -0.78744156278E+02 -0.12698994014E+03  0.24760912890E+03  0.17200000000E+03 0.  1.
</event>
<event>
 4    1  0.3205520E-002  0.3069130E+03  0.7818608E-02  0.1081835E+00
          1   -1    0    0  502    0  0.00000000000E+00  0.00000000000E+00  0.85394688951E+03  0.85394688951E+03  0.00000000000E+00 0. -1.
         -1   -1    0    0    0  501 -0.00000000000E+00 -0.00000000000E+00 -0.22066006102E+03  0.22066006102E+03  0.00000000000E+00 0.  1.
          6    1    1    2  502    0 -0.16092366641E+03 -0.19676171073E+03 -0.63328624612E+02  0.31337854412E+03  0.17200000000E+03 0.  1.
         -6    1    1    2    0  501  0.16092366641E+03  0.19676171073E+03  0.69661545311E+03  0.76122840641E+03  0.17200000000E+03 0. -1.
</event>
<event>
 4    1  0.3205520E-002  0.4793432E+03  0.7818608E-02  0.1019316E+00
         -4   -1    0    0    0  501 -0.00000000000E+00  0.00000000000E+00  0.14272600980E+04  0.14272600980E+04  0.00000000000E+00 0.  1.
          4   -1    0    0  502    0  0.00000000000E+00 -0.00000000000E+00 -0.29064426264E+03  0.29064426264E+03  0.00000000000E+00 0. -1.
          6    1    1    2  502    0  0.44740143862E+03  0.42301806893E+01 -0.53948948658E+01  0.47937359814E+03  0.17200000000E+03 0. -1.
         -6    1    1    2    0  501 -0.44740143862E+03 -0.42301806893E+01  0.11420107303E+04  0.12385307625E+04  0.17200000000E+03 0.  1.
</event>
<event>
 4    1  0.3205520E-002  0.3143013E+03  0.7818608E-02  0.1078302E+00
          1   -1    0    0  502    0  0.00000000000E+00  0.00000000000E+00  0.10125326382E+04  0.10125326382E+04  0.00000000000E+00 0. -1.
         -1   -1    0    0    0  501 -0.00000000000E+00 -0.00000000000E+00 -0.10137214992E+03  0.10137214992E+03  0.00000000000E+00 0.  1.
          6    1    1    2  502    0  0.89584265426E+02 -0.24733779570E+03  0.56354824825E+03  0.64526890046E+03  0.17200000000E+03 0. -1.
         -6    1    1    2    0  501 -0.89584265426E+02  0.24733779570E+03  0.34761224007E+03  0.46863588769E+03  0.17200000000E+03 0.  1.
</event>
<event>
 4    1  0.3205520E-002  0.8177382E+03  0.7818608E-02  0.9534691E-01
          2   -1    0    0  502    0  0.00000000000E+00  0.00000000000E+00  0.33573448321E+04  0.33573448321E+04  0.00000000000E+00 0. -1.
         -2   -1    0    0    0  501 -0.00000000000E+00 -0.00000000000E+00 -0.21611099187E+03  0.21611099187E+03  0.00000000000E+00 0.  1.
          6    1    1    2  502    0  0.18879619988E+03 -0.77683189317E+03  0.20708105417E+04  0.22264213651E+04  0.17200000000E+03 0. -1.
         -6    1    1    2    0  501 -0.18879619988E+03  0.77683189317E+03  0.10704232984E+04  0.13470344588E+04  0.17200000000E+03 0.  1.
</event>
<event>
 4    1  0.3205520E-002  0.2919966E+03  0.7818608E-02  0.1089311E+00
          1   -1    0    0  502    0  0.00000000000E+00  0.00000000000E+00  0.14300878654E+04  0.14300878654E+04  0.00000000000E+00 0. -1.
         -1   -1    0    0    0  501 -0.00000000000E+00 -0.00000000000E+00 -0.14749682644E+04  0.14749682644E+04  0.00000000000E+00 0.  1.
          6    1    1    2  502    0 -0.22619654093E+03  0.67179693660E+02  0.14004285360E+04  0.14305460743E+04  0.17200000000E+03 0. -1.
         -6    1    1    2    0  501  0.22619654093E+03 -0.67179693660E+02 -0.14453089349E+04  0.14745100555E+04  0.17200000000E+03 0.  1.
</event>
<event>
 4    1  0.3205520E-002  0.5547792E+03  0.7818608E-02  0.1000394E+00
         -1   -1    0    0    0  501 -0.00000000000E+00  0.00000000000E+00  0.14110829739E+04  0.14110829739E+04  0.00000000000E+00 0.  1.
          1   -1    0    0  502    0  0.00000000000E+00 -0.00000000000E+00 -0.51249045681E+03  0.51249045681E+03  0.00000000000E+00 0. -1.
          6    1    1    2  502    0 -0.28277525413E+03 -0.44523492690E+03 -0.27963375776E+03  0.62126888137E+03  0.17200000000E+03 0. -1.
         -6    1    1    2    0  501  0.28277525413E+03  0.44523492690E+03  0.11782262748E+04  0.13023045493E+04  0.17200000000E+03 0.  1.
</event>
<event>
 4    1  0.3205520E-002  0.2186699E+03  0.7818608E-02  0.1134879E+00
         -2   -1    0    0    0  501 -0.00000000000E+00  0.00000000000E+00  0.67230034543E+02  0.67230034543E+02  0.00000000000E+00 0.  1.
          2   -1    0    0  502    0  0.00000000000E+00 -0.00000000000E+00 -0.78954154880E+03  0.78954154880E+03  0.00000000000E+00 0. -1.
          6    1    1    2  502    0  0.90416831651E+02 -0.10028626000E+03 -0.49606416754E+03  0.54212193805E+03  0.17200000000E+03 0. -1.
         -6    1    1    2    0  501 -0.90416831651E+02  0.10028626000E+03 -0.22624734672E+03  0.31464964530E+03  0.17200000000E+03 0.  1.
</event>
<event>
 4    1  0.3205520E-002  0.1955859E+03  0.7818608E-02  0.1153518E+00
          1   -1    0    0  502    0  0.00000000000E+00  0.00000000000E+00  0.11785986049E+04  0.11785986049E+04  0.00000000000E+00 0. -1.
         -1   -1    0    0    0  501 -0.00000000000E+00 -0.00000000000E+00 -0.46477250098E+02  0.46477250098E+02  0.00000000000E+00 0.  1.
          6    1    1    2  502    0  0.99039670711E+01 -0.92583835196E+02  0.90248671402E+03  0.92343712514E+03  0.17200000000E+03 0. -1.
         -6    1    1    2    0  501 -0.99039670711E+01  0.92583835196E+02  0.22963464078E+03  0.30163872986E+03  0.17200000000E+03 0.  1.
</event>
<event>
 4    1  0.3205520E-002  0.3024307E+03  0.7818608E-02  0.1084032E+00
          2   -1    0    0  502    0  0.00000000000E+00  0.00000000000E+00  0.12112854339E+04  0.12112854339E+04  0.00000000000E+00 0. -1.
         -2   -1    0    0    0  501 -0.00000000000E+00 -0.00000000000E+00 -0.88664919421E+02  0.88664919421E+02  0.00000000000E+00 0.  1.
          6    1    1    2  502    0  0.21358346595E+03  0.12752417641E+03  0.31095142384E+03  0.43376848719E+03  0.17200000000E+03 0. -1.
         -6    1    1    2    0  501 -0.21358346595E+03 -0.12752417641E+03  0.81166909060E+03  0.86618186608E+03  0.17200000000E+03 0.  1.
</event>
<event>
 4    1  0.3205520E-002  0.1763717E+03  0.7818608E-02  0.1171361E+00
         -1   -1    0    0    0  501 -0.00000000000E+00  0.00000000000E+00  0.13485457875E+03  0.13485457875E+03  0.00000000000E+00 0.  1.
          1   -1    0    0  502    0  0.00000000000E+00 -0.00000000000E+00 -0.40741824541E+03  0.40741824541E+03  0.00000000000E+00 0. -1.
          6    1    1    2  502    0 -0.38700643244E+02  0.50221501481E+01  0.42303032677E+02  0.18137394618E+03  0.17200000000E+03 0.  1.
         -6    1    1    2    0  501  0.38700643244E+02 -0.50221501481E+01 -0.31486669933E+03  0.36089887798E+03  0.17200000000E+03 0. -1.
</event>
<event>
 4    1  0.3205520E-002  0.2578861E+03  0.7818608E-02  0.1108420E+00
          3   -1    0    0  502    0  0.00000000000E+00  0.00000000000E+00  0.29759782120E+03  0.29759782120E+03  0.00000000000E+00 0. -1.
         -3   -1    0    0    0  501 -0.00000000000E+00 -0.00000000000E+00 -0.23940148150E+03  0.23940148150E+03  0.00000000000E+00 0.  1.
          6    1    1    2  502    0 -0.19192176409E+03 -0.93420657716E+01 -0.40158272014E+02  0.26099410824E+03  0.17200000000E+03 0.  1.
         -6    1    1    2    0  501  0.19192176409E+03  0.93420657716E+01  0.98354611708E+02  0.27600519446E+03  0.17200000000E+03 0. -1.
</event>
<event>
 4    1  0.3205520E-002  0.1969197E+03  0.7818608E-02  0.1152364E+00
         -3   -1    0    0    0  501 -0.00000000000E+00  0.00000000000E+00  0.54186426600E+02  0.54186426600E+02  0.00000000000E+00 0.  1.
          3   -1    0    0  502    0  0.00000000000E+00 -0.00000000000E+00 -0.72379200551E+03  0.72379200551E+03  0.00000000000E+00 0. -1.
          6    1    1    2  502    0  0.16158446883E+02  0.94510741939E+02 -0.29349262162E+03  0.35343357890E+03  0.17200000000E+03 0. -1.
         -6    1    1    2    0  501 -0.16158446883E+02 -0.94510741939E+02 -0.37611295729E+03  0.42454485322E+03  0.17200000000E+03 0.  1.
</event>
<event>
 4    1  0.3205520E-002  0.3309357E+03  0.7818608E-02  0.1070724E+00
          2   -1    0    0  502    0  0.00000000000E+00  0.00000000000E+00  0.22377916692E+04  0.22377916692E+04  0.00000000000E+00 0. -1.
         -2   -1    0    0    0  501 -0.00000000000E+00 -0.00000000000E+00 -0.22776116880E+03  0.22776116880E+03  0.00000000000E+00 0.  1.
          6    1    1    2  502    0  0.27236711506E+03 -0.75832721052E+02  0.20973441928E+04  0.21232925163E+04  0.17200000000E+03 0. -1.
         -6    1    1    2    0  501 -0.27236711506E+03  0.75832721052E+02 -0.87313692338E+02  0.34226032171E+03  0.17200000000E+03 0.  1.
</event>
<event>
 4    1  0.3205520E-002  0.2292897E+03  0.7818608E-02  0.1127141E+00
          2   -1    0    0  502    0  0.00000000000E+00  0.00000000000E+00  0.38269740339E+03  0.38269740339E+03  0.00000000000E+00 0. -1.
         -2   -1    0    0    0  501 -0.00000000000E+00 -0.00000000000E+00 -0.14190118832E+03  0.14190118832E+03  0.00000000000E+00 0.  1.
          6    1    1    2  502    0 -0.15088532781E+03 -0.14945563307E+02  0.73561749073E+02  0.24080091972E+03  0.17200000000E+03 0.  1.
         -6    1    1    2    0  501  0.15088532781E+03  0.14945563307E+02  0.16723446599E+03  0.28379767199E+03  0.17200000000E+03 0. -1.
</event>
<event>
 4    1  0.3205520E-002  0.2793656E+03  0.7818608E-02  0.1096036E+00
         -2   -1    0    0    0  501 -0.00000000000E+00  0.00000000000E+00  0.68411430582E+02  0.68411430582E+02  0.00000000000E+00 0.  1.
          2   -1    0    0  502    0  0.00000000000E+00 -0.00000000000E+00 -0.15018921263E+04  0.15018921263E+04  0.00000000000E+00 0. -1.
          6    1    1    2  502    0  0.19002874812E+03 -0.11113152979E+03 -0.11017140903E+04  0.11365821918E+04  0.17200000000E+03 0. -1.
         -6    1    1    2    0  501 -0.19002874812E+03  0.11113152979E+03 -0.33176660540E+03  0.43372136503E+03  0.17200000000E+03 0.  1.
</event>
<event>
 4    1  0.3205520E-002  0.2558637E+03  0.7818608E-02  0.1109654E+00
          2   -1    0    0  502    0  0.00000000000E+00  0.00000000000E+00  0.14680580823E+04  0.14680580823E+04  0.00000000000E+00 0. -1.
         -2   -1    0    0    0  501 -0.00000000000E+00 -0.00000000000E+00 -0.44593774334E+02  0.44593774334E+02  0.00000000000E+00 0.  1.
          6    1    1    2  502    0  0.15387792095E+03  0.11047079307E+03  0.71232446780E+03  0.75688331869E+03  0.17200000000E+03 0. -1.
         -6    1    1    2    0  501 -0.15387792095E+03 -0.11047079307E+03  0.71113984013E+03  0.75576853791E+03  0.17200000000E+03 0. -1.
</event>
<event>
 4    1  0.3205520E-002  0.2810106E+03  0.7818608E-02  0.1095138E+00
         -2   -1    0    0    0  501 -0.00000000000E+00  0.00000000000E+00  0.65546429218E+02  0.65546429218E+02  0.00000000000E+00 0.  1.
          2   -1    0    0  502    0  0.00000000000E+00 -0.00000000000E+00 -0.12049823967E+04  0.12049823967E+04  0.00000000000E+00 0. -1.
          6    1    1    2  502    0  0.71848932233E+02 -0.21028712411E+03 -0.57857403599E+03  0.64320669987E+03  0.17200000000E+03 0.  1.
         -6    1    1    2    0  501 -0.71848932233E+02  0.21028712411E+03 -0.56086193144E+03  0.62732212600E+03  0.17200000000E+03 0.  1.
</event>
<event>
 4    1  0.3205520E-002  0.2432326E+03  0.7818608E-02  0.1117658E+00
         -1   -1    0    0    0  501 -0.00000000000E+00  0.00000000000E+00  0.53401592650E+02  0.53401592650E+02  0.00000000000E+00 0.  1.
          1   -1    0    0  502    0  0.00000000000E+00 -0.00000000000E+00 -0.11522334368E+04  0.11522334368E+04  0.00000000000E+00 0. -1.
          6    1    1    2  502    0 -0.16690595044E+03  0.41478675198E+02 -0.66769916858E+03  0.71062244302E+03  0.17200000000E+03 0. -1.
         -6    1    1    2    0  501  0.16690595044E+03 -0.41478675198E+02 -0.43113267557E+03  0.49501258644E+03  0.17200000000E+03 0.  1.
</event>
<event>
 4    1  0.3205520E-002  0.7172618E+03  0.7818608E-02  0.9688159E-01
          1   -1    0    0  502    0  0.00000000000E+00  0.00000000000E+00  0.16703541451E+04  0.16703541451E+04  0.00000000000E+00 0. -1.
         -1   -1    0    0    0  501 -0.00000000000E+00 -0.00000000000E+00 -0.32127631115E+03  0.32127631115E+03  0.00000000000E+00 0.  1.
          6    1    1    2  502    0 -0.52110526111E+03 -0.46187643732E+03  0.87699115153E+03  0.11329510212E+04  0.17200000000E+03 0. -1.
         -6    1    1    2    0  501  0.52110526111E+03  0.46187643732E+03  0.47208668238E+03  0.85867943505E+03  0.17200000000E+03 0.  1.
</event>
<event>
 4    1  0.3205520E-002  0.2420661E+03  0.7818608E-02  0.1118424E+00
         -2   -1    0    0    0  501 -0.00000000000E+00  0.00000000000E+00  0.27126301532E+02  0.27126301532E+02  0.00000000000E+00 0.  1.
          2   -1    0    0  502    0  0.00000000000E+00 -0.00000000000E+00 -0.21802051088E+04  0.21802051088E+04  0.00000000000E+00 0. -1.
          6    1    1    2  502    0  0.16432596854E+03 -0.44821804057E+02 -0.97060299179E+03  0.10003330374E+04  0.17200000000E+03 0. -1.
         -6    1    1    2    0  501 -0.16432596854E+03  0.44821804057E+02 -0.11824758155E+04  0.12069983730E+04  0.17200000000E+03 0.  1.
</event>
<event>
 4    1  0.3205520E-002  0.2000475E+03  0.7818608E-02  0.1149699E+00
         -3   -1    0    0    0  501 -0.00000000000E+00  0.00000000000E+00  0.53492579950E+02  0.53492579950E+02  0.00000000000E+00 0.  1.
          3   -1    0    0  502    0  0.00000000000E+00 -0.00000000000E+00 -0.13572868642E+04  0.13572868642E+04  0.00000000000E+00 0. -1.
          6    1    1    2  502    0 -0.73495651727E+01  0.10188702755E+03 -0.17933308825E+03  0.26866212802E+03  0.17200000000E+03 0.  1.
         -6    1    1    2    0  501  0.73495651727E+01 -0.10188702755E+03 -0.11244611960E+04  0.11421173161E+04  0.17200000000E+03 0. -1.
</event>
<event>
 4    1  0.3205520E-002  0.5146415E+03  0.7818608E-02  0.1010026E+00
         -2   -1    0    0    0  501 -0.00000000000E+00  0.00000000000E+00  0.83699486813E+02  0.83699486813E+02  0.00000000000E+00 0.  1.
          2   -1    0    0  502    0  0.00000000000E+00 -0.00000000000E+00 -0.37018876581E+04  0.37018876581E+04  0.00000000000E+00 0. -1.
          6    1    1    2  502    0  0.48053204319E+03  0.66036435778E+02 -0.25303500229E+04  0.25821555131E+04  0.17200000000E+03 0. -1.
         -6    1    1    2    0  501 -0.48053204319E+03 -0.66036435778E+02 -0.10878381483E+04  0.12034316318E+04  0.17200000000E+03 0.  1.
</event>
<event>
 4    1  0.3205520E-002  0.3133408E+03  0.7818608E-02  0.1078756E+00
          2   -1    0    0  502    0  0.00000000000E+00  0.00000000000E+00  0.73687409902E+03  0.73687409902E+03  0.00000000000E+00 0. -1.
         -2   -1    0    0    0  501 -0.00000000000E+00 -0.00000000000E+00 -0.14592492846E+03  0.14592492846E+03  0.00000000000E+00 0.  1.
          6    1    1    2  502    0 -0.22570390836E+03 -0.13287673252E+03  0.16534406572E+03  0.35428962779E+03  0.17200000000E+03 0. -1.
         -6    1    1    2    0  501  0.22570390836E+03  0.13287673252E+03  0.42560510484E+03  0.52850939969E+03  0.17200000000E+03 0.  1.
</event>
<event>
 4    1  0.3205520E-002  0.2145418E+03  0.7818608E-02  0.1138019E+00
         -1   -1    0    0    0  501 -0.00000000000E+00  0.00000000000E+00  0.29192025704E+02  0.29192025704E+02  0.00000000000E+00 0.  1.
          1   -1    0    0  502    0  0.00000000000E+00 -0.00000000000E+00 -0.19126822611E+04  0.19126822611E+04  0.00000000000E+00 0. -1.
          6    1    1    2  502    0  0.10350073116E+03  0.75708479091E+02 -0.13486597784E+04  0.13656175793E+04  0.17200000000E+03 0. -1.
         -6    1    1    2    0  501 -0.10350073116E+03 -0.75708479091E+02 -0.53483045704E+03  0.57625670749E+03  0.17200000000E+03 0.  1.
</event>
<event>
 4    1  0.3205520E-002  0.2472005E+03  0.7818608E-02  0.1115087E+00
          2   -1    0    0  502    0  0.00000000000E+00  0.00000000000E+00  0.12819386018E+04  0.12819386018E+04  0.00000000000E+00 0. -1.
         -2   -1    0    0    0  501 -0.00000000000E+00 -0.00000000000E+00 -0.50190646423E+02  0.50190646423E+02  0.00000000000E+00 0.  1.
          6    1    1    2  502    0 -0.52594916952E+02  0.16958144982E+03  0.76518432589E+03  0.80412383748E+03  0.17200000000E+03 0. -1.
         -6    1    1    2    0  501  0.52594916952E+02 -0.16958144982E+03  0.46656362946E+03  0.52800541072E+03  0.17200000000E+03 0.  1.
</event>
<event>
 4    1  0.3205520E-002  0.2117671E+03  0.7818608E-02  0.1140174E+00
          2   -1    0    0  502    0  0.00000000000E+00  0.00000000000E+00  0.66926572182E+03  0.66926572182E+03  0.00000000000E+00 0. -1.
         -2   -1    0    0    0  501 -0.00000000000E+00 -0.00000000000E+00 -0.13435049572E+03  0.13435049572E+03  0.00000000000E+00 0.  1.
          6    1    1    2  502    0  0.10154745971E+03 -0.70352058352E+02  0.55193503372E+03  0.59116628805E+03  0.17200000000E+03 0. -1.
         -6    1    1    2    0  501 -0.10154745971E+03  0.70352058352E+02 -0.17019807617E+02  0.21244992949E+03  0.17200000000E+03 0.  1.
</event>
<event>
 4    1  0.3205520E-002  0.2058090E+03  0.7818608E-02  0.1144928E+00
         -1   -1    0    0    0  501 -0.00000000000E+00  0.00000000000E+00  0.10559895517E+03  0.10559895517E+03  0.00000000000E+00 0.  1.
          1   -1    0    0  502    0  0.00000000000E+00 -0.00000000000E+00 -0.49298483896E+03  0.49298483896E+03  0.00000000000E+00 0. -1.
          6    1    1    2  502    0 -0.11109414527E+03 -0.20771257949E+02 -0.32289338336E+03  0.38290663521E+03  0.17200000000E+03 0. -1.
         -6    1    1    2    0  501  0.11109414527E+03  0.20771257949E+02 -0.64492500424E+02  0.21567715892E+03  0.17200000000E+03 0.  1.
</event>
<event>
 4    1  0.3205520E-002  0.6540719E+03  0.7818608E-02  0.9799168E-01
          2   -1    0    0  502    0  0.00000000000E+00  0.00000000000E+00  0.16722465571E+04  0.16722465571E+04  0.00000000000E+00 0. -1.
         -2   -1    0    0    0  501 -0.00000000000E+00 -0.00000000000E+00 -0.45213379659E+03  0.45213379659E+03  0.00000000000E+00 0.  1.
          6    1    1    2  502    0 -0.63097029213E+03 -0.10128682904E+02  0.13099525746E+04  0.14641672881E+04  0.17200000000E+03 0. -1.
         -6    1    1    2    0  501  0.63097029213E+03  0.10128682904E+02 -0.89839814129E+02  0.66021306558E+03  0.17200000000E+03 0.  1.
</event>
<event>
 4    1  0.3205520E-002  0.4315291E+03  0.7818608E-02  0.1033378E+00
          2   -1    0    0  502    0  0.00000000000E+00  0.00000000000E+00  0.29081412180E+04  0.29081412180E+04  0.00000000000E+00 0. -1.
         -2   -1    0    0    0  501 -0.00000000000E+00 -0.00000000000E+00 -0.64695870918E+02  0.64695870918E+02  0.00000000000E+00 0.  1.
          6    1    1    2  502    0  0.34912861108E+03 -0.18639359413E+03  0.12712777227E+04  0.13425216598E+04  0.17200000000E+03 0. -1.
         -6    1    1    2    0  501 -0.34912861108E+03  0.18639359413E+03  0.15721676244E+04  0.16303154291E+04  0.17200000000E+03 0.  1.
</event>
<event>
 4    1  0.3205520E-002  0.3016841E+03  0.7818608E-02  0.1084402E+00
         -2   -1    0    0    0  501 -0.00000000000E+00  0.00000000000E+00  0.60314325491E+02  0.60314325491E+02  0.00000000000E+00 0.  1.
          2   -1    0    0  502    0  0.00000000000E+00 -0.00000000000E+00 -0.18124460690E+04  0.18124460690E+04  0.00000000000E+00 0. -1.
          6    1    1    2  502    0  0.16950038603E+03 -0.18082839764E+03 -0.12592192117E+04  0.12948537807E+04  0.17200000000E+03 0. -1.
         -6    1    1    2    0  501 -0.16950038603E+03  0.18082839764E+03 -0.49291253181E+03  0.57790661380E+03  0.17200000000E+03 0.  1.
</event>
<event>
 4    1  0.3205520E-002  0.3042892E+03  0.7818608E-02  0.1083116E+00
         -2   -1    0    0    0  501 -0.00000000000E+00  0.00000000000E+00  0.92644644453E+02  0.92644644453E+02  0.00000000000E+00 0.  1.
          2   -1    0    0  502    0  0.00000000000E+00 -0.00000000000E+00 -0.12198188291E+04  0.12198188291E+04  0.00000000000E+00 0. -1.
          6    1    1    2  502    0 -0.22332956605E+03 -0.11459423440E+03 -0.84252229326E+03  0.89578778082E+03  0.17200000000E+03 0. -1.
         -6    1    1    2    0  501  0.22332956605E+03  0.11459423440E+03 -0.28465189135E+03  0.41667569269E+03  0.17200000000E+03 0.  1.
</event>
<event>
 4    1  0.3205520E-002  0.5046408E+03  0.7818608E-02  0.1012575E+00
          2   -1    0    0  502    0  0.00000000000E+00  0.00000000000E+00  0.83569263826E+03  0.83569263826E+03  0.00000000000E+00 0. -1.
         -2   -1    0    0    0  501 -0.00000000000E+00 -0.00000000000E+00 -0.30630672567E+03  0.30630672567E+03  0.00000000000E+00 0.  1.
          6    1    1    2  502    0  0.39404341096E+03  0.26421221824E+03  0.22375206833E+03  0.55202109930E+03  0.17200000000E+03 0.  1.
         -6    1    1    2    0  501 -0.39404341096E+03 -0.26421221824E+03  0.30563384426E+03  0.58997826464E+03  0.17200000000E+03 0. -1.
</event>
<event>
 4    1  0.3205520E-002  0.7116612E+03  0.7818608E-02  0.9697495E-01
         -2   -1    0    0    0  501 -0.00000000000E+00  0.00000000000E+00  0.29866837349E+03  0.29866837349E+03  0.00000000000E+00 0.  1.
          2   -1    0    0  502    0  0.00000000000E+00 -0.00000000000E+00 -0.17697697763E+04  0.17697697763E+04  0.00000000000E+00 0. -1.
          6    1    1    2  502    0  0.61207012098E+03 -0.31976220836E+03 -0.94708413900E+03  0.11846645387E+04  0.17200000000E+03 0.  1.
         -6    1    1    2    0  501 -0.61207012098E+03  0.31976220836E+03 -0.52401726380E+03  0.88377361109E+03  0.17200000000E+03 0.  1.
</event>
<event>
 4    1  0.3205520E-002  0.1742901E+03  0.7818608E-02  0.1173446E+00
         -1   -1    0    0    0  501 -0.00000000000E+00  0.00000000000E+00  0.36836695004E+02  0.36836695004E+02  0.00000000000E+00 0.  1.
          1   -1    0    0  502    0  0.00000000000E+00 -0.00000000000E+00 -0.87422282488E+03  0.87422282488E+03  0.00000000000E+00 0. -1.
          6    1    1    2  502    0 -0.28150480876E+02 -0.76594143105E+00 -0.52717775574E+03  0.55524176931E+03  0.17200000000E+03 0. -1.
         -6    1    1    2    0  501  0.28150480876E+02  0.76594143105E+00 -0.31020837414E+03  0.35581775057E+03  0.17200000000E+03 0.  1.
</event>
<event>
 4    1  0.3205520E-002  0.3634994E+03  0.7818608E-02  0.1057207E+00
          1   -1    0    0  502    0  0.00000000000E+00  0.00000000000E+00  0.11175241801E+03  0.11175241801E+03  0.00000000000E+00 0. -1.
         -1   -1    0    0    0  501 -0.00000000000E+00 -0.00000000000E+00 -0.13725118413E+04  0.13725118413E+04  0.00000000000E+00 0.  1.
          6    1    1    2  502    0  0.30847964529E+03 -0.85954110604E+02 -0.35414942878E+03  0.50749740748E+03  0.17200000000E+03 0. -1.
         -6    1    1    2    0  501 -0.30847964529E+03  0.85954110604E+02 -0.90660999452E+03  0.97676685184E+03  0.17200000000E+03 0.  1.
</event>
<event>
 4    1  0.3205520E-002  0.1865161E+03  0.7818608E-02  0.1161642E+00
          2   -1    0    0  502    0  0.00000000000E+00  0.00000000000E+00  0.27813399020E+02  0.27813399020E+02  0.00000000000E+00 0. -1.
         -2   -1    0    0    0  501 -0.00000000000E+00 -0.00000000000E+00 -0.12630141737E+04  0.12630141737E+04  0.00000000000E+00 0.  1.
          6    1    1    2  502    0 -0.83671812648E+01  0.71653556531E+02 -0.55405999468E+03  0.58461159721E+03  0.17200000000E+03 0.  1.
         -6    1    1    2    0  501  0.83671812648E+01 -0.71653556531E+02 -0.68114077996E+03  0.70621597547E+03  0.17200000000E+03 0.  1.
</event>
<event>
 4    1  0.3205520E-002  0.3478294E+03  0.7818608E-02  0.1063509E+00
         -1   -1    0    0    0  501 -0.00000000000E+00  0.00000000000E+00  0.13632847524E+03  0.13632847524E+03  0.00000000000E+00 0.  1.
          1   -1    0    0  502    0  0.00000000000E+00 -0.00000000000E+00 -0.10076433951E+04  0.10076433951E+04  0.00000000000E+00 0. -1.
          6    1    1    2  502    0  0.30196208018E+03  0.14839093796E+02 -0.63320170627E+03  0.72244702048E+03  0.17200000000E+03 0. -1.
         -6    1    1    2    0  501 -0.30196208018E+03 -0.14839093796E+02 -0.23811321361E+03  0.42152484988E+03  0.17200000000E+03 0. -1.
</event>
<event>
 4    1  0.3205520E-002  0.1883685E+03  0.7818608E-02  0.1159941E+00
          1   -1    0    0  502    0  0.00000000000E+00  0.00000000000E+00  0.63713735445E+03  0.63713735445E+03  0.00000000000E+00 0. -1.
         -1   -1    0    0    0  501 -0.00000000000E+00 -0.00000000000E+00 -0.71035646410E+02  0.71035646410E+02  0.00000000000E+00 0.  1.
          6    1    1    2  502    0 -0.78614727927E+01 -0.76399514254E+02  0.44762154174E+03  0.48564156861E+03  0.17200000000E+03 0. -1.
         -6    1    1    2    0  501  0.78614727927E+01  0.76399514254E+02  0.11848016630E+03  0.22253143225E+03  0.17200000000E+03 0.  1.
</event>
<event>
 4    1  0.3205520E-002  0.1723717E+03  0.7818608E-02  0.1175397E+00
          1   -1    0    0  502    0  0.00000000000E+00  0.00000000000E+00  0.37786363343E+03  0.37786363343E+03  0.00000000000E+00 0. -1.
         -1   -1    0    0    0  501 -0.00000000000E+00 -0.00000000000E+00 -0.20188142263E+03  0.20188142263E+03  0.00000000000E+00 0.  1.
          6    1    1    2  502    0  0.23481935918E+01 -0.11067058668E+02  0.31448273847E+03  0.35862429727E+03  0.17200000000E+03 0. -1.
         -6    1    1    2    0  501 -0.23481935918E+01  0.11067058668E+02 -0.13850052767E+03  0.22112075879E+03  0.17200000000E+03 0.  1.
</event>
<event>
 4    1  0.3205520E-002  0.5848909E+03  0.7818608E-02  0.9937258E-01
         -2   -1    0    0    0  501 -0.00000000000E+00  0.00000000000E+00  0.25403628975E+03  0.25403628975E+03  0.00000000000E+00 0.  1.
          2   -1    0    0  502    0  0.00000000000E+00 -0.00000000000E+00 -0.14071188453E+04  0.14071188453E+04  0.00000000000E+00 0. -1.
          6    1    1    2  502    0 -0.30983189073E+03  0.46531450811E+03 -0.74872369892E+03  0.95009713676E+03  0.17200000000E+03 0. -1.
         -6    1    1    2    0  501  0.30983189073E+03 -0.46531450811E+03 -0.40435885662E+03  0.71105799826E+03  0.17200000000E+03 0.  1.
</event>
<event>
 4    1  0.3205520E-002  0.1822009E+03  0.7818608E-02  0.1165690E+00
          1   -1    0    0  502    0  0.00000000000E+00  0.00000000000E+00  0.13412402078E+04  0.13412402078E+04  0.00000000000E+00 0. -1.
         -1   -1    0    0    0  501 -0.00000000000E+00 -0.00000000000E+00 -0.28475050959E+02  0.28475050959E+02  0.00000000000E+00 0.  1.
          6    1    1    2  502    0 -0.31616029759E+02  0.51123223665E+02  0.90405097495E+03  0.92222845469E+03  0.17200000000E+03 0. -1.
         -6    1    1    2    0  501  0.31616029759E+02 -0.51123223665E+02  0.40871418190E+03  0.44748680407E+03  0.17200000000E+03 0.  1.
</event>
<event>
 4    1  0.3205520E-002  0.2105693E+03  0.7818608E-02  0.1141116E+00
          2   -1    0    0  502    0  0.00000000000E+00  0.00000000000E+00  0.23255503781E+04  0.23255503781E+04  0.00000000000E+00 0. -1.
         -2   -1    0    0    0  501 -0.00000000000E+00 -0.00000000000E+00 -0.19476959112E+02  0.19476959112E+02  0.00000000000E+00 0.  1.
          6    1    1    2  502    0  0.45169313374E+02  0.11276146375E+03  0.13233111988E+04  0.13399596798E+04  0.17200000000E+03 0.  1.
         -6    1    1    2    0  501 -0.45169313374E+02 -0.11276146375E+03  0.98276222012E+03  0.10050676574E+04  0.17200000000E+03 0. -1.
</event>
<event>
 4    1  0.3205520E-002  0.1827205E+03  0.7818608E-02  0.1165196E+00
          2   -1    0    0  502    0  0.00000000000E+00  0.00000000000E+00  0.10216672051E+04  0.10216672051E+04  0.00000000000E+00 0. -1.
         -2   -1    0    0    0  501 -0.00000000000E+00 -0.00000000000E+00 -0.37463646229E+02  0.37463646229E+02  0.00000000000E+00 0.  1.
          6    1    1    2  502    0 -0.40897802483E+02 -0.46153679993E+02  0.68135859065E+03  0.70543342810E+03  0.17200000000E+03 0. -1.
         -6    1    1    2    0  501  0.40897802483E+02  0.46153679993E+02  0.30284496823E+03  0.35369742324E+03  0.17200000000E+03 0.  1.
</event>
<event>
 4    1  0.3205520E-002  0.4351705E+03  0.7818608E-02  0.1032239E+00
         -2   -1    0    0    0  501 -0.00000000000E+00  0.00000000000E+00  0.34326251160E+03  0.34326251160E+03  0.00000000000E+00 0.  1.
          2   -1    0    0  502    0  0.00000000000E+00 -0.00000000000E+00 -0.58984428711E+03  0.58984428711E+03  0.00000000000E+00 0. -1.
          6    1    1    2  502    0 -0.39847248434E+03 -0.31765214083E+02 -0.24195607568E+03  0.49791173129E+03  0.17200000000E+03 0. -1.
         -6    1    1    2    0  501  0.39847248434E+03  0.31765214083E+02 -0.46256998306E+01  0.43519506741E+03  0.17200000000E+03 0.  1.
</event>
<event>
 4    1  0.3205520E-002  0.2896028E+03  0.7818608E-02  0.1090557E+00
         -2   -1    0    0    0  501 -0.00000000000E+00  0.00000000000E+00  0.73477225598E+02  0.73477225598E+02  0.00000000000E+00 0.  1.
          2   -1    0    0  502    0  0.00000000000E+00 -0.00000000000E+00 -0.30345232590E+04  0.30345232590E+04  0.00000000000E+00 0. -1.
          6    1    1    2  502    0  0.14649866223E+03 -0.18117374126E+03 -0.27079362487E+04  0.27233781430E+04  0.17200000000E+03 0. -1.
         -6    1    1    2    0  501 -0.14649866223E+03  0.18117374126E+03 -0.25310978464E+03  0.38462234158E+03  0.17200000000E+03 0.  1.
</event>
<event>
 4    1  0.3205520E-002  0.2844065E+03  0.7818608E-02  0.1093306E+00
         -2   -1    0    0    0  501 -0.00000000000E+00  0.00000000000E+00  0.23329607995E+03  0.23329607995E+03  0.00000000000E+00 0.  1.
          2   -1    0    0  502    0  0.00000000000E+00 -0.00000000000E+00 -0.41996369829E+03  0.41996369829E+03  0.00000000000E+00 0. -1.
          6    1    1    2  502    0 -0.22142430045E+03  0.47689723868E+02 -0.22974587813E+03  0.36560935315E+03  0.17200000000E+03 0. -1.
         -6    1    1    2    0  501  0.22142430045E+03 -0.47689723868E+02  0.43078259794E+02  0.28765042510E+03  0.17200000000E+03 0.  1.
</event>
<event>
 4    1  0.3205520E-002  0.2533016E+03  0.7818608E-02  0.1111236E+00
          2   -1    0    0  502    0  0.00000000000E+00  0.00000000000E+00  0.46841626098E+03  0.46841626098E+03  0.00000000000E+00 0. -1.
         -2   -1    0    0    0  501 -0.00000000000E+00 -0.00000000000E+00 -0.28587352944E+03  0.28587352944E+03  0.00000000000E+00 0.  1.
          6    1    1    2  502    0  0.12253735630E+03  0.13986523641E+03  0.36345707047E+03  0.44301549647E+03  0.17200000000E+03 0. -1.
         -6    1    1    2    0  501 -0.12253735630E+03 -0.13986523641E+03 -0.18091433892E+03  0.31127429395E+03  0.17200000000E+03 0.  1.
</event>
<event>
 4    1  0.3205520E-002  0.2186956E+03  0.7818608E-02  0.1134859E+00
         -2   -1    0    0    0  501 -0.00000000000E+00  0.00000000000E+00  0.92263987774E+02  0.92263987774E+02  0.00000000000E+00 0.  1.
          2   -1    0    0  502    0  0.00000000000E+00 -0.00000000000E+00 -0.15978729914E+04  0.15978729914E+04  0.00000000000E+00 0. -1.
          6    1    1    2  502    0 -0.13277123993E+03  0.24810429619E+02 -0.14473981300E+04  0.14638268703E+04  0.17200000000E+03 0. -1.
         -6    1    1    2    0  501  0.13277123993E+03 -0.24810429619E+02 -0.58210873664E+02  0.22631010888E+03  0.17200000000E+03 0.  1.
</event>
<event>
 4    1  0.3205520E-002  0.1934801E+03  0.7818608E-02  0.1155359E+00
         -2   -1    0    0    0  501 -0.00000000000E+00  0.00000000000E+00  0.79069724181E+02  0.79069724181E+02  0.00000000000E+00 0.  1.
          2   -1    0    0  502    0  0.00000000000E+00 -0.00000000000E+00 -0.51580726054E+03  0.51580726054E+03  0.00000000000E+00 0. -1.
          6    1    1    2  502    0  0.52731587756E+02 -0.71203407651E+02 -0.30361657135E+03  0.36002439919E+03  0.17200000000E+03 0. -1.
         -6    1    1    2    0  501 -0.52731587756E+02  0.71203407651E+02 -0.13312096500E+03  0.23485258553E+03  0.17200000000E+03 0.  1.
</event>
<event>
 4    1  0.3205520E-002  0.3394014E+03  0.7818608E-02  0.1067051E+00
          2   -1    0    0  502    0  0.00000000000E+00  0.00000000000E+00  0.71830121897E+03  0.71830121897E+03  0.00000000000E+00 0. -1.
         -2   -1    0    0    0  501 -0.00000000000E+00 -0.00000000000E+00 -0.16318453729E+03  0.16318453729E+03  0.00000000000E+00 0.  1.
          6    1    1    2  502    0 -0.36054367621E+02 -0.29036081230E+03  0.33545038269E+03  0.47720045892E+03  0.17200000000E+03 0. -1.
         -6    1    1    2    0  501  0.36054367621E+02  0.29036081230E+03  0.21966629899E+03  0.40428529735E+03  0.17200000000E+03 0.  1.
</event>
<event>
 4    1  0.3205520E-002  0.2987802E+03  0.7818608E-02  0.1085852E+00
          2   -1    0    0  502    0  0.00000000000E+00  0.00000000000E+00  0.34411556546E+04  0.34411556546E+04  0.00000000000E+00 0. -1.
         -2   -1    0    0    0  501 -0.00000000000E+00 -0.00000000000E+00 -0.26569543609E+02  0.26569543609E+02  0.00000000000E+00 0.  1.
          6    1    1    2  502    0 -0.10702012888E+03 -0.21961853610E+03  0.14407728722E+04  0.14714265454E+04  0.17200000000E+03 0. -1.
         -6    1    1    2    0  501  0.10702012888E+03  0.21961853610E+03  0.19738132388E+04  0.19962986527E+04  0.17200000000E+03 0.  1.
</event>
<event>
 4    1  0.3205520E-002  0.1960991E+03  0.7818608E-02  0.1153073E+00
          1   -1    0    0  502    0  0.00000000000E+00  0.00000000000E+00  0.74542652335E+03  0.74542652335E+03  0.00000000000E+00 0. -1.
         -1   -1    0    0    0  501 -0.00000000000E+00 -0.00000000000E+00 -0.52554485292E+02  0.52554485292E+02  0.00000000000E+00 0.  1.
          6    1    1    2  502    0  0.88844924366E+02 -0.31263922223E+02  0.29232090249E+03  0.35200335716E+03  0.17200000000E+03 0. -1.
         -6    1    1    2    0  501 -0.88844924366E+02  0.31263922223E+02  0.40055113557E+03  0.44597765148E+03  0.17200000000E+03 0. -1.
</event>
<event>
 4    1  0.3205520E-002  0.2802004E+03  0.7818608E-02  0.1095580E+00
          2   -1    0    0  502    0  0.00000000000E+00  0.00000000000E+00  0.65868107555E+03  0.65868107555E+03  0.00000000000E+00 0. -1.
         -2   -1    0    0    0  501 -0.00000000000E+00 -0.00000000000E+00 -0.12082178006E+03  0.12082178006E+03  0.00000000000E+00 0.  1.
          6    1    1    2  502    0  0.19315048397E+03  0.10780153922E+03  0.31413806073E+03  0.42094536761E+03  0.17200000000E+03 0. -1.
         -6    1    1    2    0  501 -0.19315048397E+03 -0.10780153922E+03  0.22372123476E+03  0.35855748799E+03  0.17200000000E+03 0. -1.
</event>
<event>
 4    1  0.3205520E-002  0.2353387E+03  0.7818608E-02  0.1122938E+00
          2   -1    0    0  502    0  0.00000000000E+00  0.00000000000E+00  0.47950708345E+02  0.47950708345E+02  0.00000000000E+00 0. -1.
         -2   -1    0    0    0  501 -0.00000000000E+00 -0.00000000000E+00 -0.11926375031E+04  0.11926375031E+04  0.00000000000E+00 0.  1.
          6    1    1    2  502    0 -0.38284690952E+02  0.15599542120E+03 -0.68249907381E+03  0.72193439781E+03  0.17200000000E+03 0.  1.
         -6    1    1    2    0  501  0.38284690952E+02 -0.15599542120E+03 -0.46218772092E+03  0.51865381361E+03  0.17200000000E+03 0. -1.
</event>
<event>
 4    1  0.3205520E-002  0.1956504E+03  0.7818608E-02  0.1153462E+00
         -2   -1    0    0    0  501 -0.00000000000E+00  0.00000000000E+00  0.61064207609E+02  0.61064207609E+02  0.00000000000E+00 0.  1.
          2   -1    0    0  502    0  0.00000000000E+00 -0.00000000000E+00 -0.74685197093E+03  0.74685197093E+03  0.00000000000E+00 0. -1.
          6    1    1    2  502    0  0.74281629459E+02 -0.56367576715E+02 -0.50480796154E+03  0.54139647414E+03  0.17200000000E+03 0. -1.
         -6    1    1    2    0  501 -0.74281629459E+02  0.56367576715E+02 -0.18097980179E+03  0.26651970440E+03  0.17200000000E+03 0.  1.
</event>
<event>
 4    1  0.3205520E-002  0.4313631E+03  0.7818608E-02  0.1033430E+00
         -1   -1    0    0    0  501 -0.00000000000E+00  0.00000000000E+00  0.48668337206E+03  0.48668337206E+03  0.00000000000E+00 0.  1.
          1   -1    0    0  502    0  0.00000000000E+00 -0.00000000000E+00 -0.60478917379E+03  0.60478917379E+03  0.00000000000E+00 0. -1.
          6    1    1    2  502    0 -0.38800469959E+03 -0.77087422254E+02 -0.39003541145E+03  0.58155114974E+03  0.17200000000E+03 0. -1.
         -6    1    1    2    0  501  0.38800469959E+03  0.77087422254E+02  0.27192960972E+03  0.50992139611E+03  0.17200000000E+03 0.  1.
</event>
<event>
 4    1  0.3205520E-002  0.3808169E+03  0.7818608E-02  0.1050632E+00
          2   -1    0    0  502    0  0.00000000000E+00  0.00000000000E+00  0.73723150054E+03  0.73723150054E+03  0.00000000000E+00 0. -1.
         -2   -1    0    0    0  501 -0.00000000000E+00 -0.00000000000E+00 -0.40008402290E+03  0.40008402290E+03  0.00000000000E+00 0.  1.
          6    1    1    2  502    0  0.33970270016E+03  0.62922082144E+01  0.57400952691E+03  0.68884573989E+03  0.17200000000E+03 0. -1.
         -6    1    1    2    0  501 -0.33970270016E+03 -0.62922082144E+01 -0.23686204927E+03  0.44846978356E+03  0.17200000000E+03 0.  1.
</event>
<event>
 4    1  0.3205520E-002  0.3500677E+03  0.7818608E-02  0.1062587E+00
          2   -1    0    0  502    0  0.00000000000E+00  0.00000000000E+00  0.12242397603E+04  0.12242397603E+04  0.00000000000E+00 0. -1.
         -2   -1    0    0    0  501 -0.00000000000E+00 -0.00000000000E+00 -0.12408990462E+03  0.12408990462E+03  0.00000000000E+00 0.  1.
          6    1    1    2  502    0  0.83541933812E+02 -0.29323051087E+03  0.84649310349E+03  0.91602290444E+03  0.17200000000E+03 0. -1.
         -6    1    1    2    0  501 -0.83541933812E+02  0.29323051087E+03  0.25365675219E+03  0.43230676046E+03  0.17200000000E+03 0.  1.
</event>
<event>
 4    1  0.3205520E-002  0.2045108E+03  0.7818608E-02  0.1145988E+00
          1   -1    0    0  502    0  0.00000000000E+00  0.00000000000E+00  0.57500213735E+03  0.57500213735E+03  0.00000000000E+00 0. -1.
         -1   -1    0    0    0  501 -0.00000000000E+00 -0.00000000000E+00 -0.14056029190E+03  0.14056029190E+03  0.00000000000E+00 0.  1.
          6    1    1    2  502    0 -0.83902771309E+02  0.72117954686E+02  0.46574673333E+03  0.50866953322E+03  0.17200000000E+03 0. -1.
         -6    1    1    2    0  501  0.83902771309E+02 -0.72117954686E+02 -0.31304887879E+02  0.20689289603E+03  0.17200000000E+03 0.  1.
</event>
<event>
 4    1  0.3205520E-002  0.3455154E+03  0.7818608E-02  0.1064471E+00
          3   -1    0    0  502    0  0.00000000000E+00  0.00000000000E+00  0.21446065069E+03  0.21446065069E+03  0.00000000000E+00 0. -1.
         -3   -1    0    0    0  501 -0.00000000000E+00 -0.00000000000E+00 -0.57770783954E+03  0.57770783954E+03  0.00000000000E+00 0.  1.
          6    1    1    2  502    0 -0.24121901429E+02 -0.29868888579E+03 -0.10601463920E+03  0.36141391831E+03  0.17200000000E+03 0. -1.
         -6    1    1    2    0  501  0.24121901429E+02  0.29868888579E+03 -0.25723254965E+03  0.43075457191E+03  0.17200000000E+03 0.  1.
</event>
<event>
 4    1  0.3205520E-002  0.2692089E+03  0.7818608E-02  0.1101733E+00
         -2   -1    0    0    0  501 -0.00000000000E+00  0.00000000000E+00  0.95006302634E+03  0.95006302634E+03  0.00000000000E+00 0.  1.
          2   -1    0    0  502    0  0.00000000000E+00 -0.00000000000E+00 -0.82902044356E+02  0.82902044356E+02  0.00000000000E+00 0. -1.
          6    1    1    2  502    0  0.15156544774E+03 -0.14112875742E+03  0.57952211861E+03  0.63899866751E+03  0.17200000000E+03 0. -1.
         -6    1    1    2    0  501 -0.15156544774E+03  0.14112875742E+03  0.28763886338E+03  0.39396640319E+03  0.17200000000E+03 0.  1.
</event>
<event>
 4    1  0.3205520E-002  0.2616848E+03  0.7818608E-02  0.1106135E+00
         -2   -1    0    0    0  501 -0.00000000000E+00  0.00000000000E+00  0.95329276094E+02  0.95329276094E+02  0.00000000000E+00 0.  1.
          2   -1    0    0  502    0  0.00000000000E+00 -0.00000000000E+00 -0.72215965726E+03  0.72215965726E+03  0.00000000000E+00 0. -1.
          6    1    1    2  502    0  0.78707975022E+02  0.18083136481E+03 -0.28369234201E+03  0.38595371840E+03  0.17200000000E+03 0. -1.
         -6    1    1    2    0  501 -0.78707975022E+02 -0.18083136481E+03 -0.34313803916E+03  0.43153521496E+03  0.17200000000E+03 0.  1.
</event>
<event>
 4    1  0.3205520E-002  0.1768220E+03  0.7818608E-02  0.1170915E+00
          4   -1    0    0  502    0  0.00000000000E+00  0.00000000000E+00  0.15638069129E+03  0.15638069129E+03  0.00000000000E+00 0. -1.
         -4   -1    0    0    0  501 -0.00000000000E+00 -0.00000000000E+00 -0.21057836653E+03  0.21057836653E+03  0.00000000000E+00 0.  1.
          6    1    1    2  502    0 -0.40557309724E+02  0.60919328828E+01  0.14150395433E+02  0.17738726197E+03  0.17200000000E+03 0. -1.
         -6    1    1    2    0  501  0.40557309724E+02 -0.60919328828E+01 -0.68348070670E+02  0.18957179585E+03  0.17200000000E+03 0.  1.
</event>
<event>
 4    1  0.3205520E-002  0.1835636E+03  0.7818608E-02  0.1164398E+00
         -2   -1    0    0    0  501 -0.00000000000E+00  0.00000000000E+00  0.45695191978E+03  0.45695191978E+03  0.00000000000E+00 0.  1.
          2   -1    0    0  502    0  0.00000000000E+00 -0.00000000000E+00 -0.74017529620E+02  0.74017529620E+02  0.00000000000E+00 0. -1.
          6    1    1    2  502    0  0.59361317121E+02  0.24244911153E+02  0.20772707886E+03  0.27721132909E+03  0.17200000000E+03 0. -1.
         -6    1    1    2    0  501 -0.59361317121E+02 -0.24244911153E+02  0.17520731130E+03  0.25375812030E+03  0.17200000000E+03 0.  1.
</event>
<event>
 4    1  0.3205520E-002  0.2354286E+03  0.7818608E-02  0.1122876E+00
         -2   -1    0    0    0  501 -0.00000000000E+00  0.00000000000E+00  0.29226250863E+03  0.29226250863E+03  0.00000000000E+00 0.  1.
          2   -1    0    0  502    0  0.00000000000E+00 -0.00000000000E+00 -0.19808833571E+03  0.19808833571E+03  0.00000000000E+00 0. -1.
          6    1    1    2  502    0  0.50984015475E+02 -0.15245743081E+03 -0.35255803960E+01  0.23545502280E+03  0.17200000000E+03 0.  1.
         -6    1    1    2    0  501 -0.50984015475E+02  0.15245743081E+03  0.97699753316E+02  0.25489582155E+03  0.17200000000E+03 0.  1.
</event>
<event>
 4    1  0.3205520E-002  0.2417311E+03  0.7818608E-02  0.1118645E+00
          1   -1    0    0  502    0  0.00000000000E+00  0.00000000000E+00  0.72150445368E+03  0.72150445368E+03  0.00000000000E+00 0. -1.
         -1   -1    0    0    0  501 -0.00000000000E+00 -0.00000000000E+00 -0.86689117251E+02  0.86689117251E+02  0.00000000000E+00 0.  1.
          6    1    1    2  502    0  0.80177311618E+02 -0.14973821332E+03  0.21378745261E+03  0.32270576183E+03  0.17200000000E+03 0.  1.
         -6    1    1    2    0  501 -0.80177311618E+02  0.14973821332E+03  0.42102788382E+03  0.48548780910E+03  0.17200000000E+03 0. -1.
</event>
<event>
 4    1  0.3205520E-002  0.2619003E+03  0.7818608E-02  0.1106007E+00
          2   -1    0    0  502    0  0.00000000000E+00  0.00000000000E+00  0.37004077951E+04  0.37004077951E+04  0.00000000000E+00 0. -1.
         -2   -1    0    0    0  501 -0.00000000000E+00 -0.00000000000E+00 -0.27203795097E+02  0.27203795097E+02  0.00000000000E+00 0.  1.
          6    1    1    2  502    0 -0.12428197150E+03  0.15349846368E+03  0.28886444627E+04  0.29004928234E+04  0.17200000000E+03 0. -1.
         -6    1    1    2    0  501  0.12428197150E+03 -0.15349846368E+03  0.78455953733E+03  0.82711876681E+03  0.17200000000E+03 0.  1.
</event>
<event>
 4    1  0.3205520E-002  0.1960813E+03  0.7818608E-02  0.1153088E+00
         -4   -1    0    0    0  501 -0.00000000000E+00  0.00000000000E+00  0.32722954018E+03  0.32722954018E+03  0.00000000000E+00 0.  1.
          4   -1    0    0  502    0  0.00000000000E+00 -0.00000000000E+00 -0.29376972144E+03  0.29376972144E+03  0.00000000000E+00 0. -1.
          6    1    1    2  502    0  0.19006995542E+02 -0.92209519793E+02 -0.22379080817E+03  0.29754022794E+03  0.17200000000E+03 0. -1.
         -6    1    1    2    0  501 -0.19006995542E+02  0.92209519793E+02  0.25725062691E+03  0.32345903368E+03  0.17200000000E+03 0.  1.
</event>
<event>
 4    1  0.3205520E-002  0.1983043E+03  0.7818608E-02  0.1151178E+00
          2   -1    0    0  502    0  0.00000000000E+00  0.00000000000E+00  0.89248831295E+03  0.89248831295E+03  0.00000000000E+00 0. -1.
         -2   -1    0    0    0  501 -0.00000000000E+00 -0.00000000000E+00 -0.68053055809E+02  0.68053055809E+02  0.00000000000E+00 0.  1.
          6    1    1    2  502    0 -0.96641425016E+01 -0.98220082945E+02  0.69737813282E+03  0.72502471715E+03  0.17200000000E+03 0. -1.
         -6    1    1    2    0  501  0.96641425016E+01  0.98220082945E+02  0.12705712432E+03  0.23551665161E+03  0.17200000000E+03 0.  1.
</event>
<event>
 4    1  0.3205520E-002  0.2269264E+03  0.7818608E-02  0.1128822E+00
         -1   -1    0    0    0  501 -0.00000000000E+00  0.00000000000E+00  0.11673341447E+03  0.11673341447E+03  0.00000000000E+00 0.  1.
          1   -1    0    0  502    0  0.00000000000E+00 -0.00000000000E+00 -0.54352826691E+03  0.54352826691E+03  0.00000000000E+00 0. -1.
          6    1    1    2  502    0  0.16219799626E+02  0.14713434419E+03 -0.35668331454E+03  0.42275120817E+03  0.17200000000E+03 0. -1.
         -6    1    1    2    0  501 -0.16219799626E+02 -0.14713434419E+03 -0.70111537901E+02  0.23751047322E+03  0.17200000000E+03 0.  1.
</event>
<event>
 4    1  0.3205520E-002  0.3233240E+03  0.7818608E-02  0.1074130E+00
         -2   -1    0    0    0  501 -0.00000000000E+00  0.00000000000E+00  0.66707773145E+02  0.66707773145E+02  0.00000000000E+00 0.  1.
          2   -1    0    0  502    0  0.00000000000E+00 -0.00000000000E+00 -0.22035570641E+04  0.22035570641E+04  0.00000000000E+00 0. -1.
          6    1    1    2  502    0 -0.25268594016E+03 -0.10537659964E+03 -0.16784748148E+04  0.17093320672E+04  0.17200000000E+03 0. -1.
         -6    1    1    2    0  501  0.25268594016E+03  0.10537659964E+03 -0.45837447620E+03  0.56093277007E+03  0.17200000000E+03 0.  1.
</event>
<event>
 4    1  0.3205520E-002  0.6396339E+03  0.7818608E-02  0.9826427E-01
         -2   -1    0    0    0  501 -0.00000000000E+00  0.00000000000E+00  0.54179310893E+03  0.54179310893E+03  0.00000000000E+00 0.  1.
          2   -1    0    0  502    0  0.00000000000E+00 -0.00000000000E+00 -0.12663567944E+04  0.12663567944E+04  0.00000000000E+00 0. -1.
          6    1    1    2  502    0 -0.56959302982E+03  0.23475807274E+03 -0.93669905157E+03  0.11342560053E+04  0.17200000000E+03 0. -1.
         -6    1    1    2    0  501  0.56959302982E+03 -0.23475807274E+03  0.21213536606E+03  0.67389389808E+03  0.17200000000E+03 0.  1.
</event>
<event>
 4    1  0.3205520E-002  0.2113198E+03  0.7818608E-02  0.1140525E+00
         -2   -1    0    0    0  501 -0.00000000000E+00  0.00000000000E+00  0.42830190710E+03  0.42830190710E+03  0.00000000000E+00 0.  1.
          2   -1    0    0  502    0  0.00000000000E+00 -0.00000000000E+00 -0.15537999684E+03  0.15537999684E+03  0.00000000000E+00 0. -1.
          6    1    1    2  502    0 -0.67446424594E+02 -0.10258189919E+03 -0.30929658579E+02  0.21357132301E+03  0.17200000000E+03 0. -1.
         -6    1    1    2    0  501  0.67446424594E+02  0.10258189919E+03  0.30385156883E+03  0.37011058093E+03  0.17200000000E+03 0.  1.
</event>
<event>
 4    1  0.3205520E-002  0.1751370E+03  0.7818608E-02  0.1172594E+00
         -2   -1    0    0    0  501 -0.00000000000E+00  0.00000000000E+00  0.25982825989E+03  0.25982825989E+03  0.00000000000E+00 0.  1.
          2   -1    0    0  502    0  0.00000000000E+00 -0.00000000000E+00 -0.13439399721E+03  0.13439399721E+03  0.00000000000E+00 0. -1.
          6    1    1    2  502    0  0.31739628877E+02 -0.90310734957E+01  0.13145375024E+03  0.21898185491E+03  0.17200000000E+03 0.  1.
         -6    1    1    2    0  501 -0.31739628877E+02  0.90310734957E+01 -0.60194875551E+01  0.17524040219E+03  0.17200000000E+03 0. -1.
</event>
<event>
 4    1  0.3205520E-002  0.2068451E+03  0.7818608E-02  0.1144089E+00
         -2   -1    0    0    0  501 -0.00000000000E+00  0.00000000000E+00  0.27325378475E+02  0.27325378475E+02  0.00000000000E+00 0.  1.
          2   -1    0    0  502    0  0.00000000000E+00 -0.00000000000E+00 -0.16787649134E+04  0.16787649134E+04  0.00000000000E+00 0. -1.
          6    1    1    2  502    0  0.52789101817E+01 -0.11477389815E+03 -0.10470448633E+04  0.10672805912E+04  0.17200000000E+03 0. -1.
         -6    1    1    2    0  501 -0.52789101817E+01  0.11477389815E+03 -0.60439467163E+03  0.63880970069E+03  0.17200000000E+03 0.  1.
</event>
<event>
 4    1  0.3205520E-002  0.1932542E+03  0.7818608E-02  0.1155559E+00
          2   -1    0    0  502    0  0.00000000000E+00  0.00000000000E+00  0.50906771295E+03  0.50906771295E+03  0.00000000000E+00 0. -1.
         -2   -1    0    0    0  501 -0.00000000000E+00 -0.00000000000E+00 -0.75603186259E+02  0.75603186259E+02  0.00000000000E+00 0.  1.
          6    1    1    2  502    0  0.63596386633E+02  0.60981119388E+02  0.26704354467E+03  0.32963533194E+03  0.17200000000E+03 0. -1.
         -6    1    1    2    0  501 -0.63596386633E+02 -0.60981119388E+02  0.16642098202E+03  0.25503556727E+03  0.17200000000E+03 0.  1.
</event>
<event>
 4    1  0.3205520E-002  0.3274434E+03  0.7818608E-02  0.1072274E+00
          2   -1    0    0  502    0  0.00000000000E+00  0.00000000000E+00  0.31708444049E+03  0.31708444049E+03  0.00000000000E+00 0. -1.
         -2   -1    0    0    0  501 -0.00000000000E+00 -0.00000000000E+00 -0.48520837085E+03  0.48520837085E+03  0.00000000000E+00 0.  1.
          6    1    1    2  502    0  0.22966859829E+03  0.15775783913E+03  0.13678790841E+03  0.35486635898E+03  0.17200000000E+03 0. -1.
         -6    1    1    2    0  501 -0.22966859829E+03 -0.15775783913E+03 -0.30491183877E+03  0.44742645236E+03  0.17200000000E+03 0.  1.
</event>
<event>
 4    1  0.3205520E-002  0.3598991E+03  0.7818608E-02  0.1058624E+00
          2   -1    0    0  502    0  0.00000000000E+00  0.00000000000E+00  0.20410077926E+04  0.20410077926E+04  0.00000000000E+00 0. -1.
         -2   -1    0    0    0  501 -0.00000000000E+00 -0.00000000000E+00 -0.69737635933E+02  0.69737635933E+02  0.00000000000E+00 0.  1.
          6    1    1    2  502    0  0.58359394496E+02 -0.31070488910E+03  0.13022166896E+04  0.13510350306E+04  0.17200000000E+03 0. -1.
         -6    1    1    2    0  501 -0.58359394496E+02  0.31070488910E+03  0.66905346702E+03  0.75971039796E+03  0.17200000000E+03 0.  1.
</event>
<event>
 4    1  0.3205520E-002  0.1743630E+03  0.7818608E-02  0.1173373E+00
         -2   -1    0    0    0  501 -0.00000000000E+00  0.00000000000E+00  0.56896856083E+02  0.56896856083E+02  0.00000000000E+00 0.  1.
          2   -1    0    0  502    0  0.00000000000E+00 -0.00000000000E+00 -0.53777990534E+03  0.53777990534E+03  0.00000000000E+00 0. -1.
          6    1    1    2  502    0 -0.21883663136E+02  0.18427474480E+02 -0.21667315325E+03  0.27811817968E+03  0.17200000000E+03 0.  1.
         -6    1    1    2    0  501  0.21883663136E+02 -0.18427474480E+02 -0.26420989601E+03  0.31655858175E+03  0.17200000000E+03 0. -1.
</event>
<event>
 4    1  0.3205520E-002  0.2683256E+03  0.7818608E-02  0.1102242E+00
          1   -1    0    0  502    0  0.00000000000E+00  0.00000000000E+00  0.16535898150E+04  0.16535898150E+04  0.00000000000E+00 0. -1.
         -1   -1    0    0    0  501 -0.00000000000E+00 -0.00000000000E+00 -0.59302229044E+02  0.59302229044E+02  0.00000000000E+00 0.  1.
          6    1    1    2  502    0 -0.17575629639E+03  0.10735152266E+03  0.12386758787E+04  0.12674054432E+04  0.17200000000E+03 0. -1.
         -6    1    1    2    0  501  0.17575629639E+03 -0.10735152266E+03  0.35561170726E+03  0.44548660079E+03  0.17200000000E+03 0.  1.
</event>
<event>
 4    1  0.3205520E-002  0.1999506E+03  0.7818608E-02  0.1149781E+00
          2   -1    0    0  502    0  0.00000000000E+00  0.00000000000E+00  0.12847057664E+04  0.12847057664E+04  0.00000000000E+00 0. -1.
         -2   -1    0    0    0  501 -0.00000000000E+00 -0.00000000000E+00 -0.31203218262E+02  0.31203218262E+02  0.00000000000E+00 0.  1.
          6    1    1    2  502    0  0.86547561299E+02 -0.53905041641E+02  0.66069959943E+03  0.69029283248E+03  0.17200000000E+03 0. -1.
         -6    1    1    2    0  501 -0.86547561299E+02  0.53905041641E+02  0.59280294872E+03  0.62561615220E+03  0.17200000000E+03 0.  1.
</event>
<event>
 4    1  0.3205520E-002  0.5622802E+03  0.7818608E-02  0.9986908E-01
         -1   -1    0    0    0  501 -0.00000000000E+00  0.00000000000E+00  0.76922265415E+03  0.76922265415E+03  0.00000000000E+00 0.  1.
          1   -1    0    0  502    0  0.00000000000E+00 -0.00000000000E+00 -0.12596363997E+04  0.12596363997E+04  0.00000000000E+00 0. -1.
          6    1    1    2  502    0 -0.32429958277E+03 -0.42591645436E+03 -0.10778468708E+04  0.12156944198E+04  0.17200000000E+03 0. -1.
         -6    1    1    2    0  501  0.32429958277E+03  0.42591645436E+03  0.58743312522E+03  0.81316463406E+03  0.17200000000E+03 0.  1.
</event>
<event>
 4    1  0.3205520E-002  0.2281200E+03  0.7818608E-02  0.1127970E+00
          2   -1    0    0  502    0  0.00000000000E+00  0.00000000000E+00  0.99274476138E+03  0.99274476138E+03  0.00000000000E+00 0. -1.
         -2   -1    0    0    0  501 -0.00000000000E+00 -0.00000000000E+00 -0.57591198928E+02  0.57591198928E+02  0.00000000000E+00 0.  1.
          6    1    1    2  502    0 -0.49201022951E+02  0.14154143372E+03  0.62495930323E+03  0.66529155174E+03  0.17200000000E+03 0. -1.
         -6    1    1    2    0  501  0.49201022951E+02 -0.14154143372E+03  0.31019425923E+03  0.38504440858E+03  0.17200000000E+03 0.  1.
</event>
<event>
 4    1  0.3205520E-002  0.3783584E+03  0.7818608E-02  0.1051542E+00
          1   -1    0    0  502    0  0.00000000000E+00  0.00000000000E+00  0.20788304039E+03  0.20788304039E+03  0.00000000000E+00 0. -1.
         -1   -1    0    0    0  501 -0.00000000000E+00 -0.00000000000E+00 -0.68888356756E+03  0.68888356756E+03  0.00000000000E+00 0.  1.
          6    1    1    2  502    0  0.29484872412E+03  0.16320332988E+03 -0.23194679799E+03  0.44379546426E+03  0.17200000000E+03 0. -1.
         -6    1    1    2    0  501 -0.29484872412E+03 -0.16320332988E+03 -0.24905372918E+03  0.45297114369E+03  0.17200000000E+03 0.  1.
</event>
<event>
 4    1  0.3205520E-002  0.1980653E+03  0.7818608E-02  0.1151382E+00
          2   -1    0    0  502    0  0.00000000000E+00  0.00000000000E+00  0.22366927788E+04  0.22366927788E+04  0.00000000000E+00 0. -1.
         -2   -1    0    0    0  501 -0.00000000000E+00 -0.00000000000E+00 -0.86846577692E+02  0.86846577692E+02  0.00000000000E+00 0.  1.
          6    1    1    2  502    0  0.76466128537E+02  0.61634382782E+02  0.21127700826E+04  0.21220337622E+04  0.17200000000E+03 0. -1.
         -6    1    1    2    0  501 -0.76466128537E+02 -0.61634382782E+02  0.37076118459E+02  0.20150559425E+03  0.17200000000E+03 0.  1.
</event>
<event>
 4    1  0.3205520E-002  0.2409126E+03  0.7818608E-02  0.1119186E+00
          1   -1    0    0  502    0  0.00000000000E+00  0.00000000000E+00  0.51198888674E+03  0.51198888674E+03  0.00000000000E+00 0. -1.
         -1   -1    0    0    0  501 -0.00000000000E+00 -0.00000000000E+00 -0.10885592519E+04  0.10885592519E+04  0.00000000000E+00 0.  1.
          6    1    1    2  502    0 -0.14214629230E+03  0.90825667602E+02  0.46917441127E+03  0.52741207656E+03  0.17200000000E+03 0. -1.
         -6    1    1    2    0  501  0.14214629230E+03 -0.90825667602E+02 -0.10457447764E+04  0.10731360621E+04  0.17200000000E+03 0.  1.
</event>
<event>
 4    1  0.3205520E-002  0.2047153E+03  0.7818608E-02  0.1145821E+00
          2   -1    0    0  502    0  0.00000000000E+00  0.00000000000E+00  0.14153223016E+04  0.14153223016E+04  0.00000000000E+00 0. -1.
         -2   -1    0    0    0  501 -0.00000000000E+00 -0.00000000000E+00 -0.67335066471E+02  0.67335066471E+02  0.00000000000E+00 0.  1.
          6    1    1    2  502    0  0.14989112959E+02 -0.10999857121E+03  0.12288779430E+04  0.12458127299E+04  0.17200000000E+03 0. -1.
         -6    1    1    2    0  501 -0.14989112959E+02  0.10999857121E+03  0.11910929219E+03  0.23684463823E+03  0.17200000000E+03 0.  1.
</event>
<event>
 4    1  0.3205520E-002  0.2173111E+03  0.7818608E-02  0.1135904E+00
          2   -1    0    0  502    0  0.00000000000E+00  0.00000000000E+00  0.32118095430E+03  0.32118095430E+03  0.00000000000E+00 0. -1.
         -2   -1    0    0    0  501 -0.00000000000E+00 -0.00000000000E+00 -0.24190175356E+03  0.24190175356E+03  0.00000000000E+00 0.  1.
          6    1    1    2  502    0  0.87169487961E+02 -0.10020775137E+03 -0.13667362816E+03  0.25671734203E+03  0.17200000000E+03 0.  1.
         -6    1    1    2    0  501 -0.87169487961E+02  0.10020775137E+03  0.21595282890E+03  0.30636536583E+03  0.17200000000E+03 0. -1.
</event>
<event>
 4    1  0.3205520E-002  0.1796965E+03  0.7818608E-02  0.1168097E+00
          2   -1    0    0  502    0  0.00000000000E+00  0.00000000000E+00  0.54087362731E+03  0.54087362731E+03  0.00000000000E+00 0. -1.
         -2   -1    0    0    0  501 -0.00000000000E+00 -0.00000000000E+00 -0.66114189747E+02  0.66114189747E+02  0.00000000000E+00 0.  1.
          6    1    1    2  502    0  0.41713886092E+02  0.31093431477E+02  0.14285833230E+03  0.22956339622E+03  0.17200000000E+03 0. -1.
         -6    1    1    2    0  501 -0.41713886092E+02 -0.31093431477E+02  0.33190110526E+03  0.37742442084E+03  0.17200000000E+03 0. -1.
</event>
<event>
 4    1  0.3205520E-002  0.2073431E+03  0.7818608E-02  0.1143687E+00
          1   -1    0    0  502    0  0.00000000000E+00  0.00000000000E+00  0.37897041107E+03  0.37897041107E+03  0.00000000000E+00 0. -1.
         -1   -1    0    0    0  501 -0.00000000000E+00 -0.00000000000E+00 -0.12858325431E+03  0.12858325431E+03  0.00000000000E+00 0.  1.
          6    1    1    2  502    0  0.79406599577E+02 -0.84271946556E+02  0.21227798627E+03  0.29673744706E+03  0.17200000000E+03 0. -1.
         -6    1    1    2    0  501 -0.79406599577E+02  0.84271946556E+02  0.38109170492E+02  0.21081621832E+03  0.17200000000E+03 0.  1.
</event>
<event>
 4    1  0.3205520E-002  0.1986235E+03  0.7818608E-02  0.1150906E+00
          2   -1    0    0  502    0  0.00000000000E+00  0.00000000000E+00  0.12297509094E+03  0.12297509094E+03  0.00000000000E+00 0. -1.
         -2   -1    0    0    0  501 -0.00000000000E+00 -0.00000000000E+00 -0.33046847508E+03  0.33046847508E+03  0.00000000000E+00 0.  1.
          6    1    1    2  502    0 -0.71461859947E+02  0.68996248354E+02 -0.64980943614E+02  0.20898278098E+03  0.17200000000E+03 0. -1.
         -6    1    1    2    0  501  0.71461859947E+02 -0.68996248354E+02 -0.14251244053E+03  0.24446078504E+03  0.17200000000E+03 0.  1.
</event>
<event>
 4    1  0.3205520E-002  0.1998608E+03  0.7818608E-02  0.1149856E+00
         -1   -1    0    0    0  501 -0.00000000000E+00  0.00000000000E+00  0.19072286425E+03  0.19072286425E+03  0.00000000000E+00 0.  1.
          1   -1    0    0  502    0  0.00000000000E+00 -0.00000000000E+00 -0.20948581669E+03  0.20948581669E+03  0.00000000000E+00 0. -1.
          6    1    1    2  502    0 -0.97568899103E+02  0.28994060186E+02 -0.63138935061E+01  0.19996052323E+03  0.17200000000E+03 0.  1.
         -6    1    1    2    0  501  0.97568899103E+02 -0.28994060186E+02 -0.12449058928E+02  0.20024815771E+03  0.17200000000E+03 0. -1.
</event>
<event>
 4    1  0.3205520E-002  0.2454358E+03  0.7818608E-02  0.1116224E+00
          2   -1    0    0  502    0  0.00000000000E+00  0.00000000000E+00  0.57001476004E+03  0.57001476004E+03  0.00000000000E+00 0. -1.
         -2   -1    0    0    0  501 -0.00000000000E+00 -0.00000000000E+00 -0.15603565109E+03  0.15603565109E+03  0.00000000000E+00 0.  1.
          6    1    1    2  502    0 -0.17085491760E+03  0.38253567999E+02  0.41321970459E+03  0.48061342324E+03  0.17200000000E+03 0. -1.
         -6    1    1    2    0  501  0.17085491760E+03 -0.38253567999E+02  0.75940435931E+00  0.24543698790E+03  0.17200000000E+03 0. -1.
</event>
<event>
 4    1  0.3205520E-002  0.2008136E+03  0.7818608E-02  0.1149054E+00
         -2   -1    0    0    0  501 -0.00000000000E+00  0.00000000000E+00  0.19689269381E+03  0.19689269381E+03  0.00000000000E+00 0.  1.
          2   -1    0    0  502    0  0.00000000000E+00 -0.00000000000E+00 -0.10474011194E+04  0.10474011194E+04  0.00000000000E+00 0. -1.
          6    1    1    2  502    0  0.47401292291E+02  0.92169437629E+02 -0.98326708835E+03  0.10035637771E+04  0.17200000000E+03 0. -1.
         -6    1    1    2    0  501 -0.47401292291E+02 -0.92169437629E+02  0.13275866275E+03  0.24073003609E+03  0.17200000000E+03 0.  1.
</event>
<event>
 4    1  0.3205520E-002  0.3022543E+03  0.7818608E-02  0.1084119E+00
          2   -1    0    0  502    0  0.00000000000E+00  0.00000000000E+00  0.16527078989E+04  0.16527078989E+04  0.00000000000E+00 0. -1.
         -2   -1    0    0    0  501 -0.00000000000E+00 -0.00000000000E+00 -0.13453270033E+03  0.13453270033E+03  0.00000000000E+00 0.  1.
          6    1    1    2  502    0  0.21618410691E+03 -0.12262979874E+03  0.14449750488E+04  0.14762488026E+04  0.17200000000E+03 0. -1.
         -6    1    1    2    0  501 -0.21618410691E+03  0.12262979874E+03  0.73200149771E+02  0.31099179659E+03  0.17200000000E+03 0.  1.
</event>
<event>
 4    1  0.3205520E-002  0.1898277E+03  0.7818608E-02  0.1158617E+00
          1   -1    0    0  502    0  0.00000000000E+00  0.00000000000E+00  0.81585003460E+02  0.81585003460E+02  0.00000000000E+00 0. -1.
         -1   -1    0    0    0  501 -0.00000000000E+00 -0.00000000000E+00 -0.50930390540E+03  0.50930390540E+03  0.00000000000E+00 0.  1.
          6    1    1    2  502    0  0.67018372379E+02 -0.44261627747E+02 -0.32151438447E+03  0.37337120048E+03  0.17200000000E+03 0.  1.
         -6    1    1    2    0  501 -0.67018372379E+02  0.44261627747E+02 -0.10620451747E+03  0.21751770838E+03  0.17200000000E+03 0. -1.
</event>
<event>
 4    1  0.3205520E-002  0.1774079E+03  0.7818608E-02  0.1170336E+00
          3   -1    0    0  502    0  0.00000000000E+00  0.00000000000E+00  0.25359451766E+04  0.25359451766E+04  0.00000000000E+00 0. -1.
         -3   -1    0    0    0  501 -0.00000000000E+00 -0.00000000000E+00 -0.22120459238E+02  0.22120459238E+02  0.00000000000E+00 0.  1.
          6    1    1    2  502    0  0.30111955871E+02  0.31349910515E+02  0.21043012115E+04  0.21117663543E+04  0.17200000000E+03 0. -1.
         -6    1    1    2    0  501 -0.30111955871E+02 -0.31349910515E+02  0.40952350587E+03  0.44629928146E+03  0.17200000000E+03 0.  1.
</event>
<event>
 4    1  0.3205520E-002  0.1887511E+03  0.7818608E-02  0.1159593E+00
         -2   -1    0    0    0  501 -0.00000000000E+00  0.00000000000E+00  0.33356895605E+02  0.33356895605E+02  0.00000000000E+00 0.  1.
          2   -1    0    0  502    0  0.00000000000E+00 -0.00000000000E+00 -0.11019171596E+04  0.11019171596E+04  0.00000000000E+00 0. -1.
          6    1    1    2  502    0 -0.65282801283E+02 -0.42203281732E+02 -0.63378879164E+03  0.66129811245E+03  0.17200000000E+03 0. -1.
         -6    1    1    2    0  501  0.65282801283E+02  0.42203281732E+02 -0.43477147239E+03  0.47397594278E+03  0.17200000000E+03 0.  1.
</event>
<event>
 4    1  0.3205520E-002  0.2037857E+03  0.7818608E-02  0.1146584E+00
         -1   -1    0    0    0  501 -0.00000000000E+00  0.00000000000E+00  0.22909821124E+03  0.22909821124E+03  0.00000000000E+00 0.  1.
          1   -1    0    0  502    0  0.00000000000E+00 -0.00000000000E+00 -0.24999580583E+03  0.24999580583E+03  0.00000000000E+00 0. -1.
          6    1    1    2  502    0 -0.10849352495E+03  0.13182216276E+02  0.11514972935E+03  0.23406852833E+03  0.17200000000E+03 0.  1.
         -6    1    1    2    0  501  0.10849352495E+03 -0.13182216276E+02 -0.13604732395E+03  0.24502548875E+03  0.17200000000E+03 0. -1.
</event>
<event>
 4    1  0.3205520E-002  0.3376271E+03  0.7818608E-02  0.1067811E+00
         -1   -1    0    0    0  501 -0.00000000000E+00  0.00000000000E+00  0.65527023631E+03  0.65527023631E+03  0.00000000000E+00 0.  1.
          1   -1    0    0  502    0  0.00000000000E+00 -0.00000000000E+00 -0.22004123055E+03  0.22004123055E+03  0.00000000000E+00 0. -1.
          6    1    1    2  502    0 -0.29051645632E+03  0.28754217454E+01  0.17336387179E+02  0.33807192987E+03  0.17200000000E+03 0. -1.
         -6    1    1    2    0  501  0.29051645632E+03 -0.28754217454E+01  0.41789261858E+03  0.53723953699E+03  0.17200000000E+03 0.  1.
</event>
<event>
 4    1  0.3205520E-002  0.1768570E+03  0.7818608E-02  0.1170880E+00
          2   -1    0    0  502    0  0.00000000000E+00  0.00000000000E+00  0.12079155394E+03  0.12079155394E+03  0.00000000000E+00 0. -1.
         -2   -1    0    0    0  501 -0.00000000000E+00 -0.00000000000E+00 -0.30412830000E+03  0.30412830000E+03  0.00000000000E+00 0.  1.
          6    1    1    2  502    0  0.10946177595E+02  0.39681099008E+02 -0.97774034817E+01  0.17712709008E+03  0.17200000000E+03 0. -1.
         -6    1    1    2    0  501 -0.10946177595E+02 -0.39681099008E+02 -0.17355934258E+03  0.24779276386E+03  0.17200000000E+03 0.  1.
</event>
<event>
 4    1  0.3205520E-002  0.6475158E+03  0.7818608E-02  0.9811452E-01
         -2   -1    0    0    0  501 -0.00000000000E+00  0.00000000000E+00  0.15602447771E+04  0.15602447771E+04  0.00000000000E+00 0.  1.
          2   -1    0    0  502    0  0.00000000000E+00 -0.00000000000E+00 -0.33326253423E+03  0.33326253423E+03  0.00000000000E+00 0. -1.
          6    1    1    2  502    0  0.57642527302E+03 -0.23963853325E+03  0.19686159135E+03  0.67678002936E+03  0.17200000000E+03 0. -1.
         -6    1    1    2    0  501 -0.57642527302E+03  0.23963853325E+03  0.10301206515E+04  0.12167272820E+04  0.17200000000E+03 0.  1.
</event>
<event>
 4    1  0.3205520E-002  0.2498272E+03  0.7818608E-02  0.1113414E+00
          2   -1    0    0  502    0  0.00000000000E+00  0.00000000000E+00  0.28602970556E+04  0.28602970556E+04  0.00000000000E+00 0. -1.
         -2   -1    0    0    0  501 -0.00000000000E+00 -0.00000000000E+00 -0.11593967489E+03  0.11593967489E+03  0.00000000000E+00 0.  1.
          6    1    1    2  502    0  0.53694234237E+02 -0.17305078396E+03  0.27129665325E+04  0.27244450905E+04  0.17200000000E+03 0. -1.
         -6    1    1    2    0  501 -0.53694234237E+02  0.17305078396E+03  0.31390848200E+02  0.25179163999E+03  0.17200000000E+03 0.  1.
</event>
<event>
 4    1  0.3205520E-002  0.1833750E+03  0.7818608E-02  0.1164576E+00
          2   -1    0    0  502    0  0.00000000000E+00  0.00000000000E+00  0.76498614173E+03  0.76498614173E+03  0.00000000000E+00 0. -1.
         -2   -1    0    0    0  501 -0.00000000000E+00 -0.00000000000E+00 -0.59643891315E+02  0.59643891315E+02  0.00000000000E+00 0.  1.
          6    1    1    2  502    0  0.59312541424E+02  0.22900360555E+02  0.56412530344E+03  0.59318105336E+03  0.17200000000E+03 0. -1.
         -6    1    1    2    0  501 -0.59312541424E+02 -0.22900360555E+02  0.14121694697E+03  0.23144897968E+03  0.17200000000E+03 0.  1.
</event>
<event>
 4    1  0.3205520E-002  0.1980535E+03  0.7818608E-02  0.1151392E+00
          2   -1    0    0  502    0  0.00000000000E+00  0.00000000000E+00  0.70899875712E+03  0.70899875712E+03  0.00000000000E+00 0. -1.
         -2   -1    0    0    0  501 -0.00000000000E+00 -0.00000000000E+00 -0.13810924277E+03  0.13810924277E+03  0.00000000000E+00 0.  1.
          6    1    1    2  502    0 -0.85462026912E+02  0.48346874454E+02  0.61336778400E+03  0.64455039893E+03  0.17200000000E+03 0. -1.
         -6    1    1    2    0  501  0.85462026912E+02 -0.48346874454E+02 -0.42478269646E+02  0.20255760096E+03  0.17200000000E+03 0.  1.
</event>
<event>
 4    1  0.3205520E-002  0.1948873E+03  0.7818608E-02  0.1154126E+00
          2   -1    0    0  502    0  0.00000000000E+00  0.00000000000E+00  0.22363227325E+03  0.22363227325E+03  0.00000000000E+00 0. -1.
         -2   -1    0    0    0  501 -0.00000000000E+00 -0.00000000000E+00 -0.21827618918E+03  0.21827618918E+03  0.00000000000E+00 0.  1.
          6    1    1    2  502    0  0.60999289639E+02  0.68382347779E+02  0.10676518401E+03  0.22221580353E+03  0.17200000000E+03 0. -1.
         -6    1    1    2    0  501 -0.60999289639E+02 -0.68382347779E+02 -0.10140909994E+03  0.21969265890E+03  0.17200000000E+03 0.  1.
</event>
<event>
 4    1  0.3205520E-002  0.1791702E+03  0.7818608E-02  0.1168609E+00
          2   -1    0    0  502    0  0.00000000000E+00  0.00000000000E+00  0.20422115800E+03  0.20422115800E+03  0.00000000000E+00 0. -1.
         -2   -1    0    0    0  501 -0.00000000000E+00 -0.00000000000E+00 -0.16435564639E+03  0.16435564639E+03  0.00000000000E+00 0.  1.
          6    1    1    2  502    0  0.23752311242E+02 -0.44201807822E+02 -0.18541200508E+02  0.18012703356E+03  0.17200000000E+03 0.  1.
         -6    1    1    2    0  501 -0.23752311242E+02  0.44201807822E+02  0.58406712116E+02  0.18844977083E+03  0.17200000000E+03 0.  1.
</event>
<event>
 4    1  0.3205520E-002  0.3286746E+03  0.7818608E-02  0.1071725E+00
         -1   -1    0    0    0  501 -0.00000000000E+00  0.00000000000E+00  0.70815139711E+03  0.70815139711E+03  0.00000000000E+00 0.  1.
          1   -1    0    0  502    0  0.00000000000E+00 -0.00000000000E+00 -0.22170900582E+03  0.22170900582E+03  0.00000000000E+00 0. -1.
          6    1    1    2  502    0 -0.42149201334E+02 -0.27688707413E+03 -0.16451963930E+02  0.32908611960E+03  0.17200000000E+03 0. -1.
         -6    1    1    2    0  501  0.42149201334E+02  0.27688707413E+03  0.50289435523E+03  0.60077428333E+03  0.17200000000E+03 0.  1.
</event>
<event>
 4    1  0.3205520E-002  0.2674510E+03  0.7818608E-02  0.1102747E+00
          2   -1    0    0  502    0  0.00000000000E+00  0.00000000000E+00  0.90558904329E+03  0.90558904329E+03  0.00000000000E+00 0. -1.
         -2   -1    0    0    0  501 -0.00000000000E+00 -0.00000000000E+00 -0.78988609420E+02  0.78988609420E+02  0.00000000000E+00 0.  1.
          6    1    1    2  502    0  0.48169020214E+02 -0.19906230210E+03  0.41528659859E+03  0.49395648958E+03  0.17200000000E+03 0.  1.
         -6    1    1    2    0  501 -0.48169020214E+02  0.19906230210E+03  0.41131383527E+03  0.49062116313E+03  0.17200000000E+03 0. -1.
</event>
<event>
 4    1  0.3205520E-002  0.1982296E+03  0.7818608E-02  0.1151241E+00
          2   -1    0    0  502    0  0.00000000000E+00  0.00000000000E+00  0.38463252347E+03  0.38463252347E+03  0.00000000000E+00 0. -1.
         -2   -1    0    0    0  501 -0.00000000000E+00 -0.00000000000E+00 -0.10380149590E+03  0.10380149590E+03  0.00000000000E+00 0.  1.
          6    1    1    2  502    0  0.82271744389E+02  0.54243148052E+02  0.17110460988E+03  0.26186207545E+03  0.17200000000E+03 0. -1.
         -6    1    1    2    0  501 -0.82271744389E+02 -0.54243148052E+02  0.10972641768E+03  0.22657194392E+03  0.17200000000E+03 0. -1.
</event>
<event>
 4    1  0.3205520E-002  0.1914460E+03  0.7818608E-02  0.1157164E+00
         -1   -1    0    0    0  501 -0.00000000000E+00  0.00000000000E+00  0.14286156782E+02  0.14286156782E+02  0.00000000000E+00 0.  1.
          1   -1    0    0  502    0  0.00000000000E+00 -0.00000000000E+00 -0.27147926035E+04  0.27147926035E+04  0.00000000000E+00 0. -1.
          6    1    1    2  502    0  0.28095408006E+01 -0.84021789233E+02 -0.16702121201E+04  0.16811484410E+04  0.17200000000E+03 0. -1.
         -6    1    1    2    0  501 -0.28095408006E+01  0.84021789233E+02 -0.10302943266E+04  0.10479303192E+04  0.17200000000E+03 0.  1.
</event>
<event>
 4    1  0.3205520E-002  0.2881266E+03  0.7818608E-02  0.1091331E+00
         -2   -1    0    0    0  501 -0.00000000000E+00  0.00000000000E+00  0.87724147786E+02  0.87724147786E+02  0.00000000000E+00 0.  1.
          2   -1    0    0  502    0  0.00000000000E+00 -0.00000000000E+00 -0.11710383523E+04  0.11710383523E+04  0.00000000000E+00 0. -1.
          6    1    1    2  502    0  0.22041196647E+03 -0.69652559600E+02 -0.26596285731E+03  0.39211370225E+03  0.17200000000E+03 0.  1.
         -6    1    1    2    0  501 -0.22041196647E+03  0.69652559600E+02 -0.81735134723E+03  0.86664879786E+03  0.17200000000E+03 0. -1.
</event>
<event>
 4    1  0.3205520E-002  0.3026038E+03  0.7818608E-02  0.1083946E+00
          2   -1    0    0  502    0  0.00000000000E+00  0.00000000000E+00  0.43088251081E+03  0.43088251081E+03  0.00000000000E+00 0. -1.
         -2   -1    0    0    0  501 -0.00000000000E+00 -0.00000000000E+00 -0.21259315008E+03  0.21259315008E+03  0.00000000000E+00 0.  1.
          6    1    1    2  502    0 -0.24834422890E+03  0.17613179972E+02  0.11530572080E+03  0.32382786999E+03  0.17200000000E+03 0. -1.
         -6    1    1    2    0  501  0.24834422890E+03 -0.17613179972E+02  0.10298363994E+03  0.31964779090E+03  0.17200000000E+03 0.  1.
</event>
<event>
 4    1  0.3205520E-002  0.7337857E+03  0.7818608E-02  0.9661137E-01
         -1   -1    0    0    0  501 -0.00000000000E+00  0.00000000000E+00  0.30843297847E+03  0.30843297847E+03  0.00000000000E+00 0.  1.
          1   -1    0    0  502    0  0.00000000000E+00 -0.00000000000E+00 -0.18976306466E+04  0.18976306466E+04  0.00000000000E+00 0. -1.
          6    1    1    2  502    0  0.71133543912E+03 -0.53472206734E+02 -0.11066737437E+04  0.13278434240E+04  0.17200000000E+03 0.  1.
         -6    1    1    2    0  501 -0.71133543912E+03  0.53472206734E+02 -0.48252392450E+03  0.87822020106E+03  0.17200000000E+03 0.  1.
</event>
<event>
 4    1  0.3205520E-002  0.2358273E+03  0.7818608E-02  0.1122604E+00
         -2   -1    0    0    0  501 -0.00000000000E+00  0.00000000000E+00  0.13437509261E+03  0.13437509261E+03  0.00000000000E+00 0.  1.
          2   -1    0    0  502    0  0.00000000000E+00 -0.00000000000E+00 -0.41536221714E+03  0.41536221714E+03  0.00000000000E+00 0. -1.
          6    1    1    2  502    0  0.24293637032E+02 -0.15950025944E+03 -0.15694011540E+03  0.28327497839E+03  0.17200000000E+03 0. -1.
         -6    1    1    2    0  501 -0.24293637032E+02  0.15950025944E+03 -0.12404700914E+03  0.26646233137E+03  0.17200000000E+03 0. -1.
</event>
<event>
 4    1  0.3205520E-002  0.1822763E+03  0.7818608E-02  0.1165618E+00
          1   -1    0    0  502    0  0.00000000000E+00  0.00000000000E+00  0.91172913636E+03  0.91172913636E+03  0.00000000000E+00 0. -1.
         -1   -1    0    0    0  501 -0.00000000000E+00 -0.00000000000E+00 -0.17485988984E+03  0.17485988984E+03  0.00000000000E+00 0.  1.
          6    1    1    2  502    0 -0.27499735695E+02  0.53706840745E+02  0.85181310887E+03  0.87109714306E+03  0.17200000000E+03 0. -1.
         -6    1    1    2    0  501  0.27499735695E+02 -0.53706840745E+02 -0.11494386235E+03  0.21549188314E+03  0.17200000000E+03 0.  1.
</event>
<event>
 4    1  0.3205520E-002  0.4565537E+03  0.7818608E-02  0.1025786E+00
         -2   -1    0    0    0  501 -0.00000000000E+00  0.00000000000E+00  0.13343442641E+03  0.13343442641E+03  0.00000000000E+00 0.  1.
          2   -1    0    0  502    0  0.00000000000E+00 -0.00000000000E+00 -0.25975654208E+04  0.25975654208E+04  0.00000000000E+00 0. -1.
          6    1    1    2  502    0 -0.25908562505E+03 -0.33426322549E+03 -0.20941919524E+04  0.21433807871E+04  0.17200000000E+03 0. -1.
         -6    1    1    2    0  501  0.25908562505E+03  0.33426322549E+03 -0.36993904201E+03  0.58761906013E+03  0.17200000000E+03 0.  1.
</event>
<event>
 4    1  0.3205520E-002  0.1800693E+03  0.7818608E-02  0.1167736E+00
         -2   -1    0    0    0  501 -0.00000000000E+00  0.00000000000E+00  0.10355581045E+03  0.10355581045E+03  0.00000000000E+00 0.  1.
          2   -1    0    0  502    0  0.00000000000E+00 -0.00000000000E+00 -0.61024262044E+03  0.61024262044E+03  0.00000000000E+00 0. -1.
          6    1    1    2  502    0  0.20134189786E+02  0.49351521846E+02 -0.50238120316E+03  0.53367764765E+03  0.17200000000E+03 0. -1.
         -6    1    1    2    0  501 -0.20134189786E+02 -0.49351521846E+02 -0.43056068211E+01  0.18012078325E+03  0.17200000000E+03 0.  1.
</event>
<event>
 4    1  0.3205520E-002  0.3057640E+03  0.7818608E-02  0.1082394E+00
          2   -1    0    0  502    0  0.00000000000E+00  0.00000000000E+00  0.53833303552E+03  0.53833303552E+03  0.00000000000E+00 0. -1.
         -2   -1    0    0    0  501 -0.00000000000E+00 -0.00000000000E+00 -0.25026340815E+03  0.25026340815E+03  0.00000000000E+00 0.  1.
          6    1    1    2  502    0  0.44500273353E+02  0.24885205005E+03  0.36216984958E+03  0.47398166323E+03  0.17200000000E+03 0. -1.
         -6    1    1    2    0  501 -0.44500273353E+02 -0.24885205005E+03 -0.74100222206E+02  0.31461478044E+03  0.17200000000E+03 0.  1.
</event>
<event>
 4    1  0.3205520E-002  0.2794376E+03  0.7818608E-02  0.1095996E+00
         -2   -1    0    0    0  501 -0.00000000000E+00  0.00000000000E+00  0.11981722439E+03  0.11981722439E+03  0.00000000000E+00 0.  1.
          2   -1    0    0  502    0  0.00000000000E+00 -0.00000000000E+00 -0.65539803705E+03  0.65539803705E+03  0.00000000000E+00 0. -1.
          6    1    1    2  502    0  0.20186970919E+03 -0.88034113409E+02 -0.23869124599E+03  0.36750359934E+03  0.17200000000E+03 0.  1.
         -6    1    1    2    0  501 -0.20186970919E+03  0.88034113409E+02 -0.29688956667E+03  0.40771166210E+03  0.17200000000E+03 0.  1.
</event>
<event>
 4    1  0.3205520E-002  0.2794897E+03  0.7818608E-02  0.1095968E+00
          1   -1    0    0  502    0  0.00000000000E+00  0.00000000000E+00  0.44314021795E+03  0.44314021795E+03  0.00000000000E+00 0. -1.
         -1   -1    0    0    0  501 -0.00000000000E+00 -0.00000000000E+00 -0.17806611707E+03  0.17806611707E+03  0.00000000000E+00 0.  1.
          6    1    1    2  502    0 -0.17642468994E+03 -0.13192722742E+03  0.16368994370E+03  0.32389637575E+03  0.17200000000E+03 0. -1.
         -6    1    1    2    0  501  0.17642468994E+03  0.13192722742E+03  0.10138415718E+03  0.29730995927E+03  0.17200000000E+03 0.  1.
</event>
<event>
 4    1  0.3205520E-002  0.2854731E+03  0.7818608E-02  0.1092737E+00
         -1   -1    0    0    0  501 -0.00000000000E+00  0.00000000000E+00  0.25291127849E+02  0.25291127849E+02  0.00000000000E+00 0.  1.
          1   -1    0    0  502    0  0.00000000000E+00 -0.00000000000E+00 -0.36263245385E+04  0.36263245385E+04  0.00000000000E+00 0. -1.
          6    1    1    2  502    0 -0.14223422084E+03 -0.17798960258E+03 -0.11910624753E+04  0.12247957757E+04  0.17200000000E+03 0.  1.
         -6    1    1    2    0  501  0.14223422084E+03  0.17798960258E+03 -0.24099709354E+04  0.24268198907E+04  0.17200000000E+03 0.  1.
</event>
<event>
 4    1  0.3205520E-002  0.2494077E+03  0.7818608E-02  0.1113680E+00
         -2   -1    0    0    0  501 -0.00000000000E+00  0.00000000000E+00  0.88451514400E+02  0.88451514400E+02  0.00000000000E+00 0.  1.
          2   -1    0    0  502    0  0.00000000000E+00 -0.00000000000E+00 -0.19932505767E+04  0.19932505767E+04  0.00000000000E+00 0. -1.
          6    1    1    2  502    0  0.18001463067E+03  0.14660336072E+02 -0.17897385319E+04  0.18070329840E+04  0.17200000000E+03 0. -1.
         -6    1    1    2    0  501 -0.18001463067E+03 -0.14660336072E+02 -0.11506053031E+03  0.27466910701E+03  0.17200000000E+03 0.  1.
</event>
<event>
 4    1  0.3205520E-002  0.1970134E+03  0.7818608E-02  0.1152284E+00
          1   -1    0    0  502    0  0.00000000000E+00  0.00000000000E+00  0.53314171216E+03  0.53314171216E+03  0.00000000000E+00 0. -1.
         -1   -1    0    0    0  501 -0.00000000000E+00 -0.00000000000E+00 -0.89360294506E+02  0.89360294506E+02  0.00000000000E+00 0.  1.
          6    1    1    2  502    0 -0.89246745998E+02 -0.35570955347E+02  0.35586891938E+03  0.40676401305E+03  0.17200000000E+03 0. -1.
         -6    1    1    2    0  501  0.89246745998E+02  0.35570955347E+02  0.87912498275E+02  0.21573799361E+03  0.17200000000E+03 0.  1.
</event>
<event>
 4    1  0.3205520E-002  0.2699925E+03  0.7818608E-02  0.1101284E+00
         -2   -1    0    0    0  501 -0.00000000000E+00  0.00000000000E+00  0.41142209378E+03  0.41142209378E+03  0.00000000000E+00 0.  1.
          2   -1    0    0  502    0  0.00000000000E+00 -0.00000000000E+00 -0.38900536886E+03  0.38900536886E+03  0.00000000000E+00 0. -1.
          6    1    1    2  502    0 -0.20580177063E+03  0.30945203190E+02 -0.28411829865E+03  0.39194283004E+03  0.17200000000E+03 0. -1.
         -6    1    1    2    0  501  0.20580177063E+03 -0.30945203190E+02  0.30653502357E+03  0.40848463260E+03  0.17200000000E+03 0.  1.
</event>
<event>
 4    1  0.3205520E-002  0.2332660E+03  0.7818608E-02  0.1124362E+00
         -1   -1    0    0    0  501 -0.00000000000E+00  0.00000000000E+00  0.40760525293E+03  0.40760525293E+03  0.00000000000E+00 0.  1.
          1   -1    0    0  502    0  0.00000000000E+00 -0.00000000000E+00 -0.32814835560E+03  0.32814835560E+03  0.00000000000E+00 0. -1.
          6    1    1    2  502    0  0.24184036812E+02 -0.15570538255E+03 -0.24360566323E+03  0.33727845017E+03  0.17200000000E+03 0. -1.
         -6    1    1    2    0  501 -0.24184036812E+02  0.15570538255E+03  0.32306256056E+03  0.39847515835E+03  0.17200000000E+03 0.  1.
</event>
<event>
 4    1  0.3205520E-002  0.3580528E+03  0.7818608E-02  0.1059358E+00
          2   -1    0    0  502    0  0.00000000000E+00  0.00000000000E+00  0.99412357758E+03  0.99412357758E+03  0.00000000000E+00 0. -1.
         -2   -1    0    0    0  501 -0.00000000000E+00 -0.00000000000E+00 -0.13030041238E+03  0.13030041238E+03  0.00000000000E+00 0.  1.
          6    1    1    2  502    0 -0.26486682876E+03  0.16871093183E+03  0.37488133486E+03  0.51839929661E+03  0.17200000000E+03 0. -1.
         -6    1    1    2    0  501  0.26486682876E+03 -0.16871093183E+03  0.48894183034E+03  0.60602469335E+03  0.17200000000E+03 0.  1.
</event>
<event>
 4    1  0.3205520E-002  0.2098236E+03  0.7818608E-02  0.1141706E+00
         -1   -1    0    0    0  501 -0.00000000000E+00  0.00000000000E+00  0.12426344908E+02  0.12426344908E+02  0.00000000000E+00 0.  1.
          1   -1    0    0  502    0  0.00000000000E+00 -0.00000000000E+00 -0.37513342951E+04  0.37513342951E+04  0.00000000000E+00 0. -1.
          6    1    1    2  502    0  0.11790776179E+03  0.23231087554E+02 -0.23129923367E+04  0.23224899296E+04  0.17200000000E+03 0. -1.
         -6    1    1    2    0  501 -0.11790776179E+03 -0.23231087554E+02 -0.14259156135E+04  0.14412707104E+04  0.17200000000E+03 0. -1.
</event>
<event>
 4    1  0.3205520E-002  0.3308306E+03  0.7818608E-02  0.1070770E+00
         -2   -1    0    0    0  501 -0.00000000000E+00  0.00000000000E+00  0.73463624636E+03  0.73463624636E+03  0.00000000000E+00 0.  1.
          2   -1    0    0  502    0  0.00000000000E+00 -0.00000000000E+00 -0.22236851322E+03  0.22236851322E+03  0.00000000000E+00 0. -1.
          6    1    1    2  502    0 -0.21575594523E+03 -0.18252196732E+03 -0.18750644448E+02  0.33136155951E+03  0.17200000000E+03 0. -1.
         -6    1    1    2    0  501  0.21575594523E+03  0.18252196732E+03  0.53101837759E+03  0.62564320007E+03  0.17200000000E+03 0.  1.
</event>
<event>
 4    1  0.3205520E-002  0.1934856E+03  0.7818608E-02  0.1155355E+00
         -1   -1    0    0    0  501 -0.00000000000E+00  0.00000000000E+00  0.35150141485E+03  0.35150141485E+03  0.00000000000E+00 0.  1.
          1   -1    0    0  502    0  0.00000000000E+00 -0.00000000000E+00 -0.15545337541E+03  0.15545337541E+03  0.00000000000E+00 0. -1.
          6    1    1    2  502    0 -0.19787513675E+02  0.86377895811E+02  0.24025949882E+03  0.30848227397E+03  0.17200000000E+03 0. -1.
         -6    1    1    2    0  501  0.19787513675E+02 -0.86377895811E+02 -0.44211459377E+02  0.19847251629E+03  0.17200000000E+03 0. -1.
</event>
<event>
 4    1  0.3205520E-002  0.2756495E+03  0.7818608E-02  0.1098089E+00
         -2   -1    0    0    0  501 -0.00000000000E+00  0.00000000000E+00  0.41811225609E+03  0.41811225609E+03  0.00000000000E+00 0.  1.
          2   -1    0    0  502    0  0.00000000000E+00 -0.00000000000E+00 -0.29718968259E+03  0.29718968259E+03  0.00000000000E+00 0. -1.
          6    1    1    2  502    0  0.15150789558E+03 -0.15311426757E+03 -0.16246529431E+03  0.31996498748E+03  0.17200000000E+03 0. -1.
         -6    1    1    2    0  501 -0.15150789558E+03  0.15311426757E+03  0.28338786781E+03  0.39533695120E+03  0.17200000000E+03 0.  1.
</event>
<event>
 4    1  0.3205520E-002  0.1805483E+03  0.7818608E-02  0.1167273E+00
          1   -1    0    0  502    0  0.00000000000E+00  0.00000000000E+00  0.52095937946E+03  0.52095937946E+03  0.00000000000E+00 0. -1.
         -1   -1    0    0    0  501 -0.00000000000E+00 -0.00000000000E+00 -0.62848360985E+02  0.62848360985E+02  0.00000000000E+00 0.  1.
          6    1    1    2  502    0  0.54784944361E+02 -0.35072315167E+01  0.20971364184E+03  0.27672640347E+03  0.17200000000E+03 0.  1.
         -6    1    1    2    0  501 -0.54784944361E+02  0.35072315167E+01  0.24839737664E+03  0.30708133698E+03  0.17200000000E+03 0. -1.
</event>
<event>
 4    1  0.3205520E-002  0.2641698E+03  0.7818608E-02  0.1104663E+00
          1   -1    0    0  502    0  0.00000000000E+00  0.00000000000E+00  0.92090881149E+03  0.92090881149E+03  0.00000000000E+00 0. -1.
         -1   -1    0    0    0  501 -0.00000000000E+00 -0.00000000000E+00 -0.76018803106E+02  0.76018803106E+02  0.00000000000E+00 0.  1.
          6    1    1    2  502    0 -0.10325146666E+03  0.17187447282E+03  0.45043172664E+03  0.52218238206E+03  0.17200000000E+03 0.  1.
         -6    1    1    2    0  501  0.10325146666E+03 -0.17187447282E+03  0.39445828174E+03  0.47474523253E+03  0.17200000000E+03 0.  1.
</event>
<event>
 4    1  0.3205520E-002  0.3290673E+03  0.7818608E-02  0.1071550E+00
         -1   -1    0    0    0  501 -0.00000000000E+00  0.00000000000E+00  0.95716247123E+03  0.95716247123E+03  0.00000000000E+00 0.  1.
          1   -1    0    0  502    0  0.00000000000E+00 -0.00000000000E+00 -0.12901228512E+03  0.12901228512E+03  0.00000000000E+00 0. -1.
          6    1    1    2  502    0  0.19312419795E+03 -0.20348050435E+03  0.22353362269E+03  0.39780969314E+03  0.17200000000E+03 0. -1.
         -6    1    1    2    0  501 -0.19312419795E+03  0.20348050435E+03  0.60461656343E+03  0.68836506321E+03  0.17200000000E+03 0.  1.
</event>
<event>
 4    1  0.3205520E-002  0.2218881E+03  0.7818608E-02  0.1132483E+00
         -1   -1    0    0    0  501 -0.00000000000E+00  0.00000000000E+00  0.42041285479E+02  0.42041285479E+02  0.00000000000E+00 0.  1.
          1   -1    0    0  502    0  0.00000000000E+00 -0.00000000000E+00 -0.19105502435E+04  0.19105502435E+04  0.00000000000E+00 0. -1.
          6    1    1    2  502    0  0.10846669343E+03 -0.88799280809E+02 -0.15416312012E+04  0.15575176071E+04  0.17200000000E+03 0. -1.
         -6    1    1    2    0  501 -0.10846669343E+03  0.88799280809E+02 -0.32687775680E+03  0.39507392188E+03  0.17200000000E+03 0.  1.
</event>
<event>
 4    1  0.3205520E-002  0.1729518E+03  0.7818608E-02  0.1174804E+00
          3   -1    0    0  502    0  0.00000000000E+00  0.00000000000E+00  0.14473848048E+03  0.14473848048E+03  0.00000000000E+00 0. -1.
         -3   -1    0    0    0  501 -0.00000000000E+00 -0.00000000000E+00 -0.25802199354E+03  0.25802199354E+03  0.00000000000E+00 0.  1.
          6    1    1    2  502    0  0.17977428128E+02 -0.22654062366E+01  0.33202429250E+02  0.17610996932E+03  0.17200000000E+03 0. -1.
         -6    1    1    2    0  501 -0.17977428128E+02  0.22654062366E+01 -0.14648594231E+03  0.22665050470E+03  0.17200000000E+03 0.  1.
</event>
<event>
 4    1  0.3205520E-002  0.1737586E+03  0.7818608E-02  0.1173984E+00
          2   -1    0    0  502    0  0.00000000000E+00  0.00000000000E+00  0.32944969798E+02  0.32944969798E+02  0.00000000000E+00 0. -1.
         -2   -1    0    0    0  501 -0.00000000000E+00 -0.00000000000E+00 -0.13227679584E+04  0.13227679584E+04  0.00000000000E+00 0.  1.
          6    1    1    2  502    0  0.21154832598E+02  0.12670282603E+02 -0.10206058489E+04  0.10352914381E+04  0.17200000000E+03 0.  1.
         -6    1    1    2    0  501 -0.21154832598E+02 -0.12670282603E+02 -0.26921713969E+03  0.32042149008E+03  0.17200000000E+03 0. -1.
</event>
<event>
 4    1  0.3205520E-002  0.2123034E+03  0.7818608E-02  0.1139755E+00
         -1   -1    0    0    0  501 -0.00000000000E+00  0.00000000000E+00  0.36487255206E+02  0.36487255206E+02  0.00000000000E+00 0.  1.
          1   -1    0    0  502    0  0.00000000000E+00 -0.00000000000E+00 -0.13728553970E+04  0.13728553970E+04  0.00000000000E+00 0. -1.
          6    1    1    2  502    0 -0.40717486207E+02  0.11760458796E+03 -0.89123858182E+03  0.91617627263E+03  0.17200000000E+03 0. -1.
         -6    1    1    2    0  501  0.40717486207E+02 -0.11760458796E+03 -0.44512956001E+03  0.49316637962E+03  0.17200000000E+03 0.  1.
</event>
<event>
 4    1  0.3205520E-002  0.8039249E+03  0.7818608E-02  0.9554353E-01
         -2   -1    0    0    0  501 -0.00000000000E+00  0.00000000000E+00  0.60628528794E+03  0.60628528794E+03  0.00000000000E+00 0.  1.
          2   -1    0    0  502    0  0.00000000000E+00 -0.00000000000E+00 -0.11583501458E+04  0.11583501458E+04  0.00000000000E+00 0. -1.
          6    1    1    2  502    0 -0.60283386893E+03 -0.50329171970E+03 -0.52517206235E+03  0.96026086233E+03  0.17200000000E+03 0. -1.
         -6    1    1    2    0  501  0.60283386893E+03  0.50329171970E+03 -0.26892795484E+02  0.80437457139E+03  0.17200000000E+03 0.  1.
</event>
<event>
 4    1  0.3205520E-002  0.2981296E+03  0.7818608E-02  0.1086179E+00
          1   -1    0    0  502    0  0.00000000000E+00  0.00000000000E+00  0.14965277906E+04  0.14965277906E+04  0.00000000000E+00 0. -1.
         -1   -1    0    0    0  501 -0.00000000000E+00 -0.00000000000E+00 -0.63242159177E+02  0.63242159177E+02  0.00000000000E+00 0.  1.
          6    1    1    2  502    0  0.18682135289E+03  0.15618917025E+03  0.52420716404E+03  0.60305424767E+03  0.17200000000E+03 0. -1.
         -6    1    1    2    0  501 -0.18682135289E+03 -0.15618917025E+03  0.90907846739E+03  0.95671570211E+03  0.17200000000E+03 0.  1.
</event>
<event>
 4    1  0.3205520E-002  0.2639980E+03  0.7818608E-02  0.1104765E+00
          1   -1    0    0  502    0  0.00000000000E+00  0.00000000000E+00  0.14906340370E+04  0.14906340370E+04  0.00000000000E+00 0. -1.
         -1   -1    0    0    0  501 -0.00000000000E+00 -0.00000000000E+00 -0.55040846992E+02  0.55040846992E+02  0.00000000000E+00 0.  1.
          6    1    1    2  502    0 -0.51176046365E+02 -0.19362841920E+03  0.10176491543E+04  0.10513347487E+04  0.17200000000E+03 0. -1.
         -6    1    1    2    0  501  0.51176046365E+02  0.19362841920E+03  0.41794403572E+03  0.49434013537E+03  0.17200000000E+03 0.  1.
</event>
<event>
 4    1  0.3205520E-002  0.1853811E+03  0.7818608E-02  0.1162694E+00
         -2   -1    0    0    0  501 -0.00000000000E+00  0.00000000000E+00  0.40181442671E+02  0.40181442671E+02  0.00000000000E+00 0.  1.
          2   -1    0    0  502    0  0.00000000000E+00 -0.00000000000E+00 -0.16926311771E+04  0.16926311771E+04  0.00000000000E+00 0. -1.
          6    1    1    2  502    0  0.24187860528E+02  0.64785096871E+02 -0.14356153885E+04  0.14475350445E+04  0.17200000000E+03 0. -1.
         -6    1    1    2    0  501 -0.24187860528E+02 -0.64785096871E+02 -0.21683434592E+03  0.28527757525E+03  0.17200000000E+03 0.  1.
</event>
<event>
 4    1  0.3205520E-002  0.2603009E+03  0.7818608E-02  0.1106963E+00
         -2   -1    0    0    0  501 -0.00000000000E+00  0.00000000000E+00  0.17066356460E+03  0.17066356460E+03  0.00000000000E+00 0.  1.
          2   -1    0    0  502    0  0.00000000000E+00 -0.00000000000E+00 -0.12257999574E+04  0.12257999574E+04  0.00000000000E+00 0. -1.
          6    1    1    2  502    0  0.16541815360E+03  0.10396811424E+03 -0.11016977477E+04  0.11320311222E+04  0.17200000000E+03 0. -1.
         -6    1    1    2    0  501 -0.16541815360E+03 -0.10396811424E+03  0.46561354859E+02  0.26443239984E+03  0.17200000000E+03 0.  1.
</event>
<event>
 4    1  0.3205520E-002  0.1882868E+03  0.7818608E-02  0.1160016E+00
          1   -1    0    0  502    0  0.00000000000E+00  0.00000000000E+00  0.55829255135E+02  0.55829255135E+02  0.00000000000E+00 0. -1.
         -1   -1    0    0    0  501 -0.00000000000E+00 -0.00000000000E+00 -0.11247744786E+04  0.11247744786E+04  0.00000000000E+00 0.  1.
          6    1    1    2  502    0 -0.31652171307E+02  0.69757240004E+02 -0.14494640429E+03  0.23761606132E+03  0.17200000000E+03 0. -1.
         -6    1    1    2    0  501  0.31652171307E+02 -0.69757240004E+02 -0.92399881914E+03  0.94298767238E+03  0.17200000000E+03 0.  1.
</event>
<event>
 4    1  0.3205520E-002  0.2131163E+03  0.7818608E-02  0.1139122E+00
         -2   -1    0    0    0  501 -0.00000000000E+00  0.00000000000E+00  0.86989601385E+02  0.86989601385E+02  0.00000000000E+00 0.  1.
          2   -1    0    0  502    0  0.00000000000E+00 -0.00000000000E+00 -0.76935238224E+03  0.76935238224E+03  0.00000000000E+00 0. -1.
          6    1    1    2  502    0  0.12521486640E+03  0.12481791567E+02 -0.98457883721E+02  0.23476054344E+03  0.17200000000E+03 0.  1.
         -6    1    1    2    0  501 -0.12521486640E+03 -0.12481791567E+02 -0.58390489713E+03  0.62158144018E+03  0.17200000000E+03 0. -1.
</event>
<event>
 4    1  0.3205520E-002  0.2029549E+03  0.7818608E-02  0.1147270E+00
         -2   -1    0    0    0  501 -0.00000000000E+00  0.00000000000E+00  0.40523155154E+02  0.40523155154E+02  0.00000000000E+00 0.  1.
          2   -1    0    0  502    0  0.00000000000E+00 -0.00000000000E+00 -0.15267863201E+04  0.15267863201E+04  0.00000000000E+00 0. -1.
          6    1    1    2  502    0  0.10762434258E+03  0.48688409188E+01 -0.29007341561E+03  0.35402442172E+03  0.17200000000E+03 0.  1.
         -6    1    1    2    0  501 -0.10762434258E+03 -0.48688409188E+01 -0.11961897493E+04  0.12132850535E+04  0.17200000000E+03 0.  1.
</event>
<event>
 4    1  0.3205520E-002  0.2866353E+03  0.7818608E-02  0.1092119E+00
          2   -1    0    0  502    0  0.00000000000E+00  0.00000000000E+00  0.16814698346E+04  0.16814698346E+04  0.00000000000E+00 0. -1.
         -2   -1    0    0    0  501 -0.00000000000E+00 -0.00000000000E+00 -0.71139498610E+02  0.71139498610E+02  0.00000000000E+00 0.  1.
          6    1    1    2  502    0  0.12662685308E+03 -0.19115811968E+03  0.12955466396E+04  0.13268763627E+04  0.17200000000E+03 0. -1.
         -6    1    1    2    0  501 -0.12662685308E+03  0.19115811968E+03  0.31478369645E+03  0.42573297053E+03  0.17200000000E+03 0.  1.
</event>
<event>
 4    1  0.3205520E-002  0.1744135E+03  0.7818608E-02  0.1173322E+00
          2   -1    0    0  502    0  0.00000000000E+00  0.00000000000E+00  0.69077806723E+03  0.69077806723E+03  0.00000000000E+00 0. -1.
         -2   -1    0    0    0  501 -0.00000000000E+00 -0.00000000000E+00 -0.44446665515E+02  0.44446665515E+02  0.00000000000E+00 0.  1.
          6    1    1    2  502    0  0.28693249186E+02 -0.35722196724E+01  0.28788978605E+03  0.33660153329E+03  0.17200000000E+03 0.  1.
         -6    1    1    2    0  501 -0.28693249186E+02  0.35722196724E+01  0.35844161567E+03  0.39862319946E+03  0.17200000000E+03 0. -1.
</event>
<event>
 4    1  0.3205520E-002  0.4595661E+03  0.7818608E-02  0.1024907E+00
          2   -1    0    0  502    0  0.00000000000E+00  0.00000000000E+00  0.50504745904E+03  0.50504745904E+03  0.00000000000E+00 0. -1.
         -2   -1    0    0    0  501 -0.00000000000E+00 -0.00000000000E+00 -0.67359298970E+03  0.67359298970E+03  0.00000000000E+00 0.  1.
          6    1    1    2  502    0 -0.39133487553E+03 -0.16874253644E+03  0.27861604909E+03  0.53742714039E+03  0.17200000000E+03 0. -1.
         -6    1    1    2    0  501  0.39133487553E+03  0.16874253644E+03 -0.44716157976E+03  0.64121330836E+03  0.17200000000E+03 0.  1.
</event>
<event>
 4    1  0.3205520E-002  0.4803507E+03  0.7818608E-02  0.1019039E+00
          2   -1    0    0  502    0  0.00000000000E+00  0.00000000000E+00  0.16601081286E+04  0.16601081286E+04  0.00000000000E+00 0. -1.
         -2   -1    0    0    0  501 -0.00000000000E+00 -0.00000000000E+00 -0.34604710497E+03  0.34604710497E+03  0.00000000000E+00 0.  1.
          6    1    1    2  502    0  0.35567101202E+02  0.44708809207E+03  0.14329435312E+04  0.15113119944E+04  0.17200000000E+03 0. -1.
         -6    1    1    2    0  501 -0.35567101202E+02 -0.44708809207E+03 -0.11888250756E+03  0.49484323918E+03  0.17200000000E+03 0.  1.
</event>
<event>
 4    1  0.3205520E-002  0.2139449E+03  0.7818608E-02  0.1138480E+00
         -2   -1    0    0    0  501 -0.00000000000E+00  0.00000000000E+00  0.43177117252E+02  0.43177117252E+02  0.00000000000E+00 0.  1.
          2   -1    0    0  502    0  0.00000000000E+00 -0.00000000000E+00 -0.15485986453E+04  0.15485986453E+04  0.00000000000E+00 0. -1.
          6    1    1    2  502    0 -0.12639873858E+03 -0.14553303714E+02 -0.11997135676E+04  0.12186406706E+04  0.17200000000E+03 0. -1.
         -6    1    1    2    0  501  0.12639873858E+03  0.14553303714E+02 -0.30570796045E+03  0.37313509195E+03  0.17200000000E+03 0.  1.
</event>
<event>
 4    1  0.3205520E-002  0.1812968E+03  0.7818608E-02  0.1166554E+00
          1   -1    0    0  502    0  0.00000000000E+00  0.00000000000E+00  0.16821819676E+04  0.16821819676E+04  0.00000000000E+00 0. -1.
         -1   -1    0    0    0  501 -0.00000000000E+00 -0.00000000000E+00 -0.81425703832E+02  0.81425703832E+02  0.00000000000E+00 0.  1.
          6    1    1    2  502    0 -0.40625314055E+02  0.40424222527E+02  0.15691351712E+04  0.15795739044E+04  0.17200000000E+03 0. -1.
         -6    1    1    2    0  501  0.40625314055E+02 -0.40424222527E+02  0.31621092533E+02  0.18403376702E+03  0.17200000000E+03 0.  1.
</event>
<event>
 4    1  0.3205520E-002  0.2029151E+03  0.7818608E-02  0.1147303E+00
         -2   -1    0    0    0  501 -0.00000000000E+00  0.00000000000E+00  0.44291043260E+02  0.44291043260E+02  0.00000000000E+00 0.  1.
          2   -1    0    0  502    0  0.00000000000E+00 -0.00000000000E+00 -0.17048912759E+04  0.17048912759E+04  0.00000000000E+00 0. -1.
          6    1    1    2  502    0  0.70377106438E+02  0.81471524161E+02 -0.14200652805E+04  0.14344894378E+04  0.17200000000E+03 0. -1.
         -6    1    1    2    0  501 -0.70377106438E+02 -0.81471524161E+02 -0.24053495215E+03  0.31469288134E+03  0.17200000000E+03 0.  1.
</event>
<event>
 4    1  0.3205520E-002  0.1895747E+03  0.7818608E-02  0.1158845E+00
         -1   -1    0    0    0  501 -0.00000000000E+00  0.00000000000E+00  0.62580608199E+02  0.62580608199E+02  0.00000000000E+00 0.  1.
          1   -1    0    0  502    0  0.00000000000E+00 -0.00000000000E+00 -0.12855728772E+04  0.12855728772E+04  0.00000000000E+00 0. -1.
          6    1    1    2  502    0 -0.21466694257E+02 -0.76770731494E+02 -0.11128984466E+04  0.11289293674E+04  0.17200000000E+03 0. -1.
         -6    1    1    2    0  501  0.21466694257E+02  0.76770731494E+02 -0.11009382242E+03  0.21922411800E+03  0.17200000000E+03 0.  1.
</event>
<event>
 4    1  0.3205520E-002  0.1853949E+03  0.7818608E-02  0.1162682E+00
         -1   -1    0    0    0  501 -0.00000000000E+00  0.00000000000E+00  0.13781340937E+02  0.13781340937E+02  0.00000000000E+00 0.  1.
          1   -1    0    0  502    0  0.00000000000E+00 -0.00000000000E+00 -0.29404640479E+04  0.29404640479E+04  0.00000000000E+00 0. -1.
          6    1    1    2  502    0 -0.25014650087E+02  0.64510058821E+02 -0.88779522729E+03  0.90694633028E+03  0.17200000000E+03 0.  1.
         -6    1    1    2    0  501  0.25014650087E+02 -0.64510058821E+02 -0.20388874797E+04  0.20472990586E+04  0.17200000000E+03 0. -1.
</event>
<event>
 4    1  0.3205520E-002  0.2880427E+03  0.7818608E-02  0.1091376E+00
         -2   -1    0    0    0  501 -0.00000000000E+00  0.00000000000E+00  0.77764468000E+03  0.77764468000E+03  0.00000000000E+00 0.  1.
          2   -1    0    0  502    0  0.00000000000E+00 -0.00000000000E+00 -0.10695557984E+03  0.10695557984E+03  0.00000000000E+00 0. -1.
          6    1    1    2  502    0  0.21736946874E+03 -0.78326801631E+02  0.35729570765E+03  0.45894312991E+03  0.17200000000E+03 0. -1.
         -6    1    1    2    0  501 -0.21736946874E+03  0.78326801631E+02  0.31339339251E+03  0.42565712993E+03  0.17200000000E+03 0.  1.
</event>
<event>
 4    1  0.3205520E-002  0.3705520E+03  0.7818608E-02  0.1054482E+00
         -2   -1    0    0    0  501 -0.00000000000E+00  0.00000000000E+00  0.19313863791E+03  0.19313863791E+03  0.00000000000E+00 0.  1.
          2   -1    0    0  502    0  0.00000000000E+00 -0.00000000000E+00 -0.10147400023E+04  0.10147400023E+04  0.00000000000E+00 0. -1.
          6    1    1    2  502    0  0.32070090738E+03  0.69826136229E+02 -0.74125720122E+03  0.82871647724E+03  0.17200000000E+03 0. -1.
         -6    1    1    2    0  501 -0.32070090738E+03 -0.69826136229E+02 -0.80344163203E+02  0.37916216300E+03  0.17200000000E+03 0.  1.
</event>
<event>
 4    1  0.3205520E-002  0.2502626E+03  0.7818608E-02  0.1113139E+00
          2   -1    0    0  502    0  0.00000000000E+00  0.00000000000E+00  0.22162239359E+03  0.22162239359E+03  0.00000000000E+00 0. -1.
         -2   -1    0    0    0  501 -0.00000000000E+00 -0.00000000000E+00 -0.35566244329E+03  0.35566244329E+03  0.00000000000E+00 0.  1.
          6    1    1    2  502    0 -0.16083236723E+03  0.84736842172E+02  0.63800610098E+02  0.25826711099E+03  0.17200000000E+03 0. -1.
         -6    1    1    2    0  501  0.16083236723E+03 -0.84736842172E+02 -0.19784065980E+03  0.31901772590E+03  0.17200000000E+03 0.  1.
</event>
<event>
 4    1  0.3205520E-002  0.3513020E+03  0.7818608E-02  0.1062082E+00
         -2   -1    0    0    0  501 -0.00000000000E+00  0.00000000000E+00  0.46817852865E+03  0.46817852865E+03  0.00000000000E+00 0.  1.
          2   -1    0    0  502    0  0.00000000000E+00 -0.00000000000E+00 -0.26998638388E+03  0.26998638388E+03  0.00000000000E+00 0. -1.
          6    1    1    2  502    0 -0.16554409756E+03 -0.25772897949E+03  0.42342692951E+02  0.35384456863E+03  0.17200000000E+03 0. -1.
         -6    1    1    2    0  501  0.16554409756E+03  0.25772897949E+03  0.15584945181E+03  0.38432034390E+03  0.17200000000E+03 0.  1.
</event>
<event>
 4    1  0.3205520E-002  0.3107383E+03  0.7818608E-02  0.1079993E+00
          2   -1    0    0  502    0  0.00000000000E+00  0.00000000000E+00  0.13530342704E+04  0.13530342704E+04  0.00000000000E+00 0. -1.
         -2   -1    0    0    0  501 -0.00000000000E+00 -0.00000000000E+00 -0.12340488284E+03  0.12340488284E+03  0.00000000000E+00 0.  1.
          6    1    1    2  502    0  0.25767182885E+03  0.24073677787E+02  0.10942064430E+04  0.11374735396E+04  0.17200000000E+03 0. -1.
         -6    1    1    2    0  501 -0.25767182885E+03 -0.24073677787E+02  0.13542294461E+03  0.33896561371E+03  0.17200000000E+03 0.  1.
</event>
<event>
 4    1  0.3205520E-002  0.1763283E+03  0.7818608E-02  0.1171405E+00
          1   -1    0    0  502    0  0.00000000000E+00  0.00000000000E+00  0.69534049464E+03  0.69534049464E+03  0.00000000000E+00 0. -1.
         -1   -1    0    0    0  501 -0.00000000000E+00 -0.00000000000E+00 -0.77152378994E+02  0.77152378994E+02  0.00000000000E+00 0.  1.
          6    1    1    2  502    0  0.14401502781E+02 -0.36058994320E+02  0.55954200504E+03  0.58666763142E+03  0.17200000000E+03 0. -1.
         -6    1    1    2    0  501 -0.14401502781E+02  0.36058994320E+02  0.58646110605E+02  0.18582524221E+03  0.17200000000E+03 0.  1.
</event>
<event>
 4    1  0.3205520E-002  0.2555292E+03  0.7818608E-02  0.1109859E+00
          3   -1    0    0  502    0  0.00000000000E+00  0.00000000000E+00  0.25658369402E+03  0.25658369402E+03  0.00000000000E+00 0. -1.
         -3   -1    0    0    0  501 -0.00000000000E+00 -0.00000000000E+00 -0.37923665638E+03  0.37923665638E+03  0.00000000000E+00 0.  1.
          6    1    1    2  502    0 -0.13575167342E+03  0.13146358757E+03  0.12101382324E+03  0.28273580797E+03  0.17200000000E+03 0. -1.
         -6    1    1    2    0  501  0.13575167342E+03 -0.13146358757E+03 -0.24366678560E+03  0.35308454242E+03  0.17200000000E+03 0.  1.
</event>
<event>
 4    1  0.3205520E-002  0.2087811E+03  0.7818608E-02  0.1142535E+00
         -3   -1    0    0    0  501 -0.00000000000E+00  0.00000000000E+00  0.59353263112E+03  0.59353263112E+03  0.00000000000E+00 0.  1.
          3   -1    0    0  502    0  0.00000000000E+00 -0.00000000000E+00 -0.91319418254E+02  0.91319418254E+02  0.00000000000E+00 0. -1.
          6    1    1    2  502    0 -0.76954399762E+02  0.89908753227E+02  0.99593186358E+02  0.23131875479E+03  0.17200000000E+03 0. -1.
         -6    1    1    2    0  501  0.76954399762E+02 -0.89908753227E+02  0.40262002650E+03  0.45353329458E+03  0.17200000000E+03 0.  1.
</event>
<event>
 4    1  0.3205520E-002  0.2424224E+03  0.7818608E-02  0.1118190E+00
         -2   -1    0    0    0  501 -0.00000000000E+00  0.00000000000E+00  0.39429001444E+03  0.39429001444E+03  0.00000000000E+00 0.  1.
          2   -1    0    0  502    0  0.00000000000E+00 -0.00000000000E+00 -0.16021915781E+03  0.16021915781E+03  0.00000000000E+00 0. -1.
          6    1    1    2  502    0 -0.11929468037E+03 -0.12228401100E+03  0.19024162267E+03  0.30815657563E+03  0.17200000000E+03 0. -1.
         -6    1    1    2    0  501  0.11929468037E+03  0.12228401100E+03  0.43829233962E+02  0.24635259662E+03  0.17200000000E+03 0.  1.
</event>
<event>
 4    1  0.3205520E-002  0.8995344E+03  0.7818608E-02  0.9426164E-01
         -2   -1    0    0    0  501 -0.00000000000E+00  0.00000000000E+00  0.27922388584E+03  0.27922388584E+03  0.00000000000E+00 0.  1.
          2   -1    0    0  502    0  0.00000000000E+00 -0.00000000000E+00 -0.29520237899E+04  0.29520237899E+04  0.00000000000E+00 0. -1.
          6    1    1    2  502    0  0.39407559324E+03  0.79011551809E+03 -0.15551689759E+04  0.17965836047E+04  0.17200000000E+03 0. -1.
         -6    1    1    2    0  501 -0.39407559324E+03 -0.79011551809E+03 -0.11176309282E+04  0.14346640710E+04  0.17200000000E+03 0.  1.
</event>
<event>
 4    1  0.3205520E-002  0.1844259E+03  0.7818608E-02  0.1163587E+00
         -2   -1    0    0    0  501 -0.00000000000E+00  0.00000000000E+00  0.11657508570E+02  0.11657508570E+02  0.00000000000E+00 0.  1.
          2   -1    0    0  502    0  0.00000000000E+00 -0.00000000000E+00 -0.29630536067E+04  0.29630536067E+04  0.00000000000E+00 0. -1.
          6    1    1    2  502    0 -0.31642416027E+02 -0.58546235509E+02 -0.16597483816E+04  0.16699633513E+04  0.17200000000E+03 0. -1.
         -6    1    1    2    0  501  0.31642416027E+02  0.58546235509E+02 -0.12916477165E+04  0.13047477640E+04  0.17200000000E+03 0.  1.
</event>
<event>
 4    1  0.3205520E-002  0.3016820E+03  0.7818608E-02  0.1084403E+00
          2   -1    0    0  502    0  0.00000000000E+00  0.00000000000E+00  0.11851955413E+04  0.11851955413E+04  0.00000000000E+00 0. -1.
         -2   -1    0    0    0  501 -0.00000000000E+00 -0.00000000000E+00 -0.10565962464E+03  0.10565962464E+03  0.00000000000E+00 0.  1.
          6    1    1    2  502    0  0.24627428845E+03 -0.27874352118E+02  0.87713933506E+03  0.92756962960E+03  0.17200000000E+03 0. -1.
         -6    1    1    2    0  501 -0.24627428845E+03  0.27874352118E+02  0.20239658157E+03  0.36328553631E+03  0.17200000000E+03 0.  1.
</event>
<event>
 4    1  0.3205520E-002  0.1782718E+03  0.7818608E-02  0.1169486E+00
          2   -1    0    0  502    0  0.00000000000E+00  0.00000000000E+00  0.15274722417E+04  0.15274722417E+04  0.00000000000E+00 0. -1.
         -2   -1    0    0    0  501 -0.00000000000E+00 -0.00000000000E+00 -0.22888736224E+02  0.22888736224E+02  0.00000000000E+00 0.  1.
          6    1    1    2  502    0 -0.46711725743E+02 -0.38519554396E+01  0.98611785568E+03  0.10021024140E+04  0.17200000000E+03 0. -1.
         -6    1    1    2    0  501  0.46711725743E+02  0.38519554396E+01  0.51846564983E+03  0.54825856394E+03  0.17200000000E+03 0.  1.
</event>
<event>
 4    1  0.3205520E-002  0.3574125E+03  0.7818608E-02  0.1059613E+00
         -2   -1    0    0    0  501 -0.00000000000E+00  0.00000000000E+00  0.74888792504E+02  0.74888792504E+02  0.00000000000E+00 0.  1.
          2   -1    0    0  502    0  0.00000000000E+00 -0.00000000000E+00 -0.20008878355E+04  0.20008878355E+04  0.00000000000E+00 0. -1.
          6    1    1    2  502    0 -0.13200788295E+03 -0.28413656699E+03 -0.13615936924E+04  0.14077219374E+04  0.17200000000E+03 0. -1.
         -6    1    1    2    0  501  0.13200788295E+03  0.28413656699E+03 -0.56440535064E+03  0.66805469064E+03  0.17200000000E+03 0.  1.
</event>
<event>
 4    1  0.3205520E-002  0.1903329E+03  0.7818608E-02  0.1158161E+00
          2   -1    0    0  502    0  0.00000000000E+00  0.00000000000E+00  0.21217703853E+03  0.21217703853E+03  0.00000000000E+00 0. -1.
         -2   -1    0    0    0  501 -0.00000000000E+00 -0.00000000000E+00 -0.37367555533E+03  0.37367555533E+03  0.00000000000E+00 0.  1.
          6    1    1    2  502    0  0.72687231545E+02 -0.36866803550E+02  0.13512093221E+03  0.23341863926E+03  0.17200000000E+03 0. -1.
         -6    1    1    2    0  501 -0.72687231545E+02  0.36866803550E+02 -0.29661944900E+03  0.35243395461E+03  0.17200000000E+03 0.  1.
</event>
<event>
 4    1  0.3205520E-002  0.2933565E+03  0.7818608E-02  0.1088610E+00
          1   -1    0    0  502    0  0.00000000000E+00  0.00000000000E+00  0.15240972517E+04  0.15240972517E+04  0.00000000000E+00 0. -1.
         -1   -1    0    0    0  501 -0.00000000000E+00 -0.00000000000E+00 -0.76515855623E+02  0.76515855623E+02  0.00000000000E+00 0.  1.
          6    1    1    2  502    0  0.21126965816E+03  0.10880794698E+03  0.11334736720E+04  0.11708204828E+04  0.17200000000E+03 0. -1.
         -6    1    1    2    0  501 -0.21126965816E+03 -0.10880794698E+03  0.31410772409E+03  0.42979262455E+03  0.17200000000E+03 0.  1.
</event>
<event>
 4    1  0.3205520E-002  0.3705528E+03  0.7818608E-02  0.1054482E+00
          1   -1    0    0  502    0  0.00000000000E+00  0.00000000000E+00  0.39147957925E+03  0.39147957925E+03  0.00000000000E+00 0. -1.
         -1   -1    0    0    0  501 -0.00000000000E+00 -0.00000000000E+00 -0.35813748285E+03  0.35813748285E+03  0.00000000000E+00 0.  1.
          6    1    1    2  502    0  0.28905238286E+03  0.15548012702E+03  0.70521751324E+02  0.37720374779E+03  0.17200000000E+03 0. -1.
         -6    1    1    2    0  501 -0.28905238286E+03 -0.15548012702E+03 -0.37179654916E+02  0.37241331431E+03  0.17200000000E+03 0.  1.
</event>
<event>
 4    1  0.3205520E-002  0.3625104E+03  0.7818608E-02  0.1057594E+00
          2   -1    0    0  502    0  0.00000000000E+00  0.00000000000E+00  0.16542645526E+03  0.16542645526E+03  0.00000000000E+00 0. -1.
         -2   -1    0    0    0  501 -0.00000000000E+00 -0.00000000000E+00 -0.81089207867E+03  0.81089207867E+03  0.00000000000E+00 0.  1.
          6    1    1    2  502    0 -0.30700676264E+03  0.87043870560E+02 -0.39236280596E+03  0.53419318529E+03  0.17200000000E+03 0. -1.
         -6    1    1    2    0  501  0.30700676264E+03 -0.87043870560E+02 -0.25310281745E+03  0.44212534864E+03  0.17200000000E+03 0. -1.
</event>
<event>
 4    1  0.3205520E-002  0.2321096E+03  0.7818608E-02  0.1125164E+00
          2   -1    0    0  502    0  0.00000000000E+00  0.00000000000E+00  0.24912891558E+04  0.24912891558E+04  0.00000000000E+00 0. -1.
         -2   -1    0    0    0  501 -0.00000000000E+00 -0.00000000000E+00 -0.38699696701E+02  0.38699696701E+02  0.00000000000E+00 0.  1.
          6    1    1    2  502    0 -0.12012865721E+03  0.99297428481E+02  0.20665428007E+04  0.20795369726E+04  0.17200000000E+03 0. -1.
         -6    1    1    2    0  501  0.12012865721E+03 -0.99297428481E+02  0.38604665846E+03  0.45045187988E+03  0.17200000000E+03 0.  1.
</event>
<event>
 4    1  0.3205520E-002  0.2313428E+03  0.7818608E-02  0.1125698E+00
          2   -1    0    0  502    0  0.00000000000E+00  0.00000000000E+00  0.22143280719E+04  0.22143280719E+04  0.00000000000E+00 0. -1.
         -2   -1    0    0    0  501 -0.00000000000E+00 -0.00000000000E+00 -0.26861306794E+02  0.26861306794E+02  0.00000000000E+00 0.  1.
          6    1    1    2  502    0 -0.24101859986E+01  0.15469217249E+03  0.14484625659E+04  0.14668208077E+04  0.17200000000E+03 0.  1.
         -6    1    1    2    0  501  0.24101859986E+01 -0.15469217249E+03  0.73900419922E+03  0.77436857096E+03  0.17200000000E+03 0.  1.
</event>
<event>
 4    1  0.3205520E-002  0.1772414E+03  0.7818608E-02  0.1170500E+00
          2   -1    0    0  502    0  0.00000000000E+00  0.00000000000E+00  0.23193258570E+03  0.23193258570E+03  0.00000000000E+00 0. -1.
         -2   -1    0    0    0  501 -0.00000000000E+00 -0.00000000000E+00 -0.13625515989E+03  0.13625515989E+03  0.00000000000E+00 0.  1.
          6    1    1    2  502    0 -0.11184148496E+02 -0.41296769270E+02  0.33658383041E+02  0.18040896618E+03  0.17200000000E+03 0. -1.
         -6    1    1    2    0  501  0.11184148496E+02  0.41296769270E+02  0.62019042771E+02  0.18777877941E+03  0.17200000000E+03 0. -1.
</event>
<event>
 4    1  0.3205520E-002  0.1983942E+03  0.7818608E-02  0.1151101E+00
          2   -1    0    0  502    0  0.00000000000E+00  0.00000000000E+00  0.18061443617E+04  0.18061443617E+04  0.00000000000E+00 0. -1.
         -2   -1    0    0    0  501 -0.00000000000E+00 -0.00000000000E+00 -0.22529062691E+02  0.22529062691E+02  0.00000000000E+00 0.  1.
          6    1    1    2  502    0 -0.97499152796E+02  0.16436767105E+02  0.10571422523E+04  0.10755975054E+04  0.17200000000E+03 0. -1.
         -6    1    1    2    0  501  0.97499152796E+02 -0.16436767105E+02  0.72647304671E+03  0.75307591895E+03  0.17200000000E+03 0. -1.
</event>
<event>
 4    1  0.3205520E-002  0.2928137E+03  0.7818608E-02  0.1088889E+00
          2   -1    0    0  502    0  0.00000000000E+00  0.00000000000E+00  0.40310342022E+03  0.40310342022E+03  0.00000000000E+00 0. -1.
         -2   -1    0    0    0  501 -0.00000000000E+00 -0.00000000000E+00 -0.22239952129E+03  0.22239952129E+03  0.00000000000E+00 0.  1.
          6    1    1    2  502    0 -0.21095689329E+03  0.10794935713E+03  0.25035891060E+02  0.29388206882E+03  0.17200000000E+03 0. -1.
         -6    1    1    2    0  501  0.21095689329E+03 -0.10794935713E+03  0.15566800787E+03  0.33162087269E+03  0.17200000000E+03 0.  1.
</event>
<event>
 4    1  0.3205520E-002  0.2083811E+03  0.7818608E-02  0.1142854E+00
          1   -1    0    0  502    0  0.00000000000E+00  0.00000000000E+00  0.29208378925E+03  0.29208378925E+03  0.00000000000E+00 0. -1.
         -1   -1    0    0    0  501 -0.00000000000E+00 -0.00000000000E+00 -0.28652717714E+03  0.28652717714E+03  0.00000000000E+00 0.  1.
          6    1    1    2  502    0  0.92917359757E+02  0.72145924097E+02  0.20345463125E+03  0.29123265113E+03  0.17200000000E+03 0. -1.
         -6    1    1    2    0  501 -0.92917359757E+02 -0.72145924097E+02 -0.19789801914E+03  0.28737831527E+03  0.17200000000E+03 0.  1.
</event>
<event>
 4    1  0.3205520E-002  0.1749028E+03  0.7818608E-02  0.1172829E+00
          2   -1    0    0  502    0  0.00000000000E+00  0.00000000000E+00  0.14738235603E+04  0.14738235603E+04  0.00000000000E+00 0. -1.
         -2   -1    0    0    0  501 -0.00000000000E+00 -0.00000000000E+00 -0.20898011958E+02  0.20898011958E+02  0.00000000000E+00 0.  1.
          6    1    1    2  502    0  0.31106545344E+02 -0.62744879529E+01  0.66489916325E+03  0.68751864240E+03  0.17200000000E+03 0.  1.
         -6    1    1    2    0  501 -0.31106545344E+02  0.62744879529E+01  0.78802638505E+03  0.80720292981E+03  0.17200000000E+03 0. -1.
</event>
<event>
 4    1  0.3205520E-002  0.6058398E+03  0.7818608E-02  0.9893364E-01
         -2   -1    0    0    0  501 -0.00000000000E+00  0.00000000000E+00  0.39377091831E+03  0.39377091831E+03  0.00000000000E+00 0.  1.
          2   -1    0    0  502    0  0.00000000000E+00 -0.00000000000E+00 -0.12563366326E+04  0.12563366326E+04  0.00000000000E+00 0. -1.
          6    1    1    2  502    0 -0.57926775191E+03 -0.43666003533E+02 -0.85041090045E+03  0.10441458461E+04  0.17200000000E+03 0. -1.
         -6    1    1    2    0  501  0.57926775191E+03  0.43666003533E+02 -0.12154813870E+02  0.60596170487E+03  0.17200000000E+03 0.  1.
</event>
<event>
 4    1  0.3205520E-002  0.2578546E+03  0.7818608E-02  0.1108439E+00
         -2   -1    0    0    0  501 -0.00000000000E+00  0.00000000000E+00  0.11677888367E+03  0.11677888367E+03  0.00000000000E+00 0.  1.
          2   -1    0    0  502    0  0.00000000000E+00 -0.00000000000E+00 -0.57176904384E+03  0.57176904384E+03  0.00000000000E+00 0. -1.
          6    1    1    2  502    0 -0.55410536874E+02 -0.18394203175E+03 -0.24985092145E+03  0.35904662872E+03  0.17200000000E+03 0. -1.
         -6    1    1    2    0  501  0.55410536874E+02  0.18394203175E+03 -0.20513923872E+03  0.32950129879E+03  0.17200000000E+03 0.  1.
</event>
<event>
 4    1  0.3205520E-002  0.3029704E+03  0.7818608E-02  0.1083765E+00
          2   -1    0    0  502    0  0.00000000000E+00  0.00000000000E+00  0.89343589392E+03  0.89343589392E+03  0.00000000000E+00 0. -1.
         -2   -1    0    0    0  501 -0.00000000000E+00 -0.00000000000E+00 -0.12268937301E+03  0.12268937301E+03  0.00000000000E+00 0.  1.
          6    1    1    2  502    0 -0.17701506758E+03 -0.17570643005E+03  0.59024626775E+03  0.66346193584E+03  0.17200000000E+03 0. -1.
         -6    1    1    2    0  501  0.17701506758E+03  0.17570643005E+03  0.18050025316E+03  0.35266333110E+03  0.17200000000E+03 0.  1.
</event>
<event>
 4    1  0.3205520E-002  0.2050907E+03  0.7818608E-02  0.1145514E+00
          1   -1    0    0  502    0  0.00000000000E+00  0.00000000000E+00  0.33253727051E+03  0.33253727051E+03  0.00000000000E+00 0. -1.
         -1   -1    0    0    0  501 -0.00000000000E+00 -0.00000000000E+00 -0.15800446520E+03  0.15800446520E+03  0.00000000000E+00 0.  1.
          6    1    1    2  502    0  0.42228083849E+02  0.10341665478E+03  0.19680698352E+03  0.28424497236E+03  0.17200000000E+03 0. -1.
         -6    1    1    2    0  501 -0.42228083849E+02 -0.10341665478E+03 -0.22274178216E+02  0.20629676335E+03  0.17200000000E+03 0.  1.
</event>
<event>
 4    1  0.3205520E-002  0.1800247E+03  0.7818608E-02  0.1167779E+00
         -1   -1    0    0    0  501 -0.00000000000E+00  0.00000000000E+00  0.86217093738E+02  0.86217093738E+02  0.00000000000E+00 0.  1.
          1   -1    0    0  502    0  0.00000000000E+00 -0.00000000000E+00 -0.37809283884E+03  0.37809283884E+03  0.00000000000E+00 0. -1.
          6    1    1    2  502    0  0.47282119973E+02  0.24275487624E+02 -0.16362288597E+03  0.24327216647E+03  0.17200000000E+03 0. -1.
         -6    1    1    2    0  501 -0.47282119973E+02 -0.24275487624E+02 -0.12825285914E+03  0.22103776611E+03  0.17200000000E+03 0. -1.
</event>
<event>
 4    1  0.3205520E-002  0.5560226E+03  0.7818608E-02  0.1000109E+00
          2   -1    0    0  502    0  0.00000000000E+00  0.00000000000E+00  0.94131961399E+03  0.94131961399E+03  0.00000000000E+00 0. -1.
         -2   -1    0    0    0  501 -0.00000000000E+00 -0.00000000000E+00 -0.49518577399E+03  0.49518577399E+03  0.00000000000E+00 0.  1.
          6    1    1    2  502    0  0.20358742057E+03  0.48798489734E+03  0.63986795274E+03  0.84769811536E+03  0.17200000000E+03 0. -1.
         -6    1    1    2    0  501 -0.20358742057E+03 -0.48798489734E+03 -0.19373411274E+03  0.58880727262E+03  0.17200000000E+03 0.  1.
</event>
<event>
 4    1  0.3205520E-002  0.1815112E+03  0.7818608E-02  0.1166349E+00
          1   -1    0    0  502    0  0.00000000000E+00  0.00000000000E+00  0.39410600383E+03  0.39410600383E+03  0.00000000000E+00 0. -1.
         -1   -1    0    0    0  501 -0.00000000000E+00 -0.00000000000E+00 -0.89818902945E+02  0.89818902945E+02  0.00000000000E+00 0.  1.
          6    1    1    2  502    0  0.48532596454E+02  0.31731461122E+02  0.21582403113E+03  0.28200409741E+03  0.17200000000E+03 0.  1.
         -6    1    1    2    0  501 -0.48532596454E+02 -0.31731461122E+02  0.88463069755E+02  0.20192080936E+03  0.17200000000E+03 0.  1.
</event>
<event>
 4    1  0.3205520E-002  0.4607016E+03  0.7818608E-02  0.1024578E+00
          2   -1    0    0  502    0  0.00000000000E+00  0.00000000000E+00  0.88420388771E+03  0.88420388771E+03  0.00000000000E+00 0. -1.
         -2   -1    0    0    0  501 -0.00000000000E+00 -0.00000000000E+00 -0.25292148618E+03  0.25292148618E+03  0.00000000000E+00 0.  1.
          6    1    1    2  502    0  0.19479016334E+03 -0.38041920077E+03  0.44394412217E+03  0.63979087181E+03  0.17200000000E+03 0. -1.
         -6    1    1    2    0  501 -0.19479016334E+03  0.38041920077E+03  0.18733827936E+03  0.49733450208E+03  0.17200000000E+03 0.  1.
</event>
<event>
 4    1  0.3205520E-002  0.1763182E+03  0.7818608E-02  0.1171415E+00
         -1   -1    0    0    0  501 -0.00000000000E+00  0.00000000000E+00  0.23492869540E+03  0.23492869540E+03  0.00000000000E+00 0.  1.
          1   -1    0    0  502    0  0.00000000000E+00 -0.00000000000E+00 -0.13251100520E+03  0.13251100520E+03  0.00000000000E+00 0. -1.
          6    1    1    2  502    0 -0.38371912943E+02  0.56310865010E+01  0.44418639758E+02  0.18182719377E+03  0.17200000000E+03 0.  1.
         -6    1    1    2    0  501  0.38371912943E+02 -0.56310865010E+01  0.57999050447E+02  0.18561250683E+03  0.17200000000E+03 0.  1.
</event>
<event>
 4    1  0.3205520E-002  0.2969102E+03  0.7818608E-02  0.1086795E+00
          1   -1    0    0  502    0  0.00000000000E+00  0.00000000000E+00  0.11931925088E+04  0.11931925088E+04  0.00000000000E+00 0. -1.
         -1   -1    0    0    0  501 -0.00000000000E+00 -0.00000000000E+00 -0.10478613012E+03  0.10478613012E+03  0.00000000000E+00 0.  1.
          6    1    1    2  502    0 -0.10236564365E+03  0.21930107117E+03  0.89664913706E+03  0.94452917362E+03  0.17200000000E+03 0. -1.
         -6    1    1    2    0  501  0.10236564365E+03 -0.21930107117E+03  0.19175724165E+03  0.35344946533E+03  0.17200000000E+03 0.  1.
</event>
<event>
 4    1  0.3205520E-002  0.2553517E+03  0.7818608E-02  0.1109969E+00
         -1   -1    0    0    0  501 -0.00000000000E+00  0.00000000000E+00  0.40005070011E+02  0.40005070011E+02  0.00000000000E+00 0.  1.
          1   -1    0    0  502    0  0.00000000000E+00 -0.00000000000E+00 -0.16313564866E+04  0.16313564866E+04  0.00000000000E+00 0. -1.
          6    1    1    2  502    0  0.13868814101E+03  0.12800818419E+03 -0.77075544389E+03  0.81195347771E+03  0.17200000000E+03 0. -1.
         -6    1    1    2    0  501 -0.13868814101E+03 -0.12800818419E+03 -0.82059597270E+03  0.85940807890E+03  0.17200000000E+03 0.  1.
</event>
<event>
 4    1  0.3205520E-002  0.2298682E+03  0.7818608E-02  0.1126733E+00
         -1   -1    0    0    0  501 -0.00000000000E+00  0.00000000000E+00  0.38652703140E+03  0.38652703140E+03  0.00000000000E+00 0.  1.
          1   -1    0    0  502    0  0.00000000000E+00 -0.00000000000E+00 -0.20284866860E+03  0.20284866860E+03  0.00000000000E+00 0. -1.
          6    1    1    2  502    0  0.20560261041E+02 -0.15110484703E+03  0.26011701128E+03  0.34713147176E+03  0.17200000000E+03 0.  1.
         -6    1    1    2    0  501 -0.20560261041E+02  0.15110484703E+03 -0.76438648482E+02  0.24224422823E+03  0.17200000000E+03 0.  1.
</event>
<event>
 4    1  0.3205520E-002  0.1852746E+03  0.7818608E-02  0.1162794E+00
         -2   -1    0    0    0  501 -0.00000000000E+00  0.00000000000E+00  0.20689192924E+02  0.20689192924E+02  0.00000000000E+00 0.  1.
          2   -1    0    0  502    0  0.00000000000E+00 -0.00000000000E+00 -0.19476904395E+04  0.19476904395E+04  0.00000000000E+00 0. -1.
          6    1    1    2  502    0  0.68501514817E+02  0.70855277204E+01 -0.13423053713E+04  0.13550315022E+04  0.17200000000E+03 0. -1.
         -6    1    1    2    0  501 -0.68501514817E+02 -0.70855277204E+01 -0.58469587524E+03  0.61334813015E+03  0.17200000000E+03 0. -1.
</event>
<event>
 4    1  0.3205520E-002  0.2434900E+03  0.7818608E-02  0.1117489E+00
         -1   -1    0    0    0  501 -0.00000000000E+00  0.00000000000E+00  0.11324326670E+04  0.11324326670E+04  0.00000000000E+00 0.  1.
          1   -1    0    0  502    0  0.00000000000E+00 -0.00000000000E+00 -0.56032542408E+02  0.56032542408E+02  0.00000000000E+00 0. -1.
          6    1    1    2  502    0  0.36807236431E+02 -0.16837048315E+03  0.38594436586E+03  0.45633370004E+03  0.17200000000E+03 0. -1.
         -6    1    1    2    0  501 -0.36807236431E+02  0.16837048315E+03  0.69045575876E+03  0.73213150940E+03  0.17200000000E+03 0.  1.
</event>
<event>
 4    1  0.3205520E-002  0.2417190E+03  0.7818608E-02  0.1118653E+00
          2   -1    0    0  502    0  0.00000000000E+00  0.00000000000E+00  0.26806693343E+04  0.26806693343E+04  0.00000000000E+00 0. -1.
         -2   -1    0    0    0  501 -0.00000000000E+00 -0.00000000000E+00 -0.22033604879E+02  0.22033604879E+02  0.00000000000E+00 0.  1.
          6    1    1    2  502    0  0.16882017431E+03  0.18543115999E+02  0.14696234396E+04  0.14893693809E+04  0.17200000000E+03 0. -1.
         -6    1    1    2    0  501 -0.16882017431E+03 -0.18543115999E+02  0.11890122897E+04  0.12133335583E+04  0.17200000000E+03 0.  1.
</event>
<event>
 4    1  0.3205520E-002  0.4207011E+03  0.7818608E-02  0.1036838E+00
         -1   -1    0    0    0  501 -0.00000000000E+00  0.00000000000E+00  0.23973951829E+03  0.23973951829E+03  0.00000000000E+00 0.  1.
          1   -1    0    0  502    0  0.00000000000E+00 -0.00000000000E+00 -0.14169883619E+04  0.14169883619E+04  0.00000000000E+00 0. -1.
          6    1    1    2  502    0 -0.14858828189E+03  0.35401547234E+03 -0.11619310054E+04  0.12357479895E+04  0.17200000000E+03 0. -1.
         -6    1    1    2    0  501  0.14858828189E+03 -0.35401547234E+03 -0.15317838140E+02  0.42097989065E+03  0.17200000000E+03 0.  1.
</event>
<event>
 4    1  0.3205520E-002  0.2062071E+03  0.7818608E-02  0.1144605E+00
          2   -1    0    0  502    0  0.00000000000E+00  0.00000000000E+00  0.15115155551E+04  0.15115155551E+04  0.00000000000E+00 0. -1.
         -2   -1    0    0    0  501 -0.00000000000E+00 -0.00000000000E+00 -0.43360482198E+02  0.43360482198E+02  0.00000000000E+00 0.  1.
          6    1    1    2  502    0  0.51968948940E+02 -0.10117599007E+03  0.11948141454E+04  0.12124777089E+04  0.17200000000E+03 0. -1.
         -6    1    1    2    0  501 -0.51968948940E+02  0.10117599007E+03  0.27334092753E+03  0.34239832839E+03  0.17200000000E+03 0.  1.
</event>
<event>
 4    1  0.3205520E-002  0.2722938E+03  0.7818608E-02  0.1099974E+00
         -4   -1    0    0    0  501 -0.00000000000E+00  0.00000000000E+00  0.35025058885E+02  0.35025058885E+02  0.00000000000E+00 0.  1.
          4   -1    0    0  502    0  0.00000000000E+00 -0.00000000000E+00 -0.21169938025E+04  0.21169938025E+04  0.00000000000E+00 0. -1.
          6    1    1    2  502    0  0.16602626300E+03  0.13036554310E+03 -0.10488257298E+04  0.10835955456E+04  0.17200000000E+03 0. -1.
         -6    1    1    2    0  501 -0.16602626300E+03 -0.13036554310E+03 -0.10331430138E+04  0.10684233158E+04  0.17200000000E+03 0. -1.
</event>
<event>
 4    1  0.3205520E-002  0.4213346E+03  0.7818608E-02  0.1036633E+00
         -2   -1    0    0    0  501 -0.00000000000E+00  0.00000000000E+00  0.10726691685E+03  0.10726691685E+03  0.00000000000E+00 0.  1.
          2   -1    0    0  502    0  0.00000000000E+00 -0.00000000000E+00 -0.17278028350E+04  0.17278028350E+04  0.00000000000E+00 0. -1.
          6    1    1    2  502    0  0.33086583266E+03 -0.19612923966E+03 -0.62187823712E+03  0.75116936817E+03  0.17200000000E+03 0. -1.
         -6    1    1    2    0  501 -0.33086583266E+03  0.19612923966E+03 -0.99865768103E+03  0.10839003837E+04  0.17200000000E+03 0.  1.
</event>
<event>
 4    1  0.3205520E-002  0.2034379E+03  0.7818608E-02  0.1146870E+00
          2   -1    0    0  502    0  0.00000000000E+00  0.00000000000E+00  0.90955003371E+02  0.90955003371E+02  0.00000000000E+00 0. -1.
         -2   -1    0    0    0  501 -0.00000000000E+00 -0.00000000000E+00 -0.47922990062E+03  0.47922990062E+03  0.00000000000E+00 0.  1.
          6    1    1    2  502    0  0.62392395646E+02  0.88939147546E+02 -0.25820636921E+03  0.32872102474E+03  0.17200000000E+03 0.  1.
         -6    1    1    2    0  501 -0.62392395646E+02 -0.88939147546E+02 -0.13006852804E+03  0.24146387926E+03  0.17200000000E+03 0.  1.
</event>
<event>
 4    1  0.3205520E-002  0.1771230E+03  0.7818608E-02  0.1170617E+00
         -2   -1    0    0    0  501 -0.00000000000E+00  0.00000000000E+00  0.19637427416E+03  0.19637427416E+03  0.00000000000E+00 0.  1.
          2   -1    0    0  502    0  0.00000000000E+00 -0.00000000000E+00 -0.23271368193E+03  0.23271368193E+03  0.00000000000E+00 0. -1.
          6    1    1    2  502    0 -0.32657298377E+01  0.42165204973E+02 -0.13829425423E+03  0.22471731187E+03  0.17200000000E+03 0. -1.
         -6    1    1    2    0  501  0.32657298377E+01 -0.42165204973E+02  0.10195484646E+03  0.20437064422E+03  0.17200000000E+03 0.  1.
</event>
<event>
 4    1  0.3205520E-002  0.2050620E+03  0.7818608E-02  0.1145537E+00
          1   -1    0    0  502    0  0.00000000000E+00  0.00000000000E+00  0.14153677733E+04  0.14153677733E+04  0.00000000000E+00 0. -1.
         -1   -1    0    0    0  501 -0.00000000000E+00 -0.00000000000E+00 -0.30384298221E+02  0.30384298221E+02  0.00000000000E+00 0.  1.
          6    1    1    2  502    0  0.26970165686E+02 -0.10834676628E+03  0.80018852668E+03  0.82604605793E+03  0.17200000000E+03 0. -1.
         -6    1    1    2    0  501 -0.26970165686E+02  0.10834676628E+03  0.58479494838E+03  0.61970601357E+03  0.17200000000E+03 0. -1.
</event>
<event>
 4    1  0.3205520E-002  0.2024793E+03  0.7818608E-02  0.1147664E+00
         -1   -1    0    0    0  501 -0.00000000000E+00  0.00000000000E+00  0.50295194506E+02  0.50295194506E+02  0.00000000000E+00 0.  1.
          1   -1    0    0  502    0  0.00000000000E+00 -0.00000000000E+00 -0.16427646795E+04  0.16427646795E+04  0.00000000000E+00 0. -1.
          6    1    1    2  502    0  0.60902602156E+02  0.87776560509E+02 -0.13970904305E+04  0.14116867650E+04  0.17200000000E+03 0. -1.
         -6    1    1    2    0  501 -0.60902602156E+02 -0.87776560509E+02 -0.19537905447E+03  0.28137310897E+03  0.17200000000E+03 0.  1.
</event>
<event>
 4    1  0.3205520E-002  0.2531667E+03  0.7818608E-02  0.1111320E+00
         -1   -1    0    0    0  501 -0.00000000000E+00  0.00000000000E+00  0.50768506574E+02  0.50768506574E+02  0.00000000000E+00 0.  1.
          1   -1    0    0  502    0  0.00000000000E+00 -0.00000000000E+00 -0.14856592139E+04  0.14856592139E+04  0.00000000000E+00 0. -1.
          6    1    1    2  502    0 -0.14063058196E+03 -0.12137724933E+03 -0.10152046008E+04  0.10462952636E+04  0.17200000000E+03 0. -1.
         -6    1    1    2    0  501  0.14063058196E+03  0.12137724933E+03 -0.41968610662E+03  0.49013245692E+03  0.17200000000E+03 0.  1.
</event>
<event>
 4    1  0.3205520E-002  0.2113381E+03  0.7818608E-02  0.1140511E+00
         -2   -1    0    0    0  501 -0.00000000000E+00  0.00000000000E+00  0.10795021657E+03  0.10795021657E+03  0.00000000000E+00 0.  1.
          2   -1    0    0  502    0  0.00000000000E+00 -0.00000000000E+00 -0.73155932991E+03  0.73155932991E+03  0.00000000000E+00 0. -1.
          6    1    1    2  502    0 -0.95193485534E+02 -0.77575771166E+02 -0.35137150035E+02  0.21423916372E+03  0.17200000000E+03 0.  1.
         -6    1    1    2    0  501  0.95193485534E+02  0.77575771166E+02 -0.58847196330E+03  0.62527038276E+03  0.17200000000E+03 0. -1.
</event>
<event>
 4    1  0.3205520E-002  0.1731098E+03  0.7818608E-02  0.1174643E+00
          2   -1    0    0  502    0  0.00000000000E+00  0.00000000000E+00  0.83978149334E+03  0.83978149334E+03  0.00000000000E+00 0. -1.
         -2   -1    0    0    0  501 -0.00000000000E+00 -0.00000000000E+00 -0.39181689561E+02  0.39181689561E+02  0.00000000000E+00 0.  1.
          6    1    1    2  502    0 -0.15035724341E+02 -0.12527357203E+02  0.26899781300E+03  0.31988565314E+03  0.17200000000E+03 0.  1.
         -6    1    1    2    0  501  0.15035724341E+02  0.12527357203E+02  0.53160199078E+03  0.55907752976E+03  0.17200000000E+03 0. -1.
</event>
<event>
 4    1  0.3205520E-002  0.2237636E+03  0.7818608E-02  0.1131108E+00
          1   -1    0    0  502    0  0.00000000000E+00  0.00000000000E+00  0.22128468193E+03  0.22128468193E+03  0.00000000000E+00 0. -1.
         -1   -1    0    0    0  501 -0.00000000000E+00 -0.00000000000E+00 -0.29870447098E+03  0.29870447098E+03  0.00000000000E+00 0.  1.
          6    1    1    2  502    0  0.12548760831E+03  0.68840310826E+02  0.89321208588E+02  0.24093236922E+03  0.17200000000E+03 0. -1.
         -6    1    1    2    0  501 -0.12548760831E+03 -0.68840310826E+02 -0.16674099763E+03  0.27905678369E+03  0.17200000000E+03 0.  1.
</event>
<event>
 4    1  0.3205520E-002  0.2443833E+03  0.7818608E-02  0.1116907E+00
          1   -1    0    0  502    0  0.00000000000E+00  0.00000000000E+00  0.14123730913E+04  0.14123730913E+04  0.00000000000E+00 0. -1.
         -1   -1    0    0    0  501 -0.00000000000E+00 -0.00000000000E+00 -0.43361311739E+02  0.43361311739E+02  0.00000000000E+00 0.  1.
          6    1    1    2  502    0 -0.17267162990E+03  0.17992043380E+02  0.79914314256E+03  0.83567515681E+03  0.17200000000E+03 0. -1.
         -6    1    1    2    0  501  0.17267162990E+03 -0.17992043380E+02  0.56986863695E+03  0.62005924618E+03  0.17200000000E+03 0. -1.
</event>
<event>
 4    1  0.3205520E-002  0.2182178E+03  0.7818608E-02  0.1135219E+00
         -3   -1    0    0    0  501 -0.00000000000E+00  0.00000000000E+00  0.36352455663E+02  0.36352455663E+02  0.00000000000E+00 0.  1.
          3   -1    0    0  502    0  0.00000000000E+00 -0.00000000000E+00 -0.19320246363E+04  0.19320246363E+04  0.00000000000E+00 0. -1.
          6    1    1    2  502    0  0.78962032485E+02 -0.10862775971E+03 -0.15063087647E+04  0.15220332084E+04  0.17200000000E+03 0. -1.
         -6    1    1    2    0  501 -0.78962032485E+02  0.10862775971E+03 -0.38936341592E+03  0.44634388358E+03  0.17200000000E+03 0.  1.
</event>
<event>
 4    1  0.3205520E-002  0.3386018E+03  0.7818608E-02  0.1067393E+00
          1   -1    0    0  502    0  0.00000000000E+00  0.00000000000E+00  0.11285959170E+04  0.11285959170E+04  0.00000000000E+00 0. -1.
         -1   -1    0    0    0  501 -0.00000000000E+00 -0.00000000000E+00 -0.11571889561E+03  0.11571889561E+03  0.00000000000E+00 0.  1.
          6    1    1    2  502    0 -0.23044630533E+03 -0.17877829430E+03  0.72385449677E+03  0.79913485135E+03  0.17200000000E+03 0. -1.
         -6    1    1    2    0  501  0.23044630533E+03  0.17877829430E+03  0.28902252459E+03  0.44517996122E+03  0.17200000000E+03 0.  1.
</event>
<event>
 4    1  0.3205520E-002  0.2091793E+03  0.7818608E-02  0.1142218E+00
          2   -1    0    0  502    0  0.00000000000E+00  0.00000000000E+00  0.14994901456E+04  0.14994901456E+04  0.00000000000E+00 0. -1.
         -2   -1    0    0    0  501 -0.00000000000E+00 -0.00000000000E+00 -0.29962983111E+02  0.29962983111E+02  0.00000000000E+00 0.  1.
          6    1    1    2  502    0  0.27378290504E+02  0.11585510679E+03  0.61118823900E+03  0.64599306502E+03  0.17200000000E+03 0.  1.
         -6    1    1    2    0  501 -0.27378290504E+02 -0.11585510679E+03  0.85833892346E+03  0.88346006366E+03  0.17200000000E+03 0.  1.
</event>
<event>
 4    1  0.3205520E-002  0.2123931E+03  0.7818608E-02  0.1139685E+00
          3   -1    0    0  502    0  0.00000000000E+00  0.00000000000E+00  0.75408569965E+02  0.75408569965E+02  0.00000000000E+00 0. -1.
         -3   -1    0    0    0  501 -0.00000000000E+00 -0.00000000000E+00 -0.64476512416E+03  0.64476512416E+03  0.00000000000E+00 0.  1.
          6    1    1    2  502    0  0.12288054490E+03 -0.20668922189E+02 -0.18792879193E+03  0.28359841942E+03  0.17200000000E+03 0. -1.
         -6    1    1    2    0  501 -0.12288054490E+03  0.20668922189E+02 -0.38142776226E+03  0.43657527471E+03  0.17200000000E+03 0.  1.
</event>
<event>
 4    1  0.3205520E-002  0.7112988E+03  0.7818608E-02  0.9698102E-01
          1   -1    0    0  502    0  0.00000000000E+00  0.00000000000E+00  0.11472412995E+04  0.11472412995E+04  0.00000000000E+00 0. -1.
         -1   -1    0    0    0  501 -0.00000000000E+00 -0.00000000000E+00 -0.76778202586E+03  0.76778202586E+03  0.00000000000E+00 0.  1.
          6    1    1    2  502    0 -0.24794725442E+03  0.64411500860E+03  0.81439424445E+03  0.10812881072E+04  0.17200000000E+03 0. -1.
         -6    1    1    2    0  501  0.24794725442E+03 -0.64411500860E+03 -0.43493497079E+03  0.83373521822E+03  0.17200000000E+03 0.  1.
</event>
<event>
 4    1  0.3205520E-002  0.4821641E+03  0.7818608E-02  0.1018542E+00
          2   -1    0    0  502    0  0.00000000000E+00  0.00000000000E+00  0.11388518730E+04  0.11388518730E+04  0.00000000000E+00 0. -1.
         -2   -1    0    0    0  501 -0.00000000000E+00 -0.00000000000E+00 -0.20900946791E+03  0.20900946791E+03  0.00000000000E+00 0.  1.
          6    1    1    2  502    0  0.20709400283E+03  0.40001280721E+03  0.56781575144E+03  0.74491402157E+03  0.17200000000E+03 0. -1.
         -6    1    1    2    0  501 -0.20709400283E+03 -0.40001280721E+03  0.36202665363E+03  0.60294731933E+03  0.17200000000E+03 0.  1.
</event>
<event>
 4    1  0.3205520E-002  0.2491498E+03  0.7818608E-02  0.1113843E+00
         -2   -1    0    0    0  501 -0.00000000000E+00  0.00000000000E+00  0.16845187990E+03  0.16845187990E+03  0.00000000000E+00 0.  1.
          2   -1    0    0  502    0  0.00000000000E+00 -0.00000000000E+00 -0.39523945451E+03  0.39523945451E+03  0.00000000000E+00 0. -1.
          6    1    1    2  502    0  0.18024829015E+03  0.14797675121E+01 -0.40093853669E+02  0.25235521179E+03  0.17200000000E+03 0.  1.
         -6    1    1    2    0  501 -0.18024829015E+03 -0.14797675121E+01 -0.18669372094E+03  0.31133612263E+03  0.17200000000E+03 0. -1.
</event>
<event>
 4    1  0.3205520E-002  0.2221636E+03  0.7818608E-02  0.1132280E+00
         -2   -1    0    0    0  501 -0.00000000000E+00  0.00000000000E+00  0.37951595970E+02  0.37951595970E+02  0.00000000000E+00 0.  1.
          2   -1    0    0  502    0  0.00000000000E+00 -0.00000000000E+00 -0.13056013459E+04  0.13056013459E+04  0.00000000000E+00 0. -1.
          6    1    1    2  502    0  0.12362770393E+03 -0.66999034652E+02 -0.59190162492E+03  0.63222164895E+03  0.17200000000E+03 0.  1.
         -6    1    1    2    0  501 -0.12362770393E+03  0.66999034652E+02 -0.67574812498E+03  0.71133129289E+03  0.17200000000E+03 0.  1.
</event>
<event>
 4    1  0.3205520E-002  0.4294601E+03  0.7818608E-02  0.1034031E+00
          2   -1    0    0  502    0  0.00000000000E+00  0.00000000000E+00  0.37169478389E+04  0.37169478389E+04  0.00000000000E+00 0. -1.
         -2   -1    0    0    0  501 -0.00000000000E+00 -0.00000000000E+00 -0.81111617827E+02  0.81111617827E+02  0.00000000000E+00 0.  1.
          6    1    1    2  502    0  0.13637924105E+03  0.36912423734E+03  0.30011933400E+04  0.30317647442E+04  0.17200000000E+03 0. -1.
         -6    1    1    2    0  501 -0.13637924105E+03 -0.36912423734E+03  0.63464288108E+03  0.76629471255E+03  0.17200000000E+03 0.  1.
</event>
<event>
 4    1  0.3205520E-002  0.1797540E+03  0.7818608E-02  0.1168041E+00
          1   -1    0    0  502    0  0.00000000000E+00  0.00000000000E+00  0.40922632959E+03  0.40922632959E+03  0.00000000000E+00 0. -1.
         -1   -1    0    0    0  501 -0.00000000000E+00 -0.00000000000E+00 -0.82468186671E+02  0.82468186671E+02  0.00000000000E+00 0.  1.
          6    1    1    2  502    0 -0.91067077228E+01  0.51425235355E+02  0.21410363596E+03  0.27955653075E+03  0.17200000000E+03 0. -1.
         -6    1    1    2    0  501  0.91067077228E+01 -0.51425235355E+02  0.11265450696E+03  0.21213798551E+03  0.17200000000E+03 0.  1.
</event>
<event>
 4    1  0.3205520E-002  0.3318848E+03  0.7818608E-02  0.1070306E+00
         -2   -1    0    0    0  501 -0.00000000000E+00  0.00000000000E+00  0.41084825295E+02  0.41084825295E+02  0.00000000000E+00 0.  1.
          2   -1    0    0  502    0  0.00000000000E+00 -0.00000000000E+00 -0.27392630858E+04  0.27392630858E+04  0.00000000000E+00 0. -1.
          6    1    1    2  502    0  0.27256895471E+03 -0.79181461496E+02 -0.15518707662E+04  0.15869626379E+04  0.17200000000E+03 0. -1.
         -6    1    1    2    0  501 -0.27256895471E+03  0.79181461496E+02 -0.11463074943E+04  0.11933852732E+04  0.17200000000E+03 0.  1.
</event>
<event>
 4    1  0.3205520E-002  0.2886337E+03  0.7818608E-02  0.1091065E+00
         -2   -1    0    0    0  501 -0.00000000000E+00  0.00000000000E+00  0.26476289282E+03  0.26476289282E+03  0.00000000000E+00 0.  1.
          2   -1    0    0  502    0  0.00000000000E+00 -0.00000000000E+00 -0.38337955877E+03  0.38337955877E+03  0.00000000000E+00 0. -1.
          6    1    1    2  502    0  0.76635141671E+02 -0.21875209148E+03 -0.19651542254E+03  0.34918151979E+03  0.17200000000E+03 0. -1.
         -6    1    1    2    0  501 -0.76635141671E+02  0.21875209148E+03  0.77898756593E+02  0.29896093180E+03  0.17200000000E+03 0. -1.
</event>
<event>
 4    1  0.3205520E-002  0.3497540E+03  0.7818608E-02  0.1062716E+00
          1   -1    0    0  502    0  0.00000000000E+00  0.00000000000E+00  0.11977067327E+03  0.11977067327E+03  0.00000000000E+00 0. -1.
         -1   -1    0    0    0  501 -0.00000000000E+00 -0.00000000000E+00 -0.12636053314E+04  0.12636053314E+04  0.00000000000E+00 0.  1.
          6    1    1    2  502    0 -0.21517463782E+03  0.21550807473E+03 -0.26905824352E+03  0.44127111104E+03  0.17200000000E+03 0. -1.
         -6    1    1    2    0  501  0.21517463782E+03 -0.21550807473E+03 -0.87477641466E+03  0.94210489367E+03  0.17200000000E+03 0.  1.
</event>
<event>
 4    1  0.3205520E-002  0.2308095E+03  0.7818608E-02  0.1126071E+00
          2   -1    0    0  502    0  0.00000000000E+00  0.00000000000E+00  0.71307337627E+03  0.71307337627E+03  0.00000000000E+00 0. -1.
         -2   -1    0    0    0  501 -0.00000000000E+00 -0.00000000000E+00 -0.85290043444E+02  0.85290043444E+02  0.00000000000E+00 0.  1.
          6    1    1    2  502    0  0.13442987355E+00  0.15391231011E+03  0.17329171025E+03  0.28862265004E+03  0.17200000000E+03 0. -1.
         -6    1    1    2    0  501 -0.13442987355E+00 -0.15391231011E+03  0.45449162257E+03  0.50974076967E+03  0.17200000000E+03 0. -1.
</event>
<event>
 4    1  0.3205520E-002  0.3008679E+03  0.7818608E-02  0.1084808E+00
          2   -1    0    0  502    0  0.00000000000E+00  0.00000000000E+00  0.16299409674E+04  0.16299409674E+04  0.00000000000E+00 0. -1.
         -2   -1    0    0    0  501 -0.00000000000E+00 -0.00000000000E+00 -0.10968085086E+03  0.10968085086E+03  0.00000000000E+00 0.  1.
          6    1    1    2  502    0  0.42101423146E+02 -0.24323843819E+03  0.13712625900E+04  0.14038812480E+04  0.17200000000E+03 0. -1.
         -6    1    1    2    0  501 -0.42101423146E+02  0.24323843819E+03  0.14899752657E+03  0.33574057033E+03  0.17200000000E+03 0.  1.
</event>
<event>
 4    1  0.3205520E-002  0.9896497E+03  0.7818608E-02  0.9319970E-01
         -2   -1    0    0    0  501 -0.00000000000E+00  0.00000000000E+00  0.16223328749E+04  0.16223328749E+04  0.00000000000E+00 0.  1.
          2   -1    0    0  502    0  0.00000000000E+00 -0.00000000000E+00 -0.98108776150E+03  0.98108776150E+03  0.00000000000E+00 0. -1.
          6    1    1    2  502    0 -0.73461953411E+03 -0.64043479153E+03 -0.48671066799E+03  0.11028571333E+04  0.17200000000E+03 0. -1.
         -6    1    1    2    0  501  0.73461953411E+03  0.64043479153E+03  0.11279557814E+04  0.15005635031E+04  0.17200000000E+03 0.  1.
</event>
<event>
 4    1  0.3205520E-002  0.2063819E+03  0.7818608E-02  0.1144464E+00
          2   -1    0    0  502    0  0.00000000000E+00  0.00000000000E+00  0.15935987817E+04  0.15935987817E+04  0.00000000000E+00 0. -1.
         -2   -1    0    0    0  501 -0.00000000000E+00 -0.00000000000E+00 -0.27917851275E+02  0.27917851275E+02  0.00000000000E+00 0.  1.
          6    1    1    2  502    0 -0.97338256699E+02  0.59453670089E+02  0.61545279887E+03  0.64913451821E+03  0.17200000000E+03 0. -1.
         -6    1    1    2    0  501  0.97338256699E+02 -0.59453670089E+02  0.95022813159E+03  0.97238211479E+03  0.17200000000E+03 0. -1.
</event>
<event>
 4    1  0.3205520E-002  0.2092270E+03  0.7818608E-02  0.1142180E+00
          2   -1    0    0  502    0  0.00000000000E+00  0.00000000000E+00  0.75873905531E+02  0.75873905531E+02  0.00000000000E+00 0. -1.
         -2   -1    0    0    0  501 -0.00000000000E+00 -0.00000000000E+00 -0.59000388045E+03  0.59000388045E+03  0.00000000000E+00 0.  1.
          6    1    1    2  502    0  0.61811022902E+02 -0.10183982924E+03 -0.20755458235E+03  0.29471148268E+03  0.17200000000E+03 0. -1.
         -6    1    1    2    0  501 -0.61811022902E+02  0.10183982924E+03 -0.30657539257E+03  0.37116630329E+03  0.17200000000E+03 0.  1.
</event>
<event>
 4    1  0.3205520E-002  0.3469263E+03  0.7818608E-02  0.1063884E+00
         -2   -1    0    0    0  501 -0.00000000000E+00  0.00000000000E+00  0.12178254426E+03  0.12178254426E+03  0.00000000000E+00 0.  1.
          2   -1    0    0  502    0  0.00000000000E+00 -0.00000000000E+00 -0.99271132790E+03  0.99271132790E+03  0.00000000000E+00 0. -1.
          6    1    1    2  502    0  0.17884108447E+03 -0.24246585606E+03 -0.47260643135E+03  0.58627183440E+03  0.17200000000E+03 0. -1.
         -6    1    1    2    0  501 -0.17884108447E+03  0.24246585606E+03 -0.39832235228E+03  0.52822203776E+03  0.17200000000E+03 0.  1.
</event>
<event>
 4    1  0.3205520E-002  0.3260128E+03  0.7818608E-02  0.1072915E+00
          2   -1    0    0  502    0  0.00000000000E+00  0.00000000000E+00  0.56691997410E+03  0.56691997410E+03  0.00000000000E+00 0. -1.
         -2   -1    0    0    0  501 -0.00000000000E+00 -0.00000000000E+00 -0.21009796624E+03  0.21009796624E+03  0.00000000000E+00 0.  1.
          6    1    1    2  502    0  0.70854415086E+02  0.26773114526E+03  0.30589277887E+03  0.44705112285E+03  0.17200000000E+03 0. -1.
         -6    1    1    2    0  501 -0.70854415086E+02 -0.26773114526E+03  0.50929228995E+02  0.32996681749E+03  0.17200000000E+03 0.  1.
</event>
<event>
 4    1  0.3205520E-002  0.2106736E+03  0.7818608E-02  0.1141034E+00
         -1   -1    0    0    0  501 -0.00000000000E+00  0.00000000000E+00  0.11288519011E+02  0.11288519011E+02  0.00000000000E+00 0.  1.
          1   -1    0    0  502    0  0.00000000000E+00 -0.00000000000E+00 -0.39396637619E+04  0.39396637619E+04  0.00000000000E+00 0. -1.
          6    1    1    2  502    0 -0.87849979356E+02  0.84153130961E+02 -0.20528582994E+04  0.20636401250E+04  0.17200000000E+03 0.  1.
         -6    1    1    2    0  501  0.87849979356E+02 -0.84153130961E+02 -0.18755169435E+04  0.18873121559E+04  0.17200000000E+03 0.  1.
</event>
<event>
 4    1  0.3205520E-002  0.1903387E+03  0.7818608E-02  0.1158156E+00
          2   -1    0    0  502    0  0.00000000000E+00  0.00000000000E+00  0.73470035708E+03  0.73470035708E+03  0.00000000000E+00 0. -1.
         -2   -1    0    0    0  501 -0.00000000000E+00 -0.00000000000E+00 -0.49684883177E+02  0.49684883177E+02  0.00000000000E+00 0.  1.
          6    1    1    2  502    0 -0.21527075531E+02  0.78621941826E+02  0.30848705139E+03  0.36248184174E+03  0.17200000000E+03 0. -1.
         -6    1    1    2    0  501  0.21527075531E+02 -0.78621941826E+02  0.37652842251E+03  0.42190339851E+03  0.17200000000E+03 0.  1.
</event>
<event>
 4    1  0.3205520E-002  0.2502085E+03  0.7818608E-02  0.1113173E+00
          2   -1    0    0  502    0  0.00000000000E+00  0.00000000000E+00  0.16275415175E+03  0.16275415175E+03  0.00000000000E+00 0. -1.
         -2   -1    0    0    0  501 -0.00000000000E+00 -0.00000000000E+00 -0.95667631997E+03  0.95667631997E+03  0.00000000000E+00 0.  1.
          6    1    1    2  502    0 -0.14897418857E+03 -0.10405277748E+03  0.35842164705E+02  0.25276263595E+03  0.17200000000E+03 0. -1.
         -6    1    1    2    0  501  0.14897418857E+03  0.10405277748E+03 -0.82976433293E+03  0.86666783577E+03  0.17200000000E+03 0.  1.
</event>
<event>
 4    1  0.3205520E-002  0.2754869E+03  0.7818608E-02  0.1098180E+00
         -1   -1    0    0    0  501 -0.00000000000E+00  0.00000000000E+00  0.13331186112E+03  0.13331186112E+03  0.00000000000E+00 0.  1.
          1   -1    0    0  502    0  0.00000000000E+00 -0.00000000000E+00 -0.57140491331E+03  0.57140491331E+03  0.00000000000E+00 0. -1.
          6    1    1    2  502    0  0.12389600732E+03  0.17595109065E+03 -0.24048717049E+03  0.36568714238E+03  0.17200000000E+03 0. -1.
         -6    1    1    2    0  501 -0.12389600732E+03 -0.17595109065E+03 -0.19760588170E+03  0.33902963205E+03  0.17200000000E+03 0.  1.
</event>
<event>
 4    1  0.3205520E-002  0.1847321E+03  0.7818608E-02  0.1163300E+00
         -2   -1    0    0    0  501 -0.00000000000E+00  0.00000000000E+00  0.30091695424E+02  0.30091695424E+02  0.00000000000E+00 0.  1.
          2   -1    0    0  502    0  0.00000000000E+00 -0.00000000000E+00 -0.11524943211E+04  0.11524943211E+04  0.00000000000E+00 0. -1.
          6    1    1    2  502    0 -0.42134238179E+02  0.52598864941E+02 -0.63597341015E+03  0.66225985311E+03  0.17200000000E+03 0. -1.
         -6    1    1    2    0  501  0.42134238179E+02 -0.52598864941E+02 -0.48642921553E+03  0.52032616342E+03  0.17200000000E+03 0.  1.
</event>
<event>
 4    1  0.3205520E-002  0.3543757E+03  0.7818608E-02  0.1060833E+00
         -2   -1    0    0    0  501 -0.00000000000E+00  0.00000000000E+00  0.64151440426E+03  0.64151440426E+03  0.00000000000E+00 0.  1.
          2   -1    0    0  502    0  0.00000000000E+00 -0.00000000000E+00 -0.20449158517E+03  0.20449158517E+03  0.00000000000E+00 0. -1.
          6    1    1    2  502    0 -0.27005622307E+03 -0.15188068530E+03  0.13109731152E+03  0.37784733858E+03  0.17200000000E+03 0.  1.
         -6    1    1    2    0  501  0.27005622307E+03  0.15188068530E+03  0.30592550757E+03  0.46815865085E+03  0.17200000000E+03 0.  1.
</event>
<event>
 4    1  0.3205520E-002  0.5673435E+03  0.7818608E-02  0.9975574E-01
          2   -1    0    0  502    0  0.00000000000E+00  0.00000000000E+00  0.19960370630E+04  0.19960370630E+04  0.00000000000E+00 0. -1.
         -2   -1    0    0    0  501 -0.00000000000E+00 -0.00000000000E+00 -0.18081319084E+03  0.18081319084E+03  0.00000000000E+00 0.  1.
          6    1    1    2  502    0 -0.56207129758E+02 -0.53771315791E+03  0.12655475156E+04  0.13868991296E+04  0.17200000000E+03 0. -1.
         -6    1    1    2    0  501  0.56207129758E+02  0.53771315791E+03  0.54967635657E+03  0.78995112418E+03  0.17200000000E+03 0.  1.
</event>
<event>
 4    1  0.3205520E-002  0.1985211E+03  0.7818608E-02  0.1150993E+00
          2   -1    0    0  502    0  0.00000000000E+00  0.00000000000E+00  0.54700676869E+03  0.54700676869E+03  0.00000000000E+00 0. -1.
         -2   -1    0    0    0  501 -0.00000000000E+00 -0.00000000000E+00 -0.10102327204E+03  0.10102327204E+03  0.00000000000E+00 0.  1.
          6    1    1    2  502    0  0.43970443872E+02  0.88843911686E+02  0.39651976431E+03  0.44343947058E+03  0.17200000000E+03 0. -1.
         -6    1    1    2    0  501 -0.43970443872E+02 -0.88843911686E+02  0.49463732337E+02  0.20459057015E+03  0.17200000000E+03 0.  1.
</event>
<event>
 4    1  0.3205520E-002  0.2966918E+03  0.7818608E-02  0.1086906E+00
          2   -1    0    0  502    0  0.00000000000E+00  0.00000000000E+00  0.37085521417E+03  0.37085521417E+03  0.00000000000E+00 0. -1.
         -2   -1    0    0    0  501 -0.00000000000E+00 -0.00000000000E+00 -0.31186609989E+03  0.31186609989E+03  0.00000000000E+00 0.  1.
          6    1    1    2  502    0  0.34650801665E+01  0.24172307265E+03  0.19634463750E+03  0.35577699098E+03  0.17200000000E+03 0. -1.
         -6    1    1    2    0  501 -0.34650801665E+01 -0.24172307265E+03 -0.13735552322E+03  0.32694432308E+03  0.17200000000E+03 0.  1.
</event>
<event>
 4    1  0.3205520E-002  0.2113599E+03  0.7818608E-02  0.1140494E+00
         -4   -1    0    0    0  501 -0.00000000000E+00  0.00000000000E+00  0.17547109585E+03  0.17547109585E+03  0.00000000000E+00 0.  1.
          4   -1    0    0  502    0  0.00000000000E+00 -0.00000000000E+00 -0.29301734608E+03  0.29301734608E+03  0.00000000000E+00 0. -1.
          6    1    1    2  502    0  0.32676617225E+02  0.11841139431E+03 -0.14360279626E+03  0.25552843816E+03  0.17200000000E+03 0. -1.
         -6    1    1    2    0  501 -0.32676617225E+02 -0.11841139431E+03  0.26056546034E+02  0.21296000377E+03  0.17200000000E+03 0.  1.
</event>
<event>
 4    1  0.3205520E-002  0.2936506E+03  0.7818608E-02  0.1088458E+00
         -2   -1    0    0    0  501 -0.00000000000E+00  0.00000000000E+00  0.93508839987E+02  0.93508839987E+02  0.00000000000E+00 0.  1.
          2   -1    0    0  502    0  0.00000000000E+00 -0.00000000000E+00 -0.11059659229E+04  0.11059659229E+04  0.00000000000E+00 0. -1.
          6    1    1    2  502    0 -0.18237098548E+03  0.15292967192E+03 -0.75071964502E+03  0.80610833410E+03  0.17200000000E+03 0. -1.
         -6    1    1    2    0  501  0.18237098548E+03 -0.15292967192E+03 -0.26173743789E+03  0.39336642878E+03  0.17200000000E+03 0.  1.
</event>
<event>
 4    1  0.3205520E-002  0.2114533E+03  0.7818608E-02  0.1140420E+00
          2   -1    0    0  502    0  0.00000000000E+00  0.00000000000E+00  0.41762504065E+03  0.41762504065E+03  0.00000000000E+00 0. -1.
         -2   -1    0    0    0  501 -0.00000000000E+00 -0.00000000000E+00 -0.13154057035E+03  0.13154057035E+03  0.00000000000E+00 0.  1.
          6    1    1    2  502    0 -0.12245203354E+03 -0.11575357270E+02  0.26148847145E+03  0.33628664873E+03  0.17200000000E+03 0. -1.
         -6    1    1    2    0  501  0.12245203354E+03  0.11575357270E+02  0.24595998849E+02  0.21287896226E+03  0.17200000000E+03 0.  1.
</event>
<event>
 4    1  0.3205520E-002  0.1916304E+03  0.7818608E-02  0.1156999E+00
         -2   -1    0    0    0  501 -0.00000000000E+00  0.00000000000E+00  0.16629681689E+02  0.16629681689E+02  0.00000000000E+00 0.  1.
          2   -1    0    0  502    0  0.00000000000E+00 -0.00000000000E+00 -0.26157840499E+04  0.26157840499E+04  0.00000000000E+00 0. -1.
          6    1    1    2  502    0 -0.18620863911E+02  0.82410440076E+02 -0.18191112696E+04  0.18291768718E+04  0.17200000000E+03 0. -1.
         -6    1    1    2    0  501  0.18620863911E+02 -0.82410440076E+02 -0.78004309862E+03  0.80323685978E+03  0.17200000000E+03 0.  1.
</event>
<event>
 4    1  0.3205520E-002  0.4655337E+03  0.7818608E-02  0.1023188E+00
         -2   -1    0    0    0  501 -0.00000000000E+00  0.00000000000E+00  0.66795463136E+02  0.66795463136E+02  0.00000000000E+00 0.  1.
          2   -1    0    0  502    0  0.00000000000E+00 -0.00000000000E+00 -0.32461577437E+04  0.32461577437E+04  0.00000000000E+00 0. -1.
          6    1    1    2  502    0  0.38321148178E+03 -0.20071529122E+03 -0.15528935632E+04  0.16211724420E+04  0.17200000000E+03 0. -1.
         -6    1    1    2    0  501 -0.38321148178E+03  0.20071529122E+03 -0.16264687173E+04  0.16917807649E+04  0.17200000000E+03 0.  1.
</event>
<event>
 4    1  0.3205520E-002  0.2094771E+03  0.7818608E-02  0.1141981E+00
         -1   -1    0    0    0  501 -0.00000000000E+00  0.00000000000E+00  0.22962257636E+02  0.22962257636E+02  0.00000000000E+00 0.  1.
          1   -1    0    0  502    0  0.00000000000E+00 -0.00000000000E+00 -0.25255415727E+04  0.25255415727E+04  0.00000000000E+00 0. -1.
          6    1    1    2  502    0 -0.52584058201E+02  0.10738517110E+03 -0.18798644993E+04  0.18914997208E+04  0.17200000000E+03 0. -1.
         -6    1    1    2    0  501  0.52584058201E+02 -0.10738517110E+03 -0.62271481584E+03  0.65700410959E+03  0.17200000000E+03 0. -1.
</event>
<event>
 4    1  0.3205520E-002  0.1953620E+03  0.7818608E-02  0.1153712E+00
          1   -1    0    0  502    0  0.00000000000E+00  0.00000000000E+00  0.16839737025E+03  0.16839737025E+03  0.00000000000E+00 0. -1.
         -1   -1    0    0    0  501 -0.00000000000E+00 -0.00000000000E+00 -0.24590635187E+03  0.24590635187E+03  0.00000000000E+00 0.  1.
          6    1    1    2  502    0 -0.22019082207E+02 -0.89986003718E+02  0.19222292887E+02  0.19630541865E+03  0.17200000000E+03 0. -1.
         -6    1    1    2    0  501  0.22019082207E+02  0.89986003718E+02 -0.96731274505E+02  0.21799830347E+03  0.17200000000E+03 0.  1.
</event>
<event>
 4    1  0.3205520E-002  0.4097471E+03  0.7818608E-02  0.1040456E+00
         -2   -1    0    0    0  501 -0.00000000000E+00  0.00000000000E+00  0.17283218822E+03  0.17283218822E+03  0.00000000000E+00 0.  1.
          2   -1    0    0  502    0  0.00000000000E+00 -0.00000000000E+00 -0.15369568392E+04  0.15369568392E+04  0.00000000000E+00 0. -1.
          6    1    1    2  502    0 -0.17466150410E+03 -0.32833216594E+03 -0.16348666806E+03  0.44115818347E+03  0.17200000000E+03 0.  1.
         -6    1    1    2    0  501  0.17466150410E+03  0.32833216594E+03 -0.12006379830E+04  0.12686308440E+04  0.17200000000E+03 0. -1.
</event>
<event>
 4    1  0.3205520E-002  0.1977474E+03  0.7818608E-02  0.1151654E+00
         -1   -1    0    0    0  501 -0.00000000000E+00  0.00000000000E+00  0.13341490119E+03  0.13341490119E+03  0.00000000000E+00 0.  1.
          1   -1    0    0  502    0  0.00000000000E+00 -0.00000000000E+00 -0.87452623837E+03  0.87452623837E+03  0.00000000000E+00 0. -1.
          6    1    1    2  502    0 -0.65793851983E+02  0.72050035710E+02 -0.78148363614E+03  0.80611457756E+03  0.17200000000E+03 0. -1.
         -6    1    1    2    0  501  0.65793851983E+02 -0.72050035710E+02  0.40372298957E+02  0.20182656200E+03  0.17200000000E+03 0.  1.
</event>
<event>
 4    1  0.3205520E-002  0.1834905E+03  0.7818608E-02  0.1164467E+00
         -2   -1    0    0    0  501 -0.00000000000E+00  0.00000000000E+00  0.11870425284E+03  0.11870425284E+03  0.00000000000E+00 0.  1.
          2   -1    0    0  502    0  0.00000000000E+00 -0.00000000000E+00 -0.44683484285E+03  0.44683484285E+03  0.00000000000E+00 0. -1.
          6    1    1    2  502    0 -0.59500441924E+02 -0.23333775933E+02 -0.33495583247E+03  0.38192169013E+03  0.17200000000E+03 0. -1.
         -6    1    1    2    0  501  0.59500441924E+02  0.23333775933E+02  0.68252424511E+01  0.18361740556E+03  0.17200000000E+03 0.  1.
</event>
<event>
 4    1  0.3205520E-002  0.2000261E+03  0.7818608E-02  0.1149717E+00
          1   -1    0    0  502    0  0.00000000000E+00  0.00000000000E+00  0.48526832048E+03  0.48526832048E+03  0.00000000000E+00 0. -1.
         -1   -1    0    0    0  501 -0.00000000000E+00 -0.00000000000E+00 -0.14737114341E+03  0.14737114341E+03  0.00000000000E+00 0.  1.
          6    1    1    2  502    0  0.74973642360E+02  0.69320819762E+02 -0.40999919285E+02  0.20418476065E+03  0.17200000000E+03 0.  1.
         -6    1    1    2    0  501 -0.74973642360E+02 -0.69320819762E+02  0.37889709636E+03  0.42845470324E+03  0.17200000000E+03 0. -1.
</event>
<event>
 4    1  0.3205520E-002  0.1960030E+03  0.7818608E-02  0.1153156E+00
         -1   -1    0    0    0  501 -0.00000000000E+00  0.00000000000E+00  0.22246108887E+03  0.22246108887E+03  0.00000000000E+00 0.  1.
          1   -1    0    0  502    0  0.00000000000E+00 -0.00000000000E+00 -0.24379614870E+03  0.24379614870E+03  0.00000000000E+00 0. -1.
          6    1    1    2  502    0  0.32946049767E+02  0.88021147118E+02 -0.13656900518E+03  0.23888963500E+03  0.17200000000E+03 0. -1.
         -6    1    1    2    0  501 -0.32946049767E+02 -0.88021147118E+02  0.11523394535E+03  0.22736760257E+03  0.17200000000E+03 0. -1.
</event>
<event>
 4    1  0.3205520E-002  0.2706589E+03  0.7818608E-02  0.1100903E+00
          2   -1    0    0  502    0  0.00000000000E+00  0.00000000000E+00  0.14833218250E+03  0.14833218250E+03  0.00000000000E+00 0. -1.
         -2   -1    0    0    0  501 -0.00000000000E+00 -0.00000000000E+00 -0.12119269395E+04  0.12119269395E+04  0.00000000000E+00 0.  1.
          6    1    1    2  502    0 -0.20499324801E+03 -0.40620339883E+02 -0.82764618415E+01  0.27078541978E+03  0.17200000000E+03 0. -1.
         -6    1    1    2    0  501  0.20499324801E+03  0.40620339883E+02 -0.10553182952E+04  0.10894737023E+04  0.17200000000E+03 0.  1.
</event>
<event>
 4    1  0.3205520E-002  0.2123292E+03  0.7818608E-02  0.1139735E+00
         -2   -1    0    0    0  501 -0.00000000000E+00  0.00000000000E+00  0.13218756821E+03  0.13218756821E+03  0.00000000000E+00 0.  1.
          2   -1    0    0  502    0  0.00000000000E+00 -0.00000000000E+00 -0.43498351932E+03  0.43498351932E+03  0.00000000000E+00 0. -1.
          6    1    1    2  502    0  0.11276423346E+03  0.52762695285E+02 -0.19621262036E+02  0.21323383476E+03  0.17200000000E+03 0.  1.
         -6    1    1    2    0  501 -0.11276423346E+03 -0.52762695285E+02 -0.28317468908E+03  0.35393725277E+03  0.17200000000E+03 0. -1.
</event>
<event>
 4    1  0.3205520E-002  0.1960429E+03  0.7818608E-02  0.1153121E+00
         -2   -1    0    0    0  501 -0.00000000000E+00  0.00000000000E+00  0.41195605670E+02  0.41195605670E+02  0.00000000000E+00 0.  1.
          2   -1    0    0  502    0  0.00000000000E+00 -0.00000000000E+00 -0.95426598528E+03  0.95426598528E+03  0.00000000000E+00 0. -1.
          6    1    1    2  502    0 -0.85923334791E+02  0.38288507087E+02 -0.53095071528E+03  0.56598718298E+03  0.17200000000E+03 0.  1.
         -6    1    1    2    0  501  0.85923334791E+02 -0.38288507087E+02 -0.38211966432E+03  0.42947440797E+03  0.17200000000E+03 0. -1.
</event>
<event>
 4    1  0.3205520E-002  0.2566947E+03  0.7818608E-02  0.1109146E+00
          2   -1    0    0  502    0  0.00000000000E+00  0.00000000000E+00  0.87420066998E+03  0.87420066998E+03  0.00000000000E+00 0. -1.
         -2   -1    0    0    0  501 -0.00000000000E+00 -0.00000000000E+00 -0.13624949213E+03  0.13624949213E+03  0.00000000000E+00 0.  1.
          6    1    1    2  502    0  0.17895159090E+03 -0.65456113140E+02  0.70668097828E+03  0.75185781880E+03  0.17200000000E+03 0. -1.
         -6    1    1    2    0  501 -0.17895159090E+03  0.65456113140E+02  0.31270199571E+02  0.25859234330E+03  0.17200000000E+03 0.  1.
</event>
<event>
 4    1  0.3205520E-002  0.2111075E+03  0.7818608E-02  0.1140692E+00
         -2   -1    0    0    0  501 -0.00000000000E+00  0.00000000000E+00  0.81745502697E+02  0.81745502697E+02  0.00000000000E+00 0.  1.
          2   -1    0    0  502    0  0.00000000000E+00 -0.00000000000E+00 -0.58121569460E+03  0.58121569460E+03  0.00000000000E+00 0. -1.
          6    1    1    2  502    0 -0.12231127465E+03  0.47252328685E+01 -0.33226838792E+03  0.39366058648E+03  0.17200000000E+03 0. -1.
         -6    1    1    2    0  501  0.12231127465E+03 -0.47252328685E+01 -0.16720180398E+03  0.26930061082E+03  0.17200000000E+03 0.  1.
</event>
<event>
 4    1  0.3205520E-002  0.2317940E+03  0.7818608E-02  0.1125383E+00
         -3   -1    0    0    0  501 -0.00000000000E+00  0.00000000000E+00  0.41904324020E+02  0.41904324020E+02  0.00000000000E+00 0.  1.
          3   -1    0    0  502    0  0.00000000000E+00 -0.00000000000E+00 -0.14355569119E+04  0.14355569119E+04  0.00000000000E+00 0. -1.
          6    1    1    2  502    0  0.82451308568E+02  0.13170516967E+03 -0.93830005534E+03  0.96650683591E+03  0.17200000000E+03 0. -1.
         -6    1    1    2    0  501 -0.82451308568E+02 -0.13170516967E+03 -0.45535253255E+03  0.51095440002E+03  0.17200000000E+03 0.  1.
</event>
<event>
 4    1  0.3205520E-002  0.1957103E+03  0.7818608E-02  0.1153410E+00
         -2   -1    0    0    0  501 -0.00000000000E+00  0.00000000000E+00  0.81647965070E+02  0.81647965070E+02  0.00000000000E+00 0.  1.
          2   -1    0    0  502    0  0.00000000000E+00 -0.00000000000E+00 -0.65488136419E+03  0.65488136419E+03  0.00000000000E+00 0. -1.
          6    1    1    2  502    0  0.89976088045E+02  0.24956525828E+02 -0.48275339145E+03  0.52091588722E+03  0.17200000000E+03 0. -1.
         -6    1    1    2    0  501 -0.89976088045E+02 -0.24956525828E+02 -0.90480007673E+02  0.21561344204E+03  0.17200000000E+03 0.  1.
</event>
<event>
 4    1  0.3205520E-002  0.2405665E+03  0.7818608E-02  0.1119416E+00
         -1   -1    0    0    0  501 -0.00000000000E+00  0.00000000000E+00  0.41787328771E+02  0.41787328771E+02  0.00000000000E+00 0.  1.
          1   -1    0    0  502    0  0.00000000000E+00 -0.00000000000E+00 -0.16945295305E+04  0.16945295305E+04  0.00000000000E+00 0. -1.
          6    1    1    2  502    0  0.15915441354E+02 -0.16743631396E+03 -0.11974614647E+04  0.12213869902E+04  0.17200000000E+03 0. -1.
         -6    1    1    2    0  501 -0.15915441354E+02  0.16743631396E+03 -0.45528073707E+03  0.51492986906E+03  0.17200000000E+03 0.  1.
</event>
<event>
 4    1  0.3205520E-002  0.1851041E+03  0.7818608E-02  0.1162953E+00
         -2   -1    0    0    0  501 -0.00000000000E+00  0.00000000000E+00  0.53123201096E+02  0.53123201096E+02  0.00000000000E+00 0.  1.
          2   -1    0    0  502    0  0.00000000000E+00 -0.00000000000E+00 -0.70686799753E+03  0.70686799753E+03  0.00000000000E+00 0. -1.
          6    1    1    2  502    0 -0.68283420379E+02  0.41095503928E+01 -0.21443643433E+03  0.28327812883E+03  0.17200000000E+03 0.  1.
         -6    1    1    2    0  501  0.68283420379E+02 -0.41095503928E+01 -0.43930836210E+03  0.47671306979E+03  0.17200000000E+03 0. -1.
</event>
<event>
 4    1  0.3205520E-002  0.3202016E+03  0.7818608E-02  0.1075557E+00
          2   -1    0    0  502    0  0.00000000000E+00  0.00000000000E+00  0.18343439115E+04  0.18343439115E+04  0.00000000000E+00 0. -1.
         -2   -1    0    0    0  501 -0.00000000000E+00 -0.00000000000E+00 -0.69059297655E+02  0.69059297655E+02  0.00000000000E+00 0.  1.
          6    1    1    2  502    0  0.21181210349E+03 -0.16757287574E+03  0.12981730020E+04  0.13370797205E+04  0.17200000000E+03 0. -1.
         -6    1    1    2    0  501 -0.21181210349E+03  0.16757287574E+03  0.46711161182E+03  0.56632348862E+03  0.17200000000E+03 0.  1.
</event>
<event>
 4    1  0.3205520E-002  0.2231752E+03  0.7818608E-02  0.1131538E+00
          2   -1    0    0  502    0  0.00000000000E+00  0.00000000000E+00  0.22204147357E+04  0.22204147357E+04  0.00000000000E+00 0. -1.
         -2   -1    0    0    0  501 -0.00000000000E+00 -0.00000000000E+00 -0.37104953951E+02  0.37104953951E+02  0.00000000000E+00 0.  1.
          6    1    1    2  502    0  0.57019340240E+02 -0.13027651403E+03  0.18014813195E+04  0.18152526325E+04  0.17200000000E+03 0. -1.
         -6    1    1    2    0  501 -0.57019340240E+02  0.13027651403E+03  0.38182846229E+03  0.44226705720E+03  0.17200000000E+03 0.  1.
</event>
<event>
 4    1  0.3205520E-002  0.1920131E+03  0.7818608E-02  0.1156658E+00
         -2   -1    0    0    0  501 -0.00000000000E+00  0.00000000000E+00  0.50647699104E+02  0.50647699104E+02  0.00000000000E+00 0.  1.
          2   -1    0    0  502    0  0.00000000000E+00 -0.00000000000E+00 -0.75530444824E+03  0.75530444824E+03  0.00000000000E+00 0. -1.
          6    1    1    2  502    0 -0.48232644476E+02 -0.70417766058E+02 -0.27564110892E+03  0.33592718065E+03  0.17200000000E+03 0.  1.
         -6    1    1    2    0  501  0.48232644476E+02  0.70417766058E+02 -0.42901564022E+03  0.47002496670E+03  0.17200000000E+03 0.  1.
</event>
<event>
 4    1  0.3205520E-002  0.2700686E+03  0.7818608E-02  0.1101240E+00
          2   -1    0    0  502    0  0.00000000000E+00  0.00000000000E+00  0.18210734178E+04  0.18210734178E+04  0.00000000000E+00 0. -1.
         -2   -1    0    0    0  501 -0.00000000000E+00 -0.00000000000E+00 -0.14872122464E+03  0.14872122464E+03  0.00000000000E+00 0.  1.
          6    1    1    2  502    0  0.18881273030E+03 -0.87765544060E+02  0.16780720391E+04  0.16996654984E+04  0.17200000000E+03 0. -1.
         -6    1    1    2    0  501 -0.18881273030E+03  0.87765544060E+02 -0.57198459499E+01  0.27012914409E+03  0.17200000000E+03 0.  1.
</event>
<event>
 4    1  0.3205520E-002  0.1788745E+03  0.7818608E-02  0.1168897E+00
          1   -1    0    0  502    0  0.00000000000E+00  0.00000000000E+00  0.52440836679E+03  0.52440836679E+03  0.00000000000E+00 0. -1.
         -1   -1    0    0    0  501 -0.00000000000E+00 -0.00000000000E+00 -0.66715801937E+02  0.66715801937E+02  0.00000000000E+00 0.  1.
          6    1    1    2  502    0  0.39132055959E+02  0.29677981230E+02  0.14243878109E+03  0.22865893101E+03  0.17200000000E+03 0.  1.
         -6    1    1    2    0  501 -0.39132055959E+02 -0.29677981230E+02  0.31525378377E+03  0.36246523772E+03  0.17200000000E+03 0. -1.
</event>
<event>
 4    1  0.3205520E-002  0.4098218E+03  0.7818608E-02  0.1040431E+00
         -2   -1    0    0    0  501 -0.00000000000E+00  0.00000000000E+00  0.67701330486E+02  0.67701330486E+02  0.00000000000E+00 0.  1.
          2   -1    0    0  502    0  0.00000000000E+00 -0.00000000000E+00 -0.24837049824E+04  0.24837049824E+04  0.00000000000E+00 0. -1.
          6    1    1    2  502    0 -0.16222996429E+03 -0.33474066467E+03 -0.11644190742E+04  0.12344333332E+04  0.17200000000E+03 0. -1.
         -6    1    1    2    0  501  0.16222996429E+03  0.33474066467E+03 -0.12515845777E+04  0.13169729797E+04  0.17200000000E+03 0.  1.
</event>
<event>
 4    1  0.3205520E-002  0.2234651E+03  0.7818608E-02  0.1131326E+00
          2   -1    0    0  502    0  0.00000000000E+00  0.00000000000E+00  0.11120942735E+04  0.11120942735E+04  0.00000000000E+00 0. -1.
         -2   -1    0    0    0  501 -0.00000000000E+00 -0.00000000000E+00 -0.64865643680E+02  0.64865643680E+02  0.00000000000E+00 0.  1.
          6    1    1    2  502    0  0.97694609733E+02  0.10396345971E+03  0.85007486755E+03  0.87895615259E+03  0.17200000000E+03 0. -1.
         -6    1    1    2    0  501 -0.97694609733E+02 -0.10396345971E+03  0.19715376222E+03  0.29800376455E+03  0.17200000000E+03 0.  1.
</event>
<event>
 4    1  0.3205520E-002  0.2169904E+03  0.7818608E-02  0.1136147E+00
         -1   -1    0    0    0  501 -0.00000000000E+00  0.00000000000E+00  0.10239530769E+03  0.10239530769E+03  0.00000000000E+00 0.  1.
          1   -1    0    0  502    0  0.00000000000E+00 -0.00000000000E+00 -0.84446875932E+03  0.84446875932E+03  0.00000000000E+00 0. -1.
          6    1    1    2  502    0  0.10770804479E+03  0.76810194269E+02 -0.69055094748E+03  0.72384075592E+03  0.17200000000E+03 0. -1.
         -6    1    1    2    0  501 -0.10770804479E+03 -0.76810194269E+02 -0.51522504144E+02  0.22302331109E+03  0.17200000000E+03 0.  1.
</event>
<event>
 4    1  0.3205520E-002  0.2669865E+03  0.7818608E-02  0.1103017E+00
          2   -1    0    0  502    0  0.00000000000E+00  0.00000000000E+00  0.55289707650E+03  0.55289707650E+03  0.00000000000E+00 0. -1.
         -2   -1    0    0    0  501 -0.00000000000E+00 -0.00000000000E+00 -0.12967536784E+03  0.12967536784E+03  0.00000000000E+00 0.  1.
          6    1    1    2  502    0 -0.20192949123E+03  0.30368912331E+02  0.18563495869E+03  0.32518014723E+03  0.17200000000E+03 0. -1.
         -6    1    1    2    0  501  0.20192949123E+03 -0.30368912331E+02  0.23758674998E+03  0.35739229711E+03  0.17200000000E+03 0.  1.
</event>
<event>
 4    1  0.3205520E-002  0.2989957E+03  0.7818608E-02  0.1085744E+00
          2   -1    0    0  502    0  0.00000000000E+00  0.00000000000E+00  0.11623165261E+04  0.11623165261E+04  0.00000000000E+00 0. -1.
         -2   -1    0    0    0  501 -0.00000000000E+00 -0.00000000000E+00 -0.10038104982E+03  0.10038104982E+03  0.00000000000E+00 0.  1.
          6    1    1    2  502    0  0.19686620168E+03 -0.14511425367E+03  0.83622953475E+03  0.88807560645E+03  0.17200000000E+03 0. -1.
         -6    1    1    2    0  501 -0.19686620168E+03  0.14511425367E+03  0.22570594157E+03  0.37462196952E+03  0.17200000000E+03 0.  1.
</event>
<event>
 4    1  0.3205520E-002  0.3270460E+03  0.7818608E-02  0.1072451E+00
         -2   -1    0    0    0  501 -0.00000000000E+00  0.00000000000E+00  0.10130415894E+03  0.10130415894E+03  0.00000000000E+00 0.  1.
          2   -1    0    0  502    0  0.00000000000E+00 -0.00000000000E+00 -0.30518067512E+04  0.30518067512E+04  0.00000000000E+00 0. -1.
          6    1    1    2  502    0  0.16452641898E+02 -0.27767680890E+03 -0.27502490242E+04  0.27696261110E+04  0.17200000000E+03 0. -1.
         -6    1    1    2    0  501 -0.16452641898E+02  0.27767680890E+03 -0.20025356801E+03  0.38348479908E+03  0.17200000000E+03 0.  1.
</event>
<event>
 4    1  0.3205520E-002  0.1800056E+03  0.7818608E-02  0.1167798E+00
          2   -1    0    0  502    0  0.00000000000E+00  0.00000000000E+00  0.34337321153E+03  0.34337321153E+03  0.00000000000E+00 0. -1.
         -2   -1    0    0    0  501 -0.00000000000E+00 -0.00000000000E+00 -0.11656565357E+03  0.11656565357E+03  0.00000000000E+00 0.  1.
          6    1    1    2  502    0  0.36874440089E+02 -0.38187427590E+02  0.21376809897E+03  0.27946163260E+03  0.17200000000E+03 0. -1.
         -6    1    1    2    0  501 -0.36874440089E+02  0.38187427590E+02  0.13039458984E+02  0.18047723249E+03  0.17200000000E+03 0.  1.
</event>
<event>
 4    1  0.3205520E-002  0.2035564E+03  0.7818608E-02  0.1146773E+00
          1   -1    0    0  502    0  0.00000000000E+00  0.00000000000E+00  0.25695425926E+03  0.25695425926E+03  0.00000000000E+00 0. -1.
         -1   -1    0    0    0  501 -0.00000000000E+00 -0.00000000000E+00 -0.16204282826E+03  0.16204282826E+03  0.00000000000E+00 0.  1.
          6    1    1    2  502    0 -0.69578645548E+02  0.83725756601E+02  0.32849138475E+02  0.20618985458E+03  0.17200000000E+03 0. -1.
         -6    1    1    2    0  501  0.69578645548E+02 -0.83725756601E+02  0.62062292530E+02  0.21280723293E+03  0.17200000000E+03 0. -1.
</event>
<event>
 4    1  0.3205520E-002  0.1810345E+03  0.7818608E-02  0.1166806E+00
          1   -1    0    0  502    0  0.00000000000E+00  0.00000000000E+00  0.31614030796E+02  0.31614030796E+02  0.00000000000E+00 0. -1.
         -1   -1    0    0    0  501 -0.00000000000E+00 -0.00000000000E+00 -0.11631024405E+04  0.11631024405E+04  0.00000000000E+00 0.  1.
          6    1    1    2  502    0  0.46105247296E+02  0.32615696218E+02 -0.36879853739E+03  0.41083553723E+03  0.17200000000E+03 0. -1.
         -6    1    1    2    0  501 -0.46105247296E+02 -0.32615696218E+02 -0.76268987234E+03  0.78388093410E+03  0.17200000000E+03 0.  1.
</event>
<event>
 4    1  0.3205520E-002  0.2295587E+03  0.7818608E-02  0.1126951E+00
         -1   -1    0    0    0  501 -0.00000000000E+00  0.00000000000E+00  0.37455725620E+02  0.37455725620E+02  0.00000000000E+00 0.  1.
          1   -1    0    0  502    0  0.00000000000E+00 -0.00000000000E+00 -0.18486457049E+04  0.18486457049E+04  0.00000000000E+00 0. -1.
          6    1    1    2  502    0  0.14643664796E+03  0.40859492147E+02 -0.13665778711E+04  0.13857244559E+04  0.17200000000E+03 0.  1.
         -6    1    1    2    0  501 -0.14643664796E+03 -0.40859492147E+02 -0.44461210816E+03  0.50037697457E+03  0.17200000000E+03 0.  1.
</event>
<event>
 4    1  0.3205520E-002  0.3197869E+03  0.7818608E-02  0.1075747E+00
         -2   -1    0    0    0  501 -0.00000000000E+00  0.00000000000E+00  0.12864331151E+03  0.12864331151E+03  0.00000000000E+00 0.  1.
          2   -1    0    0  502    0  0.00000000000E+00 -0.00000000000E+00 -0.82066684598E+03  0.82066684598E+03  0.00000000000E+00 0. -1.
          6    1    1    2  502    0 -0.23545289104E+03 -0.13130719282E+03 -0.26197049141E+03  0.41339107532E+03  0.17200000000E+03 0. -1.
         -6    1    1    2    0  501  0.23545289104E+03  0.13130719282E+03 -0.43005304306E+03  0.53591908217E+03  0.17200000000E+03 0. -1.
</event>
<event>
 4    1  0.3205520E-002  0.2047038E+03  0.7818608E-02  0.1145830E+00
          1   -1    0    0  502    0  0.00000000000E+00  0.00000000000E+00  0.42588449428E+03  0.42588449428E+03  0.00000000000E+00 0. -1.
         -1   -1    0    0    0  501 -0.00000000000E+00 -0.00000000000E+00 -0.10413090310E+03  0.10413090310E+03  0.00000000000E+00 0.  1.
          6    1    1    2  502    0  0.88164395857E+02  0.67428984021E+02  0.22309006041E+03  0.30277517011E+03  0.17200000000E+03 0. -1.
         -6    1    1    2    0  501 -0.88164395857E+02 -0.67428984021E+02  0.98663530774E+02  0.22724022727E+03  0.17200000000E+03 0.  1.
</event>
<event>
 4    1  0.3205520E-002  0.3469262E+03  0.7818608E-02  0.1063884E+00
         -2   -1    0    0    0  501 -0.00000000000E+00  0.00000000000E+00  0.24163048767E+04  0.24163048767E+04  0.00000000000E+00 0.  1.
          2   -1    0    0  502    0  0.00000000000E+00 -0.00000000000E+00 -0.55762906773E+02  0.55762906773E+02  0.00000000000E+00 0. -1.
          6    1    1    2  502    0  0.27408053574E+03  0.12511467753E+03  0.77644254242E+03  0.85042392034E+03  0.17200000000E+03 0.  1.
         -6    1    1    2    0  501 -0.27408053574E+03 -0.12511467753E+03  0.15840994275E+04  0.16216438631E+04  0.17200000000E+03 0.  1.
</event>
<event>
 4    1  0.3205520E-002  0.4645804E+03  0.7818608E-02  0.1023461E+00
         -1   -1    0    0    0  501 -0.00000000000E+00  0.00000000000E+00  0.17243970849E+03  0.17243970849E+03  0.00000000000E+00 0.  1.
          1   -1    0    0  502    0  0.00000000000E+00 -0.00000000000E+00 -0.24425092164E+04  0.24425092164E+04  0.00000000000E+00 0. -1.
          6    1    1    2  502    0 -0.35419963011E+03 -0.24656348269E+03 -0.20479795314E+04  0.21000131166E+04  0.17200000000E+03 0. -1.
         -6    1    1    2    0  501  0.35419963011E+03  0.24656348269E+03 -0.22208997650E+03  0.51493580826E+03  0.17200000000E+03 0.  1.
</event>
<event>
 4    1  0.3205520E-002  0.5735252E+03  0.7818608E-02  0.9961908E-01
         -2   -1    0    0    0  501 -0.00000000000E+00  0.00000000000E+00  0.67594540789E+03  0.67594540789E+03  0.00000000000E+00 0.  1.
          2   -1    0    0  502    0  0.00000000000E+00 -0.00000000000E+00 -0.10746061389E+04  0.10746061389E+04  0.00000000000E+00 0. -1.
          6    1    1    2  502    0  0.23665236759E+03 -0.49329784125E+03 -0.84677464906E+03  0.10227210810E+04  0.17200000000E+03 0. -1.
         -6    1    1    2    0  501 -0.23665236759E+03  0.49329784125E+03  0.44811391809E+03  0.72783046574E+03  0.17200000000E+03 0.  1.
</event>
<event>
 4    1  0.3205520E-002  0.2172728E+03  0.7818608E-02  0.1135933E+00
          2   -1    0    0  502    0  0.00000000000E+00  0.00000000000E+00  0.16618256223E+04  0.16618256223E+04  0.00000000000E+00 0. -1.
         -2   -1    0    0    0  501 -0.00000000000E+00 -0.00000000000E+00 -0.34291988765E+02  0.34291988765E+02  0.00000000000E+00 0.  1.
          6    1    1    2  502    0 -0.94537440794E+02  0.93199488617E+02  0.46244701460E+03  0.51094492238E+03  0.17200000000E+03 0. -1.
         -6    1    1    2    0  501  0.94537440794E+02 -0.93199488617E+02  0.11650866189E+04  0.11851726886E+04  0.17200000000E+03 0.  1.
</event>
<event>
 4    1  0.3205520E-002  0.1940480E+03  0.7818608E-02  0.1154860E+00
          2   -1    0    0  502    0  0.00000000000E+00  0.00000000000E+00  0.31942424482E+02  0.31942424482E+02  0.00000000000E+00 0. -1.
         -2   -1    0    0    0  501 -0.00000000000E+00 -0.00000000000E+00 -0.11989527162E+04  0.11989527162E+04  0.00000000000E+00 0.  1.
          6    1    1    2  502    0  0.48388586451E+02  0.75691399361E+02 -0.66324006196E+03  0.69104415418E+03  0.17200000000E+03 0. -1.
         -6    1    1    2    0  501 -0.48388586451E+02 -0.75691399361E+02 -0.50377022974E+03  0.53985098648E+03  0.17200000000E+03 0.  1.
</event>
<event>
 4    1  0.3205520E-002  0.5384543E+03  0.7818608E-02  0.1004202E+00
         -1   -1    0    0    0  501 -0.00000000000E+00  0.00000000000E+00  0.52832091799E+03  0.52832091799E+03  0.00000000000E+00 0.  1.
          1   -1    0    0  502    0  0.00000000000E+00 -0.00000000000E+00 -0.54999291856E+03  0.54999291856E+03  0.00000000000E+00 0. -1.
          6    1    1    2  502    0  0.40983887953E+03 -0.30394265436E+03 -0.36133783218E+02  0.53966535427E+03  0.17200000000E+03 0. -1.
         -6    1    1    2    0  501 -0.40983887953E+03  0.30394265436E+03  0.14461782641E+02  0.53864848228E+03  0.17200000000E+03 0.  1.
</event>
<event>
 4    1  0.3205520E-002  0.3279435E+03  0.7818608E-02  0.1072050E+00
          1   -1    0    0  502    0  0.00000000000E+00  0.00000000000E+00  0.86992367816E+03  0.86992367816E+03  0.00000000000E+00 0. -1.
         -1   -1    0    0    0  501 -0.00000000000E+00 -0.00000000000E+00 -0.25251986407E+03  0.25251986407E+03  0.00000000000E+00 0.  1.
          6    1    1    2  502    0 -0.27856497840E+03 -0.19092481925E+02  0.70966038489E+03  0.78177031917E+03  0.17200000000E+03 0. -1.
         -6    1    1    2    0  501  0.27856497840E+03  0.19092481925E+02 -0.92256570796E+02  0.34067322306E+03  0.17200000000E+03 0.  1.
</event>
<event>
 4    1  0.3205520E-002  0.4245672E+03  0.7818608E-02  0.1035590E+00
          2   -1    0    0  502    0  0.00000000000E+00  0.00000000000E+00  0.24016961596E+04  0.24016961596E+04  0.00000000000E+00 0. -1.
         -2   -1    0    0    0  501 -0.00000000000E+00 -0.00000000000E+00 -0.80461601473E+02  0.80461601473E+02  0.00000000000E+00 0.  1.
          6    1    1    2  502    0  0.25191949131E+03 -0.29531323852E+03  0.14823536125E+04  0.15419564103E+04  0.17200000000E+03 0. -1.
         -6    1    1    2    0  501 -0.25191949131E+03  0.29531323852E+03  0.83888094560E+03  0.94020135069E+03  0.17200000000E+03 0.  1.
</event>
<event>
 4    1  0.3205520E-002  0.1775434E+03  0.7818608E-02  0.1170202E+00
         -2   -1    0    0    0  501 -0.00000000000E+00  0.00000000000E+00  0.19972059446E+03  0.19972059446E+03  0.00000000000E+00 0.  1.
          2   -1    0    0  502    0  0.00000000000E+00 -0.00000000000E+00 -0.18313862899E+03  0.18313862899E+03  0.00000000000E+00 0. -1.
          6    1    1    2  502    0 -0.18204371834E+02 -0.40078389744E+02 -0.62873469716E+02  0.18834741748E+03  0.17200000000E+03 0. -1.
         -6    1    1    2    0  501  0.18204371834E+02  0.40078389744E+02  0.79455435193E+02  0.19451180597E+03  0.17200000000E+03 0.  1.
</event>
<event>
 4    1  0.3205520E-002  0.6235051E+03  0.7818608E-02  0.9857806E-01
          1   -1    0    0  502    0  0.00000000000E+00  0.00000000000E+00  0.14070479612E+04  0.14070479612E+04  0.00000000000E+00 0. -1.
         -1   -1    0    0    0  501 -0.00000000000E+00 -0.00000000000E+00 -0.47828255864E+03  0.47828255864E+03  0.00000000000E+00 0.  1.
          6    1    1    2  502    0 -0.35003802436E+03 -0.48646474196E+03  0.10769853632E+04  0.12444500939E+04  0.17200000000E+03 0. -1.
         -6    1    1    2    0  501  0.35003802436E+03  0.48646474196E+03 -0.14821996061E+03  0.64088042597E+03  0.17200000000E+03 0.  1.
</event>
<event>
 4    1  0.3205520E-002  0.4014907E+03  0.7818608E-02  0.1043265E+00
          2   -1    0    0  502    0  0.00000000000E+00  0.00000000000E+00  0.27912502282E+03  0.27912502282E+03  0.00000000000E+00 0. -1.
         -2   -1    0    0    0  501 -0.00000000000E+00 -0.00000000000E+00 -0.61444032636E+03  0.61444032636E+03  0.00000000000E+00 0.  1.
          6    1    1    2  502    0  0.56279956708E+02  0.35838997357E+03 -0.58109614803E+02  0.40567417223E+03  0.17200000000E+03 0. -1.
         -6    1    1    2    0  501 -0.56279956708E+02 -0.35838997357E+03 -0.27720568873E+03  0.48789117695E+03  0.17200000000E+03 0.  1.
</event>
<event>
 4    1  0.3205520E-002  0.3051383E+03  0.7818608E-02  0.1082700E+00
          2   -1    0    0  502    0  0.00000000000E+00  0.00000000000E+00  0.13951562432E+04  0.13951562432E+04  0.00000000000E+00 0. -1.
         -2   -1    0    0    0  501 -0.00000000000E+00 -0.00000000000E+00 -0.67727339344E+02  0.67727339344E+02  0.00000000000E+00 0.  1.
          6    1    1    2  502    0 -0.14885601618E+03 -0.20338945475E+03  0.57529303637E+03  0.65120769463E+03  0.17200000000E+03 0.  1.
         -6    1    1    2    0  501  0.14885601618E+03  0.20338945475E+03  0.75213586751E+03  0.81167588793E+03  0.17200000000E+03 0.  1.
</event>
<event>
 4    1  0.3205520E-002  0.3535815E+03  0.7818608E-02  0.1061155E+00
          1   -1    0    0  502    0  0.00000000000E+00  0.00000000000E+00  0.22142159933E+03  0.22142159933E+03  0.00000000000E+00 0. -1.
         -1   -1    0    0    0  501 -0.00000000000E+00 -0.00000000000E+00 -0.10236081638E+04  0.10236081638E+04  0.00000000000E+00 0.  1.
          6    1    1    2  502    0 -0.30817459760E+03  0.21548183192E+02  0.15758640064E+02  0.35393253813E+03  0.17200000000E+03 0. -1.
         -6    1    1    2    0  501  0.30817459760E+03 -0.21548183192E+02 -0.81794520456E+03  0.89109722504E+03  0.17200000000E+03 0.  1.
</event>
<event>
 4    1  0.3205520E-002  0.3428627E+03  0.7818608E-02  0.1065583E+00
         -2   -1    0    0    0  501 -0.00000000000E+00  0.00000000000E+00  0.11249628566E+03  0.11249628566E+03  0.00000000000E+00 0.  1.
          2   -1    0    0  502    0  0.00000000000E+00 -0.00000000000E+00 -0.18065559044E+04  0.18065559044E+04  0.00000000000E+00 0. -1.
          6    1    1    2  502    0  0.29474591926E+03 -0.33100728623E+02 -0.14700349384E+04  0.15094891637E+04  0.17200000000E+03 0. -1.
         -6    1    1    2    0  501 -0.29474591926E+03  0.33100728623E+02 -0.22402468030E+03  0.40956302634E+03  0.17200000000E+03 0.  1.
</event>
<event>
 4    1  0.3205520E-002  0.2053904E+03  0.7818608E-02  0.1145269E+00
         -1   -1    0    0    0  501 -0.00000000000E+00  0.00000000000E+00  0.10295653965E+03  0.10295653965E+03  0.00000000000E+00 0.  1.
          1   -1    0    0  502    0  0.00000000000E+00 -0.00000000000E+00 -0.54183359356E+03  0.54183359356E+03  0.00000000000E+00 0. -1.
          6    1    1    2  502    0  0.10768947032E+03  0.31688861770E+02 -0.37862259514E+03  0.43074386302E+03  0.17200000000E+03 0. -1.
         -6    1    1    2    0  501 -0.10768947032E+03 -0.31688861770E+02 -0.60254458773E+02  0.21404627019E+03  0.17200000000E+03 0.  1.
</event>
<event>
 4    1  0.3205520E-002  0.1808292E+03  0.7818608E-02  0.1167003E+00
          1   -1    0    0  502    0  0.00000000000E+00  0.00000000000E+00  0.19214437936E+04  0.19214437936E+04  0.00000000000E+00 0. -1.
         -1   -1    0    0    0  501 -0.00000000000E+00 -0.00000000000E+00 -0.27646148922E+02  0.27646148922E+02  0.00000000000E+00 0.  1.
          6    1    1    2  502    0 -0.51366467380E+02  0.21833366095E+02  0.15511430843E+04  0.15616478725E+04  0.17200000000E+03 0. -1.
         -6    1    1    2    0  501  0.51366467380E+02 -0.21833366095E+02  0.34265456043E+03  0.38744207003E+03  0.17200000000E+03 0.  1.
</event>
<event>
 4    1  0.3205520E-002  0.2994277E+03  0.7818608E-02  0.1085527E+00
          1   -1    0    0  502    0  0.00000000000E+00  0.00000000000E+00  0.18121142736E+04  0.18121142736E+04  0.00000000000E+00 0. -1.
         -1   -1    0    0    0  501 -0.00000000000E+00 -0.00000000000E+00 -0.49508758491E+02  0.49508758491E+02  0.00000000000E+00 0.  1.
          6    1    1    2  502    0 -0.78373070594E+02  0.23222968768E+03  0.90508405271E+03  0.95332791237E+03  0.17200000000E+03 0.  1.
         -6    1    1    2    0  501  0.78373070594E+02 -0.23222968768E+03  0.85752146242E+03  0.90829511974E+03  0.17200000000E+03 0.  1.
</event>
<event>
 4    1  0.3205520E-002  0.2009387E+03  0.7818608E-02  0.1148949E+00
          2   -1    0    0  502    0  0.00000000000E+00  0.00000000000E+00  0.30899126717E+03  0.30899126717E+03  0.00000000000E+00 0. -1.
         -2   -1    0    0    0  501 -0.00000000000E+00 -0.00000000000E+00 -0.18136910763E+03  0.18136910763E+03  0.00000000000E+00 0.  1.
          6    1    1    2  502    0  0.10016279726E+03 -0.27564297082E+02 -0.65816410889E+02  0.21144308069E+03  0.17200000000E+03 0.  1.
         -6    1    1    2    0  501 -0.10016279726E+03  0.27564297082E+02  0.19343857043E+03  0.27891729412E+03  0.17200000000E+03 0. -1.
</event>
<event>
 4    1  0.3205520E-002  0.1769710E+03  0.7818608E-02  0.1170767E+00
          1   -1    0    0  502    0  0.00000000000E+00  0.00000000000E+00  0.15541833235E+04  0.15541833235E+04  0.00000000000E+00 0. -1.
         -1   -1    0    0    0  501 -0.00000000000E+00 -0.00000000000E+00 -0.28095615288E+02  0.28095615288E+02  0.00000000000E+00 0.  1.
          6    1    1    2  502    0  0.33987037780E+02  0.24075309832E+02  0.11837349645E+04  0.11968906406E+04  0.17200000000E+03 0. -1.
         -6    1    1    2    0  501 -0.33987037780E+02 -0.24075309832E+02  0.34235274367E+03  0.38538829819E+03  0.17200000000E+03 0.  1.
</event>
<event>
 4    1  0.3205520E-002  0.2008349E+03  0.7818608E-02  0.1149037E+00
          2   -1    0    0  502    0  0.00000000000E+00  0.00000000000E+00  0.50996663836E+02  0.50996663836E+02  0.00000000000E+00 0. -1.
         -2   -1    0    0    0  501 -0.00000000000E+00 -0.00000000000E+00 -0.10930367010E+04  0.10930367010E+04  0.00000000000E+00 0.  1.
          6    1    1    2  502    0 -0.51311294667E+02  0.90098872652E+02 -0.82174770403E+03  0.84593377099E+03  0.17200000000E+03 0. -1.
         -6    1    1    2    0  501  0.51311294667E+02 -0.90098872652E+02 -0.22029233311E+03  0.29809959383E+03  0.17200000000E+03 0. -1.
</event>
<event>
 4    1  0.3205520E-002  0.2116972E+03  0.7818608E-02  0.1140229E+00
         -2   -1    0    0    0  501 -0.00000000000E+00  0.00000000000E+00  0.10409182959E+03  0.10409182959E+03  0.00000000000E+00 0.  1.
          2   -1    0    0  502    0  0.00000000000E+00 -0.00000000000E+00 -0.97048318054E+03  0.97048318054E+03  0.00000000000E+00 0. -1.
          6    1    1    2  502    0  0.11453291025E+03 -0.45977272920E+02 -0.32433466856E+02  0.21416728725E+03  0.17200000000E+03 0.  1.
         -6    1    1    2    0  501 -0.11453291025E+03  0.45977272920E+02 -0.83395788409E+03  0.86040772288E+03  0.17200000000E+03 0. -1.
</event>
<event>
 4    1  0.3205520E-002  0.3800409E+03  0.7818608E-02  0.1050919E+00
          2   -1    0    0  502    0  0.00000000000E+00  0.00000000000E+00  0.25480708728E+04  0.25480708728E+04  0.00000000000E+00 0. -1.
         -2   -1    0    0    0  501 -0.00000000000E+00 -0.00000000000E+00 -0.61995058011E+02  0.61995058011E+02  0.00000000000E+00 0.  1.
          6    1    1    2  502    0 -0.39362805460E+02 -0.33659717001E+03  0.16250647314E+04  0.16689117612E+04  0.17200000000E+03 0. -1.
         -6    1    1    2    0  501  0.39362805460E+02  0.33659717001E+03  0.86101108332E+03  0.94115416958E+03  0.17200000000E+03 0.  1.
</event>
<event>
 4    1  0.3205520E-002  0.2954763E+03  0.7818608E-02  0.1087524E+00
         -2   -1    0    0    0  501 -0.00000000000E+00  0.00000000000E+00  0.70228497153E+02  0.70228497153E+02  0.00000000000E+00 0.  1.
          2   -1    0    0  502    0  0.00000000000E+00 -0.00000000000E+00 -0.13995452023E+04  0.13995452023E+04  0.00000000000E+00 0. -1.
          6    1    1    2  502    0 -0.22938916887E+03 -0.71434175201E+02 -0.41901467685E+03  0.51271778943E+03  0.17200000000E+03 0. -1.
         -6    1    1    2    0  501  0.22938916887E+03  0.71434175201E+02 -0.91030202826E+03  0.95705590999E+03  0.17200000000E+03 0.  1.
</event>
<event>
 4    1  0.3205520E-002  0.2845259E+03  0.7818608E-02  0.1093242E+00
         -1   -1    0    0    0  501 -0.00000000000E+00  0.00000000000E+00  0.10627060074E+03  0.10627060074E+03  0.00000000000E+00 0.  1.
          1   -1    0    0  502    0  0.00000000000E+00 -0.00000000000E+00 -0.14081506086E+04  0.14081506086E+04  0.00000000000E+00 0. -1.
          6    1    1    2  502    0 -0.12103026988E+03  0.19163151317E+03 -0.11639578539E+04  0.11982290469E+04  0.17200000000E+03 0. -1.
         -6    1    1    2    0  501  0.12103026988E+03 -0.19163151317E+03 -0.13792215397E+03  0.31619216249E+03  0.17200000000E+03 0.  1.
</event>
<event>
 4    1  0.3205520E-002  0.2420958E+03  0.7818608E-02  0.1118405E+00
          2   -1    0    0  502    0  0.00000000000E+00  0.00000000000E+00  0.31068251212E+04  0.31068251212E+04  0.00000000000E+00 0. -1.
         -2   -1    0    0    0  501 -0.00000000000E+00 -0.00000000000E+00 -0.25859897662E+02  0.25859897662E+02  0.00000000000E+00 0.  1.
          6    1    1    2  502    0 -0.44858509858E+02 -0.16435956954E+03  0.23551175568E+04  0.23675280485E+04  0.17200000000E+03 0. -1.
         -6    1    1    2    0  501  0.44858509858E+02  0.16435956954E+03  0.72584766669E+03  0.76515697033E+03  0.17200000000E+03 0.  1.
</event>
<event>
 4    1  0.3205520E-002  0.3990590E+03  0.7818608E-02  0.1044106E+00
          1   -1    0    0  502    0  0.00000000000E+00  0.00000000000E+00  0.48562798199E+03  0.48562798199E+03  0.00000000000E+00 0. -1.
         -1   -1    0    0    0  501 -0.00000000000E+00 -0.00000000000E+00 -0.33726220445E+03  0.33726220445E+03  0.00000000000E+00 0.  1.
          6    1    1    2  502    0 -0.34929603753E+03 -0.87500673530E+02  0.14265389216E+03  0.42379030504E+03  0.17200000000E+03 0. -1.
         -6    1    1    2    0  501  0.34929603753E+03  0.87500673530E+02  0.57118853823E+01  0.39909988140E+03  0.17200000000E+03 0.  1.
</event>
<event>
 4    1  0.3205520E-002  0.2214683E+03  0.7818608E-02  0.1132793E+00
          2   -1    0    0  502    0  0.00000000000E+00  0.00000000000E+00  0.26438957950E+04  0.26438957950E+04  0.00000000000E+00 0. -1.
         -2   -1    0    0    0  501 -0.00000000000E+00 -0.00000000000E+00 -0.25234923592E+02  0.25234923592E+02  0.00000000000E+00 0.  1.
          6    1    1    2  502    0  0.13946142069E+03  0.38395108531E+01  0.19961432398E+04  0.20083914120E+04  0.17200000000E+03 0. -1.
         -6    1    1    2    0  501 -0.13946142069E+03 -0.38395108531E+01  0.62251763155E+03  0.66073930660E+03  0.17200000000E+03 0.  1.
</event>
<event>
 4    1  0.3205520E-002  0.1764340E+03  0.7818608E-02  0.1171300E+00
          1   -1    0    0  502    0  0.00000000000E+00  0.00000000000E+00  0.39914104039E+03  0.39914104039E+03  0.00000000000E+00 0. -1.
         -1   -1    0    0    0  501 -0.00000000000E+00 -0.00000000000E+00 -0.15297843109E+03  0.15297843109E+03  0.00000000000E+00 0.  1.
          6    1    1    2  502    0  0.38357352518E+02 -0.85823763662E+01 -0.70198100174E+02  0.18988606306E+03  0.17200000000E+03 0.  1.
         -6    1    1    2    0  501 -0.38357352518E+02  0.85823763662E+01  0.31636070947E+03  0.36223340842E+03  0.17200000000E+03 0. -1.
</event>
<event>
 4    1  0.3205520E-002  0.1916537E+03  0.7818608E-02  0.1156978E+00
         -1   -1    0    0    0  501 -0.00000000000E+00  0.00000000000E+00  0.40140703829E+02  0.40140703829E+02  0.00000000000E+00 0.  1.
          1   -1    0    0  502    0  0.00000000000E+00 -0.00000000000E+00 -0.11304898089E+04  0.11304898089E+04  0.00000000000E+00 0. -1.
          6    1    1    2  502    0 -0.84539136039E+02 -0.51390607367E+00 -0.80068578077E+03  0.82330361906E+03  0.17200000000E+03 0. -1.
         -6    1    1    2    0  501  0.84539136039E+02  0.51390607367E+00 -0.28966332428E+03  0.34732689366E+03  0.17200000000E+03 0.  1.
</event>
<event>
 4    1  0.3205520E-002  0.2199301E+03  0.7818608E-02  0.1133935E+00
          1   -1    0    0  502    0  0.00000000000E+00  0.00000000000E+00  0.34424136363E+03  0.34424136363E+03  0.00000000000E+00 0. -1.
         -1   -1    0    0    0  501 -0.00000000000E+00 -0.00000000000E+00 -0.18091019043E+03  0.18091019043E+03  0.00000000000E+00 0.  1.
          6    1    1    2  502    0  0.84362872021E+02  0.10801927924E+03  0.20574974389E+03  0.30116808592E+03  0.17200000000E+03 0. -1.
         -6    1    1    2    0  501 -0.84362872021E+02 -0.10801927924E+03 -0.42418570692E+02  0.22398346815E+03  0.17200000000E+03 0.  1.
</event>
<event>
 4    1  0.3205520E-002  0.2140319E+03  0.7818608E-02  0.1138412E+00
         -2   -1    0    0    0  501 -0.00000000000E+00  0.00000000000E+00  0.15218560083E+03  0.15218560083E+03  0.00000000000E+00 0.  1.
          2   -1    0    0  502    0  0.00000000000E+00 -0.00000000000E+00 -0.40092526230E+04  0.40092526230E+04  0.00000000000E+00 0. -1.
          6    1    1    2  502    0 -0.55290377019E+02 -0.11475460458E+03 -0.39296193425E+04  0.39354437897E+04  0.17200000000E+03 0. -1.
         -6    1    1    2    0  501  0.55290377019E+02  0.11475460458E+03  0.72552320328E+02  0.22599443411E+03  0.17200000000E+03 0.  1.
</event>
<event>
 4    1  0.3205520E-002  0.2196581E+03  0.7818608E-02  0.1134138E+00
         -2   -1    0    0    0  501 -0.00000000000E+00  0.00000000000E+00  0.11356498466E+03  0.11356498466E+03  0.00000000000E+00 0.  1.
          2   -1    0    0  502    0  0.00000000000E+00 -0.00000000000E+00 -0.53129345349E+03  0.53129345349E+03  0.00000000000E+00 0. -1.
          6    1    1    2  502    0 -0.60394081983E+02 -0.12254885730E+03 -0.35317481847E+03  0.41591119240E+03  0.17200000000E+03 0. -1.
         -6    1    1    2    0  501  0.60394081983E+02  0.12254885730E+03 -0.64553650357E+02  0.22894724575E+03  0.17200000000E+03 0.  1.
</event>
<event>
 4    1  0.3205520E-002  0.2023023E+03  0.7818608E-02  0.1147811E+00
          1   -1    0    0  502    0  0.00000000000E+00  0.00000000000E+00  0.14373630234E+03  0.14373630234E+03  0.00000000000E+00 0. -1.
         -1   -1    0    0    0  501 -0.00000000000E+00 -0.00000000000E+00 -0.36883268025E+03  0.36883268025E+03  0.00000000000E+00 0.  1.
          6    1    1    2  502    0  0.10102346349E+03  0.33711641864E+02  0.98315033234E+01  0.20254104135E+03  0.17200000000E+03 0. -1.
         -6    1    1    2    0  501 -0.10102346349E+03 -0.33711641864E+02 -0.23492788123E+03  0.31002794125E+03  0.17200000000E+03 0.  1.
</event>
<event>
 4    1  0.3205520E-002  0.3169656E+03  0.7818608E-02  0.1077054E+00
          1   -1    0    0  502    0  0.00000000000E+00  0.00000000000E+00  0.13197008951E+04  0.13197008951E+04  0.00000000000E+00 0. -1.
         -1   -1    0    0    0  501 -0.00000000000E+00 -0.00000000000E+00 -0.78183513099E+02  0.78183513099E+02  0.00000000000E+00 0.  1.
          6    1    1    2  502    0  0.27470094977E+02  0.26481801194E+03  0.73406760296E+03  0.79957640741E+03  0.17200000000E+03 0. -1.
         -6    1    1    2    0  501 -0.27470094977E+02 -0.26481801194E+03  0.50744977906E+03  0.59830800081E+03  0.17200000000E+03 0.  1.
</event>
<event>
 4    1  0.3205520E-002  0.3223279E+03  0.7818608E-02  0.1074583E+00
         -2   -1    0    0    0  501 -0.00000000000E+00  0.00000000000E+00  0.11556716376E+03  0.11556716376E+03  0.00000000000E+00 0.  1.
          2   -1    0    0  502    0  0.00000000000E+00 -0.00000000000E+00 -0.15430905413E+04  0.15430905413E+04  0.00000000000E+00 0. -1.
          6    1    1    2  502    0  0.26689098238E+03 -0.55502328323E+02 -0.12495624077E+04  0.12904656197E+04  0.17200000000E+03 0. -1.
         -6    1    1    2    0  501 -0.26689098238E+03  0.55502328323E+02 -0.17796096984E+03  0.36819208535E+03  0.17200000000E+03 0.  1.
</event>
<event>
 4    1  0.3205520E-002  0.4914800E+03  0.7818608E-02  0.1016027E+00
          2   -1    0    0  502    0  0.00000000000E+00  0.00000000000E+00  0.13403626545E+04  0.13403626545E+04  0.00000000000E+00 0. -1.
         -2   -1    0    0    0  501 -0.00000000000E+00 -0.00000000000E+00 -0.28360813400E+03  0.28360813400E+03  0.00000000000E+00 0.  1.
          6    1    1    2  502    0  0.30642679260E+03 -0.34361486091E+03  0.10186481893E+04  0.11310157760E+04  0.17200000000E+03 0. -1.
         -6    1    1    2    0  501 -0.30642679260E+03  0.34361486091E+03  0.38106331121E+02  0.49295501249E+03  0.17200000000E+03 0.  1.
</event>
<event>
 4    1  0.3205520E-002  0.2073264E+03  0.7818608E-02  0.1143701E+00
         -2   -1    0    0    0  501 -0.00000000000E+00  0.00000000000E+00  0.25693619499E+03  0.25693619499E+03  0.00000000000E+00 0.  1.
          2   -1    0    0  502    0  0.00000000000E+00 -0.00000000000E+00 -0.18436961033E+03  0.18436961033E+03  0.00000000000E+00 0. -1.
          6    1    1    2  502    0 -0.64085388698E+01 -0.11558179320E+03 -0.30865226763E+02  0.20961126523E+03  0.17200000000E+03 0. -1.
         -6    1    1    2    0  501  0.64085388698E+01  0.11558179320E+03  0.10343181142E+03  0.23169454008E+03  0.17200000000E+03 0. -1.
</event>
<event>
 4    1  0.3205520E-002  0.3984208E+03  0.7818608E-02  0.1044328E+00
          2   -1    0    0  502    0  0.00000000000E+00  0.00000000000E+00  0.16244731986E+04  0.16244731986E+04  0.00000000000E+00 0. -1.
         -2   -1    0    0    0  501 -0.00000000000E+00 -0.00000000000E+00 -0.11002347384E+03  0.11002347384E+03  0.00000000000E+00 0.  1.
          6    1    1    2  502    0  0.35935669469E+03 -0.42277527363E+01  0.10472680136E+04  0.11204951585E+04  0.17200000000E+03 0. -1.
         -6    1    1    2    0  501 -0.35935669469E+03  0.42277527363E+01  0.46718171123E+03  0.61400151401E+03  0.17200000000E+03 0.  1.
</event>
<event>
 4    1  0.3205520E-002  0.2192017E+03  0.7818608E-02  0.1134480E+00
         -2   -1    0    0    0  501 -0.00000000000E+00  0.00000000000E+00  0.19302865447E+03  0.19302865447E+03  0.00000000000E+00 0.  1.
          2   -1    0    0  502    0  0.00000000000E+00 -0.00000000000E+00 -0.75106004789E+03  0.75106004789E+03  0.00000000000E+00 0. -1.
          6    1    1    2  502    0  0.13588496141E+03 -0.82022969613E+00 -0.66498816734E+03  0.70018473149E+03  0.17200000000E+03 0. -1.
         -6    1    1    2    0  501 -0.13588496141E+03  0.82022969613E+00  0.10695677392E+03  0.24390397086E+03  0.17200000000E+03 0.  1.
</event>
<event>
 4    1  0.3205520E-002  0.2275590E+03  0.7818608E-02  0.1128370E+00
         -2   -1    0    0    0  501 -0.00000000000E+00  0.00000000000E+00  0.17384976494E+02  0.17384976494E+02  0.00000000000E+00 0.  1.
          2   -1    0    0  502    0  0.00000000000E+00 -0.00000000000E+00 -0.36824862681E+04  0.36824862681E+04  0.00000000000E+00 0. -1.
          6    1    1    2  502    0 -0.10442102152E+03  0.10627958341E+03 -0.26413365841E+04  0.26511209045E+04  0.17200000000E+03 0. -1.
         -6    1    1    2    0  501  0.10442102152E+03 -0.10627958341E+03 -0.10237647075E+04  0.10487503401E+04  0.17200000000E+03 0.  1.
</event>
<event>
 4    1  0.3205520E-002  0.5951337E+03  0.7818608E-02  0.9915554E-01
          2   -1    0    0  502    0  0.00000000000E+00  0.00000000000E+00  0.59512101049E+03  0.59512101049E+03  0.00000000000E+00 0. -1.
         -2   -1    0    0    0  501 -0.00000000000E+00 -0.00000000000E+00 -0.68936807252E+03  0.68936807252E+03  0.00000000000E+00 0.  1.
          6    1    1    2  502    0  0.51373743829E+03 -0.24632075466E+03  0.19031460018E+03  0.62482294830E+03  0.17200000000E+03 0. -1.
         -6    1    1    2    0  501 -0.51373743829E+03  0.24632075466E+03 -0.28456166221E+03  0.65966613471E+03  0.17200000000E+03 0.  1.
</event>
<event>
 4    1  0.3205520E-002  0.2263666E+03  0.7818608E-02  0.1129224E+00
         -2   -1    0    0    0  501 -0.00000000000E+00  0.00000000000E+00  0.15688750855E+03  0.15688750855E+03  0.00000000000E+00 0.  1.
          2   -1    0    0  502    0  0.00000000000E+00 -0.00000000000E+00 -0.32662692795E+03  0.32662692795E+03  0.00000000000E+00 0. -1.
          6    1    1    2  502    0  0.14244639598E+03  0.36971155422E+02 -0.86319512232E+02  0.24226617645E+03  0.17200000000E+03 0. -1.
         -6    1    1    2    0  501 -0.14244639598E+03 -0.36971155422E+02 -0.83419907175E+02  0.24124826005E+03  0.17200000000E+03 0.  1.
</event>
<event>
 4    1  0.3205520E-002  0.2332523E+03  0.7818608E-02  0.1124371E+00
          2   -1    0    0  502    0  0.00000000000E+00  0.00000000000E+00  0.62707600739E+03  0.62707600739E+03  0.00000000000E+00 0. -1.
         -2   -1    0    0    0  501 -0.00000000000E+00 -0.00000000000E+00 -0.89003521078E+02  0.89003521078E+02  0.00000000000E+00 0.  1.
          6    1    1    2  502    0  0.56261786769E+02 -0.14716407155E+03  0.32585022068E+03  0.40073060642E+03  0.17200000000E+03 0.  1.
         -6    1    1    2    0  501 -0.56261786769E+02  0.14716407155E+03  0.21222226563E+03  0.31534892204E+03  0.17200000000E+03 0.  1.
</event>
<event>
 4    1  0.3205520E-002  0.2552138E+03  0.7818608E-02  0.1110053E+00
          1   -1    0    0  502    0  0.00000000000E+00  0.00000000000E+00  0.15156033231E+04  0.15156033231E+04  0.00000000000E+00 0. -1.
         -1   -1    0    0    0  501 -0.00000000000E+00 -0.00000000000E+00 -0.53874869323E+02  0.53874869323E+02  0.00000000000E+00 0.  1.
          6    1    1    2  502    0 -0.13657797084E+02  0.18805194340E+03  0.10838274568E+04  0.11134702623E+04  0.17200000000E+03 0. -1.
         -6    1    1    2    0  501  0.13657797084E+02 -0.18805194340E+03  0.37790099691E+03  0.45600793009E+03  0.17200000000E+03 0. -1.
</event>
<event>
 4    1  0.3205520E-002  0.3572165E+03  0.7818608E-02  0.1059691E+00
          2   -1    0    0  502    0  0.00000000000E+00  0.00000000000E+00  0.20808716206E+04  0.20808716206E+04  0.00000000000E+00 0. -1.
         -2   -1    0    0    0  501 -0.00000000000E+00 -0.00000000000E+00 -0.65157348968E+02  0.65157348968E+02  0.00000000000E+00 0.  1.
          6    1    1    2  502    0 -0.17606407186E+03  0.25888425511E+03  0.12681817857E+04  0.13175312735E+04  0.17200000000E+03 0. -1.
         -6    1    1    2    0  501  0.17606407186E+03 -0.25888425511E+03  0.74753248591E+03  0.82849769610E+03  0.17200000000E+03 0.  1.
</event>
<event>
 4    1  0.3205520E-002  0.2298312E+03  0.7818608E-02  0.1126759E+00
         -1   -1    0    0    0  501 -0.00000000000E+00  0.00000000000E+00  0.67827190728E+02  0.67827190728E+02  0.00000000000E+00 0.  1.
          1   -1    0    0  502    0  0.00000000000E+00 -0.00000000000E+00 -0.20130361229E+04  0.20130361229E+04  0.00000000000E+00 0. -1.
          6    1    1    2  502    0  0.13314335080E+03  0.74237586930E+02 -0.17872912072E+04  0.18020078331E+04  0.17200000000E+03 0. -1.
         -6    1    1    2    0  501 -0.13314335080E+03 -0.74237586930E+02 -0.15791772502E+03  0.27885548058E+03  0.17200000000E+03 0.  1.
</event>
<event>
 4    1  0.3205520E-002  0.2093309E+03  0.7818608E-02  0.1142097E+00
          2   -1    0    0  502    0  0.00000000000E+00  0.00000000000E+00  0.47488587887E+03  0.47488587887E+03  0.00000000000E+00 0. -1.
         -2   -1    0    0    0  501 -0.00000000000E+00 -0.00000000000E+00 -0.15617480346E+03  0.15617480346E+03  0.00000000000E+00 0.  1.
          6    1    1    2  502    0 -0.72299065955E+02  0.94911993525E+02 -0.42476487080E+02  0.21359703511E+03  0.17200000000E+03 0.  1.
         -6    1    1    2    0  501  0.72299065955E+02 -0.94911993525E+02  0.36118756249E+03  0.41746364722E+03  0.17200000000E+03 0. -1.
</event>
<event>
 4    1  0.3205520E-002  0.2150060E+03  0.7818608E-02  0.1137662E+00
         -2   -1    0    0    0  501 -0.00000000000E+00  0.00000000000E+00  0.49927195576E+02  0.49927195576E+02  0.00000000000E+00 0.  1.
          2   -1    0    0  502    0  0.00000000000E+00 -0.00000000000E+00 -0.14040437636E+04  0.14040437636E+04  0.00000000000E+00 0. -1.
          6    1    1    2  502    0 -0.91931672941E+01 -0.12868201160E+03 -0.11013014031E+04  0.11220928459E+04  0.17200000000E+03 0. -1.
         -6    1    1    2    0  501  0.91931672941E+01  0.12868201160E+03 -0.25281516494E+03  0.33187811325E+03  0.17200000000E+03 0.  1.
</event>
<event>
 4    1  0.3205520E-002  0.2218575E+03  0.7818608E-02  0.1132506E+00
         -2   -1    0    0    0  501 -0.00000000000E+00  0.00000000000E+00  0.72128829265E+02  0.72128829265E+02  0.00000000000E+00 0.  1.
          2   -1    0    0  502    0  0.00000000000E+00 -0.00000000000E+00 -0.13450859696E+04  0.13450859696E+04  0.00000000000E+00 0. -1.
          6    1    1    2  502    0  0.68701851953E+02  0.12213430116E+03 -0.13910298424E+03  0.26185945124E+03  0.17200000000E+03 0. -1.
         -6    1    1    2    0  501 -0.68701851953E+02 -0.12213430116E+03 -0.11338541561E+04  0.11553553477E+04  0.17200000000E+03 0. -1.
</event>
<event>
 4    1  0.3205520E-002  0.1763819E+03  0.7818608E-02  0.1171351E+00
          2   -1    0    0  502    0  0.00000000000E+00  0.00000000000E+00  0.56885491742E+03  0.56885491742E+03  0.00000000000E+00 0. -1.
         -2   -1    0    0    0  501 -0.00000000000E+00 -0.00000000000E+00 -0.58080311977E+02  0.58080311977E+02  0.00000000000E+00 0.  1.
          6    1    1    2  502    0 -0.16902499090E+02 -0.35226288178E+02  0.33112430765E+03  0.37517181793E+03  0.17200000000E+03 0. -1.
         -6    1    1    2    0  501  0.16902499090E+02  0.35226288178E+02  0.17965029779E+03  0.25176341146E+03  0.17200000000E+03 0.  1.
</event>
<event>
 4    1  0.3205520E-002  0.2758013E+03  0.7818608E-02  0.1098005E+00
          2   -1    0    0  502    0  0.00000000000E+00  0.00000000000E+00  0.23586668048E+03  0.23586668048E+03  0.00000000000E+00 0. -1.
         -2   -1    0    0    0  501 -0.00000000000E+00 -0.00000000000E+00 -0.37826498202E+03  0.37826498202E+03  0.00000000000E+00 0.  1.
          6    1    1    2  502    0 -0.12880393067E+03 -0.17289268276E+03  0.46703970793E+02  0.27972771260E+03  0.17200000000E+03 0. -1.
         -6    1    1    2    0  501  0.12880393067E+03  0.17289268276E+03 -0.18910227234E+03  0.33440394990E+03  0.17200000000E+03 0.  1.
</event>
<event>
 4    1  0.3205520E-002  0.2276484E+03  0.7818608E-02  0.1128306E+00
         -2   -1    0    0    0  501 -0.00000000000E+00  0.00000000000E+00  0.21653770908E+03  0.21653770908E+03  0.00000000000E+00 0.  1.
          2   -1    0    0  502    0  0.00000000000E+00 -0.00000000000E+00 -0.80091607687E+03  0.80091607687E+03  0.00000000000E+00 0. -1.
          6    1    1    2  502    0 -0.70575155348E+02  0.13137332936E+03 -0.71817942752E+03  0.75339597446E+03  0.17200000000E+03 0. -1.
         -6    1    1    2    0  501  0.70575155348E+02 -0.13137332936E+03  0.13380105974E+03  0.26405781149E+03  0.17200000000E+03 0.  1.
</event>
<event>
 4    1  0.3205520E-002  0.5850482E+03  0.7818608E-02  0.9936921E-01
          2   -1    0    0  502    0  0.00000000000E+00  0.00000000000E+00  0.11855110675E+04  0.11855110675E+04  0.00000000000E+00 0. -1.
         -2   -1    0    0    0  501 -0.00000000000E+00 -0.00000000000E+00 -0.29185510989E+03  0.29185510989E+03  0.00000000000E+00 0.  1.
          6    1    1    2  502    0 -0.44162589298E+03  0.34302186228E+03  0.52338087545E+03  0.78498978856E+03  0.17200000000E+03 0. -1.
         -6    1    1    2    0  501  0.44162589298E+03 -0.34302186228E+03  0.37027508218E+03  0.69237638885E+03  0.17200000000E+03 0.  1.
</event>
<event>
 4    1  0.3205520E-002  0.1907289E+03  0.7818608E-02  0.1157806E+00
          3   -1    0    0  502    0  0.00000000000E+00  0.00000000000E+00  0.87485994076E+03  0.87485994076E+03  0.00000000000E+00 0. -1.
         -3   -1    0    0    0  501 -0.00000000000E+00 -0.00000000000E+00 -0.43082860866E+02  0.43082860866E+02  0.00000000000E+00 0.  1.
          6    1    1    2  502    0  0.55988998372E+02 -0.60487441884E+02  0.50158382079E+03  0.53662261213E+03  0.17200000000E+03 0. -1.
         -6    1    1    2    0  501 -0.55988998372E+02  0.60487441884E+02  0.33019325910E+03  0.38132018950E+03  0.17200000000E+03 0.  1.
</event>
<event>
 4    1  0.3205520E-002  0.1807388E+03  0.7818608E-02  0.1167090E+00
         -1   -1    0    0    0  501 -0.00000000000E+00  0.00000000000E+00  0.62130213591E+02  0.62130213591E+02  0.00000000000E+00 0.  1.
          1   -1    0    0  502    0  0.00000000000E+00 -0.00000000000E+00 -0.53142307480E+03  0.53142307480E+03  0.00000000000E+00 0. -1.
          6    1    1    2  502    0 -0.51106563875E+02  0.21693973067E+02 -0.26524224606E+03  0.32096722330E+03  0.17200000000E+03 0. -1.
         -6    1    1    2    0  501  0.51106563875E+02 -0.21693973067E+02 -0.20405061515E+03  0.27258606509E+03  0.17200000000E+03 0.  1.
</event>
<event>
 4    1  0.3205520E-002  0.1998169E+03  0.7818608E-02  0.1149894E+00
          1   -1    0    0  502    0  0.00000000000E+00  0.00000000000E+00  0.86425579875E+03  0.86425579875E+03  0.00000000000E+00 0. -1.
         -1   -1    0    0    0  501 -0.00000000000E+00 -0.00000000000E+00 -0.16925944750E+03  0.16925944750E+03  0.00000000000E+00 0.  1.
          6    1    1    2  502    0  0.94652217840E+02 -0.37198723666E+02  0.78812572834E+03  0.81306146819E+03  0.17200000000E+03 0. -1.
         -6    1    1    2    0  501 -0.94652217840E+02  0.37198723666E+02 -0.93129377094E+02  0.22045377806E+03  0.17200000000E+03 0.  1.
</event>
<event>
 4    1  0.3205520E-002  0.1822562E+03  0.7818608E-02  0.1165637E+00
          1   -1    0    0  502    0  0.00000000000E+00  0.00000000000E+00  0.15937922417E+04  0.15937922417E+04  0.00000000000E+00 0. -1.
         -1   -1    0    0    0  501 -0.00000000000E+00 -0.00000000000E+00 -0.26486673918E+02  0.26486673918E+02  0.00000000000E+00 0.  1.
          6    1    1    2  502    0  0.19585488746E+02  0.57006534516E+02  0.40964802796E+03  0.44836240159E+03  0.17200000000E+03 0.  1.
         -6    1    1    2    0  501 -0.19585488746E+02 -0.57006534516E+02  0.11576575398E+04  0.11719165140E+04  0.17200000000E+03 0. -1.
</event>
<event>
 4    1  0.3205520E-002  0.2699173E+03  0.7818608E-02  0.1101327E+00
          2   -1    0    0  502    0  0.00000000000E+00  0.00000000000E+00  0.16417417799E+04  0.16417417799E+04  0.00000000000E+00 0. -1.
         -2   -1    0    0    0  501 -0.00000000000E+00 -0.00000000000E+00 -0.45005505796E+02  0.45005505796E+02  0.00000000000E+00 0.  1.
          6    1    1    2  502    0 -0.12118189141E+03 -0.16907487643E+03  0.89804310421E+03  0.93772958877E+03  0.17200000000E+03 0. -1.
         -6    1    1    2    0  501  0.12118189141E+03  0.16907487643E+03  0.69869316987E+03  0.74901769690E+03  0.17200000000E+03 0.  1.
</event>
<event>
 4    1  0.3205520E-002  0.2385578E+03  0.7818608E-02  0.1120757E+00
         -2   -1    0    0    0  501 -0.00000000000E+00  0.00000000000E+00  0.58620638764E+02  0.58620638764E+02  0.00000000000E+00 0.  1.
          2   -1    0    0  502    0  0.00000000000E+00 -0.00000000000E+00 -0.21972919888E+04  0.21972919888E+04  0.00000000000E+00 0. -1.
          6    1    1    2  502    0 -0.16461802126E+03  0.15058251392E+02 -0.19120452904E+04  0.19268697508E+04  0.17200000000E+03 0. -1.
         -6    1    1    2    0  501  0.16461802126E+03 -0.15058251392E+02 -0.22662605959E+03  0.32904287676E+03  0.17200000000E+03 0.  1.
</event>
<event>
 4    1  0.3205520E-002  0.3679544E+03  0.7818608E-02  0.1055478E+00
         -2   -1    0    0    0  501 -0.00000000000E+00  0.00000000000E+00  0.51050736870E+02  0.51050736870E+02  0.00000000000E+00 0.  1.
          2   -1    0    0  502    0  0.00000000000E+00 -0.00000000000E+00 -0.32356126990E+04  0.32356126990E+04  0.00000000000E+00 0. -1.
          6    1    1    2  502    0  0.17876523578E+03 -0.27175254733E+03 -0.22901612108E+04  0.23195320278E+04  0.17200000000E+03 0. -1.
         -6    1    1    2    0  501 -0.17876523578E+03  0.27175254733E+03 -0.89440075130E+03  0.96713140804E+03  0.17200000000E+03 0.  1.
</event>
<event>
 4    1  0.3205520E-002  0.1899647E+03  0.7818608E-02  0.1158493E+00
          2   -1    0    0  502    0  0.00000000000E+00  0.00000000000E+00  0.24872379412E+04  0.24872379412E+04  0.00000000000E+00 0. -1.
         -2   -1    0    0    0  501 -0.00000000000E+00 -0.00000000000E+00 -0.19866831197E+02  0.19866831197E+02  0.00000000000E+00 0.  1.
          6    1    1    2  502    0  0.46589099626E+02 -0.65818238853E+02  0.18846914625E+04  0.18942408753E+04  0.17200000000E+03 0. -1.
         -6    1    1    2    0  501 -0.46589099626E+02  0.65818238853E+02  0.58267964744E+03  0.61286389705E+03  0.17200000000E+03 0.  1.
</event>
<event>
 4    1  0.3205520E-002  0.2677817E+03  0.7818608E-02  0.1102556E+00
          2   -1    0    0  502    0  0.00000000000E+00  0.00000000000E+00  0.73936360293E+03  0.73936360293E+03  0.00000000000E+00 0. -1.
         -2   -1    0    0    0  501 -0.00000000000E+00 -0.00000000000E+00 -0.96990942900E+02  0.96990942900E+02  0.00000000000E+00 0.  1.
          6    1    1    2  502    0  0.17513338090E+03  0.10701093517E+03  0.31786208068E+03  0.41562404128E+03  0.17200000000E+03 0. -1.
         -6    1    1    2    0  501 -0.17513338090E+03 -0.10701093517E+03  0.32451057935E+03  0.42073050455E+03  0.17200000000E+03 0.  1.
</event>
<event>
 4    1  0.3205520E-002  0.4161208E+03  0.7818608E-02  0.1038336E+00
         -1   -1    0    0    0  501 -0.00000000000E+00  0.00000000000E+00  0.10364165549E+04  0.10364165549E+04  0.00000000000E+00 0.  1.
          1   -1    0    0  502    0  0.00000000000E+00 -0.00000000000E+00 -0.17769905471E+03  0.17769905471E+03  0.00000000000E+00 0. -1.
          6    1    1    2  502    0 -0.37508965735E+03  0.53667815687E+02  0.28090606577E+03  0.50206045779E+03  0.17200000000E+03 0. -1.
         -6    1    1    2    0  501  0.37508965735E+03 -0.53667815687E+02  0.57781143438E+03  0.71205515179E+03  0.17200000000E+03 0.  1.
</event>
<event>
 4    1  0.3205520E-002  0.5595247E+03  0.7818608E-02  0.9993131E-01
         -2   -1    0    0    0  501 -0.00000000000E+00  0.00000000000E+00  0.31501814377E+03  0.31501814377E+03  0.00000000000E+00 0.  1.
          2   -1    0    0  502    0  0.00000000000E+00 -0.00000000000E+00 -0.10350892997E+04  0.10350892997E+04  0.00000000000E+00 0. -1.
          6    1    1    2  502    0  0.47858862238E+03 -0.23331701075E+03 -0.49484502806E+03  0.74695347832E+03  0.17200000000E+03 0. -1.
         -6    1    1    2    0  501 -0.47858862238E+03  0.23331701075E+03 -0.22522612784E+03  0.60315396512E+03  0.17200000000E+03 0.  1.
</event>
<event>
 4    1  0.3205520E-002  0.1962515E+03  0.7818608E-02  0.1152941E+00
         -1   -1    0    0    0  501 -0.00000000000E+00  0.00000000000E+00  0.19765657017E+02  0.19765657017E+02  0.00000000000E+00 0.  1.
          1   -1    0    0  502    0  0.00000000000E+00 -0.00000000000E+00 -0.35228535239E+04  0.35228535239E+04  0.00000000000E+00 0. -1.
          6    1    1    2  502    0  0.23086408908E+02 -0.91638737700E+02 -0.29356470763E+04  0.29421995849E+04  0.17200000000E+03 0.  1.
         -6    1    1    2    0  501 -0.23086408908E+02  0.91638737700E+02 -0.56744079063E+03  0.60041959611E+03  0.17200000000E+03 0.  1.
</event>
<event>
 4    1  0.3205520E-002  0.1838724E+03  0.7818608E-02  0.1164107E+00
         -1   -1    0    0    0  501 -0.00000000000E+00  0.00000000000E+00  0.22656138007E+02  0.22656138007E+02  0.00000000000E+00 0.  1.
          1   -1    0    0  502    0  0.00000000000E+00 -0.00000000000E+00 -0.19047701343E+04  0.19047701343E+04  0.00000000000E+00 0. -1.
          6    1    1    2  502    0 -0.55730221141E+02  0.33454535950E+02 -0.13895325858E+04  0.14016454154E+04  0.17200000000E+03 0. -1.
         -6    1    1    2    0  501  0.55730221141E+02 -0.33454535950E+02 -0.49258141052E+03  0.52578085693E+03  0.17200000000E+03 0.  1.
</event>
<event>
 4    1  0.3205520E-002  0.6977267E+03  0.7818608E-02  0.9721128E-01
         -2   -1    0    0    0  501 -0.00000000000E+00  0.00000000000E+00  0.14699404018E+03  0.14699404018E+03  0.00000000000E+00 0.  1.
          2   -1    0    0  502    0  0.00000000000E+00 -0.00000000000E+00 -0.33558844659E+04  0.33558844659E+04  0.00000000000E+00 0. -1.
          6    1    1    2  502    0  0.81499742133E+02  0.67126477901E+03 -0.18050653584E+04  0.19352218373E+04  0.17200000000E+03 0. -1.
         -6    1    1    2    0  501 -0.81499742133E+02 -0.67126477901E+03 -0.14038250674E+04  0.15676566688E+04  0.17200000000E+03 0.  1.
</event>
<event>
 4    1  0.3205520E-002  0.2623507E+03  0.7818608E-02  0.1105739E+00
         -2   -1    0    0    0  501 -0.00000000000E+00  0.00000000000E+00  0.77706190596E+02  0.77706190596E+02  0.00000000000E+00 0.  1.
          2   -1    0    0  502    0  0.00000000000E+00 -0.00000000000E+00 -0.89108955760E+03  0.89108955760E+03  0.00000000000E+00 0. -1.
          6    1    1    2  502    0  0.15788997032E+03 -0.11964393270E+03 -0.44420406620E+03  0.51589259133E+03  0.17200000000E+03 0.  1.
         -6    1    1    2    0  501 -0.15788997032E+03  0.11964393270E+03 -0.36917930081E+03  0.45290315687E+03  0.17200000000E+03 0. -1.
</event>
<event>
 4    1  0.3205520E-002  0.2146373E+03  0.7818608E-02  0.1137946E+00
         -2   -1    0    0    0  501 -0.00000000000E+00  0.00000000000E+00  0.90620074399E+02  0.90620074399E+02  0.00000000000E+00 0.  1.
          2   -1    0    0  502    0  0.00000000000E+00 -0.00000000000E+00 -0.17037556704E+04  0.17037556704E+04  0.00000000000E+00 0. -1.
          6    1    1    2  502    0 -0.57211593350E+02 -0.11494341132E+03 -0.15580738860E+04  0.15727884118E+04  0.17200000000E+03 0. -1.
         -6    1    1    2    0  501  0.57211593350E+02  0.11494341132E+03 -0.55061710014E+02  0.22158733296E+03  0.17200000000E+03 0.  1.
</event>
<event>
 4    1  0.3205520E-002  0.2557615E+03  0.7818608E-02  0.1109717E+00
          2   -1    0    0  502    0  0.00000000000E+00  0.00000000000E+00  0.41504299298E+03  0.41504299298E+03  0.00000000000E+00 0. -1.
         -2   -1    0    0    0  501 -0.00000000000E+00 -0.00000000000E+00 -0.20109472045E+03  0.20109472045E+03  0.00000000000E+00 0.  1.
          6    1    1    2  502    0 -0.46124864069E+02 -0.18358226108E+03  0.25023499554E+03  0.35781490000E+03  0.17200000000E+03 0. -1.
         -6    1    1    2    0  501  0.46124864069E+02  0.18358226108E+03 -0.36286723015E+02  0.25832281342E+03  0.17200000000E+03 0.  1.
</event>
<event>
 4    1  0.3205520E-002  0.1953880E+03  0.7818608E-02  0.1153690E+00
         -2   -1    0    0    0  501 -0.00000000000E+00  0.00000000000E+00  0.15582533300E+03  0.15582533300E+03  0.00000000000E+00 0.  1.
          2   -1    0    0  502    0  0.00000000000E+00 -0.00000000000E+00 -0.33638232927E+03  0.33638232927E+03  0.00000000000E+00 0. -1.
          6    1    1    2  502    0 -0.67367939456E+02 -0.63671396804E+02 -0.21855404867E+03  0.29315927109E+03  0.17200000000E+03 0. -1.
         -6    1    1    2    0  501  0.67367939456E+02  0.63671396804E+02  0.37997052408E+02  0.19904839117E+03  0.17200000000E+03 0.  1.
</event>
<event>
 4    1  0.3205520E-002  0.1763381E+03  0.7818608E-02  0.1171395E+00
         -1   -1    0    0    0  501 -0.00000000000E+00  0.00000000000E+00  0.10220878711E+03  0.10220878711E+03  0.00000000000E+00 0.  1.
          1   -1    0    0  502    0  0.00000000000E+00 -0.00000000000E+00 -0.36125511570E+03  0.36125511570E+03  0.00000000000E+00 0. -1.
          6    1    1    2  502    0  0.33784656984E+02  0.19228606518E+02 -0.22159057486E+03  0.28319167576E+03  0.17200000000E+03 0. -1.
         -6    1    1    2    0  501 -0.33784656984E+02 -0.19228606518E+02 -0.37455753729E+02  0.18027222704E+03  0.17200000000E+03 0.  1.
</event>
<event>
 4    1  0.3205520E-002  0.2213477E+03  0.7818608E-02  0.1132882E+00
         -2   -1    0    0    0  501 -0.00000000000E+00  0.00000000000E+00  0.48341152266E+02  0.48341152266E+02  0.00000000000E+00 0.  1.
          2   -1    0    0  502    0  0.00000000000E+00 -0.00000000000E+00 -0.17174878655E+04  0.17174878655E+04  0.00000000000E+00 0. -1.
          6    1    1    2  502    0  0.52367310969E+02 -0.12910648177E+03 -0.13998325456E+04  0.14172247438E+04  0.17200000000E+03 0. -1.
         -6    1    1    2    0  501 -0.52367310969E+02  0.12910648177E+03 -0.26931416762E+03  0.34860427389E+03  0.17200000000E+03 0.  1.
</event>
<event>
 4    1  0.3205520E-002  0.3234031E+03  0.7818608E-02  0.1074094E+00
          4   -1    0    0  502    0  0.00000000000E+00  0.00000000000E+00  0.34021466482E+04  0.34021466482E+04  0.00000000000E+00 0. -1.
         -4   -1    0    0    0  501 -0.00000000000E+00 -0.00000000000E+00 -0.42953276280E+02  0.42953276280E+02  0.00000000000E+00 0.  1.
          6    1    1    2  502    0 -0.27352310096E+03  0.13807499842E+02  0.25980357182E+04  0.26180869211E+04  0.17200000000E+03 0. -1.
         -6    1    1    2    0  501  0.27352310096E+03 -0.13807499842E+02  0.76115765373E+03  0.82701300330E+03  0.17200000000E+03 0.  1.
</event>
<event>
 4    1  0.3205520E-002  0.1860099E+03  0.7818608E-02  0.1162110E+00
         -2   -1    0    0    0  501 -0.00000000000E+00  0.00000000000E+00  0.37865148677E+02  0.37865148677E+02  0.00000000000E+00 0.  1.
          2   -1    0    0  502    0  0.00000000000E+00 -0.00000000000E+00 -0.91673182911E+03  0.91673182911E+03  0.00000000000E+00 0. -1.
          6    1    1    2  502    0  0.53637333720E+02  0.46246211667E+02 -0.41225973712E+03  0.45228062805E+03  0.17200000000E+03 0. -1.
         -6    1    1    2    0  501 -0.53637333720E+02 -0.46246211667E+02 -0.46660694332E+03  0.50231634974E+03  0.17200000000E+03 0.  1.
</event>
<event>
 4    1  0.3205520E-002  0.3076578E+03  0.7818608E-02  0.1081474E+00
         -1   -1    0    0    0  501 -0.00000000000E+00  0.00000000000E+00  0.14769853831E+03  0.14769853831E+03  0.00000000000E+00 0.  1.
          1   -1    0    0  502    0  0.00000000000E+00 -0.00000000000E+00 -0.71386388306E+03  0.71386388306E+03  0.00000000000E+00 0. -1.
          6    1    1    2  502    0 -0.25492924577E+03 -0.89678318843E+01 -0.14531827766E+03  0.34025100173E+03  0.17200000000E+03 0. -1.
         -6    1    1    2    0  501  0.25492924577E+03  0.89678318843E+01 -0.42084706710E+03  0.52131141964E+03  0.17200000000E+03 0.  1.
</event>
<event>
 4    1  0.3205520E-002  0.1899273E+03  0.7818608E-02  0.1158527E+00
         -2   -1    0    0    0  501 -0.00000000000E+00  0.00000000000E+00  0.18664668552E+02  0.18664668552E+02  0.00000000000E+00 0.  1.
          2   -1    0    0  502    0  0.00000000000E+00 -0.00000000000E+00 -0.20598828644E+04  0.20598828644E+04  0.00000000000E+00 0. -1.
          6    1    1    2  502    0 -0.74188226132E+02 -0.31376450151E+02 -0.12788939584E+04  0.12929200019E+04  0.17200000000E+03 0.  1.
         -6    1    1    2    0  501  0.74188226132E+02  0.31376450151E+02 -0.76232423739E+03  0.78562753098E+03  0.17200000000E+03 0.  1.
</event>
<event>
 4    1  0.3205520E-002  0.1817719E+03  0.7818608E-02  0.1166099E+00
         -1   -1    0    0    0  501 -0.00000000000E+00  0.00000000000E+00  0.10343707041E+03  0.10343707041E+03  0.00000000000E+00 0.  1.
          1   -1    0    0  502    0  0.00000000000E+00 -0.00000000000E+00 -0.32183665602E+03  0.32183665602E+03  0.00000000000E+00 0. -1.
          6    1    1    2  502    0 -0.38927393554E+01  0.58667485173E+02 -0.90816649749E+02  0.20319618871E+03  0.17200000000E+03 0. -1.
         -6    1    1    2    0  501  0.38927393554E+01 -0.58667485173E+02 -0.12758293586E+03  0.22207753772E+03  0.17200000000E+03 0.  1.
</event>
<event>
 4    1  0.3205520E-002  0.3684397E+03  0.7818608E-02  0.1055291E+00
          1   -1    0    0  502    0  0.00000000000E+00  0.00000000000E+00  0.72500447773E+03  0.72500447773E+03  0.00000000000E+00 0. -1.
         -1   -1    0    0    0  501 -0.00000000000E+00 -0.00000000000E+00 -0.36511192059E+03  0.36511192059E+03  0.00000000000E+00 0.  1.
          6    1    1    2  502    0  0.29843556729E+03 -0.13076719797E+03  0.56038693266E+03  0.67065741045E+03  0.17200000000E+03 0. -1.
         -6    1    1    2    0  501 -0.29843556729E+03  0.13076719797E+03 -0.20049437552E+03  0.41945898787E+03  0.17200000000E+03 0.  1.
</event>
<event>
 4    1  0.3205520E-002  0.2353802E+03  0.7818608E-02  0.1122909E+00
          1   -1    0    0  502    0  0.00000000000E+00  0.00000000000E+00  0.41069947504E+03  0.41069947504E+03  0.00000000000E+00 0. -1.
         -1   -1    0    0    0  501 -0.00000000000E+00 -0.00000000000E+00 -0.17241411716E+03  0.17241411716E+03  0.00000000000E+00 0.  1.
          6    1    1    2  502    0  0.83318654754E+02  0.13739659699E+03  0.25513913291E+03  0.34713081142E+03  0.17200000000E+03 0. -1.
         -6    1    1    2    0  501 -0.83318654754E+02 -0.13739659699E+03 -0.16853775022E+02  0.23598278078E+03  0.17200000000E+03 0.  1.
</event>
<event>
 4    1  0.3205520E-002  0.2739408E+03  0.7818608E-02  0.1099045E+00
         -2   -1    0    0    0  501 -0.00000000000E+00  0.00000000000E+00  0.91353825232E+03  0.91353825232E+03  0.00000000000E+00 0.  1.
          2   -1    0    0  502    0  0.00000000000E+00 -0.00000000000E+00 -0.98678404100E+02  0.98678404100E+02  0.00000000000E+00 0. -1.
          6    1    1    2  502    0  0.18144778749E+03  0.11196551547E+03  0.20027296560E+03  0.33934177018E+03  0.17200000000E+03 0. -1.
         -6    1    1    2    0  501 -0.18144778749E+03 -0.11196551547E+03  0.61458688262E+03  0.67287488624E+03  0.17200000000E+03 0.  1.
</event>
<event>
 4    1  0.3205520E-002  0.2618193E+03  0.7818608E-02  0.1106055E+00
         -4   -1    0    0    0  501 -0.00000000000E+00  0.00000000000E+00  0.23129380761E+03  0.23129380761E+03  0.00000000000E+00 0.  1.
          4   -1    0    0  502    0  0.00000000000E+00 -0.00000000000E+00 -0.45301238910E+03  0.45301238910E+03  0.00000000000E+00 0. -1.
          6    1    1    2  502    0 -0.38239604711E+02  0.19365709618E+03 -0.31205343507E+03  0.40734099304E+03  0.17200000000E+03 0. -1.
         -6    1    1    2    0  501  0.38239604711E+02 -0.19365709618E+03  0.90334853576E+02  0.27696520367E+03  0.17200000000E+03 0. -1.
</event>
<event>
 4    1  0.3205520E-002  0.2267385E+03  0.7818608E-02  0.1128957E+00
         -1   -1    0    0    0  501 -0.00000000000E+00  0.00000000000E+00  0.41482056967E+02  0.41482056967E+02  0.00000000000E+00 0.  1.
          1   -1    0    0  502    0  0.00000000000E+00 -0.00000000000E+00 -0.13531845243E+04  0.13531845243E+04  0.00000000000E+00 0. -1.
          6    1    1    2  502    0 -0.14318270212E+03  0.36401617097E+02 -0.45358734383E+03  0.50710141234E+03  0.17200000000E+03 0.  1.
         -6    1    1    2    0  501  0.14318270212E+03 -0.36401617097E+02 -0.85811512355E+03  0.88756516897E+03  0.17200000000E+03 0.  1.
</event>
<event>
 4    1  0.3205520E-002  0.4268155E+03  0.7818608E-02  0.1034871E+00
         -2   -1    0    0    0  501 -0.00000000000E+00  0.00000000000E+00  0.16457310373E+03  0.16457310373E+03  0.00000000000E+00 0.  1.
          2   -1    0    0  502    0  0.00000000000E+00 -0.00000000000E+00 -0.46369837832E+04  0.46369837832E+04  0.00000000000E+00 0. -1.
          6    1    1    2  502    0  0.12169332068E+03  0.37118481374E+03 -0.43309194561E+04  0.43519001328E+04  0.17200000000E+03 0. -1.
         -6    1    1    2    0  501 -0.12169332068E+03 -0.37118481374E+03 -0.14149122332E+03  0.44965675412E+03  0.17200000000E+03 0.  1.
</event>
<event>
 4    1  0.3205520E-002  0.3499782E+03  0.7818608E-02  0.1062624E+00
         -2   -1    0    0    0  501 -0.00000000000E+00  0.00000000000E+00  0.19758255701E+03  0.19758255701E+03  0.00000000000E+00 0.  1.
          2   -1    0    0  502    0  0.00000000000E+00 -0.00000000000E+00 -0.72798588789E+03  0.72798588789E+03  0.00000000000E+00 0. -1.
          6    1    1    2  502    0  0.30445272533E+03  0.14467619884E+02 -0.86895020923E+02  0.36060437968E+03  0.17200000000E+03 0. -1.
         -6    1    1    2    0  501 -0.30445272533E+03 -0.14467619884E+02 -0.44350830995E+03  0.56496406521E+03  0.17200000000E+03 0.  1.
</event>
<event>
 4    1  0.3205520E-002  0.1852663E+03  0.7818608E-02  0.1162801E+00
          2   -1    0    0  502    0  0.00000000000E+00  0.00000000000E+00  0.85292646897E+03  0.85292646897E+03  0.00000000000E+00 0. -1.
         -2   -1    0    0    0  501 -0.00000000000E+00 -0.00000000000E+00 -0.10654258280E+03  0.10654258280E+03  0.00000000000E+00 0.  1.
          6    1    1    2  502    0  0.14307966359E+02  0.67341465945E+02  0.75163240316E+03  0.77412845215E+03  0.17200000000E+03 0. -1.
         -6    1    1    2    0  501 -0.14307966359E+02 -0.67341465945E+02 -0.52485169908E+01  0.18534059962E+03  0.17200000000E+03 0.  1.
</event>
<event>
 4    1  0.3205520E-002  0.2669496E+03  0.7818608E-02  0.1103038E+00
         -2   -1    0    0    0  501 -0.00000000000E+00  0.00000000000E+00  0.18441491741E+03  0.18441491741E+03  0.00000000000E+00 0.  1.
          2   -1    0    0  502    0  0.00000000000E+00 -0.00000000000E+00 -0.97583721451E+03  0.97583721451E+03  0.00000000000E+00 0. -1.
          6    1    1    2  502    0 -0.17264222730E+03 -0.10896220384E+03 -0.84657365803E+03  0.88766494748E+03  0.17200000000E+03 0. -1.
         -6    1    1    2    0  501  0.17264222730E+03  0.10896220384E+03  0.55151360933E+02  0.27258718445E+03  0.17200000000E+03 0.  1.
</event>
<event>
 4    1  0.3205520E-002  0.2321178E+03  0.7818608E-02  0.1125158E+00
         -2   -1    0    0    0  501 -0.00000000000E+00  0.00000000000E+00  0.61060371258E+02  0.61060371258E+02  0.00000000000E+00 0.  1.
          2   -1    0    0  502    0  0.00000000000E+00 -0.00000000000E+00 -0.95533642798E+03  0.95533642798E+03  0.00000000000E+00 0. -1.
          6    1    1    2  502    0 -0.30116091448E+02 -0.15293041656E+03 -0.58757296510E+03  0.63175998654E+03  0.17200000000E+03 0. -1.
         -6    1    1    2    0  501  0.30116091448E+02  0.15293041656E+03 -0.30670309162E+03  0.38463681270E+03  0.17200000000E+03 0.  1.
</event>
<event>
 4    1  0.3205520E-002  0.2440889E+03  0.7818608E-02  0.1117098E+00
         -1   -1    0    0    0  501 -0.00000000000E+00  0.00000000000E+00  0.12045177631E+03  0.12045177631E+03  0.00000000000E+00 0.  1.
          1   -1    0    0  502    0  0.00000000000E+00 -0.00000000000E+00 -0.53443046715E+03  0.53443046715E+03  0.00000000000E+00 0. -1.
          6    1    1    2  502    0  0.14249174774E+03 -0.98445492712E+02 -0.11763497556E+03  0.27095645533E+03  0.17200000000E+03 0. -1.
         -6    1    1    2    0  501 -0.14249174774E+03  0.98445492712E+02 -0.29634371527E+03  0.38392578813E+03  0.17200000000E+03 0.  1.
</event>
<event>
 4    1  0.3205520E-002  0.2824527E+03  0.7818608E-02  0.1094357E+00
          2   -1    0    0  502    0  0.00000000000E+00  0.00000000000E+00  0.16464526476E+04  0.16464526476E+04  0.00000000000E+00 0. -1.
         -2   -1    0    0    0  501 -0.00000000000E+00 -0.00000000000E+00 -0.59288206095E+02  0.59288206095E+02  0.00000000000E+00 0.  1.
          6    1    1    2  502    0 -0.86906353485E+02  0.20650130844E+03  0.11581427045E+04  0.11920880960E+04  0.17200000000E+03 0. -1.
         -6    1    1    2    0  501  0.86906353485E+02 -0.20650130844E+03  0.42902173706E+03  0.51365275774E+03  0.17200000000E+03 0. -1.
</event>
<event>
 4    1  0.3205520E-002  0.4764059E+03  0.7818608E-02  0.1020128E+00
         -2   -1    0    0    0  501 -0.00000000000E+00  0.00000000000E+00  0.10649430223E+03  0.10649430223E+03  0.00000000000E+00 0.  1.
          2   -1    0    0  502    0  0.00000000000E+00 -0.00000000000E+00 -0.26718175110E+04  0.26718175110E+04  0.00000000000E+00 0. -1.
          6    1    1    2  502    0 -0.13687673906E+03 -0.42266222067E+03 -0.19075253679E+04  0.19661168896E+04  0.17200000000E+03 0. -1.
         -6    1    1    2    0  501  0.13687673906E+03  0.42266222067E+03 -0.65779784084E+03  0.81219492358E+03  0.17200000000E+03 0.  1.
</event>
<event>
 4    1  0.3205520E-002  0.2017408E+03  0.7818608E-02  0.1148279E+00
         -2   -1    0    0    0  501 -0.00000000000E+00  0.00000000000E+00  0.71485936008E+02  0.71485936008E+02  0.00000000000E+00 0.  1.
          2   -1    0    0  502    0  0.00000000000E+00 -0.00000000000E+00 -0.24549143017E+04  0.24549143017E+04  0.00000000000E+00 0. -1.
          6    1    1    2  502    0  0.77739395838E+01 -0.10514229228E+03 -0.84640396394E+02  0.21877690112E+03  0.17200000000E+03 0.  1.
         -6    1    1    2    0  501 -0.77739395838E+01  0.10514229228E+03 -0.22987879693E+04  0.23076233366E+04  0.17200000000E+03 0. -1.
</event>
<event>
 4    1  0.3205520E-002  0.1742275E+03  0.7818608E-02  0.1173510E+00
          1   -1    0    0  502    0  0.00000000000E+00  0.00000000000E+00  0.88015474391E+03  0.88015474391E+03  0.00000000000E+00 0. -1.
         -1   -1    0    0    0  501 -0.00000000000E+00 -0.00000000000E+00 -0.52987751703E+02  0.52987751703E+02  0.00000000000E+00 0.  1.
          6    1    1    2  502    0  0.27713361510E+02  0.17821800813E+01  0.68926488247E+03  0.71094393926E+03  0.17200000000E+03 0. -1.
         -6    1    1    2    0  501 -0.27713361510E+02 -0.17821800813E+01  0.13790210973E+03  0.22219855634E+03  0.17200000000E+03 0.  1.
</event>
<event>
 4    1  0.3205520E-002  0.2141734E+03  0.7818608E-02  0.1138303E+00
         -1   -1    0    0    0  501 -0.00000000000E+00  0.00000000000E+00  0.37923867209E+02  0.37923867209E+02  0.00000000000E+00 0.  1.
          1   -1    0    0  502    0  0.00000000000E+00 -0.00000000000E+00 -0.14814201649E+04  0.14814201649E+04  0.00000000000E+00 0. -1.
          6    1    1    2  502    0 -0.35878157437E+02  0.12247040300E+03 -0.10471948099E+04  0.10688719341E+04  0.17200000000E+03 0. -1.
         -6    1    1    2    0  501  0.35878157437E+02 -0.12247040300E+03 -0.39630148783E+03  0.45047209797E+03  0.17200000000E+03 0.  1.
</event>
<event>
 4    1  0.3205520E-002  0.2626618E+03  0.7818608E-02  0.1105554E+00
          2   -1    0    0  502    0  0.00000000000E+00  0.00000000000E+00  0.31361325964E+03  0.31361325964E+03  0.00000000000E+00 0. -1.
         -2   -1    0    0    0  501 -0.00000000000E+00 -0.00000000000E+00 -0.65474375908E+03  0.65474375908E+03  0.00000000000E+00 0.  1.
          6    1    1    2  502    0  0.12762075532E+03  0.15205318508E+03  0.22397596600E+03  0.34519047152E+03  0.17200000000E+03 0. -1.
         -6    1    1    2    0  501 -0.12762075532E+03 -0.15205318508E+03 -0.56510646543E+03  0.62316654720E+03  0.17200000000E+03 0.  1.
</event>
<event>
 4    1  0.3205520E-002  0.3605555E+03  0.7818608E-02  0.1058364E+00
         -1   -1    0    0    0  501 -0.00000000000E+00  0.00000000000E+00  0.15305193030E+03  0.15305193030E+03  0.00000000000E+00 0.  1.
          1   -1    0    0  502    0  0.00000000000E+00 -0.00000000000E+00 -0.95852195206E+03  0.95852195206E+03  0.00000000000E+00 0. -1.
          6    1    1    2  502    0  0.29029121639E+03 -0.12707201360E+03 -0.59027317756E+03  0.69168107615E+03  0.17200000000E+03 0. -1.
         -6    1    1    2    0  501 -0.29029121639E+03  0.12707201360E+03 -0.21519684420E+03  0.41989280621E+03  0.17200000000E+03 0.  1.
</event>
<event>
 4    1  0.3205520E-002  0.4538381E+03  0.7818608E-02  0.1026584E+00
          2   -1    0    0  502    0  0.00000000000E+00  0.00000000000E+00  0.68077307445E+03  0.68077307445E+03  0.00000000000E+00 0. -1.
         -2   -1    0    0    0  501 -0.00000000000E+00 -0.00000000000E+00 -0.34634491415E+03  0.34634491415E+03  0.00000000000E+00 0.  1.
          6    1    1    2  502    0 -0.39168735677E+03 -0.15154538925E+03  0.34983048293E+03  0.57301863604E+03  0.17200000000E+03 0. -1.
         -6    1    1    2    0  501  0.39168735677E+03  0.15154538925E+03 -0.15402322630E+02  0.45409935257E+03  0.17200000000E+03 0.  1.
</event>
<event>
 4    1  0.3205520E-002  0.1791490E+03  0.7818608E-02  0.1168629E+00
          1   -1    0    0  502    0  0.00000000000E+00  0.00000000000E+00  0.61670361232E+03  0.61670361232E+03  0.00000000000E+00 0. -1.
         -1   -1    0    0    0  501 -0.00000000000E+00 -0.00000000000E+00 -0.74384049490E+02  0.74384049490E+02  0.00000000000E+00 0.  1.
          6    1    1    2  502    0  0.29178746251E+02  0.40730234627E+02  0.81782919041E+02  0.19693348393E+03  0.17200000000E+03 0.  1.
         -6    1    1    2    0  501 -0.29178746251E+02 -0.40730234627E+02  0.46053664379E+03  0.49415417788E+03  0.17200000000E+03 0. -1.
</event>
<event>
 4    1  0.3205520E-002  0.3522909E+03  0.7818608E-02  0.1061679E+00
          2   -1    0    0  502    0  0.00000000000E+00  0.00000000000E+00  0.55630965263E+04  0.55630965263E+04  0.00000000000E+00 0. -1.
         -2   -1    0    0    0  501 -0.00000000000E+00 -0.00000000000E+00 -0.27864195887E+02  0.27864195887E+02  0.00000000000E+00 0.  1.
          6    1    1    2  502    0 -0.58375654719E+02  0.30185619262E+03  0.40157769292E+04  0.40311999732E+04  0.17200000000E+03 0. -1.
         -6    1    1    2    0  501  0.58375654719E+02 -0.30185619262E+03  0.15194554011E+04  0.15597607490E+04  0.17200000000E+03 0.  1.
</event>
<event>
 4    1  0.3205520E-002  0.2651642E+03  0.7818608E-02  0.1104080E+00
          1   -1    0    0  502    0  0.00000000000E+00  0.00000000000E+00  0.27460312493E+03  0.27460312493E+03  0.00000000000E+00 0. -1.
         -1   -1    0    0    0  501 -0.00000000000E+00 -0.00000000000E+00 -0.48530495736E+03  0.48530495736E+03  0.00000000000E+00 0.  1.
          6    1    1    2  502    0  0.26018400680E+01  0.20179520769E+03  0.15579501318E+03  0.30754538128E+03  0.17200000000E+03 0. -1.
         -6    1    1    2    0  501 -0.26018400680E+01 -0.20179520769E+03 -0.36649684561E+03  0.45236270100E+03  0.17200000000E+03 0.  1.
</event>
<event>
 4    1  0.3205520E-002  0.2530984E+03  0.7818608E-02  0.1111362E+00
          2   -1    0    0  502    0  0.00000000000E+00  0.00000000000E+00  0.94080599482E+03  0.94080599482E+03  0.00000000000E+00 0. -1.
         -2   -1    0    0    0  501 -0.00000000000E+00 -0.00000000000E+00 -0.68790454253E+02  0.68790454253E+02  0.00000000000E+00 0.  1.
          6    1    1    2  502    0 -0.11881406401E+03  0.14268151046E+03  0.48697243876E+03  0.54881777609E+03  0.17200000000E+03 0.  1.
         -6    1    1    2    0  501  0.11881406401E+03 -0.14268151046E+03  0.38504310180E+03  0.46077867299E+03  0.17200000000E+03 0. -1.
</event>
<event>
 4    1  0.3205520E-002  0.1760832E+03  0.7818608E-02  0.1171648E+00
         -2   -1    0    0    0  501 -0.00000000000E+00  0.00000000000E+00  0.26028534090E+03  0.26028534090E+03  0.00000000000E+00 0.  1.
          2   -1    0    0  502    0  0.00000000000E+00 -0.00000000000E+00 -0.15192363363E+03  0.15192363363E+03  0.00000000000E+00 0. -1.
          6    1    1    2  502    0  0.19023494782E+02  0.32548636331E+02  0.14995157786E+03  0.23128074452E+03  0.17200000000E+03 0.  1.
         -6    1    1    2    0  501 -0.19023494782E+02 -0.32548636331E+02 -0.41589870590E+02  0.18092823002E+03  0.17200000000E+03 0. -1.
</event>
<event>
 4    1  0.3205520E-002  0.2440507E+03  0.7818608E-02  0.1117123E+00
          2   -1    0    0  502    0  0.00000000000E+00  0.00000000000E+00  0.47949960318E+04  0.47949960318E+04  0.00000000000E+00 0. -1.
         -2   -1    0    0    0  501 -0.00000000000E+00 -0.00000000000E+00 -0.19443539303E+02  0.19443539303E+02  0.00000000000E+00 0.  1.
          6    1    1    2  502    0 -0.13313642115E+03  0.11068625824E+03  0.38344199250E+04  0.38421786679E+04  0.17200000000E+03 0. -1.
         -6    1    1    2    0  501  0.13313642115E+03 -0.11068625824E+03  0.94113256749E+03  0.97226090325E+03  0.17200000000E+03 0.  1.
</event>
<event>
 4    1  0.3205520E-002  0.2315967E+03  0.7818608E-02  0.1125521E+00
         -2   -1    0    0    0  501 -0.00000000000E+00  0.00000000000E+00  0.65274256564E+02  0.65274256564E+02  0.00000000000E+00 0.  1.
          2   -1    0    0  502    0  0.00000000000E+00 -0.00000000000E+00 -0.14277087332E+04  0.14277087332E+04  0.00000000000E+00 0. -1.
          6    1    1    2  502    0  0.13734695126E+01  0.15508426797E+03 -0.11675551545E+04  0.11903033459E+04  0.17200000000E+03 0. -1.
         -6    1    1    2    0  501 -0.13734695126E+01 -0.15508426797E+03 -0.19487932218E+03  0.30267964385E+03  0.17200000000E+03 0.  1.
</event>
<event>
 4    1  0.3205520E-002  0.2476888E+03  0.7818608E-02  0.1114774E+00
          1   -1    0    0  502    0  0.00000000000E+00  0.00000000000E+00  0.39395374742E+04  0.39395374742E+04  0.00000000000E+00 0. -1.
         -1   -1    0    0    0  501 -0.00000000000E+00 -0.00000000000E+00 -0.21687985617E+02  0.21687985617E+02  0.00000000000E+00 0.  1.
          6    1    1    2  502    0 -0.84284845956E+02 -0.15704078753E+03  0.30106292703E+04  0.30208009447E+04  0.17200000000E+03 0. -1.
         -6    1    1    2    0  501  0.84284845956E+02  0.15704078753E+03  0.90722021830E+03  0.94042451515E+03  0.17200000000E+03 0.  1.
</event>
<event>
 4    1  0.3205520E-002  0.1897456E+03  0.7818608E-02  0.1158691E+00
         -1   -1    0    0    0  501 -0.00000000000E+00  0.00000000000E+00  0.12594083959E+03  0.12594083959E+03  0.00000000000E+00 0.  1.
          1   -1    0    0  502    0  0.00000000000E+00 -0.00000000000E+00 -0.41572496648E+03  0.41572496648E+03  0.00000000000E+00 0. -1.
          6    1    1    2  502    0 -0.39785013712E+02  0.69545402210E+02 -0.29625457528E+03  0.35180986862E+03  0.17200000000E+03 0. -1.
         -6    1    1    2    0  501  0.39785013712E+02 -0.69545402210E+02  0.64704483907E+01  0.18985593746E+03  0.17200000000E+03 0.  1.
</event>
<event>
 4    1  0.3205520E-002  0.2195125E+03  0.7818608E-02  0.1134247E+00
          2   -1    0    0  502    0  0.00000000000E+00  0.00000000000E+00  0.11221740869E+04  0.11221740869E+04  0.00000000000E+00 0. -1.
         -2   -1    0    0    0  501 -0.00000000000E+00 -0.00000000000E+00 -0.43357201258E+02  0.43357201258E+02  0.00000000000E+00 0.  1.
          6    1    1    2  502    0  0.13531559341E+03  0.17071605039E+02  0.48221789613E+03  0.52983001884E+03  0.17200000000E+03 0. -1.
         -6    1    1    2    0  501 -0.13531559341E+03 -0.17071605039E+02  0.59659898947E+03  0.63570126928E+03  0.17200000000E+03 0.  1.
</event>
<event>
 4    1  0.3205520E-002  0.1798339E+03  0.7818608E-02  0.1167964E+00
         -1   -1    0    0    0  501 -0.00000000000E+00  0.00000000000E+00  0.31667269755E+02  0.31667269755E+02  0.00000000000E+00 0.  1.
          1   -1    0    0  502    0  0.00000000000E+00 -0.00000000000E+00 -0.11397824769E+04  0.11397824769E+04  0.00000000000E+00 0. -1.
          6    1    1    2  502    0 -0.42074496545E+02  0.31400270612E+02 -0.74294326277E+03  0.76439841179E+03  0.17200000000E+03 0. -1.
         -6    1    1    2    0  501  0.42074496545E+02 -0.31400270612E+02 -0.36517194436E+03  0.40705133485E+03  0.17200000000E+03 0.  1.
</event>
<event>
 4    1  0.3205520E-002  0.1835239E+03  0.7818608E-02  0.1164435E+00
         -2   -1    0    0    0  501 -0.00000000000E+00  0.00000000000E+00  0.13937531529E+03  0.13937531529E+03  0.00000000000E+00 0.  1.
          2   -1    0    0  502    0  0.00000000000E+00 -0.00000000000E+00 -0.42980056144E+03  0.42980056144E+03  0.00000000000E+00 0. -1.
          6    1    1    2  502    0 -0.21458997757E+01  0.63972105929E+02 -0.33350275479E+03  0.38066405488E+03  0.17200000000E+03 0. -1.
         -6    1    1    2    0  501  0.21458997757E+01 -0.63972105929E+02  0.43077508647E+02  0.18851182184E+03  0.17200000000E+03 0.  1.
</event>
<event>
 4    1  0.3205520E-002  0.2047769E+03  0.7818608E-02  0.1145770E+00
         -1   -1    0    0    0  501 -0.00000000000E+00  0.00000000000E+00  0.53827957640E+02  0.53827957640E+02  0.00000000000E+00 0.  1.
          1   -1    0    0  502    0  0.00000000000E+00 -0.00000000000E+00 -0.80388835905E+03  0.80388835905E+03  0.00000000000E+00 0. -1.
          6    1    1    2  502    0  0.10763099024E+03  0.27661376721E+02 -0.45044454942E+03  0.49480690570E+03  0.17200000000E+03 0. -1.
         -6    1    1    2    0  501 -0.10763099024E+03 -0.27661376721E+02 -0.29961585199E+03  0.36290941099E+03  0.17200000000E+03 0.  1.
</event>
<event>
 4    1  0.3205520E-002  0.2006691E+03  0.7818608E-02  0.1149176E+00
         -1   -1    0    0    0  501 -0.00000000000E+00  0.00000000000E+00  0.24218926449E+02  0.24218926449E+02  0.00000000000E+00 0.  1.
          1   -1    0    0  502    0  0.00000000000E+00 -0.00000000000E+00 -0.17581381823E+04  0.17581381823E+04  0.00000000000E+00 0. -1.
          6    1    1    2  502    0  0.10332758352E+03  0.27417383989E+01 -0.65929368542E+03  0.68915620165E+03  0.17200000000E+03 0. -1.
         -6    1    1    2    0  501 -0.10332758352E+03 -0.27417383989E+01 -0.10746255705E+04  0.10932009071E+04  0.17200000000E+03 0. -1.
</event>
<event>
 4    1  0.3205520E-002  0.2282185E+03  0.7818608E-02  0.1127900E+00
         -1   -1    0    0    0  501 -0.00000000000E+00  0.00000000000E+00  0.55220204895E+02  0.55220204895E+02  0.00000000000E+00 0.  1.
          1   -1    0    0  502    0  0.00000000000E+00 -0.00000000000E+00 -0.11157664565E+04  0.11157664565E+04  0.00000000000E+00 0. -1.
          6    1    1    2  502    0 -0.12804384016E+03  0.78130977726E+02 -0.76053074347E+03  0.79403443657E+03  0.17200000000E+03 0. -1.
         -6    1    1    2    0  501  0.12804384016E+03 -0.78130977726E+02 -0.30001550814E+03  0.37695222483E+03  0.17200000000E+03 0.  1.
</event>
<event>
 4    1  0.3205520E-002  0.1938188E+03  0.7818608E-02  0.1155061E+00
         -1   -1    0    0    0  501 -0.00000000000E+00  0.00000000000E+00  0.18376670575E+03  0.18376670575E+03  0.00000000000E+00 0.  1.
          1   -1    0    0  502    0  0.00000000000E+00 -0.00000000000E+00 -0.47595513319E+03  0.47595513319E+03  0.00000000000E+00 0. -1.
          6    1    1    2  502    0 -0.87858956975E+02 -0.16202279042E+02 -0.39524390282E+03  0.44020841982E+03  0.17200000000E+03 0. -1.
         -6    1    1    2    0  501  0.87858956975E+02  0.16202279042E+02  0.10305547538E+03  0.21951341912E+03  0.17200000000E+03 0.  1.
</event>
<event>
 4    1  0.3205520E-002  0.2405743E+03  0.7818608E-02  0.1119411E+00
         -1   -1    0    0    0  501 -0.00000000000E+00  0.00000000000E+00  0.12931143848E+03  0.12931143848E+03  0.00000000000E+00 0.  1.
          1   -1    0    0  502    0  0.00000000000E+00 -0.00000000000E+00 -0.68500005953E+03  0.68500005953E+03  0.00000000000E+00 0. -1.
          6    1    1    2  502    0 -0.89410479575E+02 -0.14247022032E+03 -0.51755233501E+03  0.57073322753E+03  0.17200000000E+03 0. -1.
         -6    1    1    2    0  501  0.89410479575E+02  0.14247022032E+03 -0.38136286037E+02  0.24357827048E+03  0.17200000000E+03 0.  1.
</event>
<event>
 4    1  0.3205520E-002  0.2969611E+03  0.7818608E-02  0.1086770E+00
          2   -1    0    0  502    0  0.00000000000E+00  0.00000000000E+00  0.93784306818E+03  0.93784306818E+03  0.00000000000E+00 0. -1.
         -2   -1    0    0    0  501 -0.00000000000E+00 -0.00000000000E+00 -0.16950305706E+03  0.16950305706E+03  0.00000000000E+00 0.  1.
          6    1    1    2  502    0  0.21639151812E+03  0.10852014563E+03  0.75362282039E+03  0.81002053464E+03  0.17200000000E+03 0. -1.
         -6    1    1    2    0  501 -0.21639151812E+03 -0.10852014563E+03  0.14717190723E+02  0.29732559059E+03  0.17200000000E+03 0.  1.
</event>
<event>
 4    1  0.3205520E-002  0.2205465E+03  0.7818608E-02  0.1133476E+00
          2   -1    0    0  502    0  0.00000000000E+00  0.00000000000E+00  0.91086346705E+03  0.91086346705E+03  0.00000000000E+00 0. -1.
         -2   -1    0    0    0  501 -0.00000000000E+00 -0.00000000000E+00 -0.58947192396E+02  0.58947192396E+02  0.00000000000E+00 0.  1.
          6    1    1    2  502    0  0.36021130741E+01 -0.13799925953E+03  0.57470012134E+03  0.61556559384E+03  0.17200000000E+03 0. -1.
         -6    1    1    2    0  501 -0.36021130741E+01  0.13799925953E+03  0.27721615332E+03  0.35424506561E+03  0.17200000000E+03 0.  1.
</event>
<event>
 4    1  0.3205520E-002  0.2013083E+03  0.7818608E-02  0.1148640E+00
         -2   -1    0    0    0  501 -0.00000000000E+00  0.00000000000E+00  0.39614270982E+03  0.39614270982E+03  0.00000000000E+00 0.  1.
          2   -1    0    0  502    0  0.00000000000E+00 -0.00000000000E+00 -0.14810123421E+04  0.14810123421E+04  0.00000000000E+00 0. -1.
          6    1    1    2  502    0 -0.10267495106E+03 -0.19972270475E+02 -0.14480168288E+04  0.14619431499E+04  0.17200000000E+03 0. -1.
         -6    1    1    2    0  501  0.10267495106E+03  0.19972270475E+02  0.36314719655E+03  0.41521190195E+03  0.17200000000E+03 0.  1.
</event>
<event>
 4    1  0.3205520E-002  0.5029539E+03  0.7818608E-02  0.1013011E+00
         -2   -1    0    0    0  501 -0.00000000000E+00  0.00000000000E+00  0.19157921375E+03  0.19157921375E+03  0.00000000000E+00 0.  1.
          2   -1    0    0  502    0  0.00000000000E+00 -0.00000000000E+00 -0.13843808564E+04  0.13843808564E+04  0.00000000000E+00 0. -1.
          6    1    1    2  502    0  0.45811063609E+03 -0.11624651645E+03 -0.76579067806E+03  0.91618664588E+03  0.17200000000E+03 0. -1.
         -6    1    1    2    0  501 -0.45811063609E+03  0.11624651645E+03 -0.42701096457E+03  0.65977342425E+03  0.17200000000E+03 0.  1.
</event>
<event>
 4    1  0.3205520E-002  0.3069350E+03  0.7818608E-02  0.1081824E+00
         -2   -1    0    0    0  501 -0.00000000000E+00  0.00000000000E+00  0.24991377418E+03  0.24991377418E+03  0.00000000000E+00 0.  1.
          2   -1    0    0  502    0  0.00000000000E+00 -0.00000000000E+00 -0.45540968025E+03  0.45540968025E+03  0.00000000000E+00 0. -1.
          6    1    1    2  502    0  0.25103113657E+03  0.40105364386E+02  0.43616407632E+02  0.31001848783E+03  0.17200000000E+03 0.  1.
         -6    1    1    2    0  501 -0.25103113657E+03 -0.40105364386E+02 -0.24911231371E+03  0.39530496660E+03  0.17200000000E+03 0. -1.
</event>
<event>
 4    1  0.3205520E-002  0.1867305E+03  0.7818608E-02  0.1161444E+00
          2   -1    0    0  502    0  0.00000000000E+00  0.00000000000E+00  0.70911697445E+03  0.70911697445E+03  0.00000000000E+00 0. -1.
         -2   -1    0    0    0  501 -0.00000000000E+00 -0.00000000000E+00 -0.60552252652E+02  0.60552252652E+02  0.00000000000E+00 0.  1.
          6    1    1    2  502    0  0.72233733905E+02 -0.81592340719E+01  0.15744393680E+03  0.24424757655E+03  0.17200000000E+03 0.  1.
         -6    1    1    2    0  501 -0.72233733905E+02  0.81592340719E+01  0.49112078500E+03  0.52542165056E+03  0.17200000000E+03 0.  1.
</event>
<event>
 4    1  0.3205520E-002  0.1743621E+03  0.7818608E-02  0.1173374E+00
         -2   -1    0    0    0  501 -0.00000000000E+00  0.00000000000E+00  0.65526482438E+02  0.65526482438E+02  0.00000000000E+00 0.  1.
          2   -1    0    0  502    0  0.00000000000E+00 -0.00000000000E+00 -0.11424491119E+04  0.11424491119E+04  0.00000000000E+00 0. -1.
          6    1    1    2  502    0 -0.27860543531E+02  0.64759377328E+01 -0.10039175204E+04  0.10189467775E+04  0.17200000000E+03 0. -1.
         -6    1    1    2    0  501  0.27860543531E+02 -0.64759377328E+01 -0.73005109137E+02  0.18902881689E+03  0.17200000000E+03 0.  1.
</event>
<event>
 4    1  0.3205520E-002  0.2661757E+03  0.7818608E-02  0.1103488E+00
          2   -1    0    0  502    0  0.00000000000E+00  0.00000000000E+00  0.12606363371E+04  0.12606363371E+04  0.00000000000E+00 0. -1.
         -2   -1    0    0    0  501 -0.00000000000E+00 -0.00000000000E+00 -0.58808512314E+02  0.58808512314E+02  0.00000000000E+00 0.  1.
          6    1    1    2  502    0  0.20080368671E+03 -0.30714689585E+02  0.73982021902E+03  0.78624644306E+03  0.17200000000E+03 0. -1.
         -6    1    1    2    0  501 -0.20080368671E+03  0.30714689585E+02  0.46200760575E+03  0.53319840634E+03  0.17200000000E+03 0.  1.
</event>
<event>
 4    1  0.3205520E-002  0.1927085E+03  0.7818608E-02  0.1156041E+00
          2   -1    0    0  502    0  0.00000000000E+00  0.00000000000E+00  0.86246117475E+03  0.86246117475E+03  0.00000000000E+00 0. -1.
         -2   -1    0    0    0  501 -0.00000000000E+00 -0.00000000000E+00 -0.84326434273E+02  0.84326434273E+02  0.00000000000E+00 0.  1.
          6    1    1    2  502    0  0.27343703323E+02  0.82491832779E+02  0.72023300245E+03  0.74556834590E+03  0.17200000000E+03 0. -1.
         -6    1    1    2    0  501 -0.27343703323E+02 -0.82491832779E+02  0.57901738030E+02  0.20121926313E+03  0.17200000000E+03 0.  1.
</event>
<event>
 4    1  0.3205520E-002  0.1947653E+03  0.7818608E-02  0.1154232E+00
         -1   -1    0    0    0  501 -0.00000000000E+00  0.00000000000E+00  0.30451476426E+03  0.30451476426E+03  0.00000000000E+00 0.  1.
          1   -1    0    0  502    0  0.00000000000E+00 -0.00000000000E+00 -0.12787492401E+03  0.12787492401E+03  0.00000000000E+00 0. -1.
          6    1    1    2  502    0  0.79414056390E+02  0.45198793051E+02  0.12307415135E+03  0.23039264306E+03  0.17200000000E+03 0. -1.
         -6    1    1    2    0  501 -0.79414056390E+02 -0.45198793051E+02  0.53565688899E+02  0.20199704521E+03  0.17200000000E+03 0.  1.
</event>
<event>
 4    1  0.3205520E-002  0.2672376E+03  0.7818608E-02  0.1102871E+00
          1   -1    0    0  502    0  0.00000000000E+00  0.00000000000E+00  0.10106251816E+04  0.10106251816E+04  0.00000000000E+00 0. -1.
         -1   -1    0    0    0  501 -0.00000000000E+00 -0.00000000000E+00 -0.12189196970E+03  0.12189196970E+03  0.00000000000E+00 0.  1.
          6    1    1    2  502    0  0.18696746941E+03 -0.82916365717E+02  0.81145954681E+03  0.85433164195E+03  0.17200000000E+03 0. -1.
         -6    1    1    2    0  501 -0.18696746941E+03  0.82916365717E+02  0.77273665134E+02  0.27818550941E+03  0.17200000000E+03 0.  1.
</event>
<event>
 4    1  0.3205520E-002  0.6159511E+03  0.7818608E-02  0.9872854E-01
          2   -1    0    0  502    0  0.00000000000E+00  0.00000000000E+00  0.10111586758E+04  0.10111586758E+04  0.00000000000E+00 0. -1.
         -2   -1    0    0    0  501 -0.00000000000E+00 -0.00000000000E+00 -0.38269884330E+03  0.38269884330E+03  0.00000000000E+00 0.  1.
          6    1    1    2  502    0  0.51963960614E+03  0.28246499969E+03  0.41172827468E+03  0.74088863434E+03  0.17200000000E+03 0. -1.
         -6    1    1    2    0  501 -0.51963960614E+03 -0.28246499969E+03  0.21673155783E+03  0.65296888477E+03  0.17200000000E+03 0.  1.
</event>
<event>
 4    1  0.3205520E-002  0.3131918E+03  0.7818608E-02  0.1078826E+00
          2   -1    0    0  502    0  0.00000000000E+00  0.00000000000E+00  0.17383391342E+04  0.17383391342E+04  0.00000000000E+00 0. -1.
         -2   -1    0    0    0  501 -0.00000000000E+00 -0.00000000000E+00 -0.29250785703E+03  0.29250785703E+03  0.00000000000E+00 0.  1.
          6    1    1    2  502    0 -0.21614285868E+03 -0.14760534281E+03  0.16351552516E+04  0.16648789053E+04  0.17200000000E+03 0. -1.
         -6    1    1    2    0  501  0.21614285868E+03  0.14760534281E+03 -0.18932397444E+03  0.36596808588E+03  0.17200000000E+03 0.  1.
</event>
<event>
 4    1  0.3205520E-002  0.2555950E+03  0.7818608E-02  0.1109819E+00
         -2   -1    0    0    0  501 -0.00000000000E+00  0.00000000000E+00  0.91778326557E+02  0.91778326557E+02  0.00000000000E+00 0.  1.
          2   -1    0    0  502    0  0.00000000000E+00 -0.00000000000E+00 -0.11086800338E+04  0.11086800338E+04  0.00000000000E+00 0. -1.
          6    1    1    2  502    0  0.92033511182E+02  0.16515040241E+03 -0.86756920398E+03  0.90443636940E+03  0.17200000000E+03 0. -1.
         -6    1    1    2    0  501 -0.92033511182E+02 -0.16515040241E+03 -0.14933250325E+03  0.29602199095E+03  0.17200000000E+03 0.  1.
</event>
<event>
 4    1  0.3205520E-002  0.5532470E+03  0.7818608E-02  0.1000745E+00
          2   -1    0    0  502    0  0.00000000000E+00  0.00000000000E+00  0.69814831776E+03  0.69814831776E+03  0.00000000000E+00 0. -1.
         -2   -1    0    0    0  501 -0.00000000000E+00 -0.00000000000E+00 -0.11398114294E+04  0.11398114294E+04  0.00000000000E+00 0.  1.
          6    1    1    2  502    0 -0.37339490847E+03  0.37023573775E+03  0.50005958929E+03  0.74574918842E+03  0.17200000000E+03 0. -1.
         -6    1    1    2    0  501  0.37339490847E+03 -0.37023573775E+03 -0.94172270095E+03  0.10922105588E+04  0.17200000000E+03 0.  1.
</event>
<event>
 4    1  0.3205520E-002  0.1962759E+03  0.7818608E-02  0.1152920E+00
          1   -1    0    0  502    0  0.00000000000E+00  0.00000000000E+00  0.11059871222E+03  0.11059871222E+03  0.00000000000E+00 0. -1.
         -1   -1    0    0    0  501 -0.00000000000E+00 -0.00000000000E+00 -0.47449929095E+03  0.47449929095E+03  0.00000000000E+00 0.  1.
          6    1    1    2  502    0  0.88305827034E+02 -0.33797963214E+02 -0.31092603876E+02  0.19872335399E+03  0.17200000000E+03 0. -1.
         -6    1    1    2    0  501 -0.88305827034E+02  0.33797963214E+02 -0.33280797485E+03  0.38637464918E+03  0.17200000000E+03 0. -1.
</event>
<event>
 4    1  0.3205520E-002  0.1748537E+03  0.7818608E-02  0.1172879E+00
         -3   -1    0    0    0  501 -0.00000000000E+00  0.00000000000E+00  0.13852797859E+04  0.13852797859E+04  0.00000000000E+00 0.  1.
          3   -1    0    0  502    0  0.00000000000E+00 -0.00000000000E+00 -0.24003280188E+02  0.24003280188E+02  0.00000000000E+00 0. -1.
          6    1    1    2  502    0  0.31111081706E+02 -0.46805021218E+01  0.88058993687E+03  0.89778195761E+03  0.17200000000E+03 0.  1.
         -6    1    1    2    0  501 -0.31111081706E+02  0.46805021218E+01  0.48068656889E+03  0.51150110852E+03  0.17200000000E+03 0. -1.
</event>
<event>
 4    1  0.3205520E-002  0.1720125E+03  0.7818608E-02  0.1175765E+00
          2   -1    0    0  502    0  0.00000000000E+00  0.00000000000E+00  0.20876135061E+04  0.20876135061E+04  0.00000000000E+00 0. -1.
         -2   -1    0    0    0  501 -0.00000000000E+00 -0.00000000000E+00 -0.37988188691E+02  0.37988188691E+02  0.00000000000E+00 0.  1.
          6    1    1    2  502    0 -0.48464790182E+00  0.20152681288E+01  0.18663089574E+04  0.18742191495E+04  0.17200000000E+03 0. -1.
         -6    1    1    2    0  501  0.48464790182E+00 -0.20152681288E+01  0.18331636002E+03  0.25138254521E+03  0.17200000000E+03 0.  1.
</event>
<event>
 4    1  0.3205520E-002  0.2694449E+03  0.7818608E-02  0.1101598E+00
         -2   -1    0    0    0  501 -0.00000000000E+00  0.00000000000E+00  0.28639922212E+03  0.28639922212E+03  0.00000000000E+00 0.  1.
          2   -1    0    0  502    0  0.00000000000E+00 -0.00000000000E+00 -0.26489341280E+03  0.26489341280E+03  0.00000000000E+00 0. -1.
          6    1    1    2  502    0  0.19055975542E+03 -0.81875101377E+02 -0.46428302545E+02  0.27341569064E+03  0.17200000000E+03 0. -1.
         -6    1    1    2    0  501 -0.19055975542E+03  0.81875101377E+02  0.67934111859E+02  0.27787694428E+03  0.17200000000E+03 0.  1.
</event>
<event>
 4    1  0.3205520E-002  0.1844820E+03  0.7818608E-02  0.1163534E+00
          1   -1    0    0  502    0  0.00000000000E+00  0.00000000000E+00  0.76028108559E+03  0.76028108559E+03  0.00000000000E+00 0. -1.
         -1   -1    0    0    0  501 -0.00000000000E+00 -0.00000000000E+00 -0.48738466734E+02  0.48738466734E+02  0.00000000000E+00 0.  1.
          6    1    1    2  502    0 -0.44654976433E+02  0.49553523836E+02  0.24026543951E+03  0.30292094690E+03  0.17200000000E+03 0.  1.
         -6    1    1    2    0  501  0.44654976433E+02 -0.49553523836E+02  0.47127717934E+03  0.50609860543E+03  0.17200000000E+03 0. -1.
</event>
<event>
 4    1  0.3205520E-002  0.3615986E+03  0.7818608E-02  0.1057953E+00
          4   -1    0    0  502    0  0.00000000000E+00  0.00000000000E+00  0.14020002192E+03  0.14020002192E+03  0.00000000000E+00 0. -1.
         -4   -1    0    0    0  501 -0.00000000000E+00 -0.00000000000E+00 -0.17156265491E+04  0.17156265491E+04  0.00000000000E+00 0.  1.
          6    1    1    2  502    0 -0.83819550185E+02  0.30682870440E+03 -0.16084214239E+03  0.39575720537E+03  0.17200000000E+03 0. -1.
         -6    1    1    2    0  501  0.83819550185E+02 -0.30682870440E+03 -0.14145843847E+04  0.14600693656E+04  0.17200000000E+03 0.  1.
</event>
<event>
 4    1  0.3205520E-002  0.6420232E+03  0.7818608E-02  0.9821863E-01
         -2   -1    0    0    0  501 -0.00000000000E+00  0.00000000000E+00  0.13639846993E+03  0.13639846993E+03  0.00000000000E+00 0.  1.
          2   -1    0    0  502    0  0.00000000000E+00 -0.00000000000E+00 -0.31385538497E+04  0.31385538497E+04  0.00000000000E+00 0. -1.
          6    1    1    2  502    0 -0.33997738887E+03 -0.51674481005E+03 -0.18166549018E+04  0.19267664248E+04  0.17200000000E+03 0. -1.
         -6    1    1    2    0  501  0.33997738887E+03  0.51674481005E+03 -0.11855004780E+04  0.13481858948E+04  0.17200000000E+03 0.  1.
</event>
<event>
 4    1  0.3205520E-002  0.2169097E+03  0.7818608E-02  0.1136208E+00
          1   -1    0    0  502    0  0.00000000000E+00  0.00000000000E+00  0.25661929580E+03  0.25661929580E+03  0.00000000000E+00 0. -1.
         -1   -1    0    0    0  501 -0.00000000000E+00 -0.00000000000E+00 -0.30673426281E+03  0.30673426281E+03  0.00000000000E+00 0.  1.
          6    1    1    2  502    0 -0.26328820967E+02 -0.12950915103E+03 -0.20370987949E+03  0.29756939025E+03  0.17200000000E+03 0.  1.
         -6    1    1    2    0  501  0.26328820967E+02  0.12950915103E+03  0.15359491247E+03  0.26578416836E+03  0.17200000000E+03 0.  1.
</event>
<event>
 4    1  0.3205520E-002  0.2806776E+03  0.7818608E-02  0.1095319E+00
          2   -1    0    0  502    0  0.00000000000E+00  0.00000000000E+00  0.13173062423E+04  0.13173062423E+04  0.00000000000E+00 0. -1.
         -2   -1    0    0    0  501 -0.00000000000E+00 -0.00000000000E+00 -0.68461431292E+02  0.68461431292E+02  0.00000000000E+00 0.  1.
          6    1    1    2  502    0  0.67420341251E+02 -0.21130650528E+03  0.87082005314E+03  0.91493579367E+03  0.17200000000E+03 0.  1.
         -6    1    1    2    0  501 -0.67420341251E+02  0.21130650528E+03  0.37802475784E+03  0.47083187990E+03  0.17200000000E+03 0.  1.
</event>
<event>
 4    1  0.3205520E-002  0.1785215E+03  0.7818608E-02  0.1169242E+00
          1   -1    0    0  502    0  0.00000000000E+00  0.00000000000E+00  0.32061461303E+03  0.32061461303E+03  0.00000000000E+00 0. -1.
         -1   -1    0    0    0  501 -0.00000000000E+00 -0.00000000000E+00 -0.99463091507E+02  0.99463091507E+02  0.00000000000E+00 0.  1.
          6    1    1    2  502    0 -0.13173617259E+02  0.45960784824E+02  0.11575401898E+03  0.21276496620E+03  0.17200000000E+03 0.  1.
         -6    1    1    2    0  501  0.13173617259E+02 -0.45960784824E+02  0.10539750254E+03  0.20731273833E+03  0.17200000000E+03 0.  1.
</event>
<event>
 4    1  0.3205520E-002  0.1720231E+03  0.7818608E-02  0.1175754E+00
         -1   -1    0    0    0  501 -0.00000000000E+00  0.00000000000E+00  0.30466837076E+02  0.30466837076E+02  0.00000000000E+00 0.  1.
          1   -1    0    0  502    0  0.00000000000E+00 -0.00000000000E+00 -0.11531278452E+04  0.11531278452E+04  0.00000000000E+00 0. -1.
          6    1    1    2  502    0 -0.26617603450E+01 -0.92425669164E+00 -0.32632173930E+03  0.36888726836E+03  0.17200000000E+03 0.  1.
         -6    1    1    2    0  501  0.26617603450E+01  0.92425669164E+00 -0.79633926881E+03  0.81470741391E+03  0.17200000000E+03 0. -1.
</event>
<event>
 4    1  0.3205520E-002  0.5169222E+03  0.7818608E-02  0.1009454E+00
         -1   -1    0    0    0  501 -0.00000000000E+00  0.00000000000E+00  0.49407695876E+03  0.49407695876E+03  0.00000000000E+00 0.  1.
          1   -1    0    0  502    0  0.00000000000E+00 -0.00000000000E+00 -0.10132074002E+04  0.10132074002E+04  0.00000000000E+00 0. -1.
          6    1    1    2  502    0 -0.23345578077E+03 -0.42792867037E+03 -0.77415772271E+03  0.93087524843E+03  0.17200000000E+03 0. -1.
         -6    1    1    2    0  501  0.23345578077E+03  0.42792867037E+03  0.25502728128E+03  0.57640911052E+03  0.17200000000E+03 0.  1.
</event>
<event>
 4    1  0.3205520E-002  0.4789785E+03  0.7818608E-02  0.1019416E+00
          1   -1    0    0  502    0  0.00000000000E+00  0.00000000000E+00  0.81195451934E+03  0.81195451934E+03  0.00000000000E+00 0. -1.
         -1   -1    0    0    0  501 -0.00000000000E+00 -0.00000000000E+00 -0.29127029064E+03  0.29127029064E+03  0.00000000000E+00 0.  1.
          6    1    1    2  502    0  0.44510976622E+03 -0.41397398901E+02  0.35576853059E+03  0.59665039679E+03  0.17200000000E+03 0. -1.
         -6    1    1    2    0  501 -0.44510976622E+03  0.41397398901E+02  0.16491569811E+03  0.50657441320E+03  0.17200000000E+03 0.  1.
</event>
<event>
 4    1  0.3205520E-002  0.1723383E+03  0.7818608E-02  0.1175431E+00
          1   -1    0    0  502    0  0.00000000000E+00  0.00000000000E+00  0.89361096202E+03  0.89361096202E+03  0.00000000000E+00 0. -1.
         -1   -1    0    0    0  501 -0.00000000000E+00 -0.00000000000E+00 -0.41562651740E+02  0.41562651740E+02  0.00000000000E+00 0.  1.
          6    1    1    2  502    0 -0.10661685600E+02  0.16781393310E+01  0.63530677645E+03  0.65826680601E+03  0.17200000000E+03 0. -1.
         -6    1    1    2    0  501  0.10661685600E+02 -0.16781393310E+01  0.21674153383E+03  0.27690680775E+03  0.17200000000E+03 0.  1.
</event>
<event>
 4    1  0.3205520E-002  0.2446990E+03  0.7818608E-02  0.1116702E+00
          2   -1    0    0  502    0  0.00000000000E+00  0.00000000000E+00  0.11994127493E+03  0.11994127493E+03  0.00000000000E+00 0. -1.
         -2   -1    0    0    0  501 -0.00000000000E+00 -0.00000000000E+00 -0.58601935958E+03  0.58601935958E+03  0.00000000000E+00 0.  1.
          6    1    1    2  502    0  0.13275836233E+03  0.11255579776E+03 -0.97194501432E+02  0.26329519838E+03  0.17200000000E+03 0.  1.
         -6    1    1    2    0  501 -0.13275836233E+03 -0.11255579776E+03 -0.36888358322E+03  0.44266543614E+03  0.17200000000E+03 0.  1.
</event>
<event>
 4    1  0.3205520E-002  0.1926290E+03  0.7818608E-02  0.1156111E+00
          1   -1    0    0  502    0  0.00000000000E+00  0.00000000000E+00  0.29572687258E+04  0.29572687258E+04  0.00000000000E+00 0. -1.
         -1   -1    0    0    0  501 -0.00000000000E+00 -0.00000000000E+00 -0.20485678527E+02  0.20485678527E+02  0.00000000000E+00 0.  1.
          6    1    1    2  502    0 -0.64070765968E+02  0.58454050526E+02  0.23952165329E+04  0.24029498910E+04  0.17200000000E+03 0. -1.
         -6    1    1    2    0  501  0.64070765968E+02 -0.58454050526E+02  0.54156651434E+03  0.57480451332E+03  0.17200000000E+03 0.  1.
</event>
<event>
 4    1  0.3205520E-002  0.3481859E+03  0.7818608E-02  0.1063362E+00
         -1   -1    0    0    0  501 -0.00000000000E+00  0.00000000000E+00  0.12315750891E+03  0.12315750891E+03  0.00000000000E+00 0.  1.
          1   -1    0    0  502    0  0.00000000000E+00 -0.00000000000E+00 -0.10097476518E+04  0.10097476518E+04  0.00000000000E+00 0. -1.
          6    1    1    2  502    0  0.15319609248E+03  0.26111375002E+03 -0.53308383041E+03  0.63671956421E+03  0.17200000000E+03 0. -1.
         -6    1    1    2    0  501 -0.15319609248E+03 -0.26111375002E+03 -0.35350631243E+03  0.49618559646E+03  0.17200000000E+03 0.  1.
</event>
<event>
 4    1  0.3205520E-002  0.1805252E+03  0.7818608E-02  0.1167296E+00
         -1   -1    0    0    0  501 -0.00000000000E+00  0.00000000000E+00  0.43212584381E+03  0.43212584381E+03  0.00000000000E+00 0.  1.
          1   -1    0    0  502    0  0.00000000000E+00 -0.00000000000E+00 -0.17180087644E+03  0.17180087644E+03  0.00000000000E+00 0. -1.
          6    1    1    2  502    0 -0.46755608311E+02  0.28622506175E+02 -0.96012892042E+02  0.20446958259E+03  0.17200000000E+03 0. -1.
         -6    1    1    2    0  501  0.46755608311E+02 -0.28622506175E+02  0.35633785942E+03  0.39945713765E+03  0.17200000000E+03 0.  1.
</event>
<event>
 4    1  0.3205520E-002  0.2299152E+03  0.7818608E-02  0.1126699E+00
          2   -1    0    0  502    0  0.00000000000E+00  0.00000000000E+00  0.21642112768E+04  0.21642112768E+04  0.00000000000E+00 0. -1.
         -2   -1    0    0    0  501 -0.00000000000E+00 -0.00000000000E+00 -0.26870089148E+02  0.26870089148E+02  0.00000000000E+00 0.  1.
          6    1    1    2  502    0  0.12735400595E+03 -0.84011515484E+02  0.13991439862E+04  0.14179086260E+04  0.17200000000E+03 0. -1.
         -6    1    1    2    0  501 -0.12735400595E+03  0.84011515484E+02  0.73819720142E+03  0.77317273991E+03  0.17200000000E+03 0.  1.
</event>
<event>
 4    1  0.3205520E-002  0.1782682E+03  0.7818608E-02  0.1169490E+00
          1   -1    0    0  502    0  0.00000000000E+00  0.00000000000E+00  0.10443869409E+04  0.10443869409E+04  0.00000000000E+00 0. -1.
         -1   -1    0    0    0  501 -0.00000000000E+00 -0.00000000000E+00 -0.30662421727E+02  0.30662421727E+02  0.00000000000E+00 0.  1.
          6    1    1    2  502    0 -0.86916493706E+01 -0.46043668377E+02  0.55376977897E+03  0.58175642005E+03  0.17200000000E+03 0.  1.
         -6    1    1    2    0  501  0.86916493706E+01  0.46043668377E+02  0.45995474024E+03  0.49329294261E+03  0.17200000000E+03 0. -1.
</event>
<event>
 4    1  0.3205520E-002  0.2351683E+03  0.7818608E-02  0.1123054E+00
          2   -1    0    0  502    0  0.00000000000E+00  0.00000000000E+00  0.24653483423E+03  0.24653483423E+03  0.00000000000E+00 0. -1.
         -2   -1    0    0    0  501 -0.00000000000E+00 -0.00000000000E+00 -0.27519915101E+03  0.27519915101E+03  0.00000000000E+00 0.  1.
          6    1    1    2  502    0  0.66468205828E+02 -0.14595245085E+03  0.97828480822E+02  0.25470483301E+03  0.17200000000E+03 0. -1.
         -6    1    1    2    0  501 -0.66468205828E+02  0.14595245085E+03 -0.12649279761E+03  0.26702915223E+03  0.17200000000E+03 0.  1.
</event>
<event>
 4    1  0.3205520E-002  0.4979083E+03  0.7818608E-02  0.1014326E+00
         -3   -1    0    0    0  501 -0.00000000000E+00  0.00000000000E+00  0.34061867541E+03  0.34061867541E+03  0.00000000000E+00 0.  1.
          3   -1    0    0  502    0  0.00000000000E+00 -0.00000000000E+00 -0.94242564960E+03  0.94242564960E+03  0.00000000000E+00 0. -1.
          6    1    1    2  502    0 -0.46718204764E+03 -0.83405267341E+01 -0.60702803583E+03  0.78510869713E+03  0.17200000000E+03 0. -1.
         -6    1    1    2    0  501  0.46718204764E+03  0.83405267341E+01  0.52210616365E+01  0.49793562788E+03  0.17200000000E+03 0.  1.
</event>
<event>
 4    1  0.3205520E-002  0.1898093E+03  0.7818608E-02  0.1158633E+00
          1   -1    0    0  502    0  0.00000000000E+00  0.00000000000E+00  0.17000437856E+04  0.17000437856E+04  0.00000000000E+00 0. -1.
         -1   -1    0    0    0  501 -0.00000000000E+00 -0.00000000000E+00 -0.22439783681E+02  0.22439783681E+02  0.00000000000E+00 0.  1.
          6    1    1    2  502    0  0.80016431894E+02  0.63987349159E+01  0.10418787959E+04  0.10590273833E+04  0.17200000000E+03 0. -1.
         -6    1    1    2    0  501 -0.80016431894E+02 -0.63987349159E+01  0.63572520601E+03  0.66345618600E+03  0.17200000000E+03 0.  1.
</event>
<event>
 4    1  0.3205520E-002  0.2499547E+03  0.7818608E-02  0.1113333E+00
         -1   -1    0    0    0  501 -0.00000000000E+00  0.00000000000E+00  0.27156039185E+03  0.27156039185E+03  0.00000000000E+00 0.  1.
          1   -1    0    0  502    0  0.00000000000E+00 -0.00000000000E+00 -0.28280520975E+03  0.28280520975E+03  0.00000000000E+00 0. -1.
          6    1    1    2  502    0 -0.64467810401E+02  0.16952062007E+03 -0.12531889701E+03  0.27961073862E+03  0.17200000000E+03 0. -1.
         -6    1    1    2    0  501  0.64467810401E+02 -0.16952062007E+03  0.11407407911E+03  0.27475486298E+03  0.17200000000E+03 0.  1.
</event>
<event>
 4    1  0.3205520E-002  0.3509466E+03  0.7818608E-02  0.1062227E+00
         -2   -1    0    0    0  501 -0.00000000000E+00  0.00000000000E+00  0.92157627031E+02  0.92157627031E+02  0.00000000000E+00 0.  1.
          2   -1    0    0  502    0  0.00000000000E+00 -0.00000000000E+00 -0.13917380309E+04  0.13917380309E+04  0.00000000000E+00 0. -1.
          6    1    1    2  502    0  0.25947597935E+03 -0.16202379762E+03 -0.79767866431E+03  0.87146700818E+03  0.17200000000E+03 0. -1.
         -6    1    1    2    0  501 -0.25947597935E+03  0.16202379762E+03 -0.50190173955E+03  0.61242864974E+03  0.17200000000E+03 0.  1.
</event>
<event>
 4    1  0.3205520E-002  0.1952553E+03  0.7818608E-02  0.1153805E+00
          1   -1    0    0  502    0  0.00000000000E+00  0.00000000000E+00  0.62972743747E+03  0.62972743747E+03  0.00000000000E+00 0. -1.
         -1   -1    0    0    0  501 -0.00000000000E+00 -0.00000000000E+00 -0.60908375000E+02  0.60908375000E+02  0.00000000000E+00 0.  1.
          6    1    1    2  502    0  0.30593593291E+02  0.87204786880E+02  0.25760918214E+03  0.32324469606E+03  0.17200000000E+03 0. -1.
         -6    1    1    2    0  501 -0.30593593291E+02 -0.87204786880E+02  0.31120988033E+03  0.36739111642E+03  0.17200000000E+03 0.  1.
</event>
<event>
 4    1  0.3205520E-002  0.1778723E+03  0.7818608E-02  0.1169878E+00
          2   -1    0    0  502    0  0.00000000000E+00  0.00000000000E+00  0.25760585820E+04  0.25760585820E+04  0.00000000000E+00 0. -1.
         -2   -1    0    0    0  501 -0.00000000000E+00 -0.00000000000E+00 -0.18495926281E+02  0.18495926281E+02  0.00000000000E+00 0.  1.
          6    1    1    2  502    0 -0.26997783984E+02  0.36410031156E+02  0.20307256553E+04  0.20385007378E+04  0.17200000000E+03 0. -1.
         -6    1    1    2    0  501  0.26997783984E+02 -0.36410031156E+02  0.52683700034E+03  0.55605377045E+03  0.17200000000E+03 0.  1.
</event>
<event>
 4    1  0.3205520E-002  0.1933751E+03  0.7818608E-02  0.1155452E+00
          2   -1    0    0  502    0  0.00000000000E+00  0.00000000000E+00  0.11741283797E+04  0.11741283797E+04  0.00000000000E+00 0. -1.
         -2   -1    0    0    0  501 -0.00000000000E+00 -0.00000000000E+00 -0.32278355527E+02  0.32278355527E+02  0.00000000000E+00 0.  1.
          6    1    1    2  502    0 -0.10881840589E+02 -0.87701221467E+02  0.50129407829E+03  0.53729849397E+03  0.17200000000E+03 0.  1.
         -6    1    1    2    0  501  0.10881840589E+02  0.87701221467E+02  0.64055594587E+03  0.66910824123E+03  0.17200000000E+03 0. -1.
</event>
<event>
 4    1  0.3205520E-002  0.3509116E+03  0.7818608E-02  0.1062242E+00
          2   -1    0    0  502    0  0.00000000000E+00  0.00000000000E+00  0.13976123422E+04  0.13976123422E+04  0.00000000000E+00 0. -1.
         -2   -1    0    0    0  501 -0.00000000000E+00 -0.00000000000E+00 -0.10163746028E+03  0.10163746028E+03  0.00000000000E+00 0.  1.
          6    1    1    2  502    0  0.40605885596E+02  0.30316019662E+03  0.92150108141E+03  0.98605435235E+03  0.17200000000E+03 0. -1.
         -6    1    1    2    0  501 -0.40605885596E+02 -0.30316019662E+03  0.37447380052E+03  0.51319545013E+03  0.17200000000E+03 0.  1.
</event>
<event>
 4    1  0.3205520E-002  0.2304092E+03  0.7818608E-02  0.1126352E+00
         -1   -1    0    0    0  501 -0.00000000000E+00  0.00000000000E+00  0.43304007175E+02  0.43304007175E+02  0.00000000000E+00 0.  1.
          1   -1    0    0  502    0  0.00000000000E+00 -0.00000000000E+00 -0.13980318728E+04  0.13980318728E+04  0.00000000000E+00 0. -1.
          6    1    1    2  502    0  0.12546035625E+03  0.88113994804E+02 -0.93020592115E+03  0.95831697929E+03  0.17200000000E+03 0. -1.
         -6    1    1    2    0  501 -0.12546035625E+03 -0.88113994804E+02 -0.42452194447E+03  0.48301890068E+03  0.17200000000E+03 0.  1.
</event>
<event>
 4    1  0.3205520E-002  0.4619650E+03  0.7818608E-02  0.1024213E+00
         -2   -1    0    0    0  501 -0.00000000000E+00  0.00000000000E+00  0.13579610813E+03  0.13579610813E+03  0.00000000000E+00 0.  1.
          2   -1    0    0  502    0  0.00000000000E+00 -0.00000000000E+00 -0.15764767750E+04  0.15764767750E+04  0.00000000000E+00 0. -1.
          6    1    1    2  502    0  0.31426575047E+03  0.29165847372E+03 -0.76815634412E+03  0.89636811424E+03  0.17200000000E+03 0. -1.
         -6    1    1    2    0  501 -0.31426575047E+03 -0.29165847372E+03 -0.67252432279E+03  0.81590476892E+03  0.17200000000E+03 0.  1.
</event>
<event>
 4    1  0.3205520E-002  0.2057237E+03  0.7818608E-02  0.1144998E+00
         -1   -1    0    0    0  501 -0.00000000000E+00  0.00000000000E+00  0.20475716850E+02  0.20475716850E+02  0.00000000000E+00 0.  1.
          1   -1    0    0  502    0  0.00000000000E+00 -0.00000000000E+00 -0.22767627939E+04  0.22767627939E+04  0.00000000000E+00 0. -1.
          6    1    1    2  502    0  0.78125274143E+02  0.81453525883E+02 -0.14768304047E+04  0.14910902989E+04  0.17200000000E+03 0. -1.
         -6    1    1    2    0  501 -0.78125274143E+02 -0.81453525883E+02 -0.77945667238E+03  0.80614821184E+03  0.17200000000E+03 0.  1.
</event>
<event>
 4    1  0.3205520E-002  0.2212523E+03  0.7818608E-02  0.1132953E+00
          1   -1    0    0  502    0  0.00000000000E+00  0.00000000000E+00  0.36064293268E+04  0.36064293268E+04  0.00000000000E+00 0. -1.
         -1   -1    0    0    0  501 -0.00000000000E+00 -0.00000000000E+00 -0.39399843210E+02  0.39399843210E+02  0.00000000000E+00 0.  1.
          6    1    1    2  502    0  0.11044412300E+03  0.84679885245E+02  0.32593872948E+04  0.32668881408E+04  0.17200000000E+03 0. -1.
         -6    1    1    2    0  501 -0.11044412300E+03 -0.84679885245E+02  0.30764218884E+03  0.37894102921E+03  0.17200000000E+03 0.  1.
</event>
<event>
 4    1  0.3205520E-002  0.3317463E+03  0.7818608E-02  0.1070367E+00
         -1   -1    0    0    0  501 -0.00000000000E+00  0.00000000000E+00  0.12824389715E+03  0.12824389715E+03  0.00000000000E+00 0.  1.
          1   -1    0    0  502    0  0.00000000000E+00 -0.00000000000E+00 -0.13564260808E+04  0.13564260808E+04  0.00000000000E+00 0. -1.
          6    1    1    2  502    0  0.26277879138E+03  0.10685940425E+03 -0.10640017328E+04  0.11145202165E+04  0.17200000000E+03 0. -1.
         -6    1    1    2    0  501 -0.26277879138E+03 -0.10685940425E+03 -0.16418045081E+03  0.37014976145E+03  0.17200000000E+03 0.  1.
</event>
<event>
 4    1  0.3205520E-002  0.2205823E+03  0.7818608E-02  0.1133450E+00
          2   -1    0    0  502    0  0.00000000000E+00  0.00000000000E+00  0.54282644460E+03  0.54282644460E+03  0.00000000000E+00 0. -1.
         -2   -1    0    0    0  501 -0.00000000000E+00 -0.00000000000E+00 -0.92941903239E+02  0.92941903239E+02  0.00000000000E+00 0.  1.
          6    1    1    2  502    0  0.11918320232E+03  0.69770587646E+02  0.28489857892E+03  0.36031065886E+03  0.17200000000E+03 0. -1.
         -6    1    1    2    0  501 -0.11918320232E+03 -0.69770587646E+02  0.16498596244E+03  0.27545768898E+03  0.17200000000E+03 0. -1.
</event>
<event>
 4    1  0.3205520E-002  0.3775013E+03  0.7818608E-02  0.1051861E+00
          4   -1    0    0  502    0  0.00000000000E+00  0.00000000000E+00  0.14925458692E+03  0.14925458692E+03  0.00000000000E+00 0. -1.
         -4   -1    0    0    0  501 -0.00000000000E+00 -0.00000000000E+00 -0.10047779498E+04  0.10047779498E+04  0.00000000000E+00 0.  1.
          6    1    1    2  502    0  0.31726851571E+03 -0.11074246543E+03 -0.55646019058E+03  0.67242482733E+03  0.17200000000E+03 0. -1.
         -6    1    1    2    0  501 -0.31726851571E+03  0.11074246543E+03 -0.29906317229E+03  0.48160770938E+03  0.17200000000E+03 0.  1.
</event>
<event>
 4    1  0.3205520E-002  0.2114407E+03  0.7818608E-02  0.1140430E+00
         -2   -1    0    0    0  501 -0.00000000000E+00  0.00000000000E+00  0.23691626199E+03  0.23691626199E+03  0.00000000000E+00 0.  1.
          2   -1    0    0  502    0  0.00000000000E+00 -0.00000000000E+00 -0.26367529249E+03  0.26367529249E+03  0.00000000000E+00 0. -1.
          6    1    1    2  502    0  0.85635488887E+02  0.88259399118E+02 -0.14684375961E+03  0.25743008415E+03  0.17200000000E+03 0. -1.
         -6    1    1    2    0  501 -0.85635488887E+02 -0.88259399118E+02  0.12008472911E+03  0.24316147033E+03  0.17200000000E+03 0.  1.
</event>
<event>
 4    1  0.3205520E-002  0.5093963E+03  0.7818608E-02  0.1011355E+00
         -2   -1    0    0    0  501 -0.00000000000E+00  0.00000000000E+00  0.36946227386E+03  0.36946227386E+03  0.00000000000E+00 0.  1.
          2   -1    0    0  502    0  0.00000000000E+00 -0.00000000000E+00 -0.86016233468E+03  0.86016233468E+03  0.00000000000E+00 0. -1.
          6    1    1    2  502    0 -0.37104160407E+03  0.30369173662E+03 -0.50871010872E+03  0.71991007602E+03  0.17200000000E+03 0. -1.
         -6    1    1    2    0  501  0.37104160407E+03 -0.30369173662E+03  0.18010047893E+02  0.50971453253E+03  0.17200000000E+03 0.  1.
</event>
<event>
 4    1  0.3205520E-002  0.3011539E+03  0.7818608E-02  0.1084665E+00
         -1   -1    0    0    0  501 -0.00000000000E+00  0.00000000000E+00  0.60582646789E+02  0.60582646789E+02  0.00000000000E+00 0.  1.
          1   -1    0    0  502    0  0.00000000000E+00 -0.00000000000E+00 -0.23534104581E+04  0.23534104581E+04  0.00000000000E+00 0. -1.
          6    1    1    2  502    0  0.64067567153E+02 -0.23875723365E+03 -0.18745157190E+04  0.18985528306E+04  0.17200000000E+03 0. -1.
         -6    1    1    2    0  501 -0.64067567153E+02  0.23875723365E+03 -0.41831209227E+03  0.51544027425E+03  0.17200000000E+03 0.  1.
</event>
<event>
 4    1  0.3205520E-002  0.4441645E+03  0.7818608E-02  0.1029477E+00
          1   -1    0    0  502    0  0.00000000000E+00  0.00000000000E+00  0.20795405544E+03  0.20795405544E+03  0.00000000000E+00 0. -1.
         -1   -1    0    0    0  501 -0.00000000000E+00 -0.00000000000E+00 -0.11501025399E+04  0.11501025399E+04  0.00000000000E+00 0.  1.
          6    1    1    2  502    0 -0.10100040111E+03 -0.39685899849E+03 -0.18690824470E+03  0.48188882291E+03  0.17200000000E+03 0. -1.
         -6    1    1    2    0  501  0.10100040111E+03  0.39685899849E+03 -0.75524023977E+03  0.87616777244E+03  0.17200000000E+03 0.  1.
</event>
<event>
 4    1  0.3205520E-002  0.1769229E+03  0.7818608E-02  0.1170815E+00
          2   -1    0    0  502    0  0.00000000000E+00  0.00000000000E+00  0.17244106457E+04  0.17244106457E+04  0.00000000000E+00 0. -1.
         -2   -1    0    0    0  501 -0.00000000000E+00 -0.00000000000E+00 -0.18812698980E+02  0.18812698980E+02  0.00000000000E+00 0.  1.
          6    1    1    2  502    0 -0.40292408010E+02 -0.97082357781E+01  0.68947263167E+03  0.71181053505E+03  0.17200000000E+03 0. -1.
         -6    1    1    2    0  501  0.40292408010E+02  0.97082357781E+01  0.10161253150E+04  0.10314128096E+04  0.17200000000E+03 0.  1.
</event>
<event>
 4    1  0.3205520E-002  0.2390462E+03  0.7818608E-02  0.1120430E+00
          2   -1    0    0  502    0  0.00000000000E+00  0.00000000000E+00  0.27555018525E+03  0.27555018525E+03  0.00000000000E+00 0. -1.
         -2   -1    0    0    0  501 -0.00000000000E+00 -0.00000000000E+00 -0.23931337709E+03  0.23931337709E+03  0.00000000000E+00 0.  1.
          6    1    1    2  502    0 -0.10049242984E+03  0.13213762465E+03 -0.75921864226E+02  0.25081309729E+03  0.17200000000E+03 0.  1.
         -6    1    1    2    0  501  0.10049242984E+03 -0.13213762465E+03  0.11215867238E+03  0.26405046506E+03  0.17200000000E+03 0.  1.
</event>
<event>
 4    1  0.3205520E-002  0.2467990E+03  0.7818608E-02  0.1115345E+00
          2   -1    0    0  502    0  0.00000000000E+00  0.00000000000E+00  0.16418293269E+04  0.16418293269E+04  0.00000000000E+00 0. -1.
         -2   -1    0    0    0  501 -0.00000000000E+00 -0.00000000000E+00 -0.38996547816E+02  0.38996547816E+02  0.00000000000E+00 0.  1.
          6    1    1    2  502    0 -0.10208769558E+01 -0.17698790012E+03  0.98681589655E+03  0.10172096011E+04  0.17200000000E+03 0. -1.
         -6    1    1    2    0  501  0.10208769558E+01  0.17698790012E+03  0.61601688253E+03  0.66361627357E+03  0.17200000000E+03 0.  1.
</event>
<event>
 4    1  0.3205520E-002  0.2175172E+03  0.7818608E-02  0.1135748E+00
         -2   -1    0    0    0  501 -0.00000000000E+00  0.00000000000E+00  0.22729192876E+02  0.22729192876E+02  0.00000000000E+00 0.  1.
          2   -1    0    0  502    0  0.00000000000E+00 -0.00000000000E+00 -0.24558763698E+04  0.24558763698E+04  0.00000000000E+00 0. -1.
          6    1    1    2  502    0 -0.13314369916E+03 -0.15786133185E+01 -0.17003601693E+04  0.17142165680E+04  0.17200000000E+03 0. -1.
         -6    1    1    2    0  501  0.13314369916E+03  0.15786133185E+01 -0.73278700758E+03  0.76438899464E+03  0.17200000000E+03 0.  1.
</event>
<event>
 4    1  0.3205520E-002  0.9689890E+03  0.7818608E-02  0.9343227E-01
          2   -1    0    0  502    0  0.00000000000E+00  0.00000000000E+00  0.25160512005E+04  0.25160512005E+04  0.00000000000E+00 0. -1.
         -2   -1    0    0    0  501 -0.00000000000E+00 -0.00000000000E+00 -0.38366932009E+03  0.38366932009E+03  0.00000000000E+00 0.  1.
          6    1    1    2  502    0 -0.54223370870E+03  0.78443500544E+03  0.13059217575E+04  0.16261523020E+04  0.17200000000E+03 0. -1.
         -6    1    1    2    0  501  0.54223370870E+03 -0.78443500544E+03  0.82646012288E+03  0.12735682186E+04  0.17200000000E+03 0.  1.
</event>
<event>
 4    1  0.3205520E-002  0.2437206E+03  0.7818608E-02  0.1117339E+00
         -4   -1    0    0    0  501 -0.00000000000E+00  0.00000000000E+00  0.84917573886E+03  0.84917573886E+03  0.00000000000E+00 0.  1.
          4   -1    0    0  502    0  0.00000000000E+00 -0.00000000000E+00 -0.77508233724E+02  0.77508233724E+02  0.00000000000E+00 0. -1.
          6    1    1    2  502    0  0.13993385720E+03  0.10116455260E+03  0.53052458060E+03  0.58382881199E+03  0.17200000000E+03 0.  1.
         -6    1    1    2    0  501 -0.13993385720E+03 -0.10116455260E+03  0.24114292454E+03  0.34285516060E+03  0.17200000000E+03 0.  1.
</event>
<event>
 4    1  0.3205520E-002  0.2612685E+03  0.7818608E-02  0.1106383E+00
          2   -1    0    0  502    0  0.00000000000E+00  0.00000000000E+00  0.90691475329E+02  0.90691475329E+02  0.00000000000E+00 0. -1.
         -2   -1    0    0    0  501 -0.00000000000E+00 -0.00000000000E+00 -0.75405934677E+03  0.75405934677E+03  0.00000000000E+00 0.  1.
          6    1    1    2  502    0 -0.14032738178E+03  0.13778767731E+03 -0.34978056632E+03  0.43658637481E+03  0.17200000000E+03 0.  1.
         -6    1    1    2    0  501  0.14032738178E+03 -0.13778767731E+03 -0.31358730512E+03  0.40816444729E+03  0.17200000000E+03 0. -1.
</event>
<event>
 4    1  0.3205520E-002  0.2047096E+03  0.7818608E-02  0.1145825E+00
          1   -1    0    0  502    0  0.00000000000E+00  0.00000000000E+00  0.27196911334E+03  0.27196911334E+03  0.00000000000E+00 0. -1.
         -1   -1    0    0    0  501 -0.00000000000E+00 -0.00000000000E+00 -0.34707782970E+03  0.34707782970E+03  0.00000000000E+00 0.  1.
          6    1    1    2  502    0  0.90691016617E+02 -0.64009172608E+02  0.19325429530E+03  0.28151955052E+03  0.17200000000E+03 0. -1.
         -6    1    1    2    0  501 -0.90691016617E+02  0.64009172608E+02 -0.26836301167E+03  0.33752739252E+03  0.17200000000E+03 0. -1.
</event>
<event>
 4    1  0.3205520E-002  0.1897306E+03  0.7818608E-02  0.1158704E+00
          2   -1    0    0  502    0  0.00000000000E+00  0.00000000000E+00  0.99347082275E+03  0.99347082275E+03  0.00000000000E+00 0. -1.
         -2   -1    0    0    0  501 -0.00000000000E+00 -0.00000000000E+00 -0.37400704496E+02  0.37400704496E+02  0.00000000000E+00 0.  1.
          6    1    1    2  502    0  0.59400890812E+02  0.53714557157E+02  0.38701034660E+03  0.43101592529E+03  0.17200000000E+03 0. -1.
         -6    1    1    2    0  501 -0.59400890812E+02 -0.53714557157E+02  0.56905977166E+03  0.59985560196E+03  0.17200000000E+03 0. -1.
</event>
<event>
 4    1  0.3205520E-002  0.2176063E+03  0.7818608E-02  0.1135680E+00
          2   -1    0    0  502    0  0.00000000000E+00  0.00000000000E+00  0.17593339518E+03  0.17593339518E+03  0.00000000000E+00 0. -1.
         -2   -1    0    0    0  501 -0.00000000000E+00 -0.00000000000E+00 -0.27790164013E+03  0.27790164013E+03  0.00000000000E+00 0.  1.
          6    1    1    2  502    0 -0.12956362577E+03  0.31333348284E+02 -0.91252280251E+02  0.23596501963E+03  0.17200000000E+03 0. -1.
         -6    1    1    2    0  501  0.12956362577E+03 -0.31333348284E+02 -0.10715964703E+02  0.21787001569E+03  0.17200000000E+03 0.  1.
</event>
<event>
 4    1  0.3205520E-002  0.2745087E+03  0.7818608E-02  0.1098727E+00
         -2   -1    0    0    0  501 -0.00000000000E+00  0.00000000000E+00  0.75999708079E+02  0.75999708079E+02  0.00000000000E+00 0.  1.
          2   -1    0    0  502    0  0.00000000000E+00 -0.00000000000E+00 -0.10719118331E+04  0.10719118331E+04  0.00000000000E+00 0. -1.
          6    1    1    2  502    0  0.18665624095E+03 -0.10454879757E+03 -0.65514172673E+03  0.71032787180E+03  0.17200000000E+03 0. -1.
         -6    1    1    2    0  501 -0.18665624095E+03  0.10454879757E+03 -0.34077039833E+03  0.43758366941E+03  0.17200000000E+03 0.  1.
</event>
<event>
 4    1  0.3205520E-002  0.2031710E+03  0.7818608E-02  0.1147091E+00
         -1   -1    0    0    0  501 -0.00000000000E+00  0.00000000000E+00  0.63504519368E+02  0.63504519368E+02  0.00000000000E+00 0.  1.
          1   -1    0    0  502    0  0.00000000000E+00 -0.00000000000E+00 -0.74612633202E+03  0.74612633202E+03  0.00000000000E+00 0. -1.
          6    1    1    2  502    0 -0.81550048129E+02  0.71021549404E+02 -0.48660671477E+03  0.52731827741E+03  0.17200000000E+03 0. -1.
         -6    1    1    2    0  501  0.81550048129E+02 -0.71021549404E+02 -0.19601509788E+03  0.28231257398E+03  0.17200000000E+03 0.  1.
</event>
<event>
 4    1  0.3205520E-002  0.3971351E+03  0.7818608E-02  0.1044776E+00
         -1   -1    0    0    0  501 -0.00000000000E+00  0.00000000000E+00  0.25930635511E+03  0.25930635511E+03  0.00000000000E+00 0.  1.
          1   -1    0    0  502    0  0.00000000000E+00 -0.00000000000E+00 -0.65243254577E+03  0.65243254577E+03  0.00000000000E+00 0. -1.
          6    1    1    2  502    0 -0.34577615968E+03 -0.92580317562E+02 -0.31522937436E+03  0.50703631651E+03  0.17200000000E+03 0. -1.
         -6    1    1    2    0  501  0.34577615968E+03  0.92580317562E+02 -0.77896816298E+02  0.40470258436E+03  0.17200000000E+03 0.  1.
</event>
<event>
 4    1  0.3205520E-002  0.4929135E+03  0.7818608E-02  0.1015645E+00
          2   -1    0    0  502    0  0.00000000000E+00  0.00000000000E+00  0.10868375995E+04  0.10868375995E+04  0.00000000000E+00 0. -1.
         -2   -1    0    0    0  501 -0.00000000000E+00 -0.00000000000E+00 -0.22408701063E+03  0.22408701063E+03  0.00000000000E+00 0.  1.
          6    1    1    2  502    0 -0.33379062275E+03 -0.31931722927E+03  0.39931917317E+03  0.63436541111E+03  0.17200000000E+03 0. -1.
         -6    1    1    2    0  501  0.33379062275E+03  0.31931722927E+03  0.46343141575E+03  0.67655919907E+03  0.17200000000E+03 0.  1.
</event>
<event>
 4    1  0.3205520E-002  0.6488853E+03  0.7818608E-02  0.9808873E-01
          1   -1    0    0  502    0  0.00000000000E+00  0.00000000000E+00  0.14815721101E+04  0.14815721101E+04  0.00000000000E+00 0. -1.
         -1   -1    0    0    0  501 -0.00000000000E+00 -0.00000000000E+00 -0.28889371288E+03  0.28889371288E+03  0.00000000000E+00 0.  1.
          6    1    1    2  502    0 -0.59715280247E+03 -0.18675307527E+03  0.70926103105E+03  0.96130296514E+03  0.17200000000E+03 0.  1.
         -6    1    1    2    0  501  0.59715280247E+03  0.18675307527E+03  0.48341736622E+03  0.80916285788E+03  0.17200000000E+03 0.  1.
</event>
<event>
 4    1  0.3205520E-002  0.3122502E+03  0.7818608E-02  0.1079272E+00
         -1   -1    0    0    0  501 -0.00000000000E+00  0.00000000000E+00  0.54724321058E+03  0.54724321058E+03  0.00000000000E+00 0.  1.
          1   -1    0    0  502    0  0.00000000000E+00 -0.00000000000E+00 -0.39115343767E+03  0.39115343767E+03  0.00000000000E+00 0. -1.
          6    1    1    2  502    0  0.15649856485E+03  0.20838518972E+03 -0.26818118656E+03  0.41160823233E+03  0.17200000000E+03 0. -1.
         -6    1    1    2    0  501 -0.15649856485E+03 -0.20838518972E+03  0.42427095948E+03  0.52678841592E+03  0.17200000000E+03 0.  1.
</event>
<event>
 4    1  0.3205520E-002  0.2628186E+03  0.7818608E-02  0.1105461E+00
          4   -1    0    0  502    0  0.00000000000E+00  0.00000000000E+00  0.82859839914E+03  0.82859839914E+03  0.00000000000E+00 0. -1.
         -4   -1    0    0    0  501 -0.00000000000E+00 -0.00000000000E+00 -0.11534777365E+03  0.11534777365E+03  0.00000000000E+00 0.  1.
          6    1    1    2  502    0 -0.14991219420E+03  0.13044525986E+03  0.60516225860E+03  0.65976889213E+03  0.17200000000E+03 0. -1.
         -6    1    1    2    0  501  0.14991219420E+03 -0.13044525986E+03  0.10808836689E+03  0.28417728066E+03  0.17200000000E+03 0.  1.
</event>
<event>
 4    1  0.3205520E-002  0.1763645E+03  0.7818608E-02  0.1171369E+00
         -2   -1    0    0    0  501 -0.00000000000E+00  0.00000000000E+00  0.74056400367E+03  0.74056400367E+03  0.00000000000E+00 0.  1.
          2   -1    0    0  502    0  0.00000000000E+00 -0.00000000000E+00 -0.57369550461E+02  0.57369550461E+02  0.00000000000E+00 0. -1.
          6    1    1    2  502    0 -0.24887318220E+02  0.30017713231E+02  0.13510095496E+03  0.22216370033E+03  0.17200000000E+03 0. -1.
         -6    1    1    2    0  501  0.24887318220E+02 -0.30017713231E+02  0.54809349825E+03  0.57576985380E+03  0.17200000000E+03 0.  1.
</event>
<event>
 4    1  0.3205520E-002  0.2827692E+03  0.7818608E-02  0.1094186E+00
          1   -1    0    0  502    0  0.00000000000E+00  0.00000000000E+00  0.94002733170E+02  0.94002733170E+02  0.00000000000E+00 0. -1.
         -1   -1    0    0    0  501 -0.00000000000E+00 -0.00000000000E+00 -0.87491103023E+03  0.87491103023E+03  0.00000000000E+00 0.  1.
          6    1    1    2  502    0 -0.12650067494E+03  0.18539681401E+03 -0.30969238660E+03  0.41936591865E+03  0.17200000000E+03 0. -1.
         -6    1    1    2    0  501  0.12650067494E+03 -0.18539681401E+03 -0.47121591046E+03  0.54954784476E+03  0.17200000000E+03 0.  1.
</event>
<event>
 4    1  0.3205520E-002  0.2785813E+03  0.7818608E-02  0.1096466E+00
          2   -1    0    0  502    0  0.00000000000E+00  0.00000000000E+00  0.30348933564E+03  0.30348933564E+03  0.00000000000E+00 0. -1.
         -2   -1    0    0    0  501 -0.00000000000E+00 -0.00000000000E+00 -0.26951989640E+03  0.26951989640E+03  0.00000000000E+00 0.  1.
          6    1    1    2  502    0 -0.12665380401E+03  0.17883608450E+03 -0.47850891884E+02  0.28266099668E+03  0.17200000000E+03 0.  1.
         -6    1    1    2    0  501  0.12665380401E+03 -0.17883608450E+03  0.81820331120E+02  0.29034823536E+03  0.17200000000E+03 0. -1.
</event>
<event>
 4    1  0.3205520E-002  0.2050127E+03  0.7818608E-02  0.1145577E+00
         -2   -1    0    0    0  501 -0.00000000000E+00  0.00000000000E+00  0.38227129934E+02  0.38227129934E+02  0.00000000000E+00 0.  1.
          2   -1    0    0  502    0  0.00000000000E+00 -0.00000000000E+00 -0.11007354241E+04  0.11007354241E+04  0.00000000000E+00 0. -1.
          6    1    1    2  502    0  0.31839414160E+02 -0.10692261877E+03 -0.55044041851E+03  0.58737964642E+03  0.17200000000E+03 0. -1.
         -6    1    1    2    0  501 -0.31839414160E+02  0.10692261877E+03 -0.51206787570E+03  0.55158290766E+03  0.17200000000E+03 0.  1.
</event>
<event>
 4    1  0.3205520E-002  0.2012328E+03  0.7818608E-02  0.1148703E+00
         -2   -1    0    0    0  501 -0.00000000000E+00  0.00000000000E+00  0.13495226378E+02  0.13495226378E+02  0.00000000000E+00 0.  1.
          2   -1    0    0  502    0  0.00000000000E+00 -0.00000000000E+00 -0.31137854496E+04  0.31137854496E+04  0.00000000000E+00 0. -1.
          6    1    1    2  502    0 -0.10361246649E+03 -0.13233102386E+02 -0.18481767764E+04  0.18590997970E+04  0.17200000000E+03 0. -1.
         -6    1    1    2    0  501  0.10361246649E+03  0.13233102386E+02 -0.12521134468E+04  0.12681808790E+04  0.17200000000E+03 0. -1.
</event>
<event>
 4    1  0.3205520E-002  0.1774970E+03  0.7818608E-02  0.1170248E+00
         -2   -1    0    0    0  501 -0.00000000000E+00  0.00000000000E+00  0.15966892445E+03  0.15966892445E+03  0.00000000000E+00 0.  1.
          2   -1    0    0  502    0  0.00000000000E+00 -0.00000000000E+00 -0.20724654739E+03  0.20724654739E+03  0.00000000000E+00 0. -1.
          6    1    1    2  502    0 -0.23847054974E+02 -0.36776493452E+02 -0.63947968297E+02  0.18866514026E+03  0.17200000000E+03 0. -1.
         -6    1    1    2    0  501  0.23847054974E+02  0.36776493452E+02  0.16370345356E+02  0.17825033158E+03  0.17200000000E+03 0.  1.
</event>
<event>
 4    1  0.3205520E-002  0.8657759E+03  0.7818608E-02  0.9469404E-01
          1   -1    0    0  502    0  0.00000000000E+00  0.00000000000E+00  0.28841806238E+04  0.28841806238E+04  0.00000000000E+00 0. -1.
         -1   -1    0    0    0  501 -0.00000000000E+00 -0.00000000000E+00 -0.68060499692E+03  0.68060499692E+03  0.00000000000E+00 0.  1.
          6    1    1    2  502    0 -0.17851080634E+03  0.82952862938E+03  0.25031493148E+04  0.26486457572E+04  0.17200000000E+03 0. -1.
         -6    1    1    2    0  501  0.17851080634E+03 -0.82952862938E+03 -0.29957368796E+03  0.91613986348E+03  0.17200000000E+03 0.  1.
</event>
<event>
 4    1  0.3205520E-002  0.1943276E+03  0.7818608E-02  0.1154615E+00
          1   -1    0    0  502    0  0.00000000000E+00  0.00000000000E+00  0.54297285557E+03  0.54297285557E+03  0.00000000000E+00 0. -1.
         -1   -1    0    0    0  501 -0.00000000000E+00 -0.00000000000E+00 -0.71892892817E+02  0.71892892817E+02  0.00000000000E+00 0.  1.
          6    1    1    2  502    0  0.72581641296E+02 -0.53954647731E+02  0.29105106331E+03  0.34996274105E+03  0.17200000000E+03 0. -1.
         -6    1    1    2    0  501 -0.72581641296E+02  0.53954647731E+02  0.18002889944E+03  0.26490300734E+03  0.17200000000E+03 0.  1.
</event>
<event>
 4    1  0.3205520E-002  0.2618391E+03  0.7818608E-02  0.1106043E+00
          2   -1    0    0  502    0  0.00000000000E+00  0.00000000000E+00  0.26915000768E+03  0.26915000768E+03  0.00000000000E+00 0. -1.
         -2   -1    0    0    0  501 -0.00000000000E+00 -0.00000000000E+00 -0.26787015607E+03  0.26787015607E+03  0.00000000000E+00 0.  1.
          6    1    1    2  502    0  0.40874796157E+02  0.19314490578E+03 -0.58837557867E+02  0.26836833235E+03  0.17200000000E+03 0. -1.
         -6    1    1    2    0  501 -0.40874796157E+02 -0.19314490578E+03  0.60117409474E+02  0.26865183140E+03  0.17200000000E+03 0.  1.
</event>
<event>
 4    1  0.3205520E-002  0.3403505E+03  0.7818608E-02  0.1066647E+00
         -2   -1    0    0    0  501 -0.00000000000E+00  0.00000000000E+00  0.25771645873E+02  0.25771645873E+02  0.00000000000E+00 0.  1.
          2   -1    0    0  502    0  0.00000000000E+00 -0.00000000000E+00 -0.47267753261E+04  0.47267753261E+04  0.00000000000E+00 0. -1.
          6    1    1    2  502    0 -0.88425258798E+02  0.28006325547E+03 -0.28769221965E+04  0.28969846009E+04  0.17200000000E+03 0. -1.
         -6    1    1    2    0  501  0.88425258798E+02 -0.28006325547E+03 -0.18240814838E+04  0.18555623711E+04  0.17200000000E+03 0.  1.
</event>
<event>
 4    1  0.3205520E-002  0.1859139E+03  0.7818608E-02  0.1162199E+00
         -1   -1    0    0    0  501 -0.00000000000E+00  0.00000000000E+00  0.13219152828E+03  0.13219152828E+03  0.00000000000E+00 0.  1.
          1   -1    0    0  502    0  0.00000000000E+00 -0.00000000000E+00 -0.49725140313E+03  0.49725140313E+03  0.00000000000E+00 0. -1.
          6    1    1    2  502    0 -0.65923413261E+02  0.25181080896E+02 -0.39924748401E+03  0.44041178088E+03  0.17200000000E+03 0. -1.
         -6    1    1    2    0  501  0.65923413261E+02 -0.25181080896E+02  0.34187609165E+02  0.18903115053E+03  0.17200000000E+03 0.  1.
</event>
<event>
 4    1  0.3205520E-002  0.1923073E+03  0.7818608E-02  0.1156397E+00
          4   -1    0    0  502    0  0.00000000000E+00  0.00000000000E+00  0.66085317578E+03  0.66085317578E+03  0.00000000000E+00 0. -1.
         -4   -1    0    0    0  501 -0.00000000000E+00 -0.00000000000E+00 -0.56808609948E+02  0.56808609948E+02  0.00000000000E+00 0.  1.
          6    1    1    2  502    0 -0.33009537176E+02  0.79425923076E+02  0.25819534464E+03  0.32194245262E+03  0.17200000000E+03 0. -1.
         -6    1    1    2    0  501  0.33009537176E+02 -0.79425923076E+02  0.34584922119E+03  0.39571933311E+03  0.17200000000E+03 0.  1.
</event>
<event>
 4    1  0.3205520E-002  0.9382530E+03  0.7818608E-02  0.9378987E-01
         -1   -1    0    0    0  501 -0.00000000000E+00  0.00000000000E+00  0.84366040151E+03  0.84366040151E+03  0.00000000000E+00 0.  1.
          1   -1    0    0  502    0  0.00000000000E+00 -0.00000000000E+00 -0.10525871529E+04  0.10525871529E+04  0.00000000000E+00 0. -1.
          6    1    1    2  502    0 -0.79449477138E+03  0.46852186406E+03 -0.19279306814E+03  0.95785585866E+03  0.17200000000E+03 0. -1.
         -6    1    1    2    0  501  0.79449477138E+03 -0.46852186406E+03 -0.16133683214E+02  0.93839169571E+03  0.17200000000E+03 0.  1.
</event>
<event>
 4    1  0.3205520E-002  0.1729266E+03  0.7818608E-02  0.1174830E+00
         -1   -1    0    0    0  501 -0.00000000000E+00  0.00000000000E+00  0.47380163442E+02  0.47380163442E+02  0.00000000000E+00 0.  1.
          1   -1    0    0  502    0  0.00000000000E+00 -0.00000000000E+00 -0.93905637419E+03  0.93905637419E+03  0.00000000000E+00 0. -1.
          6    1    1    2  502    0 -0.68767747362E+01 -0.16501744991E+02 -0.72826659567E+03  0.74851575267E+03  0.17200000000E+03 0. -1.
         -6    1    1    2    0  501  0.68767747362E+01  0.16501744991E+02 -0.16340961507E+03  0.23792078496E+03  0.17200000000E+03 0.  1.
</event>
<event>
 4    1  0.3205520E-002  0.1731570E+03  0.7818608E-02  0.1174595E+00
          1   -1    0    0  502    0  0.00000000000E+00  0.00000000000E+00  0.19292687970E+04  0.19292687970E+04  0.00000000000E+00 0. -1.
         -1   -1    0    0    0  501 -0.00000000000E+00 -0.00000000000E+00 -0.17184061443E+02  0.17184061443E+02  0.00000000000E+00 0.  1.
          6    1    1    2  502    0 -0.14853298786E+02 -0.13369335900E+02  0.65513193537E+03  0.67762911121E+03  0.17200000000E+03 0.  1.
         -6    1    1    2    0  501  0.14853298786E+02  0.13369335900E+02  0.12569528002E+04  0.12688237472E+04  0.17200000000E+03 0. -1.
</event>
<event>
 4    1  0.3205520E-002  0.1992568E+03  0.7818608E-02  0.1150368E+00
          1   -1    0    0  502    0  0.00000000000E+00  0.00000000000E+00  0.47895701700E+03  0.47895701700E+03  0.00000000000E+00 0. -1.
         -1   -1    0    0    0  501 -0.00000000000E+00 -0.00000000000E+00 -0.86609674931E+02  0.86609674931E+02  0.00000000000E+00 0.  1.
          6    1    1    2  502    0  0.90151471054E+02  0.44631593108E+02  0.13761168645E+03  0.24215747579E+03  0.17200000000E+03 0. -1.
         -6    1    1    2    0  501 -0.90151471054E+02 -0.44631593108E+02  0.25473565563E+03  0.32340921614E+03  0.17200000000E+03 0.  1.
</event>
<event>
 4    1  0.3205520E-002  0.2165556E+03  0.7818608E-02  0.1136477E+00
          2   -1    0    0  502    0  0.00000000000E+00  0.00000000000E+00  0.86363563603E+03  0.86363563603E+03  0.00000000000E+00 0. -1.
         -2   -1    0    0    0  501 -0.00000000000E+00 -0.00000000000E+00 -0.12766642770E+03  0.12766642770E+03  0.00000000000E+00 0.  1.
          6    1    1    2  502    0 -0.21201678873E+02  0.12985689204E+03  0.74372097333E+03  0.77460777802E+03  0.17200000000E+03 0. -1.
         -6    1    1    2    0  501  0.21201678873E+02 -0.12985689204E+03 -0.77517649964E+01  0.21669428571E+03  0.17200000000E+03 0.  1.
</event>
<event>
 4    1  0.3205520E-002  0.1808300E+03  0.7818608E-02  0.1167002E+00
         -2   -1    0    0    0  501 -0.00000000000E+00  0.00000000000E+00  0.26202460194E+02  0.26202460194E+02  0.00000000000E+00 0.  1.
          2   -1    0    0  502    0  0.00000000000E+00 -0.00000000000E+00 -0.13332364966E+04  0.13332364966E+04  0.00000000000E+00 0. -1.
          6    1    1    2  502    0  0.53474835710E+02 -0.15998074093E+02 -0.48160627488E+03  0.51443571069E+03  0.17200000000E+03 0.  1.
         -6    1    1    2    0  501 -0.53474835710E+02  0.15998074093E+02 -0.82542776149E+03  0.84500324607E+03  0.17200000000E+03 0. -1.
</event>
<event>
 4    1  0.3205520E-002  0.2530948E+03  0.7818608E-02  0.1111364E+00
         -2   -1    0    0    0  501 -0.00000000000E+00  0.00000000000E+00  0.40826695445E+02  0.40826695445E+02  0.00000000000E+00 0.  1.
          2   -1    0    0  502    0  0.00000000000E+00 -0.00000000000E+00 -0.19377172085E+04  0.19377172085E+04  0.00000000000E+00 0. -1.
          6    1    1    2  502    0 -0.96943264931E+02  0.15835082607E+03 -0.13799829221E+04  0.14030003015E+04  0.17200000000E+03 0. -1.
         -6    1    1    2    0  501  0.96943264931E+02 -0.15835082607E+03 -0.51690759100E+03  0.57554360249E+03  0.17200000000E+03 0.  1.
</event>
<event>
 4    1  0.3205520E-002  0.2463807E+03  0.7818608E-02  0.1115614E+00
          2   -1    0    0  502    0  0.00000000000E+00  0.00000000000E+00  0.10766364825E+04  0.10766364825E+04  0.00000000000E+00 0. -1.
         -2   -1    0    0    0  501 -0.00000000000E+00 -0.00000000000E+00 -0.60290088597E+02  0.60290088597E+02  0.00000000000E+00 0.  1.
          6    1    1    2  502    0 -0.12126096014E+03  0.12812186706E+03  0.65289536967E+03  0.69783651166E+03  0.17200000000E+03 0. -1.
         -6    1    1    2    0  501  0.12126096014E+03 -0.12812186706E+03  0.36345102420E+03  0.43909005941E+03  0.17200000000E+03 0.  1.
</event>
<event>
 4    1  0.3205520E-002  0.3456330E+03  0.7818608E-02  0.1064422E+00
          1   -1    0    0  502    0  0.00000000000E+00  0.00000000000E+00  0.25382229247E+04  0.25382229247E+04  0.00000000000E+00 0. -1.
         -1   -1    0    0    0  501 -0.00000000000E+00 -0.00000000000E+00 -0.49572051191E+02  0.49572051191E+02  0.00000000000E+00 0.  1.
          6    1    1    2  502    0  0.29778632170E+03  0.34662628810E+02  0.15352886865E+04  0.15737132973E+04  0.17200000000E+03 0. -1.
         -6    1    1    2    0  501 -0.29778632170E+03 -0.34662628810E+02  0.95336218706E+03  0.10140816786E+04  0.17200000000E+03 0.  1.
</event>
<event>
 4    1  0.3205520E-002  0.2038022E+03  0.7818608E-02  0.1146570E+00
          2   -1    0    0  502    0  0.00000000000E+00  0.00000000000E+00  0.14245241973E+04  0.14245241973E+04  0.00000000000E+00 0. -1.
         -2   -1    0    0    0  501 -0.00000000000E+00 -0.00000000000E+00 -0.32592730189E+02  0.32592730189E+02  0.00000000000E+00 0.  1.
          6    1    1    2  502    0 -0.34532995350E+02  0.10372466744E+03  0.45943250521E+03  0.50260676602E+03  0.17200000000E+03 0.  1.
         -6    1    1    2    0  501  0.34532995350E+02 -0.10372466744E+03  0.93249896190E+03  0.95451016147E+03  0.17200000000E+03 0. -1.
</event>
<event>
 4    1  0.3205520E-002  0.2640313E+03  0.7818608E-02  0.1104745E+00
         -2   -1    0    0    0  501 -0.00000000000E+00  0.00000000000E+00  0.11133067151E+03  0.11133067151E+03  0.00000000000E+00 0.  1.
          2   -1    0    0  502    0  0.00000000000E+00 -0.00000000000E+00 -0.85896597533E+03  0.85896597533E+03  0.00000000000E+00 0. -1.
          6    1    1    2  502    0 -0.19051534908E+03  0.61906481660E+02 -0.12125484588E+03  0.29054302325E+03  0.17200000000E+03 0.  1.
         -6    1    1    2    0  501  0.19051534908E+03 -0.61906481660E+02 -0.62638045794E+03  0.67975362360E+03  0.17200000000E+03 0.  1.
</event>
<event>
 4    1  0.3205520E-002  0.1865904E+03  0.7818608E-02  0.1161573E+00
         -1   -1    0    0    0  501 -0.00000000000E+00  0.00000000000E+00  0.11282550910E+03  0.11282550910E+03  0.00000000000E+00 0.  1.
          1   -1    0    0  502    0  0.00000000000E+00 -0.00000000000E+00 -0.43892210870E+03  0.43892210870E+03  0.00000000000E+00 0. -1.
          6    1    1    2  502    0 -0.51343772404E+02 -0.50949018010E+02 -0.31338147652E+03  0.36472446481E+03  0.17200000000E+03 0. -1.
         -6    1    1    2    0  501  0.51343772404E+02  0.50949018010E+02 -0.12715123087E+02  0.18702315299E+03  0.17200000000E+03 0.  1.
</event>
<event>
 4    1  0.3205520E-002  0.2575370E+03  0.7818608E-02  0.1108632E+00
         -2   -1    0    0    0  501 -0.00000000000E+00  0.00000000000E+00  0.13262102476E+03  0.13262102476E+03  0.00000000000E+00 0.  1.
          2   -1    0    0  502    0  0.00000000000E+00 -0.00000000000E+00 -0.51824603906E+03  0.51824603906E+03  0.00000000000E+00 0. -1.
          6    1    1    2  502    0 -0.86356976279E+02 -0.17112509688E+03 -0.25368837575E+03  0.36150120072E+03  0.17200000000E+03 0. -1.
         -6    1    1    2    0  501  0.86356976279E+02  0.17112509688E+03 -0.13193663855E+03  0.28936586310E+03  0.17200000000E+03 0.  1.
</event>
<event>
 4    1  0.3205520E-002  0.2013004E+03  0.7818608E-02  0.1148646E+00
         -2   -1    0    0    0  501 -0.00000000000E+00  0.00000000000E+00  0.30298091002E+03  0.30298091002E+03  0.00000000000E+00 0.  1.
          2   -1    0    0  502    0  0.00000000000E+00 -0.00000000000E+00 -0.13494814422E+03  0.13494814422E+03  0.00000000000E+00 0. -1.
          6    1    1    2  502    0 -0.37810065139E+02 -0.97510343524E+02  0.10470044977E+03  0.22690097466E+03  0.17200000000E+03 0.  1.
         -6    1    1    2    0  501  0.37810065139E+02  0.97510343524E+02  0.63332316029E+02  0.21102807959E+03  0.17200000000E+03 0.  1.
</event>
<event>
 4    1  0.3205520E-002  0.3840165E+03  0.7818608E-02  0.1049459E+00
          2   -1    0    0  502    0  0.00000000000E+00  0.00000000000E+00  0.10398805300E+04  0.10398805300E+04  0.00000000000E+00 0. -1.
         -2   -1    0    0    0  501 -0.00000000000E+00 -0.00000000000E+00 -0.15634116126E+03  0.15634116126E+03  0.00000000000E+00 0.  1.
          6    1    1    2  502    0 -0.25624951888E+03  0.22851884437E+03  0.62409580490E+03  0.73277844663E+03  0.17200000000E+03 0. -1.
         -6    1    1    2    0  501  0.25624951888E+03 -0.22851884437E+03  0.25944356382E+03  0.46344324460E+03  0.17200000000E+03 0.  1.
</event>
<event>
 4    1  0.3205520E-002  0.1901358E+03  0.7818608E-02  0.1158339E+00
          1   -1    0    0  502    0  0.00000000000E+00  0.00000000000E+00  0.55912812851E+03  0.55912812851E+03  0.00000000000E+00 0. -1.
         -1   -1    0    0    0  501 -0.00000000000E+00 -0.00000000000E+00 -0.66836515282E+02  0.66836515282E+02  0.00000000000E+00 0.  1.
          6    1    1    2  502    0  0.22231989294E+02 -0.77931744817E+02  0.18962865666E+03  0.26853425410E+03  0.17200000000E+03 0. -1.
         -6    1    1    2    0  501 -0.22231989294E+02  0.77931744817E+02  0.30266295657E+03  0.35743038969E+03  0.17200000000E+03 0.  1.
</event>
<event>
 4    1  0.3205520E-002  0.1914551E+03  0.7818608E-02  0.1157155E+00
          2   -1    0    0  502    0  0.00000000000E+00  0.00000000000E+00  0.63065510531E+03  0.63065510531E+03  0.00000000000E+00 0. -1.
         -2   -1    0    0    0  501 -0.00000000000E+00 -0.00000000000E+00 -0.67656863134E+02  0.67656863134E+02  0.00000000000E+00 0.  1.
          6    1    1    2  502    0 -0.68299961299E+02 -0.49052719936E+02  0.15042512782E+03  0.24348053952E+03  0.17200000000E+03 0.  1.
         -6    1    1    2    0  501  0.68299961299E+02  0.49052719936E+02  0.41257311436E+03  0.45483142892E+03  0.17200000000E+03 0. -1.
</event>
<event>
 4    1  0.3205520E-002  0.4806304E+03  0.7818608E-02  0.1018962E+00
         -2   -1    0    0    0  501 -0.00000000000E+00  0.00000000000E+00  0.17024225727E+03  0.17024225727E+03  0.00000000000E+00 0.  1.
          2   -1    0    0  502    0  0.00000000000E+00 -0.00000000000E+00 -0.19460733100E+04  0.19460733100E+04  0.00000000000E+00 0. -1.
          6    1    1    2  502    0  0.24520267702E+03 -0.37589527886E+03 -0.14701312545E+04  0.15467034360E+04  0.17200000000E+03 0. -1.
         -6    1    1    2    0  501 -0.24520267702E+03  0.37589527886E+03 -0.30569979829E+03  0.56961213133E+03  0.17200000000E+03 0.  1.
</event>
<event>
 4    1  0.3205520E-002  0.2509601E+03  0.7818608E-02  0.1112700E+00
         -1   -1    0    0    0  501 -0.00000000000E+00  0.00000000000E+00  0.58471227499E+02  0.58471227499E+02  0.00000000000E+00 0.  1.
          1   -1    0    0  502    0  0.00000000000E+00 -0.00000000000E+00 -0.11712798719E+04  0.11712798719E+04  0.00000000000E+00 0. -1.
          6    1    1    2  502    0 -0.10822426973E+03  0.14725648854E+03 -0.38207414938E+03  0.45712320177E+03  0.17200000000E+03 0. -1.
         -6    1    1    2    0  501  0.10822426973E+03 -0.14725648854E+03 -0.73073449500E+03  0.77262789761E+03  0.17200000000E+03 0.  1.
</event>
<event>
 4    1  0.3205520E-002  0.3159207E+03  0.7818608E-02  0.1077542E+00
         -2   -1    0    0    0  501 -0.00000000000E+00  0.00000000000E+00  0.20763949338E+03  0.20763949338E+03  0.00000000000E+00 0.  1.
          2   -1    0    0  502    0  0.00000000000E+00 -0.00000000000E+00 -0.52746417124E+03  0.52746417124E+03  0.00000000000E+00 0. -1.
          6    1    1    2  502    0 -0.19082044964E+03  0.18387337695E+03 -0.26938930149E+03  0.41518244003E+03  0.17200000000E+03 0. -1.
         -6    1    1    2    0  501  0.19082044964E+03 -0.18387337695E+03 -0.50435376362E+02  0.31992122459E+03  0.17200000000E+03 0. -1.
</event>
<event>
 4    1  0.3205520E-002  0.2032848E+03  0.7818608E-02  0.1146997E+00
          1   -1    0    0  502    0  0.00000000000E+00  0.00000000000E+00  0.60904164785E+03  0.60904164785E+03  0.00000000000E+00 0. -1.
         -1   -1    0    0    0  501 -0.00000000000E+00 -0.00000000000E+00 -0.82935644039E+02  0.82935644039E+02  0.00000000000E+00 0.  1.
          6    1    1    2  502    0 -0.99307531006E+02  0.43344166973E+02  0.11550131817E+03  0.23380602435E+03  0.17200000000E+03 0.  1.
         -6    1    1    2    0  501  0.99307531006E+02 -0.43344166973E+02  0.41060468564E+03  0.45817126754E+03  0.17200000000E+03 0. -1.
</event>
<event>
 4    1  0.3205520E-002  0.5228066E+03  0.7818608E-02  0.1007992E+00
          2   -1    0    0  502    0  0.00000000000E+00  0.00000000000E+00  0.85807612799E+03  0.85807612799E+03  0.00000000000E+00 0. -1.
         -2   -1    0    0    0  501 -0.00000000000E+00 -0.00000000000E+00 -0.33007911864E+03  0.33007911864E+03  0.00000000000E+00 0.  1.
          6    1    1    2  502    0  0.14251103418E+03  0.47268735510E+03  0.15289529851E+03  0.54470515221E+03  0.17200000000E+03 0. -1.
         -6    1    1    2    0  501 -0.14251103418E+03 -0.47268735510E+03  0.37510171084E+03  0.64345009442E+03  0.17200000000E+03 0.  1.
</event>
<event>
 4    1  0.3205520E-002  0.1736175E+03  0.7818608E-02  0.1174127E+00
         -4   -1    0    0    0  501 -0.00000000000E+00  0.00000000000E+00  0.16737553650E+02  0.16737553650E+02  0.00000000000E+00 0.  1.
          4   -1    0    0  502    0  0.00000000000E+00 -0.00000000000E+00 -0.18026447174E+04  0.18026447174E+04  0.00000000000E+00 0. -1.
          6    1    1    2  502    0  0.58154798551E+01  0.22917456550E+02 -0.92107506251E+03  0.93729520451E+03  0.17200000000E+03 0. -1.
         -6    1    1    2    0  501 -0.58154798551E+01 -0.22917456550E+02 -0.86483210122E+03  0.88208706652E+03  0.17200000000E+03 0.  1.
</event>
<event>
 4    1  0.3205520E-002  0.3551202E+03  0.7818608E-02  0.1060533E+00
         -2   -1    0    0    0  501 -0.00000000000E+00  0.00000000000E+00  0.13967344243E+03  0.13967344243E+03  0.00000000000E+00 0.  1.
          2   -1    0    0  502    0  0.00000000000E+00 -0.00000000000E+00 -0.95958676887E+03  0.95958676887E+03  0.00000000000E+00 0. -1.
          6    1    1    2  502    0  0.13285408155E+03  0.28084901754E+03 -0.54355173955E+03  0.64927565118E+03  0.17200000000E+03 0.  1.
         -6    1    1    2    0  501 -0.13285408155E+03 -0.28084901754E+03 -0.27636158689E+03  0.44998456012E+03  0.17200000000E+03 0. -1.
</event>
<event>
 4    1  0.3205520E-002  0.2872567E+03  0.7818608E-02  0.1091790E+00
          3   -1    0    0  502    0  0.00000000000E+00  0.00000000000E+00  0.51490408068E+03  0.51490408068E+03  0.00000000000E+00 0. -1.
         -3   -1    0    0    0  501 -0.00000000000E+00 -0.00000000000E+00 -0.16273257398E+03  0.16273257398E+03  0.00000000000E+00 0.  1.
          6    1    1    2  502    0 -0.20803631188E+03 -0.98251226475E+02  0.21788468103E+03  0.36054146057E+03  0.17200000000E+03 0. -1.
         -6    1    1    2    0  501  0.20803631188E+03  0.98251226475E+02  0.13428682567E+03  0.31709519408E+03  0.17200000000E+03 0.  1.
</event>
<event>
 4    1  0.3205520E-002  0.3010920E+03  0.7818608E-02  0.1084696E+00
          2   -1    0    0  502    0  0.00000000000E+00  0.00000000000E+00  0.36009432997E+04  0.36009432997E+04  0.00000000000E+00 0. -1.
         -2   -1    0    0    0  501 -0.00000000000E+00 -0.00000000000E+00 -0.66412955382E+02  0.66412955382E+02  0.00000000000E+00 0.  1.
          6    1    1    2  502    0 -0.22494180711E+03  0.10234048808E+03  0.32121771668E+04  0.32262576684E+04  0.17200000000E+03 0. -1.
         -6    1    1    2    0  501  0.22494180711E+03 -0.10234048808E+03  0.32235317745E+03  0.44109858660E+03  0.17200000000E+03 0.  1.
</event>
<event>
 4    1  0.3205520E-002  0.2442218E+03  0.7818608E-02  0.1117012E+00
         -1   -1    0    0    0  501 -0.00000000000E+00  0.00000000000E+00  0.17813516833E+03  0.17813516833E+03  0.00000000000E+00 0.  1.
          1   -1    0    0  502    0  0.00000000000E+00 -0.00000000000E+00 -0.44865419802E+03  0.44865419802E+03  0.00000000000E+00 0. -1.
          6    1    1    2  502    0  0.14265084579E+03 -0.98544627974E+02 -0.29311528268E+03  0.38152441134E+03  0.17200000000E+03 0. -1.
         -6    1    1    2    0  501 -0.14265084579E+03  0.98544627974E+02  0.22596252987E+02  0.24526495501E+03  0.17200000000E+03 0.  1.
</event>
<event>
 4    1  0.3205520E-002  0.2883972E+03  0.7818608E-02  0.1091189E+00
         -2   -1    0    0    0  501 -0.00000000000E+00  0.00000000000E+00  0.28854025246E+03  0.28854025246E+03  0.00000000000E+00 0.  1.
          2   -1    0    0  502    0  0.00000000000E+00 -0.00000000000E+00 -0.30861275668E+03  0.30861275668E+03  0.00000000000E+00 0. -1.
          6    1    1    2  502    0  0.17117587767E+03 -0.15584523993E+03 -0.86723458052E+02  0.30115424301E+03  0.17200000000E+03 0. -1.
         -6    1    1    2    0  501 -0.17117587767E+03  0.15584523993E+03  0.66650953835E+02  0.29599876614E+03  0.17200000000E+03 0.  1.
</event>
<event>
 4    1  0.3205520E-002  0.2322317E+03  0.7818608E-02  0.1125079E+00
         -3   -1    0    0    0  501 -0.00000000000E+00  0.00000000000E+00  0.59286104347E+03  0.59286104347E+03  0.00000000000E+00 0.  1.
          3   -1    0    0  502    0  0.00000000000E+00 -0.00000000000E+00 -0.94064669837E+02  0.94064669837E+02  0.00000000000E+00 0. -1.
          6    1    1    2  502    0 -0.13322302313E+03  0.81235511058E+02  0.18708349478E+03  0.29821437954E+03  0.17200000000E+03 0. -1.
         -6    1    1    2    0  501  0.13322302313E+03 -0.81235511058E+02  0.31171287885E+03  0.38871133376E+03  0.17200000000E+03 0.  1.
</event>
<event>
 4    1  0.3205520E-002  0.1786910E+03  0.7818608E-02  0.1169076E+00
          1   -1    0    0  502    0  0.00000000000E+00  0.00000000000E+00  0.19160221628E+04  0.19160221628E+04  0.00000000000E+00 0. -1.
         -1   -1    0    0    0  501 -0.00000000000E+00 -0.00000000000E+00 -0.37122082174E+02  0.37122082174E+02  0.00000000000E+00 0.  1.
          6    1    1    2  502    0 -0.49447787102E+00 -0.48437954864E+02  0.16644035659E+04  0.16739682524E+04  0.17200000000E+03 0. -1.
         -6    1    1    2    0  501  0.49447787102E+00  0.48437954864E+02  0.21449651472E+03  0.27917599253E+03  0.17200000000E+03 0.  1.
</event>
<event>
 4    1  0.3205520E-002  0.2613582E+03  0.7818608E-02  0.1106330E+00
         -2   -1    0    0    0  501 -0.00000000000E+00  0.00000000000E+00  0.14771908668E+03  0.14771908668E+03  0.00000000000E+00 0.  1.
          2   -1    0    0  502    0  0.00000000000E+00 -0.00000000000E+00 -0.79929098490E+03  0.79929098490E+03  0.00000000000E+00 0. -1.
          6    1    1    2  502    0 -0.16971844610E+03 -0.99597920281E+02 -0.63318651380E+03  0.68500602766E+03  0.17200000000E+03 0. -1.
         -6    1    1    2    0  501  0.16971844610E+03  0.99597920281E+02 -0.18385384424E+02  0.26200404392E+03  0.17200000000E+03 0.  1.
</event>
<event>
 4    1  0.3205520E-002  0.2566780E+03  0.7818608E-02  0.1109156E+00
          2   -1    0    0  502    0  0.00000000000E+00  0.00000000000E+00  0.49884349337E+03  0.49884349337E+03  0.00000000000E+00 0. -1.
         -2   -1    0    0    0  501 -0.00000000000E+00 -0.00000000000E+00 -0.13237762704E+03  0.13237762704E+03  0.00000000000E+00 0.  1.
          6    1    1    2  502    0 -0.47629795605E+02  0.18447490178E+03  0.16808438266E+03  0.30681581854E+03  0.17200000000E+03 0. -1.
         -6    1    1    2    0  501  0.47629795605E+02 -0.18447490178E+03  0.19838148368E+03  0.32440530187E+03  0.17200000000E+03 0. -1.
</event>
<event>
 4    1  0.3205520E-002  0.5013451E+03  0.7818608E-02  0.1013428E+00
          2   -1    0    0  502    0  0.00000000000E+00  0.00000000000E+00  0.55967218730E+03  0.55967218730E+03  0.00000000000E+00 0. -1.
         -2   -1    0    0    0  501 -0.00000000000E+00 -0.00000000000E+00 -0.48918450626E+03  0.48918450626E+03  0.00000000000E+00 0.  1.
          6    1    1    2  502    0 -0.26647285781E+03 -0.38827200987E+03  0.18536983831E+03  0.53451745954E+03  0.17200000000E+03 0. -1.
         -6    1    1    2    0  501  0.26647285781E+03  0.38827200987E+03 -0.11488215727E+03  0.51433923402E+03  0.17200000000E+03 0.  1.
</event>
<event>
 4    1  0.3205520E-002  0.2394352E+03  0.7818608E-02  0.1120170E+00
          3   -1    0    0  502    0  0.00000000000E+00  0.00000000000E+00  0.37703130446E+03  0.37703130446E+03  0.00000000000E+00 0. -1.
         -3   -1    0    0    0  501 -0.00000000000E+00 -0.00000000000E+00 -0.50952666977E+03  0.50952666977E+03  0.00000000000E+00 0.  1.
          6    1    1    2  502    0 -0.11994008510E+03 -0.11558376220E+03 -0.43753911307E+03  0.49876818820E+03  0.17200000000E+03 0.  1.
         -6    1    1    2    0  501  0.11994008510E+03  0.11558376220E+03  0.30504374776E+03  0.38778978603E+03  0.17200000000E+03 0. -1.
</event>
<event>
 4    1  0.3205520E-002  0.3904995E+03  0.7818608E-02  0.1047120E+00
         -2   -1    0    0    0  501 -0.00000000000E+00  0.00000000000E+00  0.26529401915E+03  0.26529401915E+03  0.00000000000E+00 0.  1.
          2   -1    0    0  502    0  0.00000000000E+00 -0.00000000000E+00 -0.10659121644E+04  0.10659121644E+04  0.00000000000E+00 0. -1.
          6    1    1    2  502    0  0.83534066265E+02  0.34048192487E+03 -0.85210970564E+03  0.93732642758E+03  0.17200000000E+03 0. -1.
         -6    1    1    2    0  501 -0.83534066265E+02 -0.34048192487E+03  0.51491560383E+02  0.39387975599E+03  0.17200000000E+03 0.  1.
</event>
<event>
 4    1  0.3205520E-002  0.1770901E+03  0.7818608E-02  0.1170649E+00
          2   -1    0    0  502    0  0.00000000000E+00  0.00000000000E+00  0.11808381809E+04  0.11808381809E+04  0.00000000000E+00 0. -1.
         -2   -1    0    0    0  501 -0.00000000000E+00 -0.00000000000E+00 -0.28357022141E+02  0.28357022141E+02  0.00000000000E+00 0.  1.
          6    1    1    2  502    0  0.29127245969E+01  0.42052643965E+02  0.42396401932E+03  0.45946316339E+03  0.17200000000E+03 0.  1.
         -6    1    1    2    0  501 -0.29127245969E+01 -0.42052643965E+02  0.72851713939E+03  0.74973203961E+03  0.17200000000E+03 0. -1.
</event>
<event>
 4    1  0.3205520E-002  0.1880472E+03  0.7818608E-02  0.1160235E+00
         -1   -1    0    0    0  501 -0.00000000000E+00  0.00000000000E+00  0.34998782501E+02  0.34998782501E+02  0.00000000000E+00 0.  1.
          1   -1    0    0  502    0  0.00000000000E+00 -0.00000000000E+00 -0.10103787621E+04  0.10103787621E+04  0.00000000000E+00 0. -1.
          6    1    1    2  502    0  0.62118909984E+02 -0.43806248787E+02 -0.48916112712E+03  0.52406140356E+03  0.17200000000E+03 0. -1.
         -6    1    1    2    0  501 -0.62118909984E+02  0.43806248787E+02 -0.48621885248E+03  0.52131614105E+03  0.17200000000E+03 0.  1.
</event>
<event>
 4    1  0.3205520E-002  0.2761822E+03  0.7818608E-02  0.1097793E+00
          1   -1    0    0  502    0  0.00000000000E+00  0.00000000000E+00  0.13134344936E+04  0.13134344936E+04  0.00000000000E+00 0. -1.
         -1   -1    0    0    0  501 -0.00000000000E+00 -0.00000000000E+00 -0.13015239300E+03  0.13015239300E+03  0.00000000000E+00 0.  1.
          6    1    1    2  502    0 -0.15008789018E+02  0.21556287912E+03  0.11287827737E+04  0.11620788135E+04  0.17200000000E+03 0. -1.
         -6    1    1    2    0  501  0.15008789018E+02 -0.21556287912E+03  0.54499326939E+02  0.28150807313E+03  0.17200000000E+03 0.  1.
</event>
<event>
 4    1  0.3205520E-002  0.3154801E+03  0.7818608E-02  0.1077748E+00
          1   -1    0    0  502    0  0.00000000000E+00  0.00000000000E+00  0.64243781494E+03  0.64243781494E+03  0.00000000000E+00 0. -1.
         -1   -1    0    0    0  501 -0.00000000000E+00 -0.00000000000E+00 -0.25192621135E+03  0.25192621135E+03  0.00000000000E+00 0.  1.
          6    1    1    2  502    0  0.10230296310E+03 -0.24388074067E+03  0.47274308207E+03  0.56834297178E+03  0.17200000000E+03 0. -1.
         -6    1    1    2    0  501 -0.10230296310E+03  0.24388074067E+03 -0.82231478477E+02  0.32602105451E+03  0.17200000000E+03 0.  1.
</event>
<event>
 4    1  0.3205520E-002  0.2024299E+03  0.7818608E-02  0.1147705E+00
         -2   -1    0    0    0  501 -0.00000000000E+00  0.00000000000E+00  0.34007725740E+03  0.34007725740E+03  0.00000000000E+00 0.  1.
          2   -1    0    0  502    0  0.00000000000E+00 -0.00000000000E+00 -0.13403844905E+03  0.13403844905E+03  0.00000000000E+00 0. -1.
          6    1    1    2  502    0  0.30524735747E+02 -0.10228450986E+03  0.27667974409E+02  0.20431200958E+03  0.17200000000E+03 0. -1.
         -6    1    1    2    0  501 -0.30524735747E+02  0.10228450986E+03  0.17837083394E+03  0.26980369688E+03  0.17200000000E+03 0. -1.
</event>
<event>
 4    1  0.3205520E-002  0.1826594E+03  0.7818608E-02  0.1165254E+00
          1   -1    0    0  502    0  0.00000000000E+00  0.00000000000E+00  0.16766694011E+03  0.16766694011E+03  0.00000000000E+00 0. -1.
         -1   -1    0    0    0  501 -0.00000000000E+00 -0.00000000000E+00 -0.20295103985E+03  0.20295103985E+03  0.00000000000E+00 0.  1.
          6    1    1    2  502    0  0.55314538450E+02  0.26847043589E+02  0.82382261622E+01  0.18284509915E+03  0.17200000000E+03 0. -1.
         -6    1    1    2    0  501 -0.55314538450E+02 -0.26847043589E+02 -0.43522325907E+02  0.18777288080E+03  0.17200000000E+03 0.  1.
</event>
<event>
 4    1  0.3205520E-002  0.1772463E+03  0.7818608E-02  0.1170495E+00
          2   -1    0    0  502    0  0.00000000000E+00  0.00000000000E+00  0.23585134192E+03  0.23585134192E+03  0.00000000000E+00 0. -1.
         -2   -1    0    0    0  501 -0.00000000000E+00 -0.00000000000E+00 -0.14048439962E+03  0.14048439962E+03  0.00000000000E+00 0.  1.
          6    1    1    2  502    0 -0.32918496044E+02 -0.27360747237E+02  0.48461586385E+01  0.17731250132E+03  0.17200000000E+03 0.  1.
         -6    1    1    2    0  501  0.32918496044E+02  0.27360747237E+02  0.90520783660E+02  0.19902324021E+03  0.17200000000E+03 0. -1.
</event>
<event>
 4    1  0.3205520E-002  0.1793400E+03  0.7818608E-02  0.1168443E+00
          1   -1    0    0  502    0  0.00000000000E+00  0.00000000000E+00  0.33728747102E+03  0.33728747102E+03  0.00000000000E+00 0. -1.
         -1   -1    0    0    0  501 -0.00000000000E+00 -0.00000000000E+00 -0.22919088062E+03  0.22919088062E+03  0.00000000000E+00 0.  1.
          6    1    1    2  502    0 -0.80479826406E+01 -0.50140506037E+02  0.27048809241E+03  0.32454067311E+03  0.17200000000E+03 0. -1.
         -6    1    1    2    0  501  0.80479826406E+01  0.50140506037E+02 -0.16239150200E+03  0.24193767853E+03  0.17200000000E+03 0.  1.
</event>
<event>
 4    1  0.3205520E-002  0.2534805E+03  0.7818608E-02  0.1111125E+00
          2   -1    0    0  502    0  0.00000000000E+00  0.00000000000E+00  0.14602227472E+04  0.14602227472E+04  0.00000000000E+00 0. -1.
         -2   -1    0    0    0  501 -0.00000000000E+00 -0.00000000000E+00 -0.57211527155E+02  0.57211527155E+02  0.00000000000E+00 0.  1.
          6    1    1    2  502    0 -0.14593739730E+03 -0.11563147445E+03  0.10660797050E+04  0.10958003008E+04  0.17200000000E+03 0. -1.
         -6    1    1    2    0  501  0.14593739730E+03  0.11563147445E+03  0.33693151496E+03  0.42163397348E+03  0.17200000000E+03 0.  1.
</event>
<event>
 4    1  0.3205520E-002  0.2307205E+03  0.7818608E-02  0.1126134E+00
          2   -1    0    0  502    0  0.00000000000E+00  0.00000000000E+00  0.91851732077E+02  0.91851732077E+02  0.00000000000E+00 0. -1.
         -2   -1    0    0    0  501 -0.00000000000E+00 -0.00000000000E+00 -0.58420567141E+03  0.58420567141E+03  0.00000000000E+00 0.  1.
          6    1    1    2  502    0  0.11614364133E+03  0.10078982796E+03 -0.21597498303E+03  0.31603342883E+03  0.17200000000E+03 0. -1.
         -6    1    1    2    0  501 -0.11614364133E+03 -0.10078982796E+03 -0.27637895630E+03  0.36002397466E+03  0.17200000000E+03 0.  1.
</event>
<event>
 4    1  0.3205520E-002  0.1797503E+03  0.7818608E-02  0.1168045E+00
          1   -1    0    0  502    0  0.00000000000E+00  0.00000000000E+00  0.89387686887E+03  0.89387686887E+03  0.00000000000E+00 0. -1.
         -1   -1    0    0    0  501 -0.00000000000E+00 -0.00000000000E+00 -0.36505587249E+02  0.36505587249E+02  0.00000000000E+00 0.  1.
          6    1    1    2  502    0  0.10043043714E+02 -0.51237741835E+02  0.47484814772E+03  0.50773116145E+03  0.17200000000E+03 0. -1.
         -6    1    1    2    0  501 -0.10043043714E+02  0.51237741835E+02  0.38252313389E+03  0.42265129466E+03  0.17200000000E+03 0.  1.
</event>
<event>
 4    1  0.3205520E-002  0.3671993E+03  0.7818608E-02  0.1055769E+00
         -2   -1    0    0    0  501 -0.00000000000E+00  0.00000000000E+00  0.23224126848E+03  0.23224126848E+03  0.00000000000E+00 0.  1.
          2   -1    0    0  502    0  0.00000000000E+00 -0.00000000000E+00 -0.15543787753E+04  0.15543787753E+04  0.00000000000E+00 0. -1.
          6    1    1    2  502    0  0.32072349722E+03  0.48864810454E+02 -0.13681311185E+04  0.14165514776E+04  0.17200000000E+03 0. -1.
         -6    1    1    2    0  501 -0.32072349722E+03 -0.48864810454E+02  0.45993611638E+02  0.37006856619E+03  0.17200000000E+03 0.  1.
</event>
<event>
 4    1  0.3205520E-002  0.4420881E+03  0.7818608E-02  0.1030108E+00
          2   -1    0    0  502    0  0.00000000000E+00  0.00000000000E+00  0.31769781007E+04  0.31769781007E+04  0.00000000000E+00 0. -1.
         -2   -1    0    0    0  501 -0.00000000000E+00 -0.00000000000E+00 -0.63964102343E+02  0.63964102343E+02  0.00000000000E+00 0.  1.
          6    1    1    2  502    0  0.34856824588E+03 -0.21061348402E+03  0.18733877339E+04  0.19248437503E+04  0.17200000000E+03 0. -1.
         -6    1    1    2    0  501 -0.34856824588E+03  0.21061348402E+03  0.12396262645E+04  0.13160984527E+04  0.17200000000E+03 0.  1.
</event>
<event>
 4    1  0.3205520E-002  0.1967169E+03  0.7818608E-02  0.1152539E+00
          2   -1    0    0  502    0  0.00000000000E+00  0.00000000000E+00  0.12482218436E+04  0.12482218436E+04  0.00000000000E+00 0. -1.
         -2   -1    0    0    0  501 -0.00000000000E+00 -0.00000000000E+00 -0.49597526374E+02  0.49597526374E+02  0.00000000000E+00 0.  1.
          6    1    1    2  502    0 -0.44189225538E+02 -0.84621843068E+02  0.99664722198E+03  0.10158755972E+04  0.17200000000E+03 0. -1.
         -6    1    1    2    0  501  0.44189225538E+02  0.84621843068E+02  0.20197709522E+03  0.28194377271E+03  0.17200000000E+03 0.  1.
</event>
<event>
 4    1  0.3205520E-002  0.2017741E+03  0.7818608E-02  0.1148251E+00
          1   -1    0    0  502    0  0.00000000000E+00  0.00000000000E+00  0.36796347622E+04  0.36796347622E+04  0.00000000000E+00 0. -1.
         -1   -1    0    0    0  501 -0.00000000000E+00 -0.00000000000E+00 -0.11351301670E+02  0.11351301670E+02  0.00000000000E+00 0.  1.
          6    1    1    2  502    0 -0.50914050949E+02 -0.92393397001E+02  0.15407207413E+04  0.15538768236E+04  0.17200000000E+03 0. -1.
         -6    1    1    2    0  501  0.50914050949E+02  0.92393397001E+02  0.21275627193E+04  0.21371092403E+04  0.17200000000E+03 0.  1.
</event>
<event>
 4    1  0.3205520E-002  0.2009245E+03  0.7818608E-02  0.1148961E+00
          2   -1    0    0  502    0  0.00000000000E+00  0.00000000000E+00  0.10551950400E+03  0.10551950400E+03  0.00000000000E+00 0. -1.
         -2   -1    0    0    0  501 -0.00000000000E+00 -0.00000000000E+00 -0.39209681139E+03  0.39209681139E+03  0.00000000000E+00 0.  1.
          6    1    1    2  502    0  0.24343889454E+02 -0.10096555243E+03 -0.10454559481E+03  0.22649602453E+03  0.17200000000E+03 0. -1.
         -6    1    1    2    0  501 -0.24343889454E+02  0.10096555243E+03 -0.18203171258E+03  0.27112029086E+03  0.17200000000E+03 0.  1.
</event>
<event>
 4    1  0.3205520E-002  0.1757446E+03  0.7818608E-02  0.1171986E+00
          1   -1    0    0  502    0  0.00000000000E+00  0.00000000000E+00  0.12896110168E+04  0.12896110168E+04  0.00000000000E+00 0. -1.
         -1   -1    0    0    0  501 -0.00000000000E+00 -0.00000000000E+00 -0.28424236272E+02  0.28424236272E+02  0.00000000000E+00 0.  1.
          6    1    1    2  502    0  0.76188973445E+01 -0.35271945898E+02  0.89205809256E+03  0.90920503643E+03  0.17200000000E+03 0. -1.
         -6    1    1    2    0  501 -0.76188973445E+01  0.35271945898E+02  0.36912868801E+03  0.40883021669E+03  0.17200000000E+03 0.  1.
</event>
<event>
 4    1  0.3205520E-002  0.1801214E+03  0.7818608E-02  0.1167686E+00
          2   -1    0    0  502    0  0.00000000000E+00  0.00000000000E+00  0.14307156659E+04  0.14307156659E+04  0.00000000000E+00 0. -1.
         -2   -1    0    0    0  501 -0.00000000000E+00 -0.00000000000E+00 -0.22684376598E+02  0.22684376598E+02  0.00000000000E+00 0.  1.
          6    1    1    2  502    0 -0.83939265578E+00  0.53469607718E+02  0.69052231157E+03  0.71362789065E+03  0.17200000000E+03 0.  1.
         -6    1    1    2    0  501  0.83939265578E+00 -0.53469607718E+02  0.71750897769E+03  0.73977215181E+03  0.17200000000E+03 0.  1.
</event>
<event>
 4    1  0.3205520E-002  0.1875303E+03  0.7818608E-02  0.1160708E+00
         -2   -1    0    0    0  501 -0.00000000000E+00  0.00000000000E+00  0.28195411448E+02  0.28195411448E+02  0.00000000000E+00 0.  1.
          2   -1    0    0  502    0  0.00000000000E+00 -0.00000000000E+00 -0.20870324127E+04  0.20870324127E+04  0.00000000000E+00 0. -1.
          6    1    1    2  502    0  0.72688190263E+02  0.17321697675E+02 -0.17002876305E+04  0.17105980360E+04  0.17200000000E+03 0.  1.
         -6    1    1    2    0  501 -0.72688190263E+02 -0.17321697675E+02 -0.35854937070E+03  0.40462978813E+03  0.17200000000E+03 0.  1.
</event>
<event>
 4    1  0.3205520E-002  0.4364721E+03  0.7818608E-02  0.1031835E+00
          2   -1    0    0  502    0  0.00000000000E+00  0.00000000000E+00  0.65241496070E+03  0.65241496070E+03  0.00000000000E+00 0. -1.
         -2   -1    0    0    0  501 -0.00000000000E+00 -0.00000000000E+00 -0.29721636114E+03  0.29721636114E+03  0.00000000000E+00 0.  1.
          6    1    1    2  502    0  0.12568853244E+03  0.38095445997E+03  0.24047714548E+03  0.49833439100E+03  0.17200000000E+03 0. -1.
         -6    1    1    2    0  501 -0.12568853244E+03 -0.38095445997E+03  0.11472145408E+03  0.45129693083E+03  0.17200000000E+03 0. -1.
</event>
<event>
 4    1  0.3205520E-002  0.5096145E+03  0.7818608E-02  0.1011299E+00
         -2   -1    0    0    0  501 -0.00000000000E+00  0.00000000000E+00  0.41102950865E+03  0.41102950865E+03  0.00000000000E+00 0.  1.
          2   -1    0    0  502    0  0.00000000000E+00 -0.00000000000E+00 -0.63611657114E+03  0.63611657114E+03  0.00000000000E+00 0. -1.
          6    1    1    2  502    0  0.28064983991E+03  0.38904828232E+03 -0.15544852543E+03  0.53279559183E+03  0.17200000000E+03 0. -1.
         -6    1    1    2    0  501 -0.28064983991E+03 -0.38904828232E+03 -0.69638537058E+02  0.51435048796E+03  0.17200000000E+03 0.  1.
</event>
<event>
 4    1  0.3205520E-002  0.2153697E+03  0.7818608E-02  0.1137383E+00
         -2   -1    0    0    0  501 -0.00000000000E+00  0.00000000000E+00  0.16831217868E+03  0.16831217868E+03  0.00000000000E+00 0.  1.
          2   -1    0    0  502    0  0.00000000000E+00 -0.00000000000E+00 -0.11070004149E+04  0.11070004149E+04  0.00000000000E+00 0. -1.
          6    1    1    2  502    0  0.90780201351E+02  0.92515283925E+02 -0.10219583817E+04  0.10444055997E+04  0.17200000000E+03 0. -1.
         -6    1    1    2    0  501 -0.90780201351E+02 -0.92515283925E+02  0.83270145461E+02  0.23090699392E+03  0.17200000000E+03 0.  1.
</event>
<event>
 4    1  0.3205520E-002  0.5821363E+03  0.7818608E-02  0.9943177E-01
          2   -1    0    0  502    0  0.00000000000E+00  0.00000000000E+00  0.10054066959E+04  0.10054066959E+04  0.00000000000E+00 0. -1.
         -2   -1    0    0    0  501 -0.00000000000E+00 -0.00000000000E+00 -0.12044110635E+04  0.12044110635E+04  0.00000000000E+00 0.  1.
          6    1    1    2  502    0  0.52460407984E+03 -0.18463267026E+03  0.83813858655E+03  0.10204699671E+04  0.17200000000E+03 0. -1.
         -6    1    1    2    0  501 -0.52460407984E+03  0.18463267026E+03 -0.10371429541E+04  0.11893477922E+04  0.17200000000E+03 0.  1.
</event>
<event>
 4    1  0.3205520E-002  0.4544970E+03  0.7818608E-02  0.1026389E+00
          1   -1    0    0  502    0  0.00000000000E+00  0.00000000000E+00  0.15305045391E+04  0.15305045391E+04  0.00000000000E+00 0. -1.
         -1   -1    0    0    0  501 -0.00000000000E+00 -0.00000000000E+00 -0.19903509649E+03  0.19903509649E+03  0.00000000000E+00 0.  1.
          6    1    1    2  502    0 -0.31881863702E+03 -0.27447804589E+03  0.11563677609E+04  0.12424789413E+04  0.17200000000E+03 0. -1.
         -6    1    1    2    0  501  0.31881863702E+03  0.27447804589E+03  0.17510168163E+03  0.48706069427E+03  0.17200000000E+03 0.  1.
</event>
<event>
 4    1  0.3205520E-002  0.1893994E+03  0.7818608E-02  0.1159004E+00
         -1   -1    0    0    0  501 -0.00000000000E+00  0.00000000000E+00  0.52881004675E+02  0.52881004675E+02  0.00000000000E+00 0.  1.
          1   -1    0    0  502    0  0.00000000000E+00 -0.00000000000E+00 -0.95423800009E+03  0.95423800009E+03  0.00000000000E+00 0. -1.
          6    1    1    2  502    0 -0.26213148864E+02 -0.74839794572E+02 -0.72143847197E+03  0.74588577735E+03  0.17200000000E+03 0. -1.
         -6    1    1    2    0  501  0.26213148864E+02  0.74839794572E+02 -0.17991852345E+03  0.26123322742E+03  0.17200000000E+03 0.  1.
</event>
<event>
 4    1  0.3205520E-002  0.2225914E+03  0.7818608E-02  0.1131966E+00
         -2   -1    0    0    0  501 -0.00000000000E+00  0.00000000000E+00  0.17652933739E+02  0.17652933739E+02  0.00000000000E+00 0.  1.
          2   -1    0    0  502    0  0.00000000000E+00 -0.00000000000E+00 -0.29252530366E+04  0.29252530366E+04  0.00000000000E+00 0. -1.
          6    1    1    2  502    0  0.36723002595E+02 -0.13643435112E+03 -0.11576053906E+04  0.11788117540E+04  0.17200000000E+03 0. -1.
         -6    1    1    2    0  501 -0.36723002595E+02  0.13643435112E+03 -0.17499947123E+04  0.17640942164E+04  0.17200000000E+03 0.  1.
</event>
<event>
 4    1  0.3205520E-002  0.2226827E+03  0.7818608E-02  0.1131899E+00
          1   -1    0    0  502    0  0.00000000000E+00  0.00000000000E+00  0.16075454140E+03  0.16075454140E+03  0.00000000000E+00 0. -1.
         -1   -1    0    0    0  501 -0.00000000000E+00 -0.00000000000E+00 -0.30907272606E+03  0.30907272606E+03  0.00000000000E+00 0.  1.
          6    1    1    2  502    0 -0.18697917564E+02 -0.14019263113E+03 -0.84552543890E+02  0.23819470738E+03  0.17200000000E+03 0.  1.
         -6    1    1    2    0  501  0.18697917564E+02  0.14019263113E+03 -0.63765640770E+02  0.23163256008E+03  0.17200000000E+03 0. -1.
</event>
<event>
 4    1  0.3205520E-002  0.1848800E+03  0.7818608E-02  0.1163162E+00
          2   -1    0    0  502    0  0.00000000000E+00  0.00000000000E+00  0.26292506015E+03  0.26292506015E+03  0.00000000000E+00 0. -1.
         -2   -1    0    0    0  501 -0.00000000000E+00 -0.00000000000E+00 -0.14841017210E+03  0.14841017210E+03  0.00000000000E+00 0.  1.
          6    1    1    2  502    0 -0.49428553659E+02  0.46405046220E+02  0.12969223215E+03  0.22583331311E+03  0.17200000000E+03 0. -1.
         -6    1    1    2    0  501  0.49428553659E+02 -0.46405046220E+02 -0.15177344088E+02  0.18550191914E+03  0.17200000000E+03 0.  1.
</event>
<event>
 4    1  0.3205520E-002  0.2063034E+03  0.7818608E-02  0.1144527E+00
         -1   -1    0    0    0  501 -0.00000000000E+00  0.00000000000E+00  0.17164773855E+03  0.17164773855E+03  0.00000000000E+00 0.  1.
          1   -1    0    0  502    0  0.00000000000E+00 -0.00000000000E+00 -0.43114116874E+03  0.43114116874E+03  0.00000000000E+00 0. -1.
          6    1    1    2  502    0  0.25921963894E+02 -0.11092862378E+03 -0.32620507642E+03  0.38596743343E+03  0.17200000000E+03 0. -1.
         -6    1    1    2    0  501 -0.25921963894E+02  0.11092862378E+03  0.66711646221E+02  0.21682147386E+03  0.17200000000E+03 0.  1.
</event>
<event>
 4    1  0.3205520E-002  0.4970003E+03  0.7818608E-02  0.1014565E+00
         -1   -1    0    0    0  501 -0.00000000000E+00  0.00000000000E+00  0.30715160653E+03  0.30715160653E+03  0.00000000000E+00 0.  1.
          1   -1    0    0  502    0  0.00000000000E+00 -0.00000000000E+00 -0.10324417001E+04  0.10324417001E+04  0.00000000000E+00 0. -1.
          6    1    1    2  502    0 -0.27882622526E+03  0.37373953535E+03 -0.47715106119E+02  0.49928552505E+03  0.17200000000E+03 0. -1.
         -6    1    1    2    0  501  0.27882622526E+03 -0.37373953535E+03 -0.67757498750E+03  0.84030778162E+03  0.17200000000E+03 0. -1.
</event>
<event>
 4    1  0.3205520E-002  0.2324782E+03  0.7818608E-02  0.1124908E+00
         -2   -1    0    0    0  501 -0.00000000000E+00  0.00000000000E+00  0.39913887279E+03  0.39913887279E+03  0.00000000000E+00 0.  1.
          2   -1    0    0  502    0  0.00000000000E+00 -0.00000000000E+00 -0.17849668082E+03  0.17849668082E+03  0.00000000000E+00 0. -1.
          6    1    1    2  502    0  0.68244051575E+02  0.14072966920E+03  0.25222581481E+03  0.34302179527E+03  0.17200000000E+03 0.  1.
         -6    1    1    2    0  501 -0.68244051575E+02 -0.14072966920E+03 -0.31583622850E+02  0.23461375834E+03  0.17200000000E+03 0. -1.
</event>
<event>
 4    1  0.3205520E-002  0.1933045E+03  0.7818608E-02  0.1155514E+00
         -2   -1    0    0    0  501 -0.00000000000E+00  0.00000000000E+00  0.88153326160E+02  0.88153326160E+02  0.00000000000E+00 0.  1.
          2   -1    0    0  502    0  0.00000000000E+00 -0.00000000000E+00 -0.58122376519E+03  0.58122376519E+03  0.00000000000E+00 0. -1.
          6    1    1    2  502    0  0.64623605363E+02  0.60053402684E+02 -0.42067218324E+03  0.46295972535E+03  0.17200000000E+03 0. -1.
         -6    1    1    2    0  501 -0.64623605363E+02 -0.60053402684E+02 -0.72398255787E+02  0.20641736600E+03  0.17200000000E+03 0.  1.
</event>
<event>
 4    1  0.3205520E-002  0.2330632E+03  0.7818608E-02  0.1124502E+00
          2   -1    0    0  502    0  0.00000000000E+00  0.00000000000E+00  0.14979454182E+04  0.14979454182E+04  0.00000000000E+00 0. -1.
         -2   -1    0    0    0  501 -0.00000000000E+00 -0.00000000000E+00 -0.36506802809E+02  0.36506802809E+02  0.00000000000E+00 0.  1.
          6    1    1    2  502    0 -0.15116613305E+03  0.43396724458E+02  0.79354789205E+03  0.82706513193E+03  0.17200000000E+03 0. -1.
         -6    1    1    2    0  501  0.15116613305E+03 -0.43396724458E+02  0.66789072335E+03  0.70738708909E+03  0.17200000000E+03 0.  1.
</event>
<event>
 4    1  0.3205520E-002  0.7281648E+03  0.7818608E-02  0.9670243E-01
         -2   -1    0    0    0  501 -0.00000000000E+00  0.00000000000E+00  0.23481944132E+03  0.23481944132E+03  0.00000000000E+00 0.  1.
          2   -1    0    0  502    0  0.00000000000E+00 -0.00000000000E+00 -0.27367650477E+04  0.27367650477E+04  0.00000000000E+00 0. -1.
          6    1    1    2  502    0  0.44925267253E+03  0.54663699157E+03 -0.18724101228E+04  0.20090155879E+04  0.17200000000E+03 0. -1.
         -6    1    1    2    0  501 -0.44925267253E+03 -0.54663699157E+03 -0.62953548353E+03  0.96256890110E+03  0.17200000000E+03 0.  1.
</event>
<event>
 4    1  0.3205520E-002  0.3863176E+03  0.7818608E-02  0.1048623E+00
          1   -1    0    0  502    0  0.00000000000E+00  0.00000000000E+00  0.35729886796E+03  0.35729886796E+03  0.00000000000E+00 0. -1.
         -1   -1    0    0    0  501 -0.00000000000E+00 -0.00000000000E+00 -0.41889213417E+03  0.41889213417E+03  0.00000000000E+00 0.  1.
          6    1    1    2  502    0  0.32654533146E+03 -0.11412890897E+03 -0.51560515867E+02  0.38974318231E+03  0.17200000000E+03 0. -1.
         -6    1    1    2    0  501 -0.32654533146E+03  0.11412890897E+03 -0.10032750342E+02  0.38644781982E+03  0.17200000000E+03 0.  1.
</event>
<event>
 4    1  0.3205520E-002  0.2264406E+03  0.7818608E-02  0.1129170E+00
         -2   -1    0    0    0  501 -0.00000000000E+00  0.00000000000E+00  0.71044824016E+02  0.71044824016E+02  0.00000000000E+00 0.  1.
          2   -1    0    0  502    0  0.00000000000E+00 -0.00000000000E+00 -0.73478336853E+03  0.73478336853E+03  0.00000000000E+00 0. -1.
          6    1    1    2  502    0 -0.72491167607E+02 -0.12820445499E+03 -0.27817176815E+03  0.35868493732E+03  0.17200000000E+03 0.  1.
         -6    1    1    2    0  501  0.72491167607E+02  0.12820445499E+03 -0.38556677636E+03  0.44714325523E+03  0.17200000000E+03 0. -1.
</event>
<event>
 4    1  0.3205520E-002  0.4354439E+03  0.7818608E-02  0.1032154E+00
          2   -1    0    0  502    0  0.00000000000E+00  0.00000000000E+00  0.61326213056E+03  0.61326213056E+03  0.00000000000E+00 0. -1.
         -2   -1    0    0    0  501 -0.00000000000E+00 -0.00000000000E+00 -0.36424949816E+03  0.36424949816E+03  0.00000000000E+00 0.  1.
          6    1    1    2  502    0  0.39095625953E+03  0.84738383527E+02  0.31453917115E+03  0.53716504047E+03  0.17200000000E+03 0. -1.
         -6    1    1    2    0  501 -0.39095625953E+03 -0.84738383527E+02 -0.65526538746E+02  0.44034658826E+03  0.17200000000E+03 0.  1.
</event>
<event>
 4    1  0.3205520E-002  0.2155314E+03  0.7818608E-02  0.1137259E+00
         -2   -1    0    0    0  501 -0.00000000000E+00  0.00000000000E+00  0.39534752699E+02  0.39534752699E+02  0.00000000000E+00 0.  1.
          2   -1    0    0  502    0  0.00000000000E+00 -0.00000000000E+00 -0.16396096606E+04  0.16396096606E+04  0.00000000000E+00 0. -1.
          6    1    1    2  502    0 -0.53338274732E+02  0.11842633866E+03 -0.35312053466E+03  0.41370023113E+03  0.17200000000E+03 0.  1.
         -6    1    1    2    0  501  0.53338274732E+02 -0.11842633866E+03 -0.12469543733E+04  0.12654441822E+04  0.17200000000E+03 0.  1.
</event>
<event>
 4    1  0.3205520E-002  0.5959238E+03  0.7818608E-02  0.9913899E-01
         -2   -1    0    0    0  501 -0.00000000000E+00  0.00000000000E+00  0.12914174909E+04  0.12914174909E+04  0.00000000000E+00 0.  1.
          2   -1    0    0  502    0  0.00000000000E+00 -0.00000000000E+00 -0.55890909583E+03  0.55890909583E+03  0.00000000000E+00 0. -1.
          6    1    1    2  502    0 -0.54306430494E+03  0.17499252173E+03 -0.29314148260E+03  0.66412133739E+03  0.17200000000E+03 0. -1.
         -6    1    1    2    0  501  0.54306430494E+03 -0.17499252173E+03  0.10256498776E+04  0.11862052493E+04  0.17200000000E+03 0.  1.
</event>
<event>
 4    1  0.3205520E-002  0.2568539E+03  0.7818608E-02  0.1109048E+00
         -2   -1    0    0    0  501 -0.00000000000E+00  0.00000000000E+00  0.38637721703E+03  0.38637721703E+03  0.00000000000E+00 0.  1.
          2   -1    0    0  502    0  0.00000000000E+00 -0.00000000000E+00 -0.42875980774E+03  0.42875980774E+03  0.00000000000E+00 0. -1.
          6    1    1    2  502    0  0.17109500462E+03 -0.84359060102E+02 -0.33735470529E+03  0.42400725089E+03  0.17200000000E+03 0. -1.
         -6    1    1    2    0  501 -0.17109500462E+03  0.84359060102E+02  0.29497211458E+03  0.39112977387E+03  0.17200000000E+03 0.  1.
</event>
<event>
 4    1  0.3205520E-002  0.1915488E+03  0.7818608E-02  0.1157072E+00
          1   -1    0    0  502    0  0.00000000000E+00  0.00000000000E+00  0.56461852514E+02  0.56461852514E+02  0.00000000000E+00 0. -1.
         -1   -1    0    0    0  501 -0.00000000000E+00 -0.00000000000E+00 -0.83019298018E+03  0.83019298018E+03  0.00000000000E+00 0.  1.
          6    1    1    2  502    0  0.77409798295E+02  0.33386498929E+02 -0.59349954124E+03  0.62364464291E+03  0.17200000000E+03 0.  1.
         -6    1    1    2    0  501 -0.77409798295E+02 -0.33386498929E+02 -0.18023158643E+03  0.26301018978E+03  0.17200000000E+03 0. -1.
</event>
<event>
 4    1  0.3205520E-002  0.2900994E+03  0.7818608E-02  0.1090297E+00
          1   -1    0    0  502    0  0.00000000000E+00  0.00000000000E+00  0.29304352124E+04  0.29304352124E+04  0.00000000000E+00 0. -1.
         -1   -1    0    0    0  501 -0.00000000000E+00 -0.00000000000E+00 -0.28721931115E+02  0.28721931115E+02  0.00000000000E+00 0.  1.
          6    1    1    2  502    0 -0.10170667140E+03 -0.21030790262E+03  0.14670624186E+04  0.14954697593E+04  0.17200000000E+03 0. -1.
         -6    1    1    2    0  501  0.10170667140E+03  0.21030790262E+03  0.14346508628E+04  0.14636873843E+04  0.17200000000E+03 0.  1.
</event>
<event>
 4    1  0.3205520E-002  0.3316915E+03  0.7818608E-02  0.1070391E+00
          1   -1    0    0  502    0  0.00000000000E+00  0.00000000000E+00  0.42901515402E+03  0.42901515402E+03  0.00000000000E+00 0. -1.
         -1   -1    0    0    0  501 -0.00000000000E+00 -0.00000000000E+00 -0.27857607494E+03  0.27857607494E+03  0.00000000000E+00 0.  1.
          6    1    1    2  502    0  0.20611658772E+03 -0.19481075172E+03 -0.24497800938E+02  0.33259497737E+03  0.17200000000E+03 0. -1.
         -6    1    1    2    0  501 -0.20611658772E+03  0.19481075172E+03  0.17493688002E+03  0.37499625159E+03  0.17200000000E+03 0.  1.
</event>
<event>
 4    1  0.3205520E-002  0.1755134E+03  0.7818608E-02  0.1172217E+00
         -2   -1    0    0    0  501 -0.00000000000E+00  0.00000000000E+00  0.98071821999E+02  0.98071821999E+02  0.00000000000E+00 0.  1.
          2   -1    0    0  502    0  0.00000000000E+00 -0.00000000000E+00 -0.53646968113E+03  0.53646968113E+03  0.00000000000E+00 0. -1.
          6    1    1    2  502    0  0.16125160124E+02 -0.30998807928E+02 -0.42346177709E+03  0.45839374291E+03  0.17200000000E+03 0. -1.
         -6    1    1    2    0  501 -0.16125160124E+02  0.30998807928E+02 -0.14936082036E+02  0.17614776021E+03  0.17200000000E+03 0.  1.
</event>
<event>
 4    1  0.3205520E-002  0.1940006E+03  0.7818608E-02  0.1154902E+00
         -2   -1    0    0    0  501 -0.00000000000E+00  0.00000000000E+00  0.31851278779E+02  0.31851278779E+02  0.00000000000E+00 0.  1.
          2   -1    0    0  502    0  0.00000000000E+00 -0.00000000000E+00 -0.23284035393E+04  0.23284035393E+04  0.00000000000E+00 0. -1.
          6    1    1    2  502    0 -0.58639562014E+02  0.67923776776E+02 -0.19764847120E+04  0.19859828938E+04  0.17200000000E+03 0. -1.
         -6    1    1    2    0  501  0.58639562014E+02 -0.67923776776E+02 -0.32006754848E+03  0.37427192424E+03  0.17200000000E+03 0.  1.
</event>
<event>
 4    1  0.3205520E-002  0.2025659E+03  0.7818608E-02  0.1147592E+00
          1   -1    0    0  502    0  0.00000000000E+00  0.00000000000E+00  0.76105557888E+03  0.76105557888E+03  0.00000000000E+00 0. -1.
         -1   -1    0    0    0  501 -0.00000000000E+00 -0.00000000000E+00 -0.55502796884E+02  0.55502796884E+02  0.00000000000E+00 0.  1.
          6    1    1    2  502    0  0.32185381714E+02  0.10204426275E+03  0.28373873282E+03  0.34862673285E+03  0.17200000000E+03 0.  1.
         -6    1    1    2    0  501 -0.32185381714E+02 -0.10204426275E+03  0.42181404918E+03  0.46793164291E+03  0.17200000000E+03 0.  1.
</event>
<event>
 4    1  0.3205520E-002  0.4871353E+03  0.7818608E-02  0.1017192E+00
         -2   -1    0    0    0  501 -0.00000000000E+00  0.00000000000E+00  0.81518094337E+03  0.81518094337E+03  0.00000000000E+00 0.  1.
          2   -1    0    0  502    0  0.00000000000E+00 -0.00000000000E+00 -0.33803672440E+03  0.33803672440E+03  0.00000000000E+00 0. -1.
          6    1    1    2  502    0  0.21553390418E+02  0.45524961853E+03  0.45342772433E+03  0.66550542072E+03  0.17200000000E+03 0. -1.
         -6    1    1    2    0  501 -0.21553390418E+02 -0.45524961853E+03  0.23716494635E+02  0.48771224706E+03  0.17200000000E+03 0.  1.
</event>
<event>
 4    1  0.3205520E-002  0.1884527E+03  0.7818608E-02  0.1159864E+00
          4   -1    0    0  502    0  0.00000000000E+00  0.00000000000E+00  0.17498223454E+03  0.17498223454E+03  0.00000000000E+00 0. -1.
         -4   -1    0    0    0  501 -0.00000000000E+00 -0.00000000000E+00 -0.20296180836E+03  0.20296180836E+03  0.00000000000E+00 0.  1.
          6    1    1    2  502    0 -0.63328808745E+02  0.43816377125E+02 -0.14537028650E+02  0.18901253430E+03  0.17200000000E+03 0. -1.
         -6    1    1    2    0  501  0.63328808745E+02 -0.43816377125E+02 -0.13442545176E+02  0.18893150860E+03  0.17200000000E+03 0.  1.
</event>
<event>
 4    1  0.3205520E-002  0.4181142E+03  0.7818608E-02  0.1037682E+00
          1   -1    0    0  502    0  0.00000000000E+00  0.00000000000E+00  0.61725141511E+03  0.61725141511E+03  0.00000000000E+00 0. -1.
         -1   -1    0    0    0  501 -0.00000000000E+00 -0.00000000000E+00 -0.31123348391E+03  0.31123348391E+03  0.00000000000E+00 0.  1.
          6    1    1    2  502    0 -0.32166387494E+03 -0.20437178930E+03  0.29228167597E+03  0.51014513112E+03  0.17200000000E+03 0. -1.
         -6    1    1    2    0  501  0.32166387494E+03  0.20437178930E+03  0.13736255235E+02  0.41833976790E+03  0.17200000000E+03 0.  1.
</event>
<event>
 4    1  0.3205520E-002  0.3917992E+03  0.7818608E-02  0.1046657E+00
          2   -1    0    0  502    0  0.00000000000E+00  0.00000000000E+00  0.79254446608E+03  0.79254446608E+03  0.00000000000E+00 0. -1.
         -2   -1    0    0    0  501 -0.00000000000E+00 -0.00000000000E+00 -0.20434857660E+03  0.20434857660E+03  0.00000000000E+00 0.  1.
          6    1    1    2  502    0  0.26299979145E+03  0.23399520238E+03  0.40794337190E+03  0.56561863452E+03  0.17200000000E+03 0. -1.
         -6    1    1    2    0  501 -0.26299979145E+03 -0.23399520238E+03  0.18025251759E+03  0.43127440816E+03  0.17200000000E+03 0.  1.
</event>
<event>
 4    1  0.3205520E-002  0.2861693E+03  0.7818608E-02  0.1092366E+00
         -2   -1    0    0    0  501 -0.00000000000E+00  0.00000000000E+00  0.36017105897E+03  0.36017105897E+03  0.00000000000E+00 0.  1.
          2   -1    0    0  502    0  0.00000000000E+00 -0.00000000000E+00 -0.40866801794E+03  0.40866801794E+03  0.00000000000E+00 0. -1.
          6    1    1    2  502    0 -0.53467086069E+02 -0.22237384907E+03 -0.28029219067E+03  0.40057030619E+03  0.17200000000E+03 0. -1.
         -6    1    1    2    0  501  0.53467086069E+02  0.22237384907E+03  0.23179523171E+03  0.36826877072E+03  0.17200000000E+03 0.  1.
</event>
<event>
 4    1  0.3205520E-002  0.2332568E+03  0.7818608E-02  0.1124368E+00
         -2   -1    0    0    0  501 -0.00000000000E+00  0.00000000000E+00  0.40523753295E+02  0.40523753295E+02  0.00000000000E+00 0.  1.
          2   -1    0    0  502    0  0.00000000000E+00 -0.00000000000E+00 -0.21103655590E+04  0.21103655590E+04  0.00000000000E+00 0. -1.
          6    1    1    2  502    0  0.35075144933E+02 -0.15360493985E+03 -0.16835743051E+04  0.16996561959E+04  0.17200000000E+03 0. -1.
         -6    1    1    2    0  501 -0.35075144933E+02  0.15360493985E+03 -0.38626750059E+03  0.45123311642E+03  0.17200000000E+03 0.  1.
</event>
<event>
 4    1  0.3205520E-002  0.3505477E+03  0.7818608E-02  0.1062390E+00
         -2   -1    0    0    0  501 -0.00000000000E+00  0.00000000000E+00  0.80658356559E+02  0.80658356559E+02  0.00000000000E+00 0.  1.
          2   -1    0    0  502    0  0.00000000000E+00 -0.00000000000E+00 -0.18022323098E+04  0.18022323098E+04  0.00000000000E+00 0. -1.
          6    1    1    2  502    0  0.98216991474E+02 -0.28922844791E+03 -0.49055242801E+03  0.60293064039E+03  0.17200000000E+03 0. -1.
         -6    1    1    2    0  501 -0.98216991474E+02  0.28922844791E+03 -0.12310215253E+04  0.12799600260E+04  0.17200000000E+03 0.  1.
</event>
<event>
 4    1  0.3205520E-002  0.1733198E+03  0.7818608E-02  0.1174429E+00
         -2   -1    0    0    0  501 -0.00000000000E+00  0.00000000000E+00  0.20882627590E+02  0.20882627590E+02  0.00000000000E+00 0.  1.
          2   -1    0    0  502    0  0.00000000000E+00 -0.00000000000E+00 -0.14527567044E+04  0.14527567044E+04  0.00000000000E+00 0. -1.
          6    1    1    2  502    0  0.20303167149E+02 -0.65988078917E+01 -0.78891624616E+03  0.80773052828E+03  0.17200000000E+03 0. -1.
         -6    1    1    2    0  501 -0.20303167149E+02  0.65988078917E+01 -0.64295783061E+03  0.66590880367E+03  0.17200000000E+03 0.  1.
</event>
<event>
 4    1  0.3205520E-002  0.5731160E+03  0.7818608E-02  0.9962807E-01
         -1   -1    0    0    0  501 -0.00000000000E+00  0.00000000000E+00  0.66537368968E+03  0.66537368968E+03  0.00000000000E+00 0.  1.
          1   -1    0    0  502    0  0.00000000000E+00 -0.00000000000E+00 -0.50530538689E+03  0.50530538689E+03  0.00000000000E+00 0. -1.
          6    1    1    2  502    0  0.79269171636E+02 -0.54091993635E+03  0.16893113844E+03  0.59749452604E+03  0.17200000000E+03 0. -1.
         -6    1    1    2    0  501 -0.79269171636E+02  0.54091993635E+03 -0.88628356577E+01  0.57318455053E+03  0.17200000000E+03 0.  1.
</event>
<event>
 4    1  0.3205520E-002  0.2343959E+03  0.7818608E-02  0.1123583E+00
         -2   -1    0    0    0  501 -0.00000000000E+00  0.00000000000E+00  0.59686327374E+02  0.59686327374E+02  0.00000000000E+00 0.  1.
          2   -1    0    0  502    0  0.00000000000E+00 -0.00000000000E+00 -0.11160146475E+04  0.11160146475E+04  0.00000000000E+00 0. -1.
          6    1    1    2  502    0 -0.49376167616E+02 -0.15139166201E+03 -0.28211703604E+03  0.36678530952E+03  0.17200000000E+03 0.  1.
         -6    1    1    2    0  501  0.49376167616E+02  0.15139166201E+03 -0.77421128409E+03  0.80891566536E+03  0.17200000000E+03 0.  1.
</event>
<event>
 4    1  0.3205520E-002  0.2006196E+03  0.7818608E-02  0.1149217E+00
          2   -1    0    0  502    0  0.00000000000E+00  0.00000000000E+00  0.98527973218E+03  0.98527973218E+03  0.00000000000E+00 0. -1.
         -2   -1    0    0    0  501 -0.00000000000E+00 -0.00000000000E+00 -0.65690304506E+02  0.65690304506E+02  0.00000000000E+00 0.  1.
          6    1    1    2  502    0 -0.99079055670E+02 -0.29112790462E+02  0.78293586568E+03  0.80823065000E+03  0.17200000000E+03 0. -1.
         -6    1    1    2    0  501  0.99079055670E+02  0.29112790462E+02  0.13665356200E+03  0.24273938668E+03  0.17200000000E+03 0.  1.
</event>
<event>
 4    1  0.3205520E-002  0.2030753E+03  0.7818608E-02  0.1147170E+00
         -1   -1    0    0    0  501 -0.00000000000E+00  0.00000000000E+00  0.81583539251E+02  0.81583539251E+02  0.00000000000E+00 0.  1.
          1   -1    0    0  502    0  0.00000000000E+00 -0.00000000000E+00 -0.18581878999E+04  0.18581878999E+04  0.00000000000E+00 0. -1.
          6    1    1    2  502    0  0.95579411810E+02 -0.50201188597E+02 -0.17158180215E+04  0.17277936990E+04  0.17200000000E+03 0. -1.
         -6    1    1    2    0  501 -0.95579411810E+02  0.50201188597E+02 -0.60786339128E+02  0.21197774016E+03  0.17200000000E+03 0.  1.
</event>
<event>
 4    1  0.3205520E-002  0.4595407E+03  0.7818608E-02  0.1024915E+00
          2   -1    0    0  502    0  0.00000000000E+00  0.00000000000E+00  0.14149542262E+04  0.14149542262E+04  0.00000000000E+00 0. -1.
         -2   -1    0    0    0  501 -0.00000000000E+00 -0.00000000000E+00 -0.20586066966E+03  0.20586066966E+03  0.00000000000E+00 0.  1.
          6    1    1    2  502    0 -0.42598480424E+03  0.11428130567E+02  0.10295355289E+04  0.11274400476E+04  0.17200000000E+03 0. -1.
         -6    1    1    2    0  501  0.42598480424E+03 -0.11428130567E+02  0.17955802760E+03  0.49337484825E+03  0.17200000000E+03 0.  1.
</event>
<event>
 4    1  0.3205520E-002  0.1865591E+03  0.7818608E-02  0.1161602E+00
          2   -1    0    0  502    0  0.00000000000E+00  0.00000000000E+00  0.14395759985E+04  0.14395759985E+04  0.00000000000E+00 0. -1.
         -2   -1    0    0    0  501 -0.00000000000E+00 -0.00000000000E+00 -0.47700353876E+02  0.47700353876E+02  0.00000000000E+00 0.  1.
          6    1    1    2  502    0 -0.71932999617E+02 -0.67778707476E+01  0.12181567788E+04  0.12323596203E+04  0.17200000000E+03 0. -1.
         -6    1    1    2    0  501  0.71932999617E+02  0.67778707476E+01  0.17371886587E+03  0.25491673214E+03  0.17200000000E+03 0.  1.
</event>
<event>
 4    1  0.3205520E-002  0.4101449E+03  0.7818608E-02  0.1040322E+00
          2   -1    0    0  502    0  0.00000000000E+00  0.00000000000E+00  0.76159274319E+03  0.76159274319E+03  0.00000000000E+00 0. -1.
         -2   -1    0    0    0  501 -0.00000000000E+00 -0.00000000000E+00 -0.26892034440E+03  0.26892034440E+03  0.00000000000E+00 0.  1.
          6    1    1    2  502    0  0.15173620993E+03 -0.34001611506E+03  0.46411983469E+03  0.61937553783E+03  0.17200000000E+03 0. -1.
         -6    1    1    2    0  501 -0.15173620993E+03  0.34001611506E+03  0.28552564096E+02  0.41113754976E+03  0.17200000000E+03 0.  1.
</event>
<event>
 4    1  0.3205520E-002  0.1898000E+03  0.7818608E-02  0.1158642E+00
         -1   -1    0    0    0  501 -0.00000000000E+00  0.00000000000E+00  0.56545755010E+02  0.56545755010E+02  0.00000000000E+00 0.  1.
          1   -1    0    0  502    0  0.00000000000E+00 -0.00000000000E+00 -0.64080243392E+03  0.64080243392E+03  0.00000000000E+00 0. -1.
          6    1    1    2  502    0 -0.75574657149E+02  0.26991056628E+02 -0.31871101188E+03  0.37094575754E+03  0.17200000000E+03 0. -1.
         -6    1    1    2    0  501  0.75574657149E+02 -0.26991056628E+02 -0.26554566702E+03  0.32640243139E+03  0.17200000000E+03 0. -1.
</event>
<event>
 4    1  0.3205520E-002  0.2145586E+03  0.7818608E-02  0.1138006E+00
         -2   -1    0    0    0  501 -0.00000000000E+00  0.00000000000E+00  0.11364985306E+03  0.11364985306E+03  0.00000000000E+00 0.  1.
          2   -1    0    0  502    0  0.00000000000E+00 -0.00000000000E+00 -0.40534121140E+03  0.40534121140E+03  0.00000000000E+00 0. -1.
          6    1    1    2  502    0  0.11820338053E+03  0.49793049733E+02 -0.13905120482E+03  0.25567679702E+03  0.17200000000E+03 0.  1.
         -6    1    1    2    0  501 -0.11820338053E+03 -0.49793049733E+02 -0.15264015352E+03  0.26331426744E+03  0.17200000000E+03 0.  1.
</event>
<event>
 4    1  0.3205520E-002  0.1868562E+03  0.7818608E-02  0.1161328E+00
         -2   -1    0    0    0  501 -0.00000000000E+00  0.00000000000E+00  0.42782258324E+02  0.42782258324E+02  0.00000000000E+00 0.  1.
          2   -1    0    0  502    0  0.00000000000E+00 -0.00000000000E+00 -0.82153377054E+03  0.82153377054E+03  0.00000000000E+00 0. -1.
          6    1    1    2  502    0 -0.72939409038E+02  0.33273240657E+01 -0.42447466477E+03  0.46378224363E+03  0.17200000000E+03 0. -1.
         -6    1    1    2    0  501  0.72939409038E+02 -0.33273240657E+01 -0.35427684745E+03  0.40053378523E+03  0.17200000000E+03 0.  1.
</event>
<event>
 4    1  0.3205520E-002  0.1789152E+03  0.7818608E-02  0.1168857E+00
          1   -1    0    0  502    0  0.00000000000E+00  0.00000000000E+00  0.73593132370E+03  0.73593132370E+03  0.00000000000E+00 0. -1.
         -1   -1    0    0    0  501 -0.00000000000E+00 -0.00000000000E+00 -0.43523782866E+02  0.43523782866E+02  0.00000000000E+00 0.  1.
          6    1    1    2  502    0 -0.44583822420E+02  0.20951090019E+02  0.35590566573E+03  0.39834596558E+03  0.17200000000E+03 0. -1.
         -6    1    1    2    0  501  0.44583822420E+02 -0.20951090019E+02  0.33650187510E+03  0.38110914098E+03  0.17200000000E+03 0.  1.
</event>
<event>
 4    1  0.3205520E-002  0.4132391E+03  0.7818608E-02  0.1039289E+00
         -1   -1    0    0    0  501 -0.00000000000E+00  0.00000000000E+00  0.46863283168E+03  0.46863283168E+03  0.00000000000E+00 0.  1.
          1   -1    0    0  502    0  0.00000000000E+00 -0.00000000000E+00 -0.36609772058E+03  0.36609772058E+03  0.00000000000E+00 0. -1.
          6    1    1    2  502    0 -0.37148666591E+03  0.56393127601E+02  0.22787343396E+02  0.41386687571E+03  0.17200000000E+03 0.  1.
         -6    1    1    2    0  501  0.37148666591E+03 -0.56393127601E+02  0.79747767706E+02  0.42086367655E+03  0.17200000000E+03 0.  1.
</event>
<event>
 4    1  0.3205520E-002  0.1745441E+03  0.7818608E-02  0.1173190E+00
          2   -1    0    0  502    0  0.00000000000E+00  0.00000000000E+00  0.69523970066E+03  0.69523970066E+03  0.00000000000E+00 0. -1.
         -2   -1    0    0    0  501 -0.00000000000E+00 -0.00000000000E+00 -0.43882747940E+02  0.43882747940E+02  0.00000000000E+00 0.  1.
          6    1    1    2  502    0 -0.21786245345E+02 -0.20174109808E+02  0.33961594148E+03  0.38184371528E+03  0.17200000000E+03 0. -1.
         -6    1    1    2    0  501  0.21786245345E+02  0.20174109808E+02  0.31174101124E+03  0.35727873332E+03  0.17200000000E+03 0.  1.
</event>
<event>
 4    1  0.3205520E-002  0.2075705E+03  0.7818608E-02  0.1143504E+00
          2   -1    0    0  502    0  0.00000000000E+00  0.00000000000E+00  0.80364311471E+03  0.80364311471E+03  0.00000000000E+00 0. -1.
         -2   -1    0    0    0  501 -0.00000000000E+00 -0.00000000000E+00 -0.16114766957E+03  0.16114766957E+03  0.00000000000E+00 0.  1.
          6    1    1    2  502    0  0.75180116314E+02 -0.88597262561E+02  0.71531091804E+03  0.74481892718E+03  0.17200000000E+03 0. -1.
         -6    1    1    2    0  501 -0.75180116314E+02  0.88597262561E+02 -0.72815472900E+02  0.21997185710E+03  0.17200000000E+03 0.  1.
</event>
<event>
 4    1  0.3205520E-002  0.1946246E+03  0.7818608E-02  0.1154355E+00
         -2   -1    0    0    0  501 -0.00000000000E+00  0.00000000000E+00  0.32851664818E+02  0.32851664818E+02  0.00000000000E+00 0.  1.
          2   -1    0    0  502    0  0.00000000000E+00 -0.00000000000E+00 -0.12995797788E+04  0.12995797788E+04  0.00000000000E+00 0. -1.
          6    1    1    2  502    0 -0.86670913971E+02  0.27980023652E+02 -0.40963819866E+03  0.45352197615E+03  0.17200000000E+03 0. -1.
         -6    1    1    2    0  501  0.86670913971E+02 -0.27980023652E+02 -0.85708991529E+03  0.87890946743E+03  0.17200000000E+03 0. -1.
</event>
<event>
 4    1  0.3205520E-002  0.2472908E+03  0.7818608E-02  0.1115029E+00
          2   -1    0    0  502    0  0.00000000000E+00  0.00000000000E+00  0.32412316704E+04  0.32412316704E+04  0.00000000000E+00 0. -1.
         -2   -1    0    0    0  501 -0.00000000000E+00 -0.00000000000E+00 -0.31588157422E+02  0.31588157422E+02  0.00000000000E+00 0.  1.
          6    1    1    2  502    0 -0.77967078422E+02  0.15965546837E+03  0.26432848771E+04  0.26548272402E+04  0.17200000000E+03 0. -1.
         -6    1    1    2    0  501  0.77967078422E+02 -0.15965546837E+03  0.56635863587E+03  0.61799258760E+03  0.17200000000E+03 0.  1.
</event>
<event>
 4    1  0.3205520E-002  0.4377604E+03  0.7818608E-02  0.1031436E+00
          3   -1    0    0  502    0  0.00000000000E+00  0.00000000000E+00  0.78783690409E+03  0.78783690409E+03  0.00000000000E+00 0. -1.
         -3   -1    0    0    0  501 -0.00000000000E+00 -0.00000000000E+00 -0.27428613463E+03  0.27428613463E+03  0.00000000000E+00 0.  1.
          6    1    1    2  502    0 -0.39340578545E+03 -0.85335060574E+02  0.43544065479E+03  0.61744857959E+03  0.17200000000E+03 0. -1.
         -6    1    1    2    0  501  0.39340578545E+03  0.85335060574E+02  0.78110114673E+02  0.44467445913E+03  0.17200000000E+03 0.  1.
</event>
<event>
 4    1  0.3205520E-002  0.1720854E+03  0.7818608E-02  0.1175690E+00
         -2   -1    0    0    0  501 -0.00000000000E+00  0.00000000000E+00  0.75859884548E+02  0.75859884548E+02  0.00000000000E+00 0.  1.
          2   -1    0    0  502    0  0.00000000000E+00 -0.00000000000E+00 -0.67742234282E+03  0.67742234282E+03  0.00000000000E+00 0. -1.
          6    1    1    2  502    0 -0.40613939757E+01 -0.35889850071E+01 -0.54595781189E+03  0.57243629174E+03  0.17200000000E+03 0. -1.
         -6    1    1    2    0  501  0.40613939757E+01  0.35889850071E+01 -0.55604646379E+02  0.18084593563E+03  0.17200000000E+03 0.  1.
</event>
<event>
 4    1  0.3205520E-002  0.1771879E+03  0.7818608E-02  0.1170553E+00
         -2   -1    0    0    0  501 -0.00000000000E+00  0.00000000000E+00  0.18650187941E+03  0.18650187941E+03  0.00000000000E+00 0.  1.
          2   -1    0    0  502    0  0.00000000000E+00 -0.00000000000E+00 -0.22706475519E+03  0.22706475519E+03  0.00000000000E+00 0. -1.
          6    1    1    2  502    0  0.39754788282E+02 -0.15202122849E+02 -0.12544245631E+03  0.21709757616E+03  0.17200000000E+03 0. -1.
         -6    1    1    2    0  501 -0.39754788282E+02  0.15202122849E+02  0.84879580533E+02  0.19646905843E+03  0.17200000000E+03 0.  1.
</event>
<event>
 4    1  0.3205520E-002  0.2551654E+03  0.7818608E-02  0.1110083E+00
          1   -1    0    0  502    0  0.00000000000E+00  0.00000000000E+00  0.18352944118E+04  0.18352944118E+04  0.00000000000E+00 0. -1.
         -1   -1    0    0    0  501 -0.00000000000E+00 -0.00000000000E+00 -0.50519787576E+02  0.50519787576E+02  0.00000000000E+00 0.  1.
          6    1    1    2  502    0 -0.79257089725E+02  0.17100786889E+03  0.14069200640E+04  0.14298718279E+04  0.17200000000E+03 0. -1.
         -6    1    1    2    0  501  0.79257089725E+02 -0.17100786889E+03  0.37785456018E+03  0.45594237152E+03  0.17200000000E+03 0.  1.
</event>
<event>
 4    1  0.3205520E-002  0.1945773E+03  0.7818608E-02  0.1154397E+00
         -2   -1    0    0    0  501 -0.00000000000E+00  0.00000000000E+00  0.16864866769E+02  0.16864866769E+02  0.00000000000E+00 0.  1.
          2   -1    0    0  502    0  0.00000000000E+00 -0.00000000000E+00 -0.26270608245E+04  0.26270608245E+04  0.00000000000E+00 0. -1.
          6    1    1    2  502    0  0.89454512839E+02 -0.16559405029E+02 -0.18092880835E+04  0.18197207733E+04  0.17200000000E+03 0. -1.
         -6    1    1    2    0  501 -0.89454512839E+02  0.16559405029E+02 -0.80090787418E+03  0.82420491790E+03  0.17200000000E+03 0.  1.
</event>
<event>
 4    1  0.3205520E-002  0.1915168E+03  0.7818608E-02  0.1157100E+00
          2   -1    0    0  502    0  0.00000000000E+00  0.00000000000E+00  0.34314809680E+04  0.34314809680E+04  0.00000000000E+00 0. -1.
         -2   -1    0    0    0  501 -0.00000000000E+00 -0.00000000000E+00 -0.17040599128E+02  0.17040599128E+02  0.00000000000E+00 0.  1.
          6    1    1    2  502    0  0.41916549666E+02  0.73059366514E+02  0.65451596443E+03  0.68196027441E+03  0.17200000000E+03 0.  1.
         -6    1    1    2    0  501 -0.41916549666E+02 -0.73059366514E+02  0.27599244045E+04  0.27665612927E+04  0.17200000000E+03 0. -1.
</event>
<event>
 4    1  0.3205520E-002  0.2167492E+03  0.7818608E-02  0.1136330E+00
          1   -1    0    0  502    0  0.00000000000E+00  0.00000000000E+00  0.18761501044E+04  0.18761501044E+04  0.00000000000E+00 0. -1.
         -1   -1    0    0    0  501 -0.00000000000E+00 -0.00000000000E+00 -0.28383906252E+02  0.28383906252E+02  0.00000000000E+00 0.  1.
          6    1    1    2  502    0 -0.81080450993E+02 -0.10402971128E+03  0.12506969736E+04  0.12693396473E+04  0.17200000000E+03 0. -1.
         -6    1    1    2    0  501  0.81080450993E+02  0.10402971128E+03  0.59706922447E+03  0.63519436330E+03  0.17200000000E+03 0. -1.
</event>
<event>
 4    1  0.3205520E-002  0.2350728E+03  0.7818608E-02  0.1123119E+00
         -2   -1    0    0    0  501 -0.00000000000E+00  0.00000000000E+00  0.55152032307E+02  0.55152032307E+02  0.00000000000E+00 0.  1.
          2   -1    0    0  502    0  0.00000000000E+00 -0.00000000000E+00 -0.12489507960E+04  0.12489507960E+04  0.00000000000E+00 0. -1.
          6    1    1    2  502    0  0.19281179794E+02  0.15907057022E+03 -0.30692193086E+03  0.38660093358E+03  0.17200000000E+03 0.  1.
         -6    1    1    2    0  501 -0.19281179794E+02 -0.15907057022E+03 -0.88687683288E+03  0.91750189476E+03  0.17200000000E+03 0.  1.
</event>
<event>
 4    1  0.3205520E-002  0.2458728E+03  0.7818608E-02  0.1115941E+00
          2   -1    0    0  502    0  0.00000000000E+00  0.00000000000E+00  0.38771337368E+03  0.38771337368E+03  0.00000000000E+00 0. -1.
         -2   -1    0    0    0  501 -0.00000000000E+00 -0.00000000000E+00 -0.20916736130E+03  0.20916736130E+03  0.00000000000E+00 0.  1.
          6    1    1    2  502    0  0.46240425856E+02  0.16950299511E+03  0.23984607896E+03  0.34348156272E+03  0.17200000000E+03 0. -1.
         -6    1    1    2    0  501 -0.46240425856E+02 -0.16950299511E+03 -0.61300066581E+02  0.25339917225E+03  0.17200000000E+03 0.  1.
</event>
<event>
 4    1  0.3205520E-002  0.1777713E+03  0.7818608E-02  0.1169978E+00
          2   -1    0    0  502    0  0.00000000000E+00  0.00000000000E+00  0.43081310507E+02  0.43081310507E+02  0.00000000000E+00 0. -1.
         -2   -1    0    0    0  501 -0.00000000000E+00 -0.00000000000E+00 -0.74507555979E+03  0.74507555979E+03  0.00000000000E+00 0.  1.
          6    1    1    2  502    0 -0.42769412084E+02 -0.13762309201E+02 -0.39999416439E+03  0.43771903696E+03  0.17200000000E+03 0.  1.
         -6    1    1    2    0  501  0.42769412084E+02  0.13762309201E+02 -0.30200008489E+03  0.35043783334E+03  0.17200000000E+03 0. -1.
</event>
<event>
 4    1  0.3205520E-002  0.1750053E+03  0.7818608E-02  0.1172726E+00
          2   -1    0    0  502    0  0.00000000000E+00  0.00000000000E+00  0.34657398022E+04  0.34657398022E+04  0.00000000000E+00 0. -1.
         -2   -1    0    0    0  501 -0.00000000000E+00 -0.00000000000E+00 -0.18021526701E+02  0.18021526701E+02  0.00000000000E+00 0.  1.
          6    1    1    2  502    0 -0.12169446939E+02  0.29912612577E+02  0.29673717646E+04  0.29725278888E+04  0.17200000000E+03 0. -1.
         -6    1    1    2    0  501  0.12169446939E+02 -0.29912612577E+02  0.48034651084E+03  0.51123344013E+03  0.17200000000E+03 0.  1.
</event>
<event>
 4    1  0.3205520E-002  0.2114620E+03  0.7818608E-02  0.1140413E+00
          1   -1    0    0  502    0  0.00000000000E+00  0.00000000000E+00  0.18618087799E+03  0.18618087799E+03  0.00000000000E+00 0. -1.
         -1   -1    0    0    0  501 -0.00000000000E+00 -0.00000000000E+00 -0.31623163982E+03  0.31623163982E+03  0.00000000000E+00 0.  1.
          6    1    1    2  502    0  0.11435505946E+03 -0.45333208587E+02  0.58169736127E+02  0.21931688860E+03  0.17200000000E+03 0. -1.
         -6    1    1    2    0  501 -0.11435505946E+03  0.45333208587E+02 -0.18822049795E+03  0.28309562921E+03  0.17200000000E+03 0.  1.
</event>
<event>
 4    1  0.3205520E-002  0.2151051E+03  0.7818608E-02  0.1137586E+00
         -1   -1    0    0    0  501 -0.00000000000E+00  0.00000000000E+00  0.16810555041E+03  0.16810555041E+03  0.00000000000E+00 0.  1.
          1   -1    0    0  502    0  0.00000000000E+00 -0.00000000000E+00 -0.27941967883E+03  0.27941967883E+03  0.00000000000E+00 0. -1.
          6    1    1    2  502    0  0.22679630339E+02 -0.12716851064E+03 -0.28305909176E+02  0.21695948982E+03  0.17200000000E+03 0. -1.
         -6    1    1    2    0  501 -0.22679630339E+02  0.12716851064E+03 -0.83008219240E+02  0.23056573941E+03  0.17200000000E+03 0. -1.
</event>
<event>
 4    1  0.3205520E-002  0.2454023E+03  0.7818608E-02  0.1116245E+00
         -3   -1    0    0    0  501 -0.00000000000E+00  0.00000000000E+00  0.39306390464E+03  0.39306390464E+03  0.00000000000E+00 0.  1.
          3   -1    0    0  502    0  0.00000000000E+00 -0.00000000000E+00 -0.15564993393E+03  0.15564993393E+03  0.00000000000E+00 0. -1.
          6    1    1    2  502    0 -0.15490532929E+03 -0.81502182420E+02  0.84373634338E+02  0.25950178603E+03  0.17200000000E+03 0. -1.
         -6    1    1    2    0  501  0.15490532929E+03  0.81502182420E+02  0.15304033637E+03  0.28921205254E+03  0.17200000000E+03 0.  1.
</event>
<event>
 4    1  0.3205520E-002  0.5178886E+03  0.7818608E-02  0.1009212E+00
          2   -1    0    0  502    0  0.00000000000E+00  0.00000000000E+00  0.29980580633E+03  0.29980580633E+03  0.00000000000E+00 0. -1.
         -2   -1    0    0    0  501 -0.00000000000E+00 -0.00000000000E+00 -0.14736375280E+04  0.14736375280E+04  0.00000000000E+00 0.  1.
          6    1    1    2  502    0  0.11878985874E+03 -0.47382862623E+03 -0.31085284105E+02  0.51882067467E+03  0.17200000000E+03 0. -1.
         -6    1    1    2    0  501 -0.11878985874E+03  0.47382862623E+03 -0.11427464376E+04  0.12546226597E+04  0.17200000000E+03 0.  1.
</event>
<event>
 4    1  0.3205520E-002  0.1876031E+03  0.7818608E-02  0.1160641E+00
          1   -1    0    0  502    0  0.00000000000E+00  0.00000000000E+00  0.21240831126E+04  0.21240831126E+04  0.00000000000E+00 0. -1.
         -1   -1    0    0    0  501 -0.00000000000E+00 -0.00000000000E+00 -0.36567320510E+02  0.36567320510E+02  0.00000000000E+00 0.  1.
          6    1    1    2  502    0  0.57600237811E+02  0.47886746751E+02  0.18426711402E+04  0.18521964958E+04  0.17200000000E+03 0. -1.
         -6    1    1    2    0  501 -0.57600237811E+02 -0.47886746751E+02  0.24484465182E+03  0.30845393730E+03  0.17200000000E+03 0.  1.
</event>
<event>
 4    1  0.3205520E-002  0.2008583E+03  0.7818608E-02  0.1149017E+00
         -1   -1    0    0    0  501 -0.00000000000E+00  0.00000000000E+00  0.35317468734E+03  0.35317468734E+03  0.00000000000E+00 0.  1.
          1   -1    0    0  502    0  0.00000000000E+00 -0.00000000000E+00 -0.39381078601E+03  0.39381078601E+03  0.00000000000E+00 0. -1.
          6    1    1    2  502    0  0.51335411452E+02 -0.90137352055E+02  0.29437705727E+03  0.35637328541E+03  0.17200000000E+03 0.  1.
         -6    1    1    2    0  501 -0.51335411452E+02  0.90137352055E+02 -0.33501315595E+03  0.39061218793E+03  0.17200000000E+03 0. -1.
</event>
<event>
 4    1  0.3205520E-002  0.2085402E+03  0.7818608E-02  0.1142727E+00
         -1   -1    0    0    0  501 -0.00000000000E+00  0.00000000000E+00  0.12433215856E+03  0.12433215856E+03  0.00000000000E+00 0.  1.
          1   -1    0    0  502    0  0.00000000000E+00 -0.00000000000E+00 -0.38038491383E+03  0.38038491383E+03  0.00000000000E+00 0. -1.
          6    1    1    2  502    0 -0.30238577627E+02  0.11397654895E+03 -0.56445844874E+02  0.21604434427E+03  0.17200000000E+03 0.  1.
         -6    1    1    2    0  501  0.30238577627E+02 -0.11397654895E+03 -0.19960691039E+03  0.28867272813E+03  0.17200000000E+03 0. -1.
</event>
<event>
 4    1  0.3205520E-002  0.2347017E+03  0.7818608E-02  0.1123374E+00
          1   -1    0    0  502    0  0.00000000000E+00  0.00000000000E+00  0.73629934722E+02  0.73629934722E+02  0.00000000000E+00 0. -1.
         -1   -1    0    0    0  501 -0.00000000000E+00 -0.00000000000E+00 -0.28556516812E+04  0.28556516812E+04  0.00000000000E+00 0.  1.
          6    1    1    2  502    0 -0.84133766851E+02  0.13572918805E+03 -0.13276839406E+03  0.26965227549E+03  0.17200000000E+03 0. -1.
         -6    1    1    2    0  501  0.84133766851E+02 -0.13572918805E+03 -0.26492533524E+04  0.26596293404E+04  0.17200000000E+03 0.  1.
</event>
<event>
 4    1  0.3205520E-002  0.4816225E+03  0.7818608E-02  0.1018690E+00
          2   -1    0    0  502    0  0.00000000000E+00  0.00000000000E+00  0.24518312783E+04  0.24518312783E+04  0.00000000000E+00 0. -1.
         -2   -1    0    0    0  501 -0.00000000000E+00 -0.00000000000E+00 -0.35171222812E+03  0.35171222812E+03  0.00000000000E+00 0.  1.
          6    1    1    2  502    0  0.48999955837E+02 -0.44718595671E+03  0.22485623661E+04  0.22995636520E+04  0.17200000000E+03 0. -1.
         -6    1    1    2    0  501 -0.48999955837E+02  0.44718595671E+03 -0.14844331593E+03  0.50397985435E+03  0.17200000000E+03 0.  1.
</event>
<event>
 4    1  0.3205520E-002  0.1737054E+03  0.7818608E-02  0.1174038E+00
         -1   -1    0    0    0  501 -0.00000000000E+00  0.00000000000E+00  0.15254259826E+02  0.15254259826E+02  0.00000000000E+00 0.  1.
          1   -1    0    0  502    0  0.00000000000E+00 -0.00000000000E+00 -0.20590636782E+04  0.20590636782E+04  0.00000000000E+00 0. -1.
          6    1    1    2  502    0 -0.23718616570E+02 -0.51939785624E+01 -0.81616697981E+03  0.83444717575E+03  0.17200000000E+03 0.  1.
         -6    1    1    2    0  501  0.23718616570E+02  0.51939785624E+01 -0.12276424386E+04  0.12398707623E+04  0.17200000000E+03 0. -1.
</event>
<event>
 4    1  0.3205520E-002  0.5915837E+03  0.7818608E-02  0.9923023E-01
          2   -1    0    0  502    0  0.00000000000E+00  0.00000000000E+00  0.18432284882E+04  0.18432284882E+04  0.00000000000E+00 0. -1.
         -2   -1    0    0    0  501 -0.00000000000E+00 -0.00000000000E+00 -0.48084747335E+03  0.48084747335E+03  0.00000000000E+00 0.  1.
          6    1    1    2  502    0  0.56495141494E+03 -0.34887261650E+02  0.15851466888E+04  0.16919400839E+04  0.17200000000E+03 0. -1.
         -6    1    1    2    0  501 -0.56495141494E+03  0.34887261650E+02 -0.22276567403E+03  0.63213587764E+03  0.17200000000E+03 0.  1.
</event>
<event>
 4    1  0.3205520E-002  0.1841295E+03  0.7818608E-02  0.1163865E+00
         -2   -1    0    0    0  501 -0.00000000000E+00  0.00000000000E+00  0.24664629458E+02  0.24664629458E+02  0.00000000000E+00 0.  1.
          2   -1    0    0  502    0  0.00000000000E+00 -0.00000000000E+00 -0.17443515868E+04  0.17443515868E+04  0.00000000000E+00 0. -1.
          6    1    1    2  502    0 -0.64352477147E+02  0.13357946535E+02 -0.12670807646E+04  0.12803895267E+04  0.17200000000E+03 0. -1.
         -6    1    1    2    0  501  0.64352477147E+02 -0.13357946535E+02 -0.45260619282E+03  0.48862668964E+03  0.17200000000E+03 0.  1.
</event>
<event>
 4    1  0.3205520E-002  0.1785186E+03  0.7818608E-02  0.1169245E+00
          2   -1    0    0  502    0  0.00000000000E+00  0.00000000000E+00  0.43611164647E+03  0.43611164647E+03  0.00000000000E+00 0. -1.
         -2   -1    0    0    0  501 -0.00000000000E+00 -0.00000000000E+00 -0.20925099579E+03  0.20925099579E+03  0.00000000000E+00 0.  1.
          6    1    1    2  502    0 -0.79988680765E+01  0.47126413739E+02  0.37373996943E+03  0.41418648640E+03  0.17200000000E+03 0. -1.
         -6    1    1    2    0  501  0.79988680765E+01 -0.47126413739E+02 -0.14687931875E+03  0.23117615586E+03  0.17200000000E+03 0.  1.
</event>
<event>
 4    1  0.3205520E-002  0.1924400E+03  0.7818608E-02  0.1156279E+00
         -1   -1    0    0    0  501 -0.00000000000E+00  0.00000000000E+00  0.39828713296E+02  0.39828713296E+02  0.00000000000E+00 0.  1.
          1   -1    0    0  502    0  0.00000000000E+00 -0.00000000000E+00 -0.13677584137E+04  0.13677584137E+04  0.00000000000E+00 0. -1.
          6    1    1    2  502    0  0.73956488174E+02  0.44492536043E+02 -0.10622113089E+04  0.10795026691E+04  0.17200000000E+03 0. -1.
         -6    1    1    2    0  501 -0.73956488174E+02 -0.44492536043E+02 -0.26571839148E+03  0.32808445785E+03  0.17200000000E+03 0.  1.
</event>
<event>
 4    1  0.3205520E-002  0.2290804E+03  0.7818608E-02  0.1127289E+00
          2   -1    0    0  502    0  0.00000000000E+00  0.00000000000E+00  0.51440891504E+03  0.51440891504E+03  0.00000000000E+00 0. -1.
         -2   -1    0    0    0  501 -0.00000000000E+00 -0.00000000000E+00 -0.12494977755E+03  0.12494977755E+03  0.00000000000E+00 0.  1.
          6    1    1    2  502    0 -0.11405992653E+03 -0.99419228179E+02  0.33168721738E+03  0.40310576769E+03  0.17200000000E+03 0. -1.
         -6    1    1    2    0  501  0.11405992653E+03  0.99419228179E+02  0.57771920109E+02  0.23625292490E+03  0.17200000000E+03 0.  1.
</event>
<event>
 4    1  0.3205520E-002  0.2694100E+03  0.7818608E-02  0.1101618E+00
          2   -1    0    0  502    0  0.00000000000E+00  0.00000000000E+00  0.36925247705E+03  0.36925247705E+03  0.00000000000E+00 0. -1.
         -2   -1    0    0    0  501 -0.00000000000E+00 -0.00000000000E+00 -0.50501909272E+03  0.50501909272E+03  0.00000000000E+00 0.  1.
          6    1    1    2  502    0  0.43643845398E+02  0.20271402403E+03  0.27374858082E+03  0.38408338454E+03  0.17200000000E+03 0. -1.
         -6    1    1    2    0  501 -0.43643845398E+02 -0.20271402403E+03 -0.40951519650E+03  0.49018818523E+03  0.17200000000E+03 0.  1.
</event>
<event>
 4    1  0.3205520E-002  0.2383582E+03  0.7818608E-02  0.1120891E+00
          2   -1    0    0  502    0  0.00000000000E+00  0.00000000000E+00  0.14961963352E+04  0.14961963352E+04  0.00000000000E+00 0. -1.
         -2   -1    0    0    0  501 -0.00000000000E+00 -0.00000000000E+00 -0.38487476638E+02  0.38487476638E+02  0.00000000000E+00 0.  1.
          6    1    1    2  502    0  0.11974353436E+03  0.11354341827E+03  0.64011092779E+03  0.68304950167E+03  0.17200000000E+03 0.  1.
         -6    1    1    2    0  501 -0.11974353436E+03 -0.11354341827E+03  0.81759793075E+03  0.85163431015E+03  0.17200000000E+03 0. -1.
</event>
<event>
 4    1  0.3205520E-002  0.1862137E+03  0.7818608E-02  0.1161921E+00
         -1   -1    0    0    0  501 -0.00000000000E+00  0.00000000000E+00  0.68988029124E+02  0.68988029124E+02  0.00000000000E+00 0.  1.
          1   -1    0    0  502    0  0.00000000000E+00 -0.00000000000E+00 -0.54620659804E+03  0.54620659804E+03  0.00000000000E+00 0. -1.
          6    1    1    2  502    0  0.70758970357E+02  0.92033539544E+01 -0.15172826436E+03  0.24020199795E+03  0.17200000000E+03 0.  1.
         -6    1    1    2    0  501 -0.70758970357E+02 -0.92033539544E+01 -0.32549030455E+03  0.37499262921E+03  0.17200000000E+03 0. -1.
</event>
<event>
 4    1  0.3205520E-002  0.1903266E+03  0.7818608E-02  0.1158167E+00
          2   -1    0    0  502    0  0.00000000000E+00  0.00000000000E+00  0.50536272027E+03  0.50536272027E+03  0.00000000000E+00 0. -1.
         -2   -1    0    0    0  501 -0.00000000000E+00 -0.00000000000E+00 -0.16073374078E+03  0.16073374078E+03  0.00000000000E+00 0.  1.
          6    1    1    2  502    0 -0.62671563886E+02  0.52081535793E+02  0.42021681340E+03  0.46130942062E+03  0.17200000000E+03 0. -1.
         -6    1    1    2    0  501  0.62671563886E+02 -0.52081535793E+02 -0.75587833909E+02  0.20478704042E+03  0.17200000000E+03 0.  1.
</event>
<event>
 4    1  0.3205520E-002  0.3408062E+03  0.7818608E-02  0.1066453E+00
         -2   -1    0    0    0  501 -0.00000000000E+00  0.00000000000E+00  0.16120644912E+03  0.16120644912E+03  0.00000000000E+00 0.  1.
          2   -1    0    0  502    0  0.00000000000E+00 -0.00000000000E+00 -0.73718112693E+03  0.73718112693E+03  0.00000000000E+00 0. -1.
          6    1    1    2  502    0  0.29404239375E+03 -0.10194745044E+02 -0.35556301084E+03  0.49251793553E+03  0.17200000000E+03 0. -1.
         -6    1    1    2    0  501 -0.29404239375E+03  0.10194745044E+02 -0.22041166698E+03  0.40586964051E+03  0.17200000000E+03 0. -1.
</event>
<event>
 4    1  0.3205520E-002  0.1922185E+03  0.7818608E-02  0.1156475E+00
          2   -1    0    0  502    0  0.00000000000E+00  0.00000000000E+00  0.12975677244E+04  0.12975677244E+04  0.00000000000E+00 0. -1.
         -2   -1    0    0    0  501 -0.00000000000E+00 -0.00000000000E+00 -0.43819722109E+02  0.43819722109E+02  0.00000000000E+00 0.  1.
          6    1    1    2  502    0 -0.82788652703E+02  0.22583240217E+02  0.10237656578E+04  0.10416544945E+04  0.17200000000E+03 0. -1.
         -6    1    1    2    0  501  0.82788652703E+02 -0.22583240217E+02  0.22998234444E+03  0.29973295199E+03  0.17200000000E+03 0.  1.
</event>
<event>
 4    1  0.3205520E-002  0.1916479E+03  0.7818608E-02  0.1156983E+00
         -2   -1    0    0    0  501 -0.00000000000E+00  0.00000000000E+00  0.27209984971E+03  0.27209984971E+03  0.00000000000E+00 0.  1.
          2   -1    0    0  502    0  0.00000000000E+00 -0.00000000000E+00 -0.14658906508E+03  0.14658906508E+03  0.00000000000E+00 0. -1.
          6    1    1    2  502    0  0.56340365592E+02  0.63013459500E+02  0.12165979518E+03  0.22700228773E+03  0.17200000000E+03 0. -1.
         -6    1    1    2    0  501 -0.56340365592E+02 -0.63013459500E+02  0.38509894417E+01  0.19168662706E+03  0.17200000000E+03 0.  1.
</event>
<event>
 4    1  0.3205520E-002  0.2790169E+03  0.7818608E-02  0.1096227E+00
         -2   -1    0    0    0  501 -0.00000000000E+00  0.00000000000E+00  0.49477450092E+02  0.49477450092E+02  0.00000000000E+00 0.  1.
          2   -1    0    0  502    0  0.00000000000E+00 -0.00000000000E+00 -0.15744475006E+04  0.15744475006E+04  0.00000000000E+00 0. -1.
          6    1    1    2  502    0 -0.11010242631E+03 -0.19011538414E+03 -0.74207022405E+03  0.79279166304E+03  0.17200000000E+03 0. -1.
         -6    1    1    2    0  501  0.11010242631E+03  0.19011538414E+03 -0.78289982642E+03  0.83113328762E+03  0.17200000000E+03 0.  1.
</event>
<event>
 4    1  0.3205520E-002  0.1858338E+03  0.7818608E-02  0.1162274E+00
         -2   -1    0    0    0  501 -0.00000000000E+00  0.00000000000E+00  0.39060640335E+02  0.39060640335E+02  0.00000000000E+00 0.  1.
          2   -1    0    0  502    0  0.00000000000E+00 -0.00000000000E+00 -0.11904921612E+04  0.11904921612E+04  0.00000000000E+00 0. -1.
          6    1    1    2  502    0  0.50439164859E+02 -0.49051996303E+02 -0.88759044380E+03  0.90683570928E+03  0.17200000000E+03 0. -1.
         -6    1    1    2    0  501 -0.50439164859E+02  0.49051996303E+02 -0.26384107710E+03  0.32271709229E+03  0.17200000000E+03 0.  1.
</event>
<event>
 4    1  0.3205520E-002  0.1880655E+03  0.7818608E-02  0.1160218E+00
          1   -1    0    0  502    0  0.00000000000E+00  0.00000000000E+00  0.11209871329E+03  0.11209871329E+03  0.00000000000E+00 0. -1.
         -1   -1    0    0    0  501 -0.00000000000E+00 -0.00000000000E+00 -0.34843937452E+03  0.34843937452E+03  0.00000000000E+00 0.  1.
          6    1    1    2  502    0  0.36784078182E+02 -0.66570032926E+02 -0.47385244864E+02  0.19394328842E+03  0.17200000000E+03 0. -1.
         -6    1    1    2    0  501 -0.36784078182E+02  0.66570032926E+02 -0.18895541636E+03  0.26659479939E+03  0.17200000000E+03 0.  1.
</event>
<event>
 4    1  0.3205520E-002  0.4629791E+03  0.7818608E-02  0.1023921E+00
         -2   -1    0    0    0  501 -0.00000000000E+00  0.00000000000E+00  0.26720726819E+03  0.26720726819E+03  0.00000000000E+00 0.  1.
          2   -1    0    0  502    0  0.00000000000E+00 -0.00000000000E+00 -0.93619944564E+03  0.93619944564E+03  0.00000000000E+00 0. -1.
          6    1    1    2  502    0  0.40815182599E+03  0.13482476631E+03 -0.10684263447E+03  0.47514732369E+03  0.17200000000E+03 0. -1.
         -6    1    1    2    0  501 -0.40815182599E+03 -0.13482476631E+03 -0.56214954298E+03  0.72825939015E+03  0.17200000000E+03 0. -1.
</event>
<event>
 4    1  0.3205520E-002  0.1889986E+03  0.7818608E-02  0.1159368E+00
          1   -1    0    0  502    0  0.00000000000E+00  0.00000000000E+00  0.12544788684E+03  0.12544788684E+03  0.00000000000E+00 0. -1.
         -1   -1    0    0    0  501 -0.00000000000E+00 -0.00000000000E+00 -0.78497561125E+03  0.78497561125E+03  0.00000000000E+00 0.  1.
          6    1    1    2  502    0  0.67462494356E+02  0.39815625111E+02  0.33624620097E+02  0.19196637003E+03  0.17200000000E+03 0. -1.
         -6    1    1    2    0  501 -0.67462494356E+02 -0.39815625111E+02 -0.69315234451E+03  0.71845712805E+03  0.17200000000E+03 0.  1.
</event>
<event>
 4    1  0.3205520E-002  0.9389276E+03  0.7818608E-02  0.9378187E-01
         -1   -1    0    0    0  501 -0.00000000000E+00  0.00000000000E+00  0.63487536768E+03  0.63487536768E+03  0.00000000000E+00 0.  1.
          1   -1    0    0  502    0  0.00000000000E+00 -0.00000000000E+00 -0.24134951861E+04  0.24134951861E+04  0.00000000000E+00 0. -1.
          6    1    1    2  502    0 -0.90341891856E+03  0.18930193218E+03 -0.18825523352E+04  0.21037082162E+04  0.17200000000E+03 0. -1.
         -6    1    1    2    0  501  0.90341891856E+03 -0.18930193218E+03  0.10393251686E+03  0.94466233756E+03  0.17200000000E+03 0.  1.
</event>
<event>
 4    1  0.3205520E-002  0.2049158E+03  0.7818608E-02  0.1145657E+00
         -1   -1    0    0    0  501 -0.00000000000E+00  0.00000000000E+00  0.10238403673E+03  0.10238403673E+03  0.00000000000E+00 0.  1.
          1   -1    0    0  502    0  0.00000000000E+00 -0.00000000000E+00 -0.81727266297E+03  0.81727266297E+03  0.00000000000E+00 0. -1.
          6    1    1    2  502    0  0.28315848383E+02  0.10772505778E+03 -0.68199839263E+03  0.71211816639E+03  0.17200000000E+03 0. -1.
         -6    1    1    2    0  501 -0.28315848383E+02 -0.10772505778E+03 -0.32890233602E+02  0.20753853331E+03  0.17200000000E+03 0.  1.
</event>
<event>
 4    1  0.3205520E-002  0.1890904E+03  0.7818608E-02  0.1159284E+00
         -2   -1    0    0    0  501 -0.00000000000E+00  0.00000000000E+00  0.70259082585E+02  0.70259082585E+02  0.00000000000E+00 0.  1.
          2   -1    0    0  502    0  0.00000000000E+00 -0.00000000000E+00 -0.10520216565E+04  0.10520216565E+04  0.00000000000E+00 0. -1.
          6    1    1    2  502    0  0.63783200557E+02  0.45857339502E+02 -0.89406759000E+03  0.91384465187E+03  0.17200000000E+03 0. -1.
         -6    1    1    2    0  501 -0.63783200557E+02 -0.45857339502E+02 -0.87694983952E+02  0.20843608725E+03  0.17200000000E+03 0.  1.
</event>
<event>
 4    1  0.3205520E-002  0.2829048E+03  0.7818608E-02  0.1094113E+00
          2   -1    0    0  502    0  0.00000000000E+00  0.00000000000E+00  0.16440401371E+03  0.16440401371E+03  0.00000000000E+00 0. -1.
         -2   -1    0    0    0  501 -0.00000000000E+00 -0.00000000000E+00 -0.52514036220E+03  0.52514036220E+03  0.00000000000E+00 0.  1.
          6    1    1    2  502    0  0.20778325811E+03 -0.85306800816E+02 -0.27350262103E+03  0.39349563698E+03  0.17200000000E+03 0. -1.
         -6    1    1    2    0  501 -0.20778325811E+03  0.85306800816E+02 -0.87233727465E+02  0.29604873893E+03  0.17200000000E+03 0.  1.
</event>
<event>
 4    1  0.3205520E-002  0.2380754E+03  0.7818608E-02  0.1121082E+00
         -1   -1    0    0    0  501 -0.00000000000E+00  0.00000000000E+00  0.13808897079E+03  0.13808897079E+03  0.00000000000E+00 0.  1.
          1   -1    0    0  502    0  0.00000000000E+00 -0.00000000000E+00 -0.41793363796E+03  0.41793363796E+03  0.00000000000E+00 0. -1.
          6    1    1    2  502    0 -0.49548366136E+02  0.15697410702E+03 -0.10274370606E+03  0.25929940223E+03  0.17200000000E+03 0. -1.
         -6    1    1    2    0  501  0.49548366136E+02 -0.15697410702E+03 -0.17710096112E+03  0.29672320653E+03  0.17200000000E+03 0.  1.
</event>
<event>
 4    1  0.3205520E-002  0.5361990E+03  0.7818608E-02  0.1004740E+00
          2   -1    0    0  502    0  0.00000000000E+00  0.00000000000E+00  0.93628517886E+03  0.93628517886E+03  0.00000000000E+00 0. -1.
         -2   -1    0    0    0  501 -0.00000000000E+00 -0.00000000000E+00 -0.46291135271E+03  0.46291135271E+03  0.00000000000E+00 0.  1.
          6    1    1    2  502    0 -0.31640222229E+03 -0.39725938541E+03  0.64260160432E+03  0.83692664400E+03  0.17200000000E+03 0. -1.
         -6    1    1    2    0  501  0.31640222229E+03  0.39725938541E+03 -0.16922777817E+03  0.56226988757E+03  0.17200000000E+03 0.  1.
</event>
<event>
 4    1  0.3205520E-002  0.2704026E+03  0.7818608E-02  0.1101049E+00
          2   -1    0    0  502    0  0.00000000000E+00  0.00000000000E+00  0.56282778725E+03  0.56282778725E+03  0.00000000000E+00 0. -1.
         -2   -1    0    0    0  501 -0.00000000000E+00 -0.00000000000E+00 -0.15198984102E+03  0.15198984102E+03  0.00000000000E+00 0.  1.
          6    1    1    2  502    0 -0.19855567881E+03 -0.64103259995E+02  0.34164026067E+03  0.43570133491E+03  0.17200000000E+03 0. -1.
         -6    1    1    2    0  501  0.19855567881E+03  0.64103259995E+02  0.69197685552E+02  0.27911629335E+03  0.17200000000E+03 0.  1.
</event>
<event>
 4    1  0.3205520E-002  0.3721784E+03  0.7818608E-02  0.1053863E+00
          1   -1    0    0  502    0  0.00000000000E+00  0.00000000000E+00  0.17071827429E+03  0.17071827429E+03  0.00000000000E+00 0. -1.
         -1   -1    0    0    0  501 -0.00000000000E+00 -0.00000000000E+00 -0.83959954754E+03  0.83959954754E+03  0.00000000000E+00 0.  1.
          6    1    1    2  502    0 -0.31875586759E+03 -0.85600699750E+02 -0.42705843600E+03  0.56647655793E+03  0.17200000000E+03 0. -1.
         -6    1    1    2    0  501  0.31875586759E+03  0.85600699750E+02 -0.24182283725E+03  0.44384126390E+03  0.17200000000E+03 0.  1.
</event>
<event>
 4    1  0.3205520E-002  0.2140490E+03  0.7818608E-02  0.1138399E+00
         -2   -1    0    0    0  501 -0.00000000000E+00  0.00000000000E+00  0.14016053775E+03  0.14016053775E+03  0.00000000000E+00 0.  1.
          2   -1    0    0  502    0  0.00000000000E+00 -0.00000000000E+00 -0.40533892490E+03  0.40533892490E+03  0.00000000000E+00 0. -1.
          6    1    1    2  502    0 -0.12221817600E+03 -0.35995621523E+02 -0.12597588287E+02  0.21441937073E+03  0.17200000000E+03 0.  1.
         -6    1    1    2    0  501  0.12221817600E+03  0.35995621523E+02 -0.25258079886E+03  0.33108009192E+03  0.17200000000E+03 0. -1.
</event>
<event>
 4    1  0.3205520E-002  0.1998534E+03  0.7818608E-02  0.1149863E+00
          2   -1    0    0  502    0  0.00000000000E+00  0.00000000000E+00  0.78673201669E+03  0.78673201669E+03  0.00000000000E+00 0. -1.
         -2   -1    0    0    0  501 -0.00000000000E+00 -0.00000000000E+00 -0.51722257280E+02  0.51722257280E+02  0.00000000000E+00 0.  1.
          6    1    1    2  502    0 -0.98114392456E+02 -0.27036355307E+02  0.42442599472E+03  0.46912559460E+03  0.17200000000E+03 0. -1.
         -6    1    1    2    0  501  0.98114392456E+02  0.27036355307E+02  0.31058376469E+03  0.36932867937E+03  0.17200000000E+03 0.  1.
</event>
<event>
 4    1  0.3205520E-002  0.2531824E+03  0.7818608E-02  0.1111310E+00
          3   -1    0    0  502    0  0.00000000000E+00  0.00000000000E+00  0.21727080614E+03  0.21727080614E+03  0.00000000000E+00 0. -1.
         -3   -1    0    0    0  501 -0.00000000000E+00 -0.00000000000E+00 -0.29969359136E+03  0.29969359136E+03  0.00000000000E+00 0.  1.
          6    1    1    2  502    0 -0.14167094568E+03 -0.12019429694E+03 -0.89658778975E+01  0.25334109977E+03  0.17200000000E+03 0. -1.
         -6    1    1    2    0  501  0.14167094568E+03  0.12019429694E+03 -0.73456907326E+02  0.26362329772E+03  0.17200000000E+03 0.  1.
</event>
<event>
 4    1  0.3205520E-002  0.2290510E+03  0.7818608E-02  0.1127309E+00
         -2   -1    0    0    0  501 -0.00000000000E+00  0.00000000000E+00  0.90124148273E+02  0.90124148273E+02  0.00000000000E+00 0.  1.
          2   -1    0    0  502    0  0.00000000000E+00 -0.00000000000E+00 -0.72256417412E+03  0.72256417412E+03  0.00000000000E+00 0. -1.
          6    1    1    2  502    0 -0.85109521267E+02  0.12504695959E+03 -0.13708300682E+03  0.26693842637E+03  0.17200000000E+03 0.  1.
         -6    1    1    2    0  501  0.85109521267E+02 -0.12504695959E+03 -0.49535701902E+03  0.54574989602E+03  0.17200000000E+03 0. -1.
</event>
<event>
 4    1  0.3205520E-002  0.1760879E+03  0.7818608E-02  0.1171644E+00
         -1   -1    0    0    0  501 -0.00000000000E+00  0.00000000000E+00  0.13379907931E+03  0.13379907931E+03  0.00000000000E+00 0.  1.
          1   -1    0    0  502    0  0.00000000000E+00 -0.00000000000E+00 -0.23202429484E+03  0.23202429484E+03  0.00000000000E+00 0. -1.
          6    1    1    2  502    0 -0.19209780939E+02 -0.32464079017E+02 -0.55487122824E+02  0.18462327294E+03  0.17200000000E+03 0. -1.
         -6    1    1    2    0  501  0.19209780939E+02  0.32464079017E+02 -0.42738092707E+02  0.18120010121E+03  0.17200000000E+03 0.  1.
</event>
<event>
 4    1  0.3205520E-002  0.2401749E+03  0.7818608E-02  0.1119676E+00
         -1   -1    0    0    0  501 -0.00000000000E+00  0.00000000000E+00  0.48752344488E+02  0.48752344488E+02  0.00000000000E+00 0.  1.
          1   -1    0    0  502    0  0.00000000000E+00 -0.00000000000E+00 -0.12222351046E+04  0.12222351046E+04  0.00000000000E+00 0. -1.
          6    1    1    2  502    0 -0.86004381803E+02 -0.14388615386E+03 -0.70030472464E+03  0.74034497791E+03  0.17200000000E+03 0. -1.
         -6    1    1    2    0  501  0.86004381803E+02  0.14388615386E+03 -0.47317803544E+03  0.53064247114E+03  0.17200000000E+03 0.  1.
</event>
<event>
 4    1  0.3205520E-002  0.1971323E+03  0.7818608E-02  0.1152181E+00
          1   -1    0    0  502    0  0.00000000000E+00  0.00000000000E+00  0.67476763977E+03  0.67476763977E+03  0.00000000000E+00 0. -1.
         -1   -1    0    0    0  501 -0.00000000000E+00 -0.00000000000E+00 -0.57784264959E+02  0.57784264959E+02  0.00000000000E+00 0.  1.
          6    1    1    2  502    0 -0.86386532441E+02 -0.42597200378E+02  0.32962462367E+03  0.38407492368E+03  0.17200000000E+03 0. -1.
         -6    1    1    2    0  501  0.86386532441E+02  0.42597200378E+02  0.28735875114E+03  0.34847698106E+03  0.17200000000E+03 0. -1.
</event>
<event>
 4    1  0.3205520E-002  0.2244349E+03  0.7818608E-02  0.1130619E+00
         -2   -1    0    0    0  501 -0.00000000000E+00  0.00000000000E+00  0.15543538867E+02  0.15543538867E+02  0.00000000000E+00 0.  1.
          2   -1    0    0  502    0  0.00000000000E+00 -0.00000000000E+00 -0.32745282632E+04  0.32745282632E+04  0.00000000000E+00 0. -1.
          6    1    1    2  502    0 -0.13950685143E+03  0.36398514344E+02 -0.14621423264E+04  0.14792671145E+04  0.17200000000E+03 0. -1.
         -6    1    1    2    0  501  0.13950685143E+03 -0.36398514344E+02 -0.17968423980E+04  0.18108046876E+04  0.17200000000E+03 0.  1.
</event>
<event>
 4    1  0.3205520E-002  0.1793528E+03  0.7818608E-02  0.1168431E+00
         -2   -1    0    0    0  501 -0.00000000000E+00  0.00000000000E+00  0.11431342827E+03  0.11431342827E+03  0.00000000000E+00 0.  1.
          2   -1    0    0  502    0  0.00000000000E+00 -0.00000000000E+00 -0.28139729041E+03  0.28139729041E+03  0.00000000000E+00 0. -1.
          6    1    1    2  502    0 -0.28917527893E+02 -0.41799639014E+02 -0.83281500541E+02  0.19774539583E+03  0.17200000000E+03 0.  1.
         -6    1    1    2    0  501  0.28917527893E+02  0.41799639014E+02 -0.83802361596E+02  0.19796532285E+03  0.17200000000E+03 0.  1.
</event>
<event>
 4    1  0.3205520E-002  0.2832644E+03  0.7818608E-02  0.1093919E+00
         -1   -1    0    0    0  501 -0.00000000000E+00  0.00000000000E+00  0.72267888579E+03  0.72267888579E+03  0.00000000000E+00 0.  1.
          1   -1    0    0  502    0  0.00000000000E+00 -0.00000000000E+00 -0.12587825622E+03  0.12587825622E+03  0.00000000000E+00 0. -1.
          6    1    1    2  502    0  0.17959130643E+03  0.13565275359E+03  0.44412064227E+03  0.52676546185E+03  0.17200000000E+03 0. -1.
         -6    1    1    2    0  501 -0.17959130643E+03 -0.13565275359E+03  0.15267998730E+03  0.32179168017E+03  0.17200000000E+03 0.  1.
</event>
<event>
 4    1  0.3205520E-002  0.1960104E+03  0.7818608E-02  0.1153149E+00
         -1   -1    0    0    0  501 -0.00000000000E+00  0.00000000000E+00  0.69279618434E+03  0.69279618434E+03  0.00000000000E+00 0.  1.
          1   -1    0    0  502    0  0.00000000000E+00 -0.00000000000E+00 -0.89870203206E+02  0.89870203206E+02  0.00000000000E+00 0. -1.
          6    1    1    2  502    0  0.33829162906E+02 -0.87702154914E+02  0.59301952826E+02  0.20478476957E+03  0.17200000000E+03 0. -1.
         -6    1    1    2    0  501 -0.33829162906E+02  0.87702154914E+02  0.54362402830E+03  0.57788161797E+03  0.17200000000E+03 0.  1.
</event>
<event>
 4    1  0.3205520E-002  0.1905649E+03  0.7818608E-02  0.1157953E+00
          1   -1    0    0  502    0  0.00000000000E+00  0.00000000000E+00  0.60567908153E+03  0.60567908153E+03  0.00000000000E+00 0. -1.
         -1   -1    0    0    0  501 -0.00000000000E+00 -0.00000000000E+00 -0.61264535086E+02  0.61264535086E+02  0.00000000000E+00 0.  1.
          6    1    1    2  502    0  0.39840182191E+02 -0.71719995298E+02  0.22349933610E+03  0.29371236113E+03  0.17200000000E+03 0. -1.
         -6    1    1    2    0  501 -0.39840182191E+02  0.71719995298E+02  0.32091521034E+03  0.37323125549E+03  0.17200000000E+03 0. -1.
</event>
<event>
 4    1  0.3205520E-002  0.1816243E+03  0.7818608E-02  0.1166240E+00
         -1   -1    0    0    0  501 -0.00000000000E+00  0.00000000000E+00  0.16070807319E+03  0.16070807319E+03  0.00000000000E+00 0.  1.
          1   -1    0    0  502    0  0.00000000000E+00 -0.00000000000E+00 -0.50154349639E+03  0.50154349639E+03  0.00000000000E+00 0. -1.
          6    1    1    2  502    0  0.56498486212E+02 -0.14536232939E+02 -0.42491925136E+03  0.46210794322E+03  0.17200000000E+03 0. -1.
         -6    1    1    2    0  501 -0.56498486212E+02  0.14536232939E+02  0.84083828156E+02  0.20014362635E+03  0.17200000000E+03 0.  1.
</event>
<event>
 4    1  0.3205520E-002  0.1896045E+03  0.7818608E-02  0.1158819E+00
          1   -1    0    0  502    0  0.00000000000E+00  0.00000000000E+00  0.18760316606E+04  0.18760316606E+04  0.00000000000E+00 0. -1.
         -1   -1    0    0    0  501 -0.00000000000E+00 -0.00000000000E+00 -0.19664289389E+02  0.19664289389E+02  0.00000000000E+00 0.  1.
          6    1    1    2  502    0  0.50391927720E+02 -0.61858749948E+02  0.77680342574E+03  0.79960828758E+03  0.17200000000E+03 0. -1.
         -6    1    1    2    0  501 -0.50391927720E+02  0.61858749948E+02  0.10795639455E+04  0.10960876625E+04  0.17200000000E+03 0.  1.
</event>
<event>
 4    1  0.3205520E-002  0.2590822E+03  0.7818608E-02  0.1107696E+00
          1   -1    0    0  502    0  0.00000000000E+00  0.00000000000E+00  0.13625875470E+04  0.13625875470E+04  0.00000000000E+00 0. -1.
         -1   -1    0    0    0  501 -0.00000000000E+00 -0.00000000000E+00 -0.52976539024E+02  0.52976539024E+02  0.00000000000E+00 0.  1.
          6    1    1    2  502    0  0.18535759283E+03 -0.56410432908E+02  0.84222698889E+03  0.88117528050E+03  0.17200000000E+03 0. -1.
         -6    1    1    2    0  501 -0.18535759283E+03  0.56410432908E+02  0.46738401907E+03  0.53438880550E+03  0.17200000000E+03 0.  1.
</event>
<event>
 4    1  0.3205520E-002  0.1768762E+03  0.7818608E-02  0.1170861E+00
         -1   -1    0    0    0  501 -0.00000000000E+00  0.00000000000E+00  0.69521592500E+02  0.69521592500E+02  0.00000000000E+00 0.  1.
          1   -1    0    0  502    0  0.00000000000E+00 -0.00000000000E+00 -0.88114826020E+03  0.88114826020E+03  0.00000000000E+00 0. -1.
          6    1    1    2  502    0 -0.28101325231E+02 -0.30191405902E+02 -0.73830825032E+03  0.75919976157E+03  0.17200000000E+03 0. -1.
         -6    1    1    2    0  501  0.28101325231E+02  0.30191405902E+02 -0.73318417373E+02  0.19147009113E+03  0.17200000000E+03 0.  1.
</event>
<event>
 4    1  0.3205520E-002  0.4171054E+03  0.7818608E-02  0.1038013E+00
         -2   -1    0    0    0  501 -0.00000000000E+00  0.00000000000E+00  0.68615596928E+02  0.68615596928E+02  0.00000000000E+00 0.  1.
          2   -1    0    0  502    0  0.00000000000E+00 -0.00000000000E+00 -0.27969490506E+04  0.27969490506E+04  0.00000000000E+00 0. -1.
          6    1    1    2  502    0  0.36733570409E+03 -0.97249071341E+02 -0.92613396754E+03  0.10157268467E+04  0.17200000000E+03 0. -1.
         -6    1    1    2    0  501 -0.36733570409E+03  0.97249071341E+02 -0.18021994861E+04  0.18498378008E+04  0.17200000000E+03 0.  1.
</event>
<event>
 4    1  0.3205520E-002  0.3636639E+03  0.7818608E-02  0.1057142E+00
          2   -1    0    0  502    0  0.00000000000E+00  0.00000000000E+00  0.11887469741E+04  0.11887469741E+04  0.00000000000E+00 0. -1.
         -2   -1    0    0    0  501 -0.00000000000E+00 -0.00000000000E+00 -0.11210984442E+03  0.11210984442E+03  0.00000000000E+00 0.  1.
          6    1    1    2  502    0 -0.13953566166E+03  0.28843924168E+03  0.59518895217E+03  0.69749644143E+03  0.17200000000E+03 0. -1.
         -6    1    1    2    0  501  0.13953566166E+03 -0.28843924168E+03  0.48144817749E+03  0.60336037708E+03  0.17200000000E+03 0.  1.
</event>
<event>
 4    1  0.3205520E-002  0.1849384E+03  0.7818608E-02  0.1163107E+00
         -2   -1    0    0    0  501 -0.00000000000E+00  0.00000000000E+00  0.62401728374E+02  0.62401728374E+02  0.00000000000E+00 0.  1.
          2   -1    0    0  502    0  0.00000000000E+00 -0.00000000000E+00 -0.21706076907E+04  0.21706076907E+04  0.00000000000E+00 0. -1.
          6    1    1    2  502    0  0.54501349191E+02 -0.40593468776E+02 -0.20194058946E+04  0.20278566009E+04  0.17200000000E+03 0. -1.
         -6    1    1    2    0  501 -0.54501349191E+02  0.40593468776E+02 -0.88800067746E+02  0.20515281817E+03  0.17200000000E+03 0.  1.
</event>
<event>
 4    1  0.3205520E-002  0.1811275E+03  0.7818608E-02  0.1166716E+00
         -2   -1    0    0    0  501 -0.00000000000E+00  0.00000000000E+00  0.18245978475E+03  0.18245978475E+03  0.00000000000E+00 0.  1.
          2   -1    0    0  502    0  0.00000000000E+00 -0.00000000000E+00 -0.20630733467E+03  0.20630733467E+03  0.00000000000E+00 0. -1.
          6    1    1    2  502    0  0.28455338221E+02  0.49127174820E+02 -0.81593498140E+02  0.19865720354E+03  0.17200000000E+03 0. -1.
         -6    1    1    2    0  501 -0.28455338221E+02 -0.49127174820E+02  0.57745948217E+02  0.19010991588E+03  0.17200000000E+03 0.  1.
</event>
<event>
 4    1  0.3205520E-002  0.2004278E+03  0.7818608E-02  0.1149379E+00
          1   -1    0    0  502    0  0.00000000000E+00  0.00000000000E+00  0.31713073813E+03  0.31713073813E+03  0.00000000000E+00 0. -1.
         -1   -1    0    0    0  501 -0.00000000000E+00 -0.00000000000E+00 -0.16812887721E+03  0.16812887721E+03  0.00000000000E+00 0.  1.
          6    1    1    2  502    0  0.10278332698E+03 -0.47853873222E+01  0.19498393605E+03  0.27962483358E+03  0.17200000000E+03 0. -1.
         -6    1    1    2    0  501 -0.10278332698E+03  0.47853873222E+01 -0.45982075135E+02  0.20563478176E+03  0.17200000000E+03 0.  1.
</event>
<event>
 4    1  0.3205520E-002  0.1800811E+03  0.7818608E-02  0.1167725E+00
         -1   -1    0    0    0  501 -0.00000000000E+00  0.00000000000E+00  0.73083052656E+02  0.73083052656E+02  0.00000000000E+00 0.  1.
          1   -1    0    0  502    0  0.00000000000E+00 -0.00000000000E+00 -0.82546680598E+03  0.82546680598E+03  0.00000000000E+00 0. -1.
          6    1    1    2  502    0  0.26880089923E+02 -0.46072472825E+02 -0.68171484019E+03  0.70509881245E+03  0.17200000000E+03 0. -1.
         -6    1    1    2    0  501 -0.26880089923E+02  0.46072472825E+02 -0.70668913135E+02  0.19345104619E+03  0.17200000000E+03 0.  1.
</event>
<event>
 4    1  0.3205520E-002  0.2560890E+03  0.7818608E-02  0.1109516E+00
         -2   -1    0    0    0  501 -0.00000000000E+00  0.00000000000E+00  0.22845567085E+02  0.22845567085E+02  0.00000000000E+00 0.  1.
          2   -1    0    0  502    0  0.00000000000E+00 -0.00000000000E+00 -0.29113746786E+04  0.29113746786E+04  0.00000000000E+00 0. -1.
          6    1    1    2  502    0 -0.62463099786E+02  0.17915342838E+03 -0.12707438805E+04  0.12962914794E+04  0.17200000000E+03 0. -1.
         -6    1    1    2    0  501  0.62463099786E+02 -0.17915342838E+03 -0.16177852311E+04  0.16379287663E+04  0.17200000000E+03 0.  1.
</event>
<event>
 4    1  0.3205520E-002  0.1987475E+03  0.7818608E-02  0.1150800E+00
          2   -1    0    0  502    0  0.00000000000E+00  0.00000000000E+00  0.38025107754E+03  0.38025107754E+03  0.00000000000E+00 0. -1.
         -2   -1    0    0    0  501 -0.00000000000E+00 -0.00000000000E+00 -0.10388362817E+03  0.10388362817E+03  0.00000000000E+00 0.  1.
          6    1    1    2  502    0  0.20504307056E+02 -0.97448166954E+02  0.13956688198E+03  0.24285692578E+03  0.17200000000E+03 0.  1.
         -6    1    1    2    0  501 -0.20504307056E+02  0.97448166954E+02  0.13680056739E+03  0.24127777993E+03  0.17200000000E+03 0.  1.
</event>
<event>
 4    1  0.3205520E-002  0.1768030E+03  0.7818608E-02  0.1170933E+00
         -1   -1    0    0    0  501 -0.00000000000E+00  0.00000000000E+00  0.40787263440E+02  0.40787263440E+02  0.00000000000E+00 0.  1.
          1   -1    0    0  502    0  0.00000000000E+00 -0.00000000000E+00 -0.79273719728E+03  0.79273719728E+03  0.00000000000E+00 0. -1.
          6    1    1    2  502    0  0.11466067188E+02  0.39291767616E+02 -0.30000925538E+03  0.34823105406E+03  0.17200000000E+03 0.  1.
         -6    1    1    2    0  501 -0.11466067188E+02 -0.39291767616E+02 -0.45194067846E+03  0.48529340666E+03  0.17200000000E+03 0. -1.
</event>
<event>
 4    1  0.3205520E-002  0.2115203E+03  0.7818608E-02  0.1140368E+00
         -2   -1    0    0    0  501 -0.00000000000E+00  0.00000000000E+00  0.23762786170E+03  0.23762786170E+03  0.00000000000E+00 0.  1.
          2   -1    0    0  502    0  0.00000000000E+00 -0.00000000000E+00 -0.65088019291E+03  0.65088019291E+03  0.00000000000E+00 0. -1.
          6    1    1    2  502    0 -0.75081949843E+02  0.97568155721E+02 -0.58115323844E+03  0.61844961861E+03  0.17200000000E+03 0. -1.
         -6    1    1    2    0  501  0.75081949843E+02 -0.97568155721E+02  0.16790090724E+03  0.27005843600E+03  0.17200000000E+03 0.  1.
</event>
<event>
 4    1  0.3205520E-002  0.1791134E+03  0.7818608E-02  0.1168664E+00
          1   -1    0    0  502    0  0.00000000000E+00  0.00000000000E+00  0.11521043767E+04  0.11521043767E+04  0.00000000000E+00 0. -1.
         -1   -1    0    0    0  501 -0.00000000000E+00 -0.00000000000E+00 -0.32854172616E+02  0.32854172616E+02  0.00000000000E+00 0.  1.
          6    1    1    2  502    0  0.12284441527E+02 -0.48442614548E+02  0.79094549950E+03  0.81097248880E+03  0.17200000000E+03 0. -1.
         -6    1    1    2    0  501 -0.12284441527E+02  0.48442614548E+02  0.32830470457E+03  0.37398606050E+03  0.17200000000E+03 0.  1.
</event>
<event>
 4    1  0.3205520E-002  0.1766130E+03  0.7818608E-02  0.1171122E+00
          2   -1    0    0  502    0  0.00000000000E+00  0.00000000000E+00  0.33260547435E+04  0.33260547435E+04  0.00000000000E+00 0. -1.
         -2   -1    0    0    0  501 -0.00000000000E+00 -0.00000000000E+00 -0.12091028724E+02  0.12091028724E+02  0.00000000000E+00 0.  1.
          6    1    1    2  502    0  0.13144928779E+01 -0.40080141052E+02  0.24475897478E+04  0.24539534875E+04  0.17200000000E+03 0. -1.
         -6    1    1    2    0  501 -0.13144928779E+01  0.40080141052E+02  0.86637396703E+03  0.88419228471E+03  0.17200000000E+03 0.  1.
</event>
<event>
 4    1  0.3205520E-002  0.2221257E+03  0.7818608E-02  0.1132308E+00
         -2   -1    0    0    0  501 -0.00000000000E+00  0.00000000000E+00  0.17101493100E+03  0.17101493100E+03  0.00000000000E+00 0.  1.
          2   -1    0    0  502    0  0.00000000000E+00 -0.00000000000E+00 -0.28933096766E+03  0.28933096766E+03  0.00000000000E+00 0. -1.
          6    1    1    2  502    0  0.24027146464E+02  0.13848661974E+03 -0.71404435525E+02  0.23332046851E+03  0.17200000000E+03 0. -1.
         -6    1    1    2    0  501 -0.24027146464E+02 -0.13848661974E+03 -0.46911601136E+02  0.22702543015E+03  0.17200000000E+03 0.  1.
</event>
<event>
 4    1  0.3205520E-002  0.2049354E+03  0.7818608E-02  0.1145641E+00
         -1   -1    0    0    0  501 -0.00000000000E+00  0.00000000000E+00  0.22101371840E+03  0.22101371840E+03  0.00000000000E+00 0.  1.
          1   -1    0    0  502    0  0.00000000000E+00 -0.00000000000E+00 -0.19469392434E+03  0.19469392434E+03  0.00000000000E+00 0. -1.
          6    1    1    2  502    0  0.10664011274E+03 -0.32286095995E+02 -0.19021993745E+02  0.20581628188E+03  0.17200000000E+03 0.  1.
         -6    1    1    2    0  501 -0.10664011274E+03  0.32286095995E+02  0.45341787805E+02  0.20989136085E+03  0.17200000000E+03 0.  1.
</event>
<event>
 4    1  0.3205520E-002  0.1750441E+03  0.7818608E-02  0.1172687E+00
         -2   -1    0    0    0  501 -0.00000000000E+00  0.00000000000E+00  0.50047469304E+02  0.50047469304E+02  0.00000000000E+00 0.  1.
          2   -1    0    0  502    0  0.00000000000E+00 -0.00000000000E+00 -0.75762345666E+03  0.75762345666E+03  0.00000000000E+00 0. -1.
          6    1    1    2  502    0 -0.21853540789E+02 -0.24059743294E+02 -0.17687750995E+03  0.24884955700E+03  0.17200000000E+03 0.  1.
         -6    1    1    2    0  501  0.21853540789E+02  0.24059743294E+02 -0.53069847740E+03  0.55882136896E+03  0.17200000000E+03 0. -1.
</event>
<event>
 4    1  0.3205520E-002  0.1967988E+03  0.7818608E-02  0.1152468E+00
          2   -1    0    0  502    0  0.00000000000E+00  0.00000000000E+00  0.24499803492E+03  0.24499803492E+03  0.00000000000E+00 0. -1.
         -2   -1    0    0    0  501 -0.00000000000E+00 -0.00000000000E+00 -0.53587928159E+03  0.53587928159E+03  0.00000000000E+00 0.  1.
          6    1    1    2  502    0 -0.57880431169E+02  0.76128970414E+02  0.18238944008E+03  0.26832009299E+03  0.17200000000E+03 0. -1.
         -6    1    1    2    0  501  0.57880431169E+02 -0.76128970414E+02 -0.47327068675E+03  0.51255722352E+03  0.17200000000E+03 0.  1.
</event>
<event>
 4    1  0.3205520E-002  0.6095033E+03  0.7818608E-02  0.9885883E-01
          1   -1    0    0  502    0  0.00000000000E+00  0.00000000000E+00  0.35386585534E+04  0.35386585534E+04  0.00000000000E+00 0. -1.
         -1   -1    0    0    0  501 -0.00000000000E+00 -0.00000000000E+00 -0.10524495256E+03  0.10524495256E+03  0.00000000000E+00 0.  1.
          6    1    1    2  502    0 -0.22426688577E+03 -0.54001360722E+03  0.16255820824E+04  0.17360908497E+04  0.17200000000E+03 0.  1.
         -6    1    1    2    0  501  0.22426688577E+03  0.54001360722E+03  0.18078315185E+04  0.19078126562E+04  0.17200000000E+03 0. -1.
</event>
<event>
 4    1  0.3205520E-002  0.2482959E+03  0.7818608E-02  0.1114387E+00
         -2   -1    0    0    0  501 -0.00000000000E+00  0.00000000000E+00  0.61356300148E+03  0.61356300148E+03  0.00000000000E+00 0.  1.
          2   -1    0    0  502    0  0.00000000000E+00 -0.00000000000E+00 -0.30580514574E+03  0.30580514574E+03  0.00000000000E+00 0. -1.
          6    1    1    2  502    0 -0.81821754212E+02  0.15928604178E+03  0.53054636510E+03  0.58577323948E+03  0.17200000000E+03 0.  1.
         -6    1    1    2    0  501  0.81821754212E+02 -0.15928604178E+03 -0.22278850935E+03  0.33359490774E+03  0.17200000000E+03 0. -1.
</event>
<event>
 4    1  0.3205520E-002  0.4106956E+03  0.7818608E-02  0.1040138E+00
          2   -1    0    0  502    0  0.00000000000E+00  0.00000000000E+00  0.88133650864E+03  0.88133650864E+03  0.00000000000E+00 0. -1.
         -2   -1    0    0    0  501 -0.00000000000E+00 -0.00000000000E+00 -0.21613100559E+03  0.21613100559E+03  0.00000000000E+00 0.  1.
          6    1    1    2  502    0  0.10598641057E+03  0.35756649240E+03  0.51829434864E+03  0.66128658503E+03  0.17200000000E+03 0. -1.
         -6    1    1    2    0  501 -0.10598641057E+03 -0.35756649240E+03  0.14691115441E+03  0.43618092920E+03  0.17200000000E+03 0.  1.
</event>
<event>
 4    1  0.3205520E-002  0.1779969E+03  0.7818608E-02  0.1169756E+00
          2   -1    0    0  502    0  0.00000000000E+00  0.00000000000E+00  0.71826961969E+03  0.71826961969E+03  0.00000000000E+00 0. -1.
         -2   -1    0    0    0  501 -0.00000000000E+00 -0.00000000000E+00 -0.59151504317E+02  0.59151504317E+02  0.00000000000E+00 0.  1.
          6    1    1    2  502    0 -0.40543376721E+02  0.21334111710E+02  0.13354449352E+03  0.22252424917E+03  0.17200000000E+03 0.  1.
         -6    1    1    2    0  501  0.40543376721E+02 -0.21334111710E+02  0.52557362185E+03  0.55489687483E+03  0.17200000000E+03 0. -1.
</event>
<event>
 4    1  0.3205520E-002  0.2466685E+03  0.7818608E-02  0.1115429E+00
         -2   -1    0    0    0  501 -0.00000000000E+00  0.00000000000E+00  0.13762503740E+03  0.13762503740E+03  0.00000000000E+00 0.  1.
          2   -1    0    0  502    0  0.00000000000E+00 -0.00000000000E+00 -0.70429592618E+03  0.70429592618E+03  0.00000000000E+00 0. -1.
          6    1    1    2  502    0 -0.14915186758E+03 -0.94947795111E+02 -0.54017900358E+03  0.59383391559E+03  0.17200000000E+03 0. -1.
         -6    1    1    2    0  501  0.14915186758E+03  0.94947795111E+02 -0.26491885203E+02  0.24808704799E+03  0.17200000000E+03 0.  1.
</event>
<event>
 4    1  0.3205520E-002  0.4615008E+03  0.7818608E-02  0.1024347E+00
          3   -1    0    0  502    0  0.00000000000E+00  0.00000000000E+00  0.53231317888E+03  0.53231317888E+03  0.00000000000E+00 0. -1.
         -3   -1    0    0    0  501 -0.00000000000E+00 -0.00000000000E+00 -0.45202854040E+03  0.45202854040E+03  0.00000000000E+00 0.  1.
          6    1    1    2  502    0  0.95825946978E+02  0.41739238551E+03  0.20694405781E+03  0.50577550223E+03  0.17200000000E+03 0. -1.
         -6    1    1    2    0  501 -0.95825946978E+02 -0.41739238551E+03 -0.12665941934E+03  0.47856621705E+03  0.17200000000E+03 0.  1.
</event>
<event>
 4    1  0.3205520E-002  0.2951791E+03  0.7818608E-02  0.1087676E+00
         -4   -1    0    0    0  501 -0.00000000000E+00  0.00000000000E+00  0.43923091921E+03  0.43923091921E+03  0.00000000000E+00 0.  1.
          4   -1    0    0  502    0  0.00000000000E+00 -0.00000000000E+00 -0.21962657509E+03  0.21962657509E+03  0.00000000000E+00 0. -1.
          6    1    1    2  502    0  0.35693709604E+02 -0.23721858451E+03  0.73184264085E+01  0.29526980392E+03  0.17200000000E+03 0. -1.
         -6    1    1    2    0  501 -0.35693709604E+02  0.23721858451E+03  0.21228591771E+03  0.36358769038E+03  0.17200000000E+03 0.  1.
</event>
<event>
 4    1  0.3205520E-002  0.2284185E+03  0.7818608E-02  0.1127758E+00
          1   -1    0    0  502    0  0.00000000000E+00  0.00000000000E+00  0.10657867408E+04  0.10657867408E+04  0.00000000000E+00 0. -1.
         -1   -1    0    0    0  501 -0.00000000000E+00 -0.00000000000E+00 -0.49623726697E+02  0.49623726697E+02  0.00000000000E+00 0.  1.
          6    1    1    2  502    0  0.10735580633E+03  0.10519377453E+03  0.57285006242E+03  0.61671078583E+03  0.17200000000E+03 0. -1.
         -6    1    1    2    0  501 -0.10735580633E+03 -0.10519377453E+03  0.44331295164E+03  0.49869968162E+03  0.17200000000E+03 0.  1.
</event>
<event>
 4    1  0.3205520E-002  0.1992070E+03  0.7818608E-02  0.1150410E+00
         -1   -1    0    0    0  501 -0.00000000000E+00  0.00000000000E+00  0.16932703904E+02  0.16932703904E+02  0.00000000000E+00 0.  1.
          1   -1    0    0  502    0  0.00000000000E+00 -0.00000000000E+00 -0.23950031938E+04  0.23950031938E+04  0.00000000000E+00 0. -1.
          6    1    1    2  502    0  0.93756645497E+02 -0.36181715587E+02 -0.10123530951E+04  0.10317665503E+04  0.17200000000E+03 0.  1.
         -6    1    1    2    0  501 -0.93756645497E+02  0.36181715587E+02 -0.13657173948E+04  0.13801693474E+04  0.17200000000E+03 0.  1.
</event>
<event>
 4    1  0.3205520E-002  0.2515551E+03  0.7818608E-02  0.1112326E+00
         -2   -1    0    0    0  501 -0.00000000000E+00  0.00000000000E+00  0.89968885693E+02  0.89968885693E+02  0.00000000000E+00 0.  1.
          2   -1    0    0  502    0  0.00000000000E+00 -0.00000000000E+00 -0.76932441858E+03  0.76932441858E+03  0.00000000000E+00 0. -1.
          6    1    1    2  502    0 -0.11822444902E+03 -0.14042418206E+03 -0.21386304706E+03  0.33017779173E+03  0.17200000000E+03 0. -1.
         -6    1    1    2    0  501  0.11822444902E+03  0.14042418206E+03 -0.46549248582E+03  0.52911551254E+03  0.17200000000E+03 0. -1.
</event>
<event>
 4    1  0.3205520E-002  0.2195503E+03  0.7818608E-02  0.1134219E+00
         -1   -1    0    0    0  501 -0.00000000000E+00  0.00000000000E+00  0.98189538151E+02  0.98189538151E+02  0.00000000000E+00 0.  1.
          1   -1    0    0  502    0  0.00000000000E+00 -0.00000000000E+00 -0.55531737281E+03  0.55531737281E+03  0.00000000000E+00 0. -1.
          6    1    1    2  502    0 -0.77393480108E+02 -0.11237698855E+03 -0.33984299066E+03  0.40459312478E+03  0.17200000000E+03 0. -1.
         -6    1    1    2    0  501  0.77393480108E+02  0.11237698855E+03 -0.11728484400E+03  0.24891378618E+03  0.17200000000E+03 0. -1.
</event>
<event>
 4    1  0.3205520E-002  0.2773146E+03  0.7818608E-02  0.1097165E+00
         -2   -1    0    0    0  501 -0.00000000000E+00  0.00000000000E+00  0.47545123735E+02  0.47545123735E+02  0.00000000000E+00 0.  1.
          2   -1    0    0  502    0  0.00000000000E+00 -0.00000000000E+00 -0.16315818504E+04  0.16315818504E+04  0.00000000000E+00 0. -1.
          6    1    1    2  502    0  0.46913947994E+01 -0.21747958135E+03 -0.87006564249E+03  0.91319088899E+03  0.17200000000E+03 0. -1.
         -6    1    1    2    0  501 -0.46913947994E+01  0.21747958135E+03 -0.71397108419E+03  0.76593608516E+03  0.17200000000E+03 0.  1.
</event>
<event>
 4    1  0.3205520E-002  0.3992516E+03  0.7818608E-02  0.1044039E+00
         -1   -1    0    0    0  501 -0.00000000000E+00  0.00000000000E+00  0.24061515177E+03  0.24061515177E+03  0.00000000000E+00 0.  1.
          1   -1    0    0  502    0  0.00000000000E+00 -0.00000000000E+00 -0.16605910299E+04  0.16605910299E+04  0.00000000000E+00 0. -1.
          6    1    1    2  502    0  0.35613556441E+03 -0.54637665818E+02 -0.14469720578E+04  0.15010429543E+04  0.17200000000E+03 0. -1.
         -6    1    1    2    0  501 -0.35613556441E+03  0.54637665818E+02  0.26996179684E+02  0.40016322729E+03  0.17200000000E+03 0.  1.
</event>
<event>
 4    1  0.3205520E-002  0.1838005E+03  0.7818608E-02  0.1164175E+00
         -2   -1    0    0    0  501 -0.00000000000E+00  0.00000000000E+00  0.29032440503E+02  0.29032440503E+02  0.00000000000E+00 0.  1.
          2   -1    0    0  502    0  0.00000000000E+00 -0.00000000000E+00 -0.11640818745E+04  0.11640818745E+04  0.00000000000E+00 0. -1.
          6    1    1    2  502    0  0.30967664762E+02  0.56917687708E+02 -0.55559363035E+03  0.58520671691E+03  0.17200000000E+03 0.  1.
         -6    1    1    2    0  501 -0.30967664762E+02 -0.56917687708E+02 -0.57945580366E+03  0.60790759810E+03  0.17200000000E+03 0.  1.
</event>
<event>
 4    1  0.3205520E-002  0.3011635E+03  0.7818608E-02  0.1084660E+00
          2   -1    0    0  502    0  0.00000000000E+00  0.00000000000E+00  0.34318533160E+04  0.34318533160E+04  0.00000000000E+00 0. -1.
         -2   -1    0    0    0  501 -0.00000000000E+00 -0.00000000000E+00 -0.47804536102E+02  0.47804536102E+02  0.00000000000E+00 0.  1.
          6    1    1    2  502    0  0.75595117608E+02 -0.23537379454E+03  0.28554362310E+04  0.28712741970E+04  0.17200000000E+03 0. -1.
         -6    1    1    2    0  501 -0.75595117608E+02  0.23537379454E+03  0.52861254891E+03  0.60838365513E+03  0.17200000000E+03 0.  1.
</event>
<event>
 4    1  0.3205520E-002  0.2482723E+03  0.7818608E-02  0.1114402E+00
          2   -1    0    0  502    0  0.00000000000E+00  0.00000000000E+00  0.10436871938E+04  0.10436871938E+04  0.00000000000E+00 0. -1.
         -2   -1    0    0    0  501 -0.00000000000E+00 -0.00000000000E+00 -0.63612111017E+02  0.63612111017E+02  0.00000000000E+00 0.  1.
          6    1    1    2  502    0 -0.10187457281E+03  0.14723015707E+03  0.63815903081E+03  0.68475258038E+03  0.17200000000E+03 0. -1.
         -6    1    1    2    0  501  0.10187457281E+03 -0.14723015707E+03  0.34191605199E+03  0.42254672445E+03  0.17200000000E+03 0.  1.
</event>
<event>
 4    1  0.3205520E-002  0.2892102E+03  0.7818608E-02  0.1090762E+00
         -2   -1    0    0    0  501 -0.00000000000E+00  0.00000000000E+00  0.25608695917E+04  0.25608695917E+04  0.00000000000E+00 0.  1.
          2   -1    0    0  502    0  0.00000000000E+00 -0.00000000000E+00 -0.48210051003E+02  0.48210051003E+02  0.00000000000E+00 0. -1.
          6    1    1    2  502    0  0.19143291737E+03 -0.13195445853E+03  0.51548077651E+03  0.59106934613E+03  0.17200000000E+03 0. -1.
         -6    1    1    2    0  501 -0.19143291737E+03  0.13195445853E+03  0.19971787641E+04  0.20180102965E+04  0.17200000000E+03 0.  1.
</event>
<event>
 4    1  0.3205520E-002  0.2261675E+03  0.7818608E-02  0.1129367E+00
          2   -1    0    0  502    0  0.00000000000E+00  0.00000000000E+00  0.31652622886E+03  0.31652622886E+03  0.00000000000E+00 0. -1.
         -2   -1    0    0    0  501 -0.00000000000E+00 -0.00000000000E+00 -0.16167789152E+03  0.16167789152E+03  0.00000000000E+00 0.  1.
          6    1    1    2  502    0  0.80335048180E+02 -0.12293905072E+03  0.72293550672E+02  0.23744070339E+03  0.17200000000E+03 0. -1.
         -6    1    1    2    0  501 -0.80335048180E+02  0.12293905072E+03  0.82554786658E+02  0.24076341699E+03  0.17200000000E+03 0.  1.
</event>
<event>
 4    1  0.3205520E-002  0.2757195E+03  0.7818608E-02  0.1098050E+00
         -3   -1    0    0    0  501 -0.00000000000E+00  0.00000000000E+00  0.59082786906E+03  0.59082786906E+03  0.00000000000E+00 0.  1.
          3   -1    0    0  502    0  0.00000000000E+00 -0.00000000000E+00 -0.16109314894E+03  0.16109314894E+03  0.00000000000E+00 0. -1.
          6    1    1    2  502    0 -0.15114611416E+03 -0.15359715610E+03  0.38353740130E+03  0.47235809762E+03  0.17200000000E+03 0. -1.
         -6    1    1    2    0  501  0.15114611416E+03  0.15359715610E+03  0.46197318827E+02  0.27956292039E+03  0.17200000000E+03 0.  1.
</event>
<event>
 4    1  0.3205520E-002  0.2667266E+03  0.7818608E-02  0.1103168E+00
          1   -1    0    0  502    0  0.00000000000E+00  0.00000000000E+00  0.23738578079E+03  0.23738578079E+03  0.00000000000E+00 0. -1.
         -1   -1    0    0    0  501 -0.00000000000E+00 -0.00000000000E+00 -0.49461763961E+03  0.49461763961E+03  0.00000000000E+00 0.  1.
          6    1    1    2  502    0 -0.20385859087E+03  0.85741641705E+00 -0.35837926618E+03  0.44674238512E+03  0.17200000000E+03 0.  1.
         -6    1    1    2    0  501  0.20385859087E+03 -0.85741641705E+00  0.10114740737E+03  0.28526103528E+03  0.17200000000E+03 0. -1.
</event>
<event>
 4    1  0.3205520E-002  0.2579504E+03  0.7818608E-02  0.1108381E+00
          2   -1    0    0  502    0  0.00000000000E+00  0.00000000000E+00  0.11874169287E+04  0.11874169287E+04  0.00000000000E+00 0. -1.
         -2   -1    0    0    0  501 -0.00000000000E+00 -0.00000000000E+00 -0.72151649863E+02  0.72151649863E+02  0.00000000000E+00 0.  1.
          6    1    1    2  502    0 -0.31831758117E+02  0.18958149549E+03  0.85527112877E+03  0.89332363003E+03  0.17200000000E+03 0. -1.
         -6    1    1    2    0  501  0.31831758117E+02 -0.18958149549E+03  0.25999415006E+03  0.36624494853E+03  0.17200000000E+03 0.  1.
</event>
<event>
 4    1  0.3205520E-002  0.5937019E+03  0.7818608E-02  0.9918560E-01
         -1   -1    0    0    0  501 -0.00000000000E+00  0.00000000000E+00  0.31194995339E+03  0.31194995339E+03  0.00000000000E+00 0.  1.
          1   -1    0    0  502    0  0.00000000000E+00 -0.00000000000E+00 -0.13951568316E+04  0.13951568316E+04  0.00000000000E+00 0. -1.
          6    1    1    2  502    0  0.22451481490E+03  0.52200669990E+03 -0.91376126477E+03  0.10896979150E+04  0.17200000000E+03 0. -1.
         -6    1    1    2    0  501 -0.22451481490E+03 -0.52200669990E+03 -0.16944561341E+03  0.61740887000E+03  0.17200000000E+03 0.  1.
</event>
<event>
 4    1  0.3205520E-002  0.1774972E+03  0.7818608E-02  0.1170247E+00
         -1   -1    0    0    0  501 -0.00000000000E+00  0.00000000000E+00  0.14529283925E+03  0.14529283925E+03  0.00000000000E+00 0.  1.
          1   -1    0    0  502    0  0.00000000000E+00 -0.00000000000E+00 -0.26663299671E+03  0.26663299671E+03  0.00000000000E+00 0. -1.
          6    1    1    2  502    0  0.20350068012E+02 -0.38821996074E+02 -0.14967561479E+03  0.23218109809E+03  0.17200000000E+03 0. -1.
         -6    1    1    2    0  501 -0.20350068012E+02  0.38821996074E+02  0.28335457331E+02  0.17974473786E+03  0.17200000000E+03 0.  1.
</event>
<event>
 4    1  0.3205520E-002  0.5840797E+03  0.7818608E-02  0.9938997E-01
         -1   -1    0    0    0  501 -0.00000000000E+00  0.00000000000E+00  0.10678256083E+03  0.10678256083E+03  0.00000000000E+00 0.  1.
          1   -1    0    0  502    0  0.00000000000E+00 -0.00000000000E+00 -0.38781595492E+04  0.38781595492E+04  0.00000000000E+00 0. -1.
          6    1    1    2  502    0 -0.50356490400E+03  0.24080588583E+03 -0.27220679125E+04  0.27840263661E+04  0.17200000000E+03 0. -1.
         -6    1    1    2    0  501  0.50356490400E+03 -0.24080588583E+03 -0.10493090759E+04  0.12009157439E+04  0.17200000000E+03 0.  1.
</event>
<event>
 4    1  0.3205520E-002  0.2103382E+03  0.7818608E-02  0.1141298E+00
          3   -1    0    0  502    0  0.00000000000E+00  0.00000000000E+00  0.40506801023E+03  0.40506801023E+03  0.00000000000E+00 0. -1.
         -3   -1    0    0    0  501 -0.00000000000E+00 -0.00000000000E+00 -0.14841366855E+03  0.14841366855E+03  0.00000000000E+00 0.  1.
          6    1    1    2  502    0  0.11467374866E+03  0.38834401596E+02  0.27053887905E+03  0.34268566421E+03  0.17200000000E+03 0. -1.
         -6    1    1    2    0  501 -0.11467374866E+03 -0.38834401596E+02 -0.13884537370E+02  0.21079601457E+03  0.17200000000E+03 0.  1.
</event>
<event>
 4    1  0.3205520E-002  0.3220655E+03  0.7818608E-02  0.1074703E+00
         -1   -1    0    0    0  501 -0.00000000000E+00  0.00000000000E+00  0.64488797815E+02  0.64488797815E+02  0.00000000000E+00 0.  1.
          1   -1    0    0  502    0  0.00000000000E+00 -0.00000000000E+00 -0.16497045100E+04  0.16497045100E+04  0.00000000000E+00 0. -1.
          6    1    1    2  502    0  0.23724521104E+03  0.13362964294E+03 -0.92816755471E+03  0.98245670706E+03  0.17200000000E+03 0. -1.
         -6    1    1    2    0  501 -0.23724521104E+03 -0.13362964294E+03 -0.65704815743E+03  0.73173660071E+03  0.17200000000E+03 0.  1.
</event>
<event>
 4    1  0.3205520E-002  0.2048755E+03  0.7818608E-02  0.1145690E+00
          2   -1    0    0  502    0  0.00000000000E+00  0.00000000000E+00  0.60790616104E+03  0.60790616104E+03  0.00000000000E+00 0. -1.
         -2   -1    0    0    0  501 -0.00000000000E+00 -0.00000000000E+00 -0.19559350598E+03  0.19559350598E+03  0.00000000000E+00 0.  1.
          6    1    1    2  502    0 -0.11082199287E+03  0.10413880863E+02  0.52930616838E+03  0.56757288774E+03  0.17200000000E+03 0. -1.
         -6    1    1    2    0  501  0.11082199287E+03 -0.10413880863E+02 -0.11699351333E+03  0.23592677927E+03  0.17200000000E+03 0.  1.
</event>
<event>
 4    1  0.3205520E-002  0.2254763E+03  0.7818608E-02  0.1129865E+00
         -1   -1    0    0    0  501 -0.00000000000E+00  0.00000000000E+00  0.99435106498E+03  0.99435106498E+03  0.00000000000E+00 0.  1.
          1   -1    0    0  502    0  0.00000000000E+00 -0.00000000000E+00 -0.53822163113E+02  0.53822163113E+02  0.00000000000E+00 0. -1.
          6    1    1    2  502    0 -0.54059919250E+02 -0.13539972003E+03  0.58751201008E+03  0.62929319164E+03  0.17200000000E+03 0. -1.
         -6    1    1    2    0  501  0.54059919250E+02  0.13539972003E+03  0.35301689179E+03  0.41888003646E+03  0.17200000000E+03 0.  1.
</event>
<event>
 4    1  0.3205520E-002  0.2743261E+03  0.7818608E-02  0.1098829E+00
         -1   -1    0    0    0  501 -0.00000000000E+00  0.00000000000E+00  0.12416164458E+03  0.12416164458E+03  0.00000000000E+00 0.  1.
          1   -1    0    0  502    0  0.00000000000E+00 -0.00000000000E+00 -0.61519886213E+03  0.61519886213E+03  0.00000000000E+00 0. -1.
          6    1    1    2  502    0 -0.64395123120E+02  0.20377457477E+03 -0.20056877075E+03  0.33982736942E+03  0.17200000000E+03 0.  1.
         -6    1    1    2    0  501  0.64395123120E+02 -0.20377457477E+03 -0.29046844680E+03  0.39953313729E+03  0.17200000000E+03 0. -1.
</event>
<event>
 4    1  0.3205520E-002  0.1947560E+03  0.7818608E-02  0.1154240E+00
          2   -1    0    0  502    0  0.00000000000E+00  0.00000000000E+00  0.77260201915E+03  0.77260201915E+03  0.00000000000E+00 0. -1.
         -2   -1    0    0    0  501 -0.00000000000E+00 -0.00000000000E+00 -0.20205953151E+03  0.20205953151E+03  0.00000000000E+00 0.  1.
          6    1    1    2  502    0  0.33266076203E+01 -0.91295414094E+02  0.70928635400E+03  0.73553861281E+03  0.17200000000E+03 0. -1.
         -6    1    1    2    0  501 -0.33266076203E+01  0.91295414094E+02 -0.13874386636E+03  0.23912293785E+03  0.17200000000E+03 0.  1.
</event>
<event>
 4    1  0.3205520E-002  0.1994362E+03  0.7818608E-02  0.1150216E+00
         -2   -1    0    0    0  501 -0.00000000000E+00  0.00000000000E+00  0.12290395690E+03  0.12290395690E+03  0.00000000000E+00 0.  1.
          2   -1    0    0  502    0  0.00000000000E+00 -0.00000000000E+00 -0.69120121951E+03  0.69120121951E+03  0.00000000000E+00 0. -1.
          6    1    1    2  502    0  0.43353046404E+02  0.91166361743E+02 -0.58098832884E+03  0.61426560248E+03  0.17200000000E+03 0. -1.
         -6    1    1    2    0  501 -0.43353046404E+02 -0.91166361743E+02  0.12691066225E+02  0.19983957393E+03  0.17200000000E+03 0.  1.
</event>
<event>
 4    1  0.3205520E-002  0.2032223E+03  0.7818608E-02  0.1147048E+00
          1   -1    0    0  502    0  0.00000000000E+00  0.00000000000E+00  0.15337931047E+04  0.15337931047E+04  0.00000000000E+00 0. -1.
         -1   -1    0    0    0  501 -0.00000000000E+00 -0.00000000000E+00 -0.34105776519E+02  0.34105776519E+02  0.00000000000E+00 0.  1.
          6    1    1    2  502    0  0.98142161827E+02 -0.45644666885E+02  0.11095280066E+04  0.11279856901E+04  0.17200000000E+03 0. -1.
         -6    1    1    2    0  501 -0.98142161827E+02  0.45644666885E+02  0.39015932160E+03  0.43991319118E+03  0.17200000000E+03 0.  1.
</event>
<event>
 4    1  0.3205520E-002  0.1794353E+03  0.7818608E-02  0.1168351E+00
          1   -1    0    0  502    0  0.00000000000E+00  0.00000000000E+00  0.10803582049E+04  0.10803582049E+04  0.00000000000E+00 0. -1.
         -1   -1    0    0    0  501 -0.00000000000E+00 -0.00000000000E+00 -0.78191545844E+02  0.78191545844E+02  0.00000000000E+00 0.  1.
          6    1    1    2  502    0 -0.50925295938E+02  0.44333470231E+01  0.95678404869E+03  0.97346430657E+03  0.17200000000E+03 0. -1.
         -6    1    1    2    0  501  0.50925295938E+02 -0.44333470231E+01  0.45382610399E+02  0.18508544421E+03  0.17200000000E+03 0.  1.
</event>
<event>
 4    1  0.3205520E-002  0.4524568E+03  0.7818608E-02  0.1026992E+00
          2   -1    0    0  502    0  0.00000000000E+00  0.00000000000E+00  0.53760647001E+03  0.53760647001E+03  0.00000000000E+00 0. -1.
         -2   -1    0    0    0  501 -0.00000000000E+00 -0.00000000000E+00 -0.12549748458E+04  0.12549748458E+04  0.00000000000E+00 0.  1.
          6    1    1    2  502    0  0.17782408169E+03 -0.37882941711E+03  0.38936832945E+03  0.59692949942E+03  0.17200000000E+03 0. -1.
         -6    1    1    2    0  501 -0.17782408169E+03  0.37882941711E+03 -0.11067367052E+04  0.11956518164E+04  0.17200000000E+03 0.  1.
</event>
<event>
 4    1  0.3205520E-002  0.3428160E+03  0.7818608E-02  0.1065603E+00
          2   -1    0    0  502    0  0.00000000000E+00  0.00000000000E+00  0.29066167265E+04  0.29066167265E+04  0.00000000000E+00 0. -1.
         -2   -1    0    0    0  501 -0.00000000000E+00 -0.00000000000E+00 -0.61456545277E+02  0.61456545277E+02  0.00000000000E+00 0.  1.
          6    1    1    2  502    0  0.16933785009E+03 -0.24344096474E+03  0.22905707112E+04  0.23160822511E+04  0.17200000000E+03 0. -1.
         -6    1    1    2    0  501 -0.16933785009E+03  0.24344096474E+03  0.55458946994E+03  0.65199102061E+03  0.17200000000E+03 0.  1.
</event>
<event>
 4    1  0.3205520E-002  0.2244696E+03  0.7818608E-02  0.1130594E+00
         -1   -1    0    0    0  501 -0.00000000000E+00  0.00000000000E+00  0.48580508037E+02  0.48580508037E+02  0.00000000000E+00 0.  1.
          1   -1    0    0  502    0  0.00000000000E+00 -0.00000000000E+00 -0.12081628986E+04  0.12081628986E+04  0.00000000000E+00 0. -1.
          6    1    1    2  502    0 -0.12635540978E+03  0.69547944713E+02 -0.34339881098E+03  0.41025522492E+03  0.17200000000E+03 0.  1.
         -6    1    1    2    0  501  0.12635540978E+03 -0.69547944713E+02 -0.81618357954E+03  0.84648818167E+03  0.17200000000E+03 0.  1.
</event>
<event>
 4    1  0.3205520E-002  0.2024933E+03  0.7818608E-02  0.1147652E+00
         -2   -1    0    0    0  501 -0.00000000000E+00  0.00000000000E+00  0.28000694208E+02  0.28000694208E+02  0.00000000000E+00 0.  1.
          2   -1    0    0  502    0  0.00000000000E+00 -0.00000000000E+00 -0.15062511648E+04  0.15062511648E+04  0.00000000000E+00 0. -1.
          6    1    1    2  502    0 -0.22164785498E+02  0.10453827420E+03 -0.86703367748E+03  0.89036561387E+03  0.17200000000E+03 0. -1.
         -6    1    1    2    0  501  0.22164785498E+02 -0.10453827420E+03 -0.61121679311E+03  0.64388624513E+03  0.17200000000E+03 0. -1.
</event>
<event>
 4    1  0.3205520E-002  0.2376355E+03  0.7818608E-02  0.1121378E+00
          2   -1    0    0  502    0  0.00000000000E+00  0.00000000000E+00  0.45075924148E+03  0.45075924148E+03  0.00000000000E+00 0. -1.
         -2   -1    0    0    0  501 -0.00000000000E+00 -0.00000000000E+00 -0.16448339034E+03  0.16448339034E+03  0.00000000000E+00 0.  1.
          6    1    1    2  502    0 -0.12979881250E+03  0.10019439977E+03  0.29332168411E+03  0.37750266203E+03  0.17200000000E+03 0. -1.
         -6    1    1    2    0  501  0.12979881250E+03 -0.10019439977E+03 -0.70458329722E+01  0.23773996979E+03  0.17200000000E+03 0.  1.
</event>
<event>
 4    1  0.3205520E-002  0.2036352E+03  0.7818608E-02  0.1146708E+00
         -1   -1    0    0    0  501 -0.00000000000E+00  0.00000000000E+00  0.93440943918E+03  0.93440943918E+03  0.00000000000E+00 0.  1.
          1   -1    0    0  502    0  0.00000000000E+00 -0.00000000000E+00 -0.45429455361E+02  0.45429455361E+02  0.00000000000E+00 0. -1.
          6    1    1    2  502    0  0.10765808683E+03 -0.17118306568E+02  0.36995948135E+03  0.42230003306E+03  0.17200000000E+03 0. -1.
         -6    1    1    2    0  501 -0.10765808683E+03  0.17118306568E+02  0.51902050247E+03  0.55753886148E+03  0.17200000000E+03 0.  1.
</event>
<event>
 4    1  0.3205520E-002  0.3350449E+03  0.7818608E-02  0.1068926E+00
         -2   -1    0    0    0  501 -0.00000000000E+00  0.00000000000E+00  0.11068932900E+03  0.11068932900E+03  0.00000000000E+00 0.  1.
          2   -1    0    0  502    0  0.00000000000E+00 -0.00000000000E+00 -0.12275050143E+04  0.12275050143E+04  0.00000000000E+00 0. -1.
          6    1    1    2  502    0 -0.26175085713E+03  0.11898556832E+03 -0.83736251456E+03  0.90190412876E+03  0.17200000000E+03 0. -1.
         -6    1    1    2    0  501  0.26175085713E+03 -0.11898556832E+03 -0.27945317074E+03  0.43629021455E+03  0.17200000000E+03 0.  1.
</event>
<event>
 4    1  0.3205520E-002  0.4051915E+03  0.7818608E-02  0.1041997E+00
          2   -1    0    0  502    0  0.00000000000E+00  0.00000000000E+00  0.32422026883E+03  0.32422026883E+03  0.00000000000E+00 0. -1.
         -2   -1    0    0    0  501 -0.00000000000E+00 -0.00000000000E+00 -0.68178121421E+03  0.68178121421E+03  0.00000000000E+00 0.  1.
          6    1    1    2  502    0  0.31705651294E+03  0.18458426446E+03  0.76346626352E+02  0.41232146493E+03  0.17200000000E+03 0. -1.
         -6    1    1    2    0  501 -0.31705651294E+03 -0.18458426446E+03 -0.43390757173E+03  0.59368001810E+03  0.17200000000E+03 0.  1.
</event>
<event>
 4    1  0.3205520E-002  0.2251136E+03  0.7818608E-02  0.1130127E+00
          2   -1    0    0  502    0  0.00000000000E+00  0.00000000000E+00  0.17348488793E+04  0.17348488793E+04  0.00000000000E+00 0. -1.
         -2   -1    0    0    0  501 -0.00000000000E+00 -0.00000000000E+00 -0.51699338059E+02  0.51699338059E+02  0.00000000000E+00 0.  1.
          6    1    1    2  502    0 -0.12974505602E+03  0.65256006542E+02  0.14307221730E+04  0.14483238803E+04  0.17200000000E+03 0. -1.
         -6    1    1    2    0  501  0.12974505602E+03 -0.65256006542E+02  0.25242736832E+03  0.33822433713E+03  0.17200000000E+03 0.  1.
</event>
<event>
 4    1  0.3205520E-002  0.2370492E+03  0.7818608E-02  0.1121774E+00
          2   -1    0    0  502    0  0.00000000000E+00  0.00000000000E+00  0.82056824352E+03  0.82056824352E+03  0.00000000000E+00 0. -1.
         -2   -1    0    0    0  501 -0.00000000000E+00 -0.00000000000E+00 -0.77947203263E+02  0.77947203263E+02  0.00000000000E+00 0.  1.
          6    1    1    2  502    0  0.13464065141E+03 -0.92088201001E+02  0.52788137724E+03  0.57866319238E+03  0.17200000000E+03 0. -1.
         -6    1    1    2    0  501 -0.13464065141E+03  0.92088201001E+02  0.21473966301E+03  0.31985225440E+03  0.17200000000E+03 0.  1.
</event>
<event>
 4    1  0.3205520E-002  0.2192878E+03  0.7818608E-02  0.1134415E+00
         -1   -1    0    0    0  501 -0.00000000000E+00  0.00000000000E+00  0.29099040609E+02  0.29099040609E+02  0.00000000000E+00 0.  1.
          1   -1    0    0  502    0  0.00000000000E+00 -0.00000000000E+00 -0.17939899747E+04  0.17939899747E+04  0.00000000000E+00 0. -1.
          6    1    1    2  502    0  0.88938048941E+02 -0.10292314161E+03 -0.62648154869E+03  0.66375167079E+03  0.17200000000E+03 0.  1.
         -6    1    1    2    0  501 -0.88938048941E+02  0.10292314161E+03 -0.11384093854E+04  0.11593373445E+04  0.17200000000E+03 0.  1.
</event>
<event>
 4    1  0.3205520E-002  0.2927978E+03  0.7818608E-02  0.1088897E+00
          2   -1    0    0  502    0  0.00000000000E+00  0.00000000000E+00  0.16032868339E+04  0.16032868339E+04  0.00000000000E+00 0. -1.
         -2   -1    0    0    0  501 -0.00000000000E+00 -0.00000000000E+00 -0.59394163832E+02  0.59394163832E+02  0.00000000000E+00 0.  1.
          6    1    1    2  502    0  0.15474332871E+03 -0.17944653750E+03  0.10344626601E+04  0.10751016477E+04  0.17200000000E+03 0. -1.
         -6    1    1    2    0  501 -0.15474332871E+03  0.17944653750E+03  0.50943000990E+03  0.58757935003E+03  0.17200000000E+03 0.  1.
</event>
<event>
 4    1  0.3205520E-002  0.2964185E+03  0.7818608E-02  0.1087045E+00
          1   -1    0    0  502    0  0.00000000000E+00  0.00000000000E+00  0.45483546797E+03  0.45483546797E+03  0.00000000000E+00 0. -1.
         -1   -1    0    0    0  501 -0.00000000000E+00 -0.00000000000E+00 -0.20403077806E+03  0.20403077806E+03  0.00000000000E+00 0.  1.
          6    1    1    2  502    0 -0.17079055236E+03  0.17061809361E+03  0.49421994627E+02  0.30051036620E+03  0.17200000000E+03 0. -1.
         -6    1    1    2    0  501  0.17079055236E+03 -0.17061809361E+03  0.20138269529E+03  0.35835587982E+03  0.17200000000E+03 0.  1.
</event>
<event>
 4    1  0.3205520E-002  0.2694247E+03  0.7818608E-02  0.1101609E+00
          4   -1    0    0  502    0  0.00000000000E+00  0.00000000000E+00  0.18712438575E+03  0.18712438575E+03  0.00000000000E+00 0. -1.
         -4   -1    0    0    0  501 -0.00000000000E+00 -0.00000000000E+00 -0.39477190699E+03  0.39477190699E+03  0.00000000000E+00 0.  1.
          6    1    1    2  502    0 -0.86308439358E+02  0.18856435649E+03 -0.14214903510E+03  0.30462437759E+03  0.17200000000E+03 0.  1.
         -6    1    1    2    0  501  0.86308439358E+02 -0.18856435649E+03 -0.65498486132E+02  0.27727191515E+03  0.17200000000E+03 0.  1.
</event>
<event>
 4    1  0.3205520E-002  0.2281146E+03  0.7818608E-02  0.1127974E+00
         -2   -1    0    0    0  501 -0.00000000000E+00  0.00000000000E+00  0.41118378332E+02  0.41118378332E+02  0.00000000000E+00 0.  1.
          2   -1    0    0  502    0  0.00000000000E+00 -0.00000000000E+00 -0.13844767677E+04  0.13844767677E+04  0.00000000000E+00 0. -1.
          6    1    1    2  502    0 -0.10866297028E+03 -0.10317275120E+03 -0.46274366869E+03  0.51591468347E+03  0.17200000000E+03 0. -1.
         -6    1    1    2    0  501  0.10866297028E+03  0.10317275120E+03 -0.88061472063E+03  0.90968046252E+03  0.17200000000E+03 0.  1.
</event>
<event>
 4    1  0.3205520E-002  0.2245689E+03  0.7818608E-02  0.1130522E+00
          4   -1    0    0  502    0  0.00000000000E+00  0.00000000000E+00  0.55350195140E+03  0.55350195140E+03  0.00000000000E+00 0. -1.
         -4   -1    0    0    0  501 -0.00000000000E+00 -0.00000000000E+00 -0.12382360574E+03  0.12382360574E+03  0.00000000000E+00 0.  1.
          6    1    1    2  502    0 -0.68742998091E+01  0.14422184108E+03  0.38890373873E+03  0.44908497351E+03  0.17200000000E+03 0. -1.
         -6    1    1    2    0  501  0.68742998091E+01 -0.14422184108E+03  0.40774606938E+02  0.22824058362E+03  0.17200000000E+03 0.  1.
</event>
<event>
 4    1  0.3205520E-002  0.1779730E+03  0.7818608E-02  0.1169779E+00
         -1   -1    0    0    0  501 -0.00000000000E+00  0.00000000000E+00  0.91363218287E+02  0.91363218287E+02  0.00000000000E+00 0.  1.
          1   -1    0    0  502    0  0.00000000000E+00 -0.00000000000E+00 -0.37136366987E+03  0.37136366987E+03  0.00000000000E+00 0. -1.
          6    1    1    2  502    0  0.84393940808E+01  0.44935261041E+02 -0.80359617401E+02  0.19527434334E+03  0.17200000000E+03 0.  1.
         -6    1    1    2    0  501 -0.84393940808E+01 -0.44935261041E+02 -0.19964083418E+03  0.26745254482E+03  0.17200000000E+03 0. -1.
</event>
<event>
 4    1  0.3205520E-002  0.2661928E+03  0.7818608E-02  0.1103479E+00
         -2   -1    0    0    0  501 -0.00000000000E+00  0.00000000000E+00  0.33265585378E+03  0.33265585378E+03  0.00000000000E+00 0.  1.
          2   -1    0    0  502    0  0.00000000000E+00 -0.00000000000E+00 -0.50498627420E+03  0.50498627420E+03  0.00000000000E+00 0. -1.
          6    1    1    2  502    0  0.55997480554E+02 -0.19529173796E+03 -0.40463152302E+03  0.48434001504E+03  0.17200000000E+03 0. -1.
         -6    1    1    2    0  501 -0.55997480554E+02  0.19529173796E+03  0.23230110259E+03  0.35330211294E+03  0.17200000000E+03 0.  1.
</event>
<event>
 4    1  0.3205520E-002  0.8060731E+03  0.7818608E-02  0.9551268E-01
         -1   -1    0    0    0  501 -0.00000000000E+00  0.00000000000E+00  0.74006991823E+03  0.74006991823E+03  0.00000000000E+00 0.  1.
          1   -1    0    0  502    0  0.00000000000E+00 -0.00000000000E+00 -0.11508996819E+04  0.11508996819E+04  0.00000000000E+00 0. -1.
          6    1    1    2  502    0  0.75829024695E+03 -0.21252217368E+03 -0.66584849412E+03  0.10455180486E+04  0.17200000000E+03 0. -1.
         -6    1    1    2    0  501 -0.75829024695E+03  0.21252217368E+03  0.25501873049E+03  0.84545155144E+03  0.17200000000E+03 0.  1.
</event>
<event>
 4    1  0.3205520E-002  0.3039624E+03  0.7818608E-02  0.1083276E+00
          1   -1    0    0  502    0  0.00000000000E+00  0.00000000000E+00  0.82094521093E+03  0.82094521093E+03  0.00000000000E+00 0. -1.
         -1   -1    0    0    0  501 -0.00000000000E+00 -0.00000000000E+00 -0.11529635002E+03  0.11529635002E+03  0.00000000000E+00 0.  1.
          6    1    1    2  502    0  0.20616371613E+02  0.24976808425E+03  0.28050794721E+03  0.41361556926E+03  0.17200000000E+03 0. -1.
         -6    1    1    2    0  501 -0.20616371613E+02 -0.24976808425E+03  0.42514091370E+03  0.52262599170E+03  0.17200000000E+03 0.  1.
</event>
<event>
 4    1  0.3205520E-002  0.1970770E+03  0.7818608E-02  0.1152229E+00
         -2   -1    0    0    0  501 -0.00000000000E+00  0.00000000000E+00  0.30935556056E+02  0.30935556056E+02  0.00000000000E+00 0.  1.
          2   -1    0    0  502    0  0.00000000000E+00 -0.00000000000E+00 -0.15472339676E+04  0.15472339676E+04  0.00000000000E+00 0. -1.
          6    1    1    2  502    0  0.87917443088E+02 -0.39062283681E+02 -0.11007948531E+04  0.11182972089E+04  0.17200000000E+03 0. -1.
         -6    1    1    2    0  501 -0.87917443088E+02  0.39062283681E+02 -0.41550355843E+03  0.45987231475E+03  0.17200000000E+03 0.  1.
</event>
<event>
 4    1  0.3205520E-002  0.2382775E+03  0.7818608E-02  0.1120946E+00
         -2   -1    0    0    0  501 -0.00000000000E+00  0.00000000000E+00  0.62130466669E+03  0.62130466669E+03  0.00000000000E+00 0.  1.
          2   -1    0    0  502    0  0.00000000000E+00 -0.00000000000E+00 -0.10917880316E+03  0.10917880316E+03  0.00000000000E+00 0. -1.
          6    1    1    2  502    0 -0.15098655498E+03 -0.66296340959E+02  0.10860075880E+03  0.26185925499E+03  0.17200000000E+03 0. -1.
         -6    1    1    2    0  501  0.15098655498E+03  0.66296340959E+02  0.40352510473E+03  0.46862421486E+03  0.17200000000E+03 0.  1.
</event>
<event>
 4    1  0.3205520E-002  0.2768171E+03  0.7818608E-02  0.1097440E+00
         -1   -1    0    0    0  501 -0.00000000000E+00  0.00000000000E+00  0.40823010429E+02  0.40823010429E+02  0.00000000000E+00 0.  1.
          1   -1    0    0  502    0  0.00000000000E+00 -0.00000000000E+00 -0.22309655692E+04  0.22309655692E+04  0.00000000000E+00 0. -1.
          6    1    1    2  502    0  0.17460038218E+03  0.12867950397E+03 -0.15474770574E+04  0.15720410146E+04  0.17200000000E+03 0. -1.
         -6    1    1    2    0  501 -0.17460038218E+03 -0.12867950397E+03 -0.64266550132E+03  0.69974756505E+03  0.17200000000E+03 0.  1.
</event>
<event>
 4    1  0.3205520E-002  0.1753236E+03  0.7818608E-02  0.1172407E+00
         -1   -1    0    0    0  501 -0.00000000000E+00  0.00000000000E+00  0.19551182302E+03  0.19551182302E+03  0.00000000000E+00 0.  1.
          1   -1    0    0  502    0  0.00000000000E+00 -0.00000000000E+00 -0.18557967643E+03  0.18557967643E+03  0.00000000000E+00 0. -1.
          6    1    1    2  502    0  0.16319009659E+02 -0.29800532308E+02 -0.69521561867E+02  0.18860442563E+03  0.17200000000E+03 0. -1.
         -6    1    1    2    0  501 -0.16319009659E+02  0.29800532308E+02  0.79453708461E+02  0.19248707383E+03  0.17200000000E+03 0.  1.
</event>
<event>
 4    1  0.3205520E-002  0.2002005E+03  0.7818608E-02  0.1149570E+00
          2   -1    0    0  502    0  0.00000000000E+00  0.00000000000E+00  0.45765485495E+04  0.45765485495E+04  0.00000000000E+00 0. -1.
         -2   -1    0    0    0  501 -0.00000000000E+00 -0.00000000000E+00 -0.10574695685E+02  0.10574695685E+02  0.00000000000E+00 0.  1.
          6    1    1    2  502    0 -0.14703458107E+01  0.10244068535E+03  0.13322775813E+04  0.13472356177E+04  0.17200000000E+03 0.  1.
         -6    1    1    2    0  501  0.14703458107E+01 -0.10244068535E+03  0.32336962725E+04  0.32398876275E+04  0.17200000000E+03 0. -1.
</event>
<event>
 4    1  0.3205520E-002  0.5076858E+03  0.7818608E-02  0.1011792E+00
         -1   -1    0    0    0  501 -0.00000000000E+00  0.00000000000E+00  0.10452126516E+03  0.10452126516E+03  0.00000000000E+00 0.  1.
          1   -1    0    0  502    0  0.00000000000E+00 -0.00000000000E+00 -0.24707681908E+04  0.24707681908E+04  0.00000000000E+00 0. -1.
          6    1    1    2  502    0  0.38247836852E+03  0.28613143795E+03 -0.11263003474E+04  0.12354340835E+04  0.17200000000E+03 0. -1.
         -6    1    1    2    0  501 -0.38247836852E+03 -0.28613143795E+03 -0.12399465782E+04  0.13398553724E+04  0.17200000000E+03 0.  1.
</event>
<event>
 4    1  0.3205520E-002  0.1795020E+03  0.7818608E-02  0.1168286E+00
          1   -1    0    0  502    0  0.00000000000E+00  0.00000000000E+00  0.41280136811E+03  0.41280136811E+03  0.00000000000E+00 0. -1.
         -1   -1    0    0    0  501 -0.00000000000E+00 -0.00000000000E+00 -0.83934511378E+02  0.83934511378E+02  0.00000000000E+00 0.  1.
          6    1    1    2  502    0  0.27278101786E+02  0.43507017247E+02  0.23017176610E+03  0.29189038575E+03  0.17200000000E+03 0. -1.
         -6    1    1    2    0  501 -0.27278101786E+02 -0.43507017247E+02  0.98695090628E+02  0.20484549373E+03  0.17200000000E+03 0.  1.
</event>
<event>
 4    1  0.3205520E-002  0.2536950E+03  0.7818608E-02  0.1110992E+00
          1   -1    0    0  502    0  0.00000000000E+00  0.00000000000E+00  0.49609622241E+03  0.49609622241E+03  0.00000000000E+00 0. -1.
         -1   -1    0    0    0  501 -0.00000000000E+00 -0.00000000000E+00 -0.15850382945E+03  0.15850382945E+03  0.00000000000E+00 0.  1.
          6    1    1    2  502    0  0.16531954276E+03 -0.86293674632E+02  0.30823564030E+03  0.39921217347E+03  0.17200000000E+03 0.  1.
         -6    1    1    2    0  501 -0.16531954276E+03  0.86293674632E+02  0.29356752654E+02  0.25538787838E+03  0.17200000000E+03 0.  1.
</event>
<event>
 4    1  0.3205520E-002  0.3419426E+03  0.7818608E-02  0.1065972E+00
         -2   -1    0    0    0  501 -0.00000000000E+00  0.00000000000E+00  0.83586390207E+02  0.83586390207E+02  0.00000000000E+00 0.  1.
          2   -1    0    0  502    0  0.00000000000E+00 -0.00000000000E+00 -0.14682430760E+04  0.14682430760E+04  0.00000000000E+00 0. -1.
          6    1    1    2  502    0  0.22955416637E+03  0.18613330135E+03 -0.86101349608E+03  0.92642806606E+03  0.17200000000E+03 0. -1.
         -6    1    1    2    0  501 -0.22955416637E+03 -0.18613330135E+03 -0.52364318974E+03  0.62540140017E+03  0.17200000000E+03 0.  1.
</event>
<event>
 4    1  0.3205520E-002  0.1800817E+03  0.7818608E-02  0.1167724E+00
          1   -1    0    0  502    0  0.00000000000E+00  0.00000000000E+00  0.14371762529E+04  0.14371762529E+04  0.00000000000E+00 0. -1.
         -1   -1    0    0    0  501 -0.00000000000E+00 -0.00000000000E+00 -0.25041704190E+02  0.25041704190E+02  0.00000000000E+00 0.  1.
          6    1    1    2  502    0  0.48456835760E+02 -0.22301435627E+02  0.93600779020E+03  0.95317364750E+03  0.17200000000E+03 0. -1.
         -6    1    1    2    0  501 -0.48456835760E+02  0.22301435627E+02  0.47612675850E+03  0.50904430959E+03  0.17200000000E+03 0.  1.
</event>
<event>
 4    1  0.3205520E-002  0.1749518E+03  0.7818608E-02  0.1172780E+00
         -2   -1    0    0    0  501 -0.00000000000E+00  0.00000000000E+00  0.15088058543E+04  0.15088058543E+04  0.00000000000E+00 0.  1.
          2   -1    0    0  502    0  0.00000000000E+00 -0.00000000000E+00 -0.39499356762E+02  0.39499356762E+02  0.00000000000E+00 0. -1.
          6    1    1    2  502    0 -0.10745855058E+02 -0.30143689029E+02  0.19473302215E+03  0.26178056709E+03  0.17200000000E+03 0. -1.
         -6    1    1    2    0  501  0.10745855058E+02  0.30143689029E+02  0.12745734754E+04  0.12865246440E+04  0.17200000000E+03 0.  1.
</event>
<event>
 4    1  0.3205520E-002  0.1780925E+03  0.7818608E-02  0.1169662E+00
          2   -1    0    0  502    0  0.00000000000E+00  0.00000000000E+00  0.25674441150E+03  0.25674441150E+03  0.00000000000E+00 0. -1.
         -2   -1    0    0    0  501 -0.00000000000E+00 -0.00000000000E+00 -0.14105232655E+03  0.14105232655E+03  0.00000000000E+00 0.  1.
          6    1    1    2  502    0  0.41992240122E+02 -0.19225141508E+02 -0.12246755125E+02  0.17851312923E+03  0.17200000000E+03 0.  1.
         -6    1    1    2    0  501 -0.41992240122E+02  0.19225141508E+02  0.12793884007E+03  0.21928360882E+03  0.17200000000E+03 0. -1.
</event>
<event>
 4    1  0.3205520E-002  0.2514306E+03  0.7818608E-02  0.1112404E+00
         -2   -1    0    0    0  501 -0.00000000000E+00  0.00000000000E+00  0.50821340403E+02  0.50821340403E+02  0.00000000000E+00 0.  1.
          2   -1    0    0  502    0  0.00000000000E+00 -0.00000000000E+00 -0.13035608679E+04  0.13035608679E+04  0.00000000000E+00 0. -1.
          6    1    1    2  502    0  0.12441651256E+03 -0.13473624899E+03 -0.77122796672E+03  0.81117809515E+03  0.17200000000E+03 0. -1.
         -6    1    1    2    0  501 -0.12441651256E+03  0.13473624899E+03 -0.48151156076E+03  0.54320411315E+03  0.17200000000E+03 0.  1.
</event>
<event>
 4    1  0.3205520E-002  0.3174189E+03  0.7818608E-02  0.1076843E+00
         -2   -1    0    0    0  501 -0.00000000000E+00  0.00000000000E+00  0.62705598662E+02  0.62705598662E+02  0.00000000000E+00 0.  1.
          2   -1    0    0  502    0  0.00000000000E+00 -0.00000000000E+00 -0.18484800652E+04  0.18484800652E+04  0.00000000000E+00 0. -1.
          6    1    1    2  502    0 -0.23224757493E+01 -0.26676839254E+03 -0.12384240437E+04  0.12784556626E+04  0.17200000000E+03 0. -1.
         -6    1    1    2    0  501  0.23224757493E+01  0.26676839254E+03 -0.54735042284E+03  0.63273000129E+03  0.17200000000E+03 0.  1.
</event>
<event>
 4    1  0.3205520E-002  0.2223543E+03  0.7818608E-02  0.1132140E+00
         -2   -1    0    0    0  501 -0.00000000000E+00  0.00000000000E+00  0.26786916372E+02  0.26786916372E+02  0.00000000000E+00 0.  1.
          2   -1    0    0  502    0  0.00000000000E+00 -0.00000000000E+00 -0.18496525565E+04  0.18496525565E+04  0.00000000000E+00 0. -1.
          6    1    1    2  502    0  0.13815456065E+03  0.27762087239E+02 -0.95463862501E+03  0.98019198144E+03  0.17200000000E+03 0. -1.
         -6    1    1    2    0  501 -0.13815456065E+03 -0.27762087239E+02 -0.86822701512E+03  0.89624749144E+03  0.17200000000E+03 0.  1.
</event>
<event>
 4    1  0.3205520E-002  0.3525477E+03  0.7818608E-02  0.1061574E+00
         -1   -1    0    0    0  501 -0.00000000000E+00  0.00000000000E+00  0.10604168370E+04  0.10604168370E+04  0.00000000000E+00 0.  1.
          1   -1    0    0  502    0  0.00000000000E+00 -0.00000000000E+00 -0.12585537526E+03  0.12585537526E+03  0.00000000000E+00 0. -1.
          6    1    1    2  502    0 -0.20406753575E+02  0.30706583438E+03  0.31181016358E+03  0.47065426838E+03  0.17200000000E+03 0. -1.
         -6    1    1    2    0  501  0.20406753575E+02 -0.30706583438E+03  0.62275129816E+03  0.71561794388E+03  0.17200000000E+03 0.  1.
</event>
<event>
 4    1  0.3205520E-002  0.2423806E+03  0.7818608E-02  0.1118217E+00
          3   -1    0    0  502    0  0.00000000000E+00  0.00000000000E+00  0.64671818427E+03  0.64671818427E+03  0.00000000000E+00 0. -1.
         -3   -1    0    0    0  501 -0.00000000000E+00 -0.00000000000E+00 -0.95322375568E+02  0.95322375568E+02  0.00000000000E+00 0.  1.
          6    1    1    2  502    0 -0.54949216491E+02  0.16169397119E+03  0.35614652796E+03  0.43080007670E+03  0.17200000000E+03 0. -1.
         -6    1    1    2    0  501  0.54949216491E+02 -0.16169397119E+03  0.19524928075E+03  0.31124048314E+03  0.17200000000E+03 0.  1.
</event>
<event>
 4    1  0.3205520E-002  0.1869897E+03  0.7818608E-02  0.1161205E+00
         -1   -1    0    0    0  501 -0.00000000000E+00  0.00000000000E+00  0.13759699963E+03  0.13759699963E+03  0.00000000000E+00 0.  1.
          1   -1    0    0  502    0  0.00000000000E+00 -0.00000000000E+00 -0.37109100910E+03  0.37109100910E+03  0.00000000000E+00 0. -1.
          6    1    1    2  502    0 -0.73088182836E+02 -0.62661186807E+01 -0.25954888839E+03  0.31989181324E+03  0.17200000000E+03 0. -1.
         -6    1    1    2    0  501  0.73088182836E+02  0.62661186807E+01  0.26054878921E+02  0.18879619548E+03  0.17200000000E+03 0.  1.
</event>
<event>
 4    1  0.3205520E-002  0.1735730E+03  0.7818608E-02  0.1174172E+00
         -2   -1    0    0    0  501 -0.00000000000E+00  0.00000000000E+00  0.12319355228E+03  0.12319355228E+03  0.00000000000E+00 0.  1.
          2   -1    0    0  502    0  0.00000000000E+00 -0.00000000000E+00 -0.14123682955E+04  0.14123682955E+04  0.00000000000E+00 0. -1.
          6    1    1    2  502    0 -0.22286655315E+02 -0.68477009702E+01 -0.13427394979E+04  0.13539117199E+04  0.17200000000E+03 0. -1.
         -6    1    1    2    0  501  0.22286655315E+02  0.68477009702E+01  0.53564754690E+02  0.18165012788E+03  0.17200000000E+03 0.  1.
</event>
<event>
 4    1  0.3205520E-002  0.2227006E+03  0.7818608E-02  0.1131886E+00
         -2   -1    0    0    0  501 -0.00000000000E+00  0.00000000000E+00  0.36071189462E+02  0.36071189462E+02  0.00000000000E+00 0.  1.
          2   -1    0    0  502    0  0.00000000000E+00 -0.00000000000E+00 -0.13846088702E+04  0.13846088702E+04  0.00000000000E+00 0. -1.
          6    1    1    2  502    0 -0.38952531541E+02  0.13599359875E+03 -0.73364222797E+03  0.76669842655E+03  0.17200000000E+03 0.  1.
         -6    1    1    2    0  501  0.38952531541E+02 -0.13599359875E+03 -0.61489545276E+03  0.65398163311E+03  0.17200000000E+03 0.  1.
</event>
<event>
 4    1  0.3205520E-002  0.3215481E+03  0.7818608E-02  0.1074939E+00
          1   -1    0    0  502    0  0.00000000000E+00  0.00000000000E+00  0.56962155578E+03  0.56962155578E+03  0.00000000000E+00 0. -1.
         -1   -1    0    0    0  501 -0.00000000000E+00 -0.00000000000E+00 -0.18518981862E+03  0.18518981862E+03  0.00000000000E+00 0.  1.
          6    1    1    2  502    0  0.68287448781E+02  0.26295633505E+03  0.24540080165E+03  0.40449321781E+03  0.17200000000E+03 0. -1.
         -6    1    1    2    0  501 -0.68287448781E+02 -0.26295633505E+03  0.13903093551E+03  0.35031815659E+03  0.17200000000E+03 0.  1.
</event>
<event>
 4    1  0.3205520E-002  0.2813185E+03  0.7818608E-02  0.1094971E+00
         -2   -1    0    0    0  501 -0.00000000000E+00  0.00000000000E+00  0.82607757129E+02  0.82607757129E+02  0.00000000000E+00 0.  1.
          2   -1    0    0  502    0  0.00000000000E+00 -0.00000000000E+00 -0.11829365070E+04  0.11829365070E+04  0.00000000000E+00 0. -1.
          6    1    1    2  502    0 -0.15814817584E+03 -0.15666933240E+03 -0.82607883812E+03  0.87266624321E+03  0.17200000000E+03 0. -1.
         -6    1    1    2    0  501  0.15814817584E+03  0.15666933240E+03 -0.27424991177E+03  0.39287802095E+03  0.17200000000E+03 0.  1.
</event>
<event>
 4    1  0.3205520E-002  0.2996249E+03  0.7818608E-02  0.1085428E+00
          1   -1    0    0  502    0  0.00000000000E+00  0.00000000000E+00  0.11954490910E+04  0.11954490910E+04  0.00000000000E+00 0. -1.
         -1   -1    0    0    0  501 -0.00000000000E+00 -0.00000000000E+00 -0.77137051949E+02  0.77137051949E+02  0.00000000000E+00 0.  1.
          6    1    1    2  502    0  0.23290924967E+03 -0.77099621377E+02  0.66262448689E+03  0.72721817965E+03  0.17200000000E+03 0. -1.
         -6    1    1    2    0  501 -0.23290924967E+03  0.77099621377E+02  0.45568755218E+03  0.54536796331E+03  0.17200000000E+03 0. -1.
</event>
<event>
 4    1  0.3205520E-002  0.2674930E+03  0.7818608E-02  0.1102723E+00
         -1   -1    0    0    0  501 -0.00000000000E+00  0.00000000000E+00  0.34302404029E+03  0.34302404029E+03  0.00000000000E+00 0.  1.
          1   -1    0    0  502    0  0.00000000000E+00 -0.00000000000E+00 -0.91147942823E+03  0.91147942823E+03  0.00000000000E+00 0. -1.
          6    1    1    2  502    0  0.50207873406E+02  0.19861441716E+03 -0.83504924107E+03  0.87684648159E+03  0.17200000000E+03 0. -1.
         -6    1    1    2    0  501 -0.50207873406E+02 -0.19861441716E+03  0.26659385313E+03  0.37765698694E+03  0.17200000000E+03 0.  1.
</event>
<event>
 4    1  0.3205520E-002  0.3190749E+03  0.7818608E-02  0.1076076E+00
          2   -1    0    0  502    0  0.00000000000E+00  0.00000000000E+00  0.30448115772E+04  0.30448115772E+04  0.00000000000E+00 0. -1.
         -2   -1    0    0    0  501 -0.00000000000E+00 -0.00000000000E+00 -0.33511540071E+02  0.33511540071E+02  0.00000000000E+00 0.  1.
          6    1    1    2  502    0  0.24709017417E+03 -0.10569395466E+03  0.15783365212E+04  0.16102654875E+04  0.17200000000E+03 0. -1.
         -6    1    1    2    0  501 -0.24709017417E+03  0.10569395466E+03  0.14329635160E+04  0.14680576298E+04  0.17200000000E+03 0.  1.
</event>
<event>
 4    1  0.3205520E-002  0.3044045E+03  0.7818608E-02  0.1083059E+00
          1   -1    0    0  502    0  0.00000000000E+00  0.00000000000E+00  0.44269975990E+03  0.44269975990E+03  0.00000000000E+00 0. -1.
         -1   -1    0    0    0  501 -0.00000000000E+00 -0.00000000000E+00 -0.20945208698E+03  0.20945208698E+03  0.00000000000E+00 0.  1.
          6    1    1    2  502    0 -0.23906097213E+03  0.76993246110E+02  0.12507462024E+03  0.32909841837E+03  0.17200000000E+03 0. -1.
         -6    1    1    2    0  501  0.23906097213E+03 -0.76993246110E+02  0.10817305268E+03  0.32305342851E+03  0.17200000000E+03 0.  1.
</event>
<event>
 4    1  0.3205520E-002  0.1960397E+03  0.7818608E-02  0.1153124E+00
         -1   -1    0    0    0  501 -0.00000000000E+00  0.00000000000E+00  0.33116663715E+03  0.33116663715E+03  0.00000000000E+00 0.  1.
          1   -1    0    0  502    0  0.00000000000E+00 -0.00000000000E+00 -0.15119636691E+03  0.15119636691E+03  0.00000000000E+00 0. -1.
          6    1    1    2  502    0  0.91603118989E+02  0.21363826766E+02 -0.26298861487E+02  0.19779579019E+03  0.17200000000E+03 0.  1.
         -6    1    1    2    0  501 -0.91603118989E+02 -0.21363826766E+02  0.20626913173E+03  0.28456721387E+03  0.17200000000E+03 0. -1.
</event>
<event>
 4    1  0.3205520E-002  0.4712996E+03  0.7818608E-02  0.1021554E+00
          2   -1    0    0  502    0  0.00000000000E+00  0.00000000000E+00  0.54511810122E+03  0.54511810122E+03  0.00000000000E+00 0. -1.
         -2   -1    0    0    0  501 -0.00000000000E+00 -0.00000000000E+00 -0.59487673779E+03  0.59487673779E+03  0.00000000000E+00 0.  1.
          6    1    1    2  502    0 -0.89368069992E+02 -0.42959596585E+03  0.29504211649E+03  0.55603344891E+03  0.17200000000E+03 0. -1.
         -6    1    1    2    0  501  0.89368069992E+02  0.42959596585E+03 -0.34480075306E+03  0.58396139009E+03  0.17200000000E+03 0.  1.
</event>
<event>
 4    1  0.3205520E-002  0.5830117E+03  0.7818608E-02  0.9941292E-01
          2   -1    0    0  502    0  0.00000000000E+00  0.00000000000E+00  0.84406320532E+03  0.84406320532E+03  0.00000000000E+00 0. -1.
         -2   -1    0    0    0  501 -0.00000000000E+00 -0.00000000000E+00 -0.46067558146E+03  0.46067558146E+03  0.00000000000E+00 0.  1.
          6    1    1    2  502    0  0.22310413114E+03  0.51043429824E+03  0.42312706271E+03  0.72037430364E+03  0.17200000000E+03 0. -1.
         -6    1    1    2    0  501 -0.22310413114E+03 -0.51043429824E+03 -0.39739438839E+02  0.58436448314E+03  0.17200000000E+03 0.  1.
</event>
<event>
 4    1  0.3205520E-002  0.3343876E+03  0.7818608E-02  0.1069212E+00
          2   -1    0    0  502    0  0.00000000000E+00  0.00000000000E+00  0.17785484546E+04  0.17785484546E+04  0.00000000000E+00 0. -1.
         -2   -1    0    0    0  501 -0.00000000000E+00 -0.00000000000E+00 -0.10146764028E+03  0.10146764028E+03  0.00000000000E+00 0.  1.
          6    1    1    2  502    0 -0.10772549045E+03 -0.26575609080E+03  0.14183098449E+04  0.14571952159E+04  0.17200000000E+03 0. -1.
         -6    1    1    2    0  501  0.10772549045E+03  0.26575609080E+03  0.25877096945E+03  0.42282087901E+03  0.17200000000E+03 0.  1.
</event>
<event>
 4    1  0.3205520E-002  0.1806021E+03  0.7818608E-02  0.1167222E+00
         -1   -1    0    0    0  501 -0.00000000000E+00  0.00000000000E+00  0.18247905087E+03  0.18247905087E+03  0.00000000000E+00 0.  1.
          1   -1    0    0  502    0  0.00000000000E+00 -0.00000000000E+00 -0.94994712153E+03  0.94994712153E+03  0.00000000000E+00 0. -1.
          6    1    1    2  502    0  0.84542273628E+01 -0.54420933595E+02 -0.89390349665E+03  0.91196522593E+03  0.17200000000E+03 0. -1.
         -6    1    1    2    0  501 -0.84542273628E+01  0.54420933595E+02  0.12643542599E+03  0.22046094647E+03  0.17200000000E+03 0.  1.
</event>
<event>
 4    1  0.3205520E-002  0.5436761E+03  0.7818608E-02  0.1002968E+00
          2   -1    0    0  502    0  0.00000000000E+00  0.00000000000E+00  0.89483003083E+03  0.89483003083E+03  0.00000000000E+00 0. -1.
         -2   -1    0    0    0  501 -0.00000000000E+00 -0.00000000000E+00 -0.36470193410E+03  0.36470193410E+03  0.00000000000E+00 0.  1.
          6    1    1    2  502    0  0.51574345954E+03  0.28933127976E+01  0.45841712874E+03  0.71114692662E+03  0.17200000000E+03 0.  1.
         -6    1    1    2    0  501 -0.51574345954E+03 -0.28933127976E+01  0.71710967990E+02  0.54838503831E+03  0.17200000000E+03 0.  1.
</event>
<event>
 4    1  0.3205520E-002  0.3721228E+03  0.7818608E-02  0.1053884E+00
         -2   -1    0    0    0  501 -0.00000000000E+00  0.00000000000E+00  0.22729768958E+03  0.22729768958E+03  0.00000000000E+00 0.  1.
          2   -1    0    0  502    0  0.00000000000E+00 -0.00000000000E+00 -0.82719685462E+03  0.82719685462E+03  0.00000000000E+00 0. -1.
          6    1    1    2  502    0 -0.49251096629E+02 -0.32629078606E+03 -0.57060111894E+03  0.68122021735E+03  0.17200000000E+03 0. -1.
         -6    1    1    2    0  501  0.49251096629E+02  0.32629078606E+03 -0.29298046102E+02  0.37327432686E+03  0.17200000000E+03 0.  1.
</event>
<event>
 4    1  0.3205520E-002  0.4309819E+03  0.7818608E-02  0.1033550E+00
         -1   -1    0    0    0  501 -0.00000000000E+00  0.00000000000E+00  0.48267909847E+03  0.48267909847E+03  0.00000000000E+00 0.  1.
          1   -1    0    0  502    0  0.00000000000E+00 -0.00000000000E+00 -0.59164495400E+03  0.59164495400E+03  0.00000000000E+00 0. -1.
          6    1    1    2  502    0  0.18175383430E+03  0.35089445960E+03 -0.37207849551E+03  0.56937490714E+03  0.17200000000E+03 0.  1.
         -6    1    1    2    0  501 -0.18175383430E+03 -0.35089445960E+03  0.26311263998E+03  0.50494914534E+03  0.17200000000E+03 0.  1.
</event>
<event>
 4    1  0.3205520E-002  0.2828289E+03  0.7818608E-02  0.1094154E+00
          1   -1    0    0  502    0  0.00000000000E+00  0.00000000000E+00  0.65192352785E+03  0.65192352785E+03  0.00000000000E+00 0. -1.
         -1   -1    0    0    0  501 -0.00000000000E+00 -0.00000000000E+00 -0.31485637443E+03  0.31485637443E+03  0.00000000000E+00 0.  1.
          6    1    1    2  502    0 -0.22370522891E+03 -0.19083066096E+02  0.54616378862E+03  0.61505046692E+03  0.17200000000E+03 0. -1.
         -6    1    1    2    0  501  0.22370522891E+03  0.19083066096E+02 -0.20909663520E+03  0.35172943537E+03  0.17200000000E+03 0.  1.
</event>
<event>
 4    1  0.3205520E-002  0.5288498E+03  0.7818608E-02  0.1006511E+00
          2   -1    0    0  502    0  0.00000000000E+00  0.00000000000E+00  0.15297998820E+04  0.15297998820E+04  0.00000000000E+00 0. -1.
         -2   -1    0    0    0  501 -0.00000000000E+00 -0.00000000000E+00 -0.70964334596E+03  0.70964334596E+03  0.00000000000E+00 0.  1.
          6    1    1    2  502    0  0.49986141356E+03  0.15385899889E+02  0.13748429213E+04  0.14730496315E+04  0.17200000000E+03 0. -1.
         -6    1    1    2    0  501 -0.49986141356E+03 -0.15385899889E+02 -0.55468638525E+03  0.76639359644E+03  0.17200000000E+03 0.  1.
</event>
<event>
 4    1  0.3205520E-002  0.2992131E+03  0.7818608E-02  0.1085635E+00
          2   -1    0    0  502    0  0.00000000000E+00  0.00000000000E+00  0.26436554101E+04  0.26436554101E+04  0.00000000000E+00 0. -1.
         -2   -1    0    0    0  501 -0.00000000000E+00 -0.00000000000E+00 -0.42138190855E+02  0.42138190855E+02  0.00000000000E+00 0.  1.
          6    1    1    2  502    0 -0.24295672265E+03 -0.30273453140E+02  0.18957774095E+04  0.19192447571E+04  0.17200000000E+03 0. -1.
         -6    1    1    2    0  501  0.24295672265E+03  0.30273453140E+02  0.70573980970E+03  0.76654884388E+03  0.17200000000E+03 0.  1.
</event>
<event>
 4    1  0.3205520E-002  0.2128609E+03  0.7818608E-02  0.1139320E+00
         -1   -1    0    0    0  501 -0.00000000000E+00  0.00000000000E+00  0.15326196006E+03  0.15326196006E+03  0.00000000000E+00 0.  1.
          1   -1    0    0  502    0  0.00000000000E+00 -0.00000000000E+00 -0.42026532585E+03  0.42026532585E+03  0.00000000000E+00 0. -1.
          6    1    1    2  502    0 -0.76908408886E+02 -0.99049777665E+02  0.22659226593E+02  0.21406354749E+03  0.17200000000E+03 0.  1.
         -6    1    1    2    0  501  0.76908408886E+02  0.99049777665E+02 -0.28966259238E+03  0.35946373842E+03  0.17200000000E+03 0. -1.
</event>
<event>
 4    1  0.3205520E-002  0.5438659E+03  0.7818608E-02  0.1002924E+00
          1   -1    0    0  502    0  0.00000000000E+00  0.00000000000E+00  0.13638891006E+04  0.13638891006E+04  0.00000000000E+00 0. -1.
         -1   -1    0    0    0  501 -0.00000000000E+00 -0.00000000000E+00 -0.21724932436E+03  0.21724932436E+03  0.00000000000E+00 0.  1.
          6    1    1    2  502    0  0.48918000949E+03 -0.16403963054E+03  0.54039593651E+03  0.76669280045E+03  0.17200000000E+03 0. -1.
         -6    1    1    2    0  501 -0.48918000949E+03  0.16403963054E+03  0.60624383973E+03  0.81444562451E+03  0.17200000000E+03 0.  1.
</event>
<event>
 4    1  0.3205520E-002  0.3992438E+03  0.7818608E-02  0.1044042E+00
         -2   -1    0    0    0  501 -0.00000000000E+00  0.00000000000E+00  0.17644238134E+03  0.17644238134E+03  0.00000000000E+00 0.  1.
          2   -1    0    0  502    0  0.00000000000E+00 -0.00000000000E+00 -0.12061383850E+04  0.12061383850E+04  0.00000000000E+00 0. -1.
          6    1    1    2  502    0  0.28751610796E+03 -0.21713144452E+03 -0.16850554395E+03  0.43334708362E+03  0.17200000000E+03 0.  1.
         -6    1    1    2    0  501 -0.28751610796E+03  0.21713144452E+03 -0.86119045968E+03  0.94923368271E+03  0.17200000000E+03 0. -1.
</event>
<event>
 4    1  0.3205520E-002  0.2071419E+03  0.7818608E-02  0.1143850E+00
          2   -1    0    0  502    0  0.00000000000E+00  0.00000000000E+00  0.76733780133E+03  0.76733780133E+03  0.00000000000E+00 0. -1.
         -2   -1    0    0    0  501 -0.00000000000E+00 -0.00000000000E+00 -0.88881082898E+02  0.88881082898E+02  0.00000000000E+00 0.  1.
          6    1    1    2  502    0  0.10522543303E+03  0.47448584773E+02  0.78513329263E+02  0.22152224003E+03  0.17200000000E+03 0.  1.
         -6    1    1    2    0  501 -0.10522543303E+03 -0.47448584773E+02  0.59994338917E+03  0.63469664421E+03  0.17200000000E+03 0. -1.
</event>
<event>
 4    1  0.3205520E-002  0.1841152E+03  0.7818608E-02  0.1163879E+00
          2   -1    0    0  502    0  0.00000000000E+00  0.00000000000E+00  0.74772962295E+03  0.74772962295E+03  0.00000000000E+00 0. -1.
         -2   -1    0    0    0  501 -0.00000000000E+00 -0.00000000000E+00 -0.47682698023E+02  0.47682698023E+02  0.00000000000E+00 0.  1.
          6    1    1    2  502    0 -0.52217406254E+01  0.65476234841E+02  0.26177788495E+03  0.32004072389E+03  0.17200000000E+03 0.  1.
         -6    1    1    2    0  501  0.52217406254E+01 -0.65476234841E+02  0.43826903998E+03  0.47537159708E+03  0.17200000000E+03 0.  1.
</event>
<event>
 4    1  0.3205520E-002  0.1769626E+03  0.7818608E-02  0.1170775E+00
          1   -1    0    0  502    0  0.00000000000E+00  0.00000000000E+00  0.24312094899E+03  0.24312094899E+03  0.00000000000E+00 0. -1.
         -1   -1    0    0    0  501 -0.00000000000E+00 -0.00000000000E+00 -0.13308822717E+03  0.13308822717E+03  0.00000000000E+00 0.  1.
          6    1    1    2  502    0  0.35424471769E+02 -0.21837360669E+02  0.21280150550E+02  0.17823750539E+03  0.17200000000E+03 0.  1.
         -6    1    1    2    0  501 -0.35424471769E+02  0.21837360669E+02  0.88752571274E+02  0.19797167077E+03  0.17200000000E+03 0.  1.
</event>
<event>
 4    1  0.3205520E-002  0.2134409E+03  0.7818608E-02  0.1138870E+00
          1   -1    0    0  502    0  0.00000000000E+00  0.00000000000E+00  0.41388545138E+03  0.41388545138E+03  0.00000000000E+00 0. -1.
         -1   -1    0    0    0  501 -0.00000000000E+00 -0.00000000000E+00 -0.92234116279E+03  0.92234116279E+03  0.00000000000E+00 0.  1.
          6    1    1    2  502    0 -0.11982359648E+03  0.40190832212E+02  0.37275323042E+03  0.42953692281E+03  0.17200000000E+03 0. -1.
         -6    1    1    2    0  501  0.11982359648E+03 -0.40190832212E+02 -0.88120894183E+03  0.90668969136E+03  0.17200000000E+03 0.  1.
</event>
<event>
 4    1  0.3205520E-002  0.2167236E+03  0.7818608E-02  0.1136350E+00
         -2   -1    0    0    0  501 -0.00000000000E+00  0.00000000000E+00  0.10498031544E+03  0.10498031544E+03  0.00000000000E+00 0.  1.
          2   -1    0    0  502    0  0.00000000000E+00 -0.00000000000E+00 -0.54219458956E+03  0.54219458956E+03  0.00000000000E+00 0. -1.
          6    1    1    2  502    0 -0.12122553435E+03  0.51860103833E+02 -0.35390347985E+03  0.41499008856E+03  0.17200000000E+03 0. -1.
         -6    1    1    2    0  501  0.12122553435E+03 -0.51860103833E+02 -0.83310794266E+02  0.23218481645E+03  0.17200000000E+03 0.  1.
</event>
<event>
 4    1  0.3205520E-002  0.4564843E+03  0.7818608E-02  0.1025806E+00
          1   -1    0    0  502    0  0.00000000000E+00  0.00000000000E+00  0.15729370265E+04  0.15729370265E+04  0.00000000000E+00 0. -1.
         -1   -1    0    0    0  501 -0.00000000000E+00 -0.00000000000E+00 -0.30256281998E+03  0.30256281998E+03  0.00000000000E+00 0.  1.
          6    1    1    2  502    0  0.42076660833E+03  0.41825558236E+02  0.13382810556E+04  0.14139922559E+04  0.17200000000E+03 0. -1.
         -6    1    1    2    0  501 -0.42076660833E+03 -0.41825558236E+02 -0.67906849083E+02  0.46150759057E+03  0.17200000000E+03 0.  1.
</event>
<event>
 4    1  0.3205520E-002  0.2247874E+03  0.7818608E-02  0.1130363E+00
         -1   -1    0    0    0  501 -0.00000000000E+00  0.00000000000E+00  0.68641912656E+02  0.68641912656E+02  0.00000000000E+00 0.  1.
          1   -1    0    0  502    0  0.00000000000E+00 -0.00000000000E+00 -0.14445056207E+04  0.14445056207E+04  0.00000000000E+00 0. -1.
          6    1    1    2  502    0 -0.12536251942E+03  0.72315931335E+02 -0.12177459819E+04  0.12383192770E+04  0.17200000000E+03 0. -1.
         -6    1    1    2    0  501  0.12536251942E+03 -0.72315931335E+02 -0.15811772612E+03  0.27482825639E+03  0.17200000000E+03 0.  1.
</event>
<event>
 4    1  0.3205520E-002  0.2311571E+03  0.7818608E-02  0.1125828E+00
         -2   -1    0    0    0  501 -0.00000000000E+00  0.00000000000E+00  0.27269765278E+03  0.27269765278E+03  0.00000000000E+00 0.  1.
          2   -1    0    0  502    0  0.00000000000E+00 -0.00000000000E+00 -0.75913880452E+03  0.75913880452E+03  0.00000000000E+00 0. -1.
          6    1    1    2  502    0 -0.15107470891E+03 -0.32032042441E+02 -0.68759533644E+03  0.72541089467E+03  0.17200000000E+03 0. -1.
         -6    1    1    2    0  501  0.15107470891E+03  0.32032042441E+02  0.20115418470E+03  0.30642556263E+03  0.17200000000E+03 0.  1.
</event>
<event>
 4    1  0.3205520E-002  0.2331857E+03  0.7818608E-02  0.1124417E+00
         -3   -1    0    0    0  501 -0.00000000000E+00  0.00000000000E+00  0.33541036505E+03  0.33541036505E+03  0.00000000000E+00 0.  1.
          3   -1    0    0  502    0  0.00000000000E+00 -0.00000000000E+00 -0.20053036952E+03  0.20053036952E+03  0.00000000000E+00 0. -1.
          6    1    1    2  502    0  0.10733864524E+03 -0.11519544016E+03 -0.49844439921E+02  0.23845343862E+03  0.17200000000E+03 0. -1.
         -6    1    1    2    0  501 -0.10733864524E+03  0.11519544016E+03  0.18472443546E+03  0.29748729595E+03  0.17200000000E+03 0.  1.
</event>
<event>
 4    1  0.3205520E-002  0.2302163E+03  0.7818608E-02  0.1126488E+00
         -2   -1    0    0    0  501 -0.00000000000E+00  0.00000000000E+00  0.32597043054E+03  0.32597043054E+03  0.00000000000E+00 0.  1.
          2   -1    0    0  502    0  0.00000000000E+00 -0.00000000000E+00 -0.18102443742E+03  0.18102443742E+03  0.00000000000E+00 0. -1.
          6    1    1    2  502    0 -0.12729560798E+03  0.84919683065E+02 -0.84217268825E+01  0.23037024519E+03  0.17200000000E+03 0.  1.
         -6    1    1    2    0  501  0.12729560798E+03 -0.84919683065E+02  0.15336772001E+03  0.27662462277E+03  0.17200000000E+03 0.  1.
</event>
<event>
 4    1  0.3205520E-002  0.1895967E+03  0.7818608E-02  0.1158826E+00
          2   -1    0    0  502    0  0.00000000000E+00  0.00000000000E+00  0.10062799442E+04  0.10062799442E+04  0.00000000000E+00 0. -1.
         -2   -1    0    0    0  501 -0.00000000000E+00 -0.00000000000E+00 -0.37381380969E+02  0.37381380969E+02  0.00000000000E+00 0.  1.
          6    1    1    2  502    0  0.54972152926E+02 -0.57801101972E+02  0.59437529354E+03  0.62388211591E+03  0.17200000000E+03 0.  1.
         -6    1    1    2    0  501 -0.54972152926E+02  0.57801101972E+02  0.37452326973E+03  0.41977920930E+03  0.17200000000E+03 0.  1.
</event>
<event>
 4    1  0.3205520E-002  0.2142137E+03  0.7818608E-02  0.1138272E+00
          1   -1    0    0  502    0  0.00000000000E+00  0.00000000000E+00  0.59128056060E+03  0.59128056060E+03  0.00000000000E+00 0. -1.
         -1   -1    0    0    0  501 -0.00000000000E+00 -0.00000000000E+00 -0.81772989770E+02  0.81772989770E+02  0.00000000000E+00 0.  1.
          6    1    1    2  502    0  0.12366860260E+03  0.31774114202E+02  0.17879584926E+03  0.27902593664E+03  0.17200000000E+03 0.  1.
         -6    1    1    2    0  501 -0.12366860260E+03 -0.31774114202E+02  0.33071172156E+03  0.39402761373E+03  0.17200000000E+03 0. -1.
</event>
<event>
 4    1  0.3205520E-002  0.4703564E+03  0.7818608E-02  0.1021820E+00
          2   -1    0    0  502    0  0.00000000000E+00  0.00000000000E+00  0.23357854884E+04  0.23357854884E+04  0.00000000000E+00 0. -1.
         -2   -1    0    0    0  501 -0.00000000000E+00 -0.00000000000E+00 -0.94977372930E+02  0.94977372930E+02  0.00000000000E+00 0.  1.
          6    1    1    2  502    0 -0.16695819680E+03 -0.40469257072E+03  0.11842213906E+04  0.12742116850E+04  0.17200000000E+03 0. -1.
         -6    1    1    2    0  501  0.16695819680E+03  0.40469257072E+03  0.10565867249E+04  0.11565511763E+04  0.17200000000E+03 0.  1.
</event>
<event>
 4    1  0.3205520E-002  0.2112412E+03  0.7818608E-02  0.1140587E+00
          2   -1    0    0  502    0  0.00000000000E+00  0.00000000000E+00  0.47939439711E+03  0.47939439711E+03  0.00000000000E+00 0. -1.
         -2   -1    0    0    0  501 -0.00000000000E+00 -0.00000000000E+00 -0.19080681772E+03  0.19080681772E+03  0.00000000000E+00 0.  1.
          6    1    1    2  502    0  0.44534324361E+02  0.11426076711E+03  0.38411160840E+03  0.43836577952E+03  0.17200000000E+03 0. -1.
         -6    1    1    2    0  501 -0.44534324361E+02 -0.11426076711E+03 -0.95524029012E+02  0.23183543531E+03  0.17200000000E+03 0.  1.
</event>
<event>
 4    1  0.3205520E-002  0.4649164E+03  0.7818608E-02  0.1023365E+00
          1   -1    0    0  502    0  0.00000000000E+00  0.00000000000E+00  0.38011171408E+03  0.38011171408E+03  0.00000000000E+00 0. -1.
         -1   -1    0    0    0  501 -0.00000000000E+00 -0.00000000000E+00 -0.63128823912E+03  0.63128823912E+03  0.00000000000E+00 0.  1.
          6    1    1    2  502    0  0.42829293134E+03  0.55932404653E+02  0.33716426599E+02  0.46613739000E+03  0.17200000000E+03 0. -1.
         -6    1    1    2    0  501 -0.42829293134E+03 -0.55932404653E+02 -0.28489295164E+03  0.54526256320E+03  0.17200000000E+03 0.  1.
</event>
<event>
 4    1  0.3205520E-002  0.4139828E+03  0.7818608E-02  0.1039043E+00
          1   -1    0    0  502    0  0.00000000000E+00  0.00000000000E+00  0.46805176199E+03  0.46805176199E+03  0.00000000000E+00 0. -1.
         -1   -1    0    0    0  501 -0.00000000000E+00 -0.00000000000E+00 -0.69637153886E+03  0.69637153886E+03  0.00000000000E+00 0.  1.
          6    1    1    2  502    0 -0.14760153321E+03  0.34642679180E+03  0.28675911870E+03  0.50359956993E+03  0.17200000000E+03 0. -1.
         -6    1    1    2    0  501  0.14760153321E+03 -0.34642679180E+03 -0.51507889556E+03  0.66082373091E+03  0.17200000000E+03 0.  1.
</event>
<event>
 4    1  0.3205520E-002  0.1985763E+03  0.7818608E-02  0.1150946E+00
          2   -1    0    0  502    0  0.00000000000E+00  0.00000000000E+00  0.23276876289E+04  0.23276876289E+04  0.00000000000E+00 0. -1.
         -2   -1    0    0    0  501 -0.00000000000E+00 -0.00000000000E+00 -0.36451309945E+02  0.36451309945E+02  0.00000000000E+00 0.  1.
          6    1    1    2  502    0  0.25487253572E+02 -0.95911179719E+02  0.20104314351E+04  0.20202146197E+04  0.17200000000E+03 0. -1.
         -6    1    1    2    0  501 -0.25487253572E+02  0.95911179719E+02  0.28080488386E+03  0.34392431913E+03  0.17200000000E+03 0.  1.
</event>
<event>
 4    1  0.3205520E-002  0.1832247E+03  0.7818608E-02  0.1164718E+00
         -2   -1    0    0    0  501 -0.00000000000E+00  0.00000000000E+00  0.15114653080E+04  0.15114653080E+04  0.00000000000E+00 0.  1.
          2   -1    0    0  502    0  0.00000000000E+00 -0.00000000000E+00 -0.22859795246E+02  0.22859795246E+02  0.00000000000E+00 0. -1.
          6    1    1    2  502    0  0.56511650881E+02 -0.28173206993E+02  0.61506959098E+03  0.64178025681E+03  0.17200000000E+03 0. -1.
         -6    1    1    2    0  501 -0.56511650881E+02  0.28173206993E+02  0.87353592181E+03  0.89254484647E+03  0.17200000000E+03 0.  1.
</event>
<event>
 4    1  0.3205520E-002  0.1941617E+03  0.7818608E-02  0.1154760E+00
          2   -1    0    0  502    0  0.00000000000E+00  0.00000000000E+00  0.63837179918E+02  0.63837179918E+02  0.00000000000E+00 0. -1.
         -2   -1    0    0    0  501 -0.00000000000E+00 -0.00000000000E+00 -0.90996438423E+03  0.90996438423E+03  0.00000000000E+00 0.  1.
          6    1    1    2  502    0 -0.58269130713E+02  0.68698369640E+02 -0.13458833272E+03  0.23624727912E+03  0.17200000000E+03 0. -1.
         -6    1    1    2    0  501  0.58269130713E+02 -0.68698369640E+02 -0.71153887159E+03  0.73755428503E+03  0.17200000000E+03 0.  1.
</event>
<event>
 4    1  0.3205520E-002  0.3219873E+03  0.7818608E-02  0.1074738E+00
          2   -1    0    0  502    0  0.00000000000E+00  0.00000000000E+00  0.20914467257E+04  0.20914467257E+04  0.00000000000E+00 0. -1.
         -2   -1    0    0    0  501 -0.00000000000E+00 -0.00000000000E+00 -0.50034353541E+02  0.50034353541E+02  0.00000000000E+00 0.  1.
          6    1    1    2  502    0 -0.20374634717E+03 -0.18049728581E+03  0.11237070322E+04  0.11689282862E+04  0.17200000000E+03 0. -1.
         -6    1    1    2    0  501  0.20374634717E+03  0.18049728581E+03  0.91770533996E+03  0.97255279300E+03  0.17200000000E+03 0.  1.
</event>
<event>
 4    1  0.3205520E-002  0.3384953E+03  0.7818608E-02  0.1067439E+00
         -2   -1    0    0    0  501 -0.00000000000E+00  0.00000000000E+00  0.36080302907E+03  0.36080302907E+03  0.00000000000E+00 0.  1.
          2   -1    0    0  502    0  0.00000000000E+00 -0.00000000000E+00 -0.34552901640E+03  0.34552901640E+03  0.00000000000E+00 0. -1.
          6    1    1    2  502    0 -0.29152641523E+03  0.27211376986E+01 -0.92829805556E+02  0.35099348736E+03  0.17200000000E+03 0. -1.
         -6    1    1    2    0  501  0.29152641523E+03 -0.27211376986E+01  0.10810381823E+03  0.35533855811E+03  0.17200000000E+03 0.  1.
</event>
<event>
 4    1  0.3205520E-002  0.1404602E+04  0.7818608E-02  0.8950494E-01
         -2   -1    0    0    0  501 -0.00000000000E+00  0.00000000000E+00  0.13723755161E+04  0.13723755161E+04  0.00000000000E+00 0.  1.
          2   -1    0    0  502    0  0.00000000000E+00 -0.00000000000E+00 -0.14386193340E+04  0.14386193340E+04  0.00000000000E+00 0. -1.
          6    1    1    2  502    0  0.26099102583E+03 -0.13693818256E+04  0.45588514304E+01  0.14046094414E+04  0.17200000000E+03 0. -1.
         -6    1    1    2    0  501 -0.26099102583E+03  0.13693818256E+04 -0.70802669281E+02  0.14063854087E+04  0.17200000000E+03 0.  1.
</event>
<event>
 4    1  0.3205520E-002  0.2835116E+03  0.7818608E-02  0.1093786E+00
         -2   -1    0    0    0  501 -0.00000000000E+00  0.00000000000E+00  0.15467988889E+03  0.15467988889E+03  0.00000000000E+00 0.  1.
          2   -1    0    0  502    0  0.00000000000E+00 -0.00000000000E+00 -0.15488829117E+04  0.15488829117E+04  0.00000000000E+00 0. -1.
          6    1    1    2  502    0  0.12805843844E+02 -0.22501294025E+03 -0.27546168681E+01  0.28352495627E+03  0.17200000000E+03 0.  1.
         -6    1    1    2    0  501 -0.12805843844E+02  0.22501294025E+03 -0.13914484060E+04  0.14200378443E+04  0.17200000000E+03 0. -1.
</event>
<event>
 4    1  0.3205520E-002  0.1775650E+03  0.7818608E-02  0.1170181E+00
          1   -1    0    0  502    0  0.00000000000E+00  0.00000000000E+00  0.13604595563E+03  0.13604595563E+03  0.00000000000E+00 0. -1.
         -1   -1    0    0    0  501 -0.00000000000E+00 -0.00000000000E+00 -0.28516517355E+03  0.28516517355E+03  0.00000000000E+00 0.  1.
          6    1    1    2  502    0 -0.39560420148E+02  0.19501257059E+02 -0.16570479394E+03  0.24287322744E+03  0.17200000000E+03 0.  1.
         -6    1    1    2    0  501  0.39560420148E+02 -0.19501257059E+02  0.16585576024E+02  0.17833790175E+03  0.17200000000E+03 0. -1.
</event>
<event>
 4    1  0.3205520E-002  0.1736937E+03  0.7818608E-02  0.1174050E+00
         -4   -1    0    0    0  501 -0.00000000000E+00  0.00000000000E+00  0.48105348432E+03  0.48105348432E+03  0.00000000000E+00 0.  1.
          4   -1    0    0  502    0  0.00000000000E+00 -0.00000000000E+00 -0.83553621394E+02  0.83553621394E+02  0.00000000000E+00 0. -1.
          6    1    1    2  502    0  0.24183024938E+02  0.82852819877E+00  0.57768119720E+02  0.18304824722E+03  0.17200000000E+03 0. -1.
         -6    1    1    2    0  501 -0.24183024938E+02 -0.82852819877E+00  0.33973174321E+03  0.38155885849E+03  0.17200000000E+03 0.  1.
</event>
<event>
 4    1  0.3205520E-002  0.2491442E+03  0.7818608E-02  0.1113847E+00
          2   -1    0    0  502    0  0.00000000000E+00  0.00000000000E+00  0.78804088633E+03  0.78804088633E+03  0.00000000000E+00 0. -1.
         -2   -1    0    0    0  501 -0.00000000000E+00 -0.00000000000E+00 -0.92849381405E+02  0.92849381405E+02  0.00000000000E+00 0.  1.
          6    1    1    2  502    0  0.64608368559E+02 -0.16826939729E+03  0.51911647099E+03  0.57580790357E+03  0.17200000000E+03 0. -1.
         -6    1    1    2    0  501 -0.64608368559E+02  0.16826939729E+03  0.17607503393E+03  0.30508236417E+03  0.17200000000E+03 0.  1.
</event>
<event>
 4    1  0.3205520E-002  0.1901761E+03  0.7818608E-02  0.1158303E+00
         -2   -1    0    0    0  501 -0.00000000000E+00  0.00000000000E+00  0.12546593193E+03  0.12546593193E+03  0.00000000000E+00 0.  1.
          2   -1    0    0  502    0  0.00000000000E+00 -0.00000000000E+00 -0.28912438911E+03  0.28912438911E+03  0.00000000000E+00 0. -1.
          6    1    1    2  502    0  0.71106458726E+02 -0.39074665562E+02 -0.93155945736E+02  0.21176635282E+03  0.17200000000E+03 0. -1.
         -6    1    1    2    0  501 -0.71106458726E+02  0.39074665562E+02 -0.70502511446E+02  0.20282396821E+03  0.17200000000E+03 0. -1.
</event>
<event>
 4    1  0.3205520E-002  0.1874586E+03  0.7818608E-02  0.1160774E+00
          2   -1    0    0  502    0  0.00000000000E+00  0.00000000000E+00  0.48124011418E+03  0.48124011418E+03  0.00000000000E+00 0. -1.
         -2   -1    0    0    0  501 -0.00000000000E+00 -0.00000000000E+00 -0.75096014265E+02  0.75096014265E+02  0.00000000000E+00 0.  1.
          6    1    1    2  502    0 -0.74527386801E+02  0.15447141750E+01  0.15683487554E+03  0.24441337057E+03  0.17200000000E+03 0. -1.
         -6    1    1    2    0  501  0.74527386801E+02 -0.15447141750E+01  0.24930922438E+03  0.31192275788E+03  0.17200000000E+03 0.  1.
</event>
<event>
 4    1  0.3205520E-002  0.2886848E+03  0.7818608E-02  0.1091038E+00
          2   -1    0    0  502    0  0.00000000000E+00  0.00000000000E+00  0.36855958404E+03  0.36855958404E+03  0.00000000000E+00 0. -1.
         -2   -1    0    0    0  501 -0.00000000000E+00 -0.00000000000E+00 -0.22769586323E+03  0.22769586323E+03  0.00000000000E+00 0.  1.
          6    1    1    2  502    0 -0.18003190444E+02  0.23115108486E+03  0.45635259393E+02  0.29226959438E+03  0.17200000000E+03 0. -1.
         -6    1    1    2    0  501  0.18003190444E+02 -0.23115108486E+03  0.95228461409E+02  0.30398585289E+03  0.17200000000E+03 0.  1.
</event>
<event>
 4    1  0.3205520E-002  0.2048760E+03  0.7818608E-02  0.1145689E+00
         -1   -1    0    0    0  501 -0.00000000000E+00  0.00000000000E+00  0.26247652853E+02  0.26247652853E+02  0.00000000000E+00 0.  1.
          1   -1    0    0  502    0  0.00000000000E+00 -0.00000000000E+00 -0.16157972639E+04  0.16157972639E+04  0.00000000000E+00 0. -1.
          6    1    1    2  502    0  0.37288191275E+02  0.10487984960E+03 -0.87808627226E+03  0.90167050167E+03  0.17200000000E+03 0.  1.
         -6    1    1    2    0  501 -0.37288191275E+02 -0.10487984960E+03 -0.71146333876E+03  0.74037441505E+03  0.17200000000E+03 0. -1.
</event>
<event>
 4    1  0.3205520E-002  0.2947558E+03  0.7818608E-02  0.1087892E+00
          2   -1    0    0  502    0  0.00000000000E+00  0.00000000000E+00  0.39130495025E+02  0.39130495025E+02  0.00000000000E+00 0. -1.
         -2   -1    0    0    0  501 -0.00000000000E+00 -0.00000000000E+00 -0.25318547913E+04  0.25318547913E+04  0.00000000000E+00 0.  1.
          6    1    1    2  502    0  0.89055060333E+02  0.22218496181E+03 -0.79541472130E+03  0.84827209072E+03  0.17200000000E+03 0.  1.
         -6    1    1    2    0  501 -0.89055060333E+02 -0.22218496181E+03 -0.16973095749E+04  0.17227131956E+04  0.17200000000E+03 0.  1.
</event>
<event>
 4    1  0.3205520E-002  0.1771354E+03  0.7818608E-02  0.1170605E+00
         -1   -1    0    0    0  501 -0.00000000000E+00  0.00000000000E+00  0.17768702587E+02  0.17768702587E+02  0.00000000000E+00 0.  1.
          1   -1    0    0  502    0  0.00000000000E+00 -0.00000000000E+00 -0.19556768248E+04  0.19556768248E+04  0.00000000000E+00 0. -1.
          6    1    1    2  502    0 -0.28467550089E+02  0.31345593398E+02 -0.12763654660E+04  0.12885983666E+04  0.17200000000E+03 0. -1.
         -6    1    1    2    0  501  0.28467550089E+02 -0.31345593398E+02 -0.66154265617E+03  0.68484716073E+03  0.17200000000E+03 0.  1.
</event>
<event>
 4    1  0.3205520E-002  0.2348668E+03  0.7818608E-02  0.1123260E+00
         -2   -1    0    0    0  501 -0.00000000000E+00  0.00000000000E+00  0.38588948304E+02  0.38588948304E+02  0.00000000000E+00 0.  1.
          2   -1    0    0  502    0  0.00000000000E+00 -0.00000000000E+00 -0.15140807841E+04  0.15140807841E+04  0.00000000000E+00 0. -1.
          6    1    1    2  502    0 -0.14496498580E+03 -0.67554012679E+02 -0.92124941272E+03  0.95071703055E+03  0.17200000000E+03 0. -1.
         -6    1    1    2    0  501  0.14496498580E+03  0.67554012679E+02 -0.55424242310E+03  0.60195270188E+03  0.17200000000E+03 0.  1.
</event>
<event>
 4    1  0.3205520E-002  0.2329687E+03  0.7818608E-02  0.1124568E+00
         -2   -1    0    0    0  501 -0.00000000000E+00  0.00000000000E+00  0.55775385855E+02  0.55775385855E+02  0.00000000000E+00 0.  1.
          2   -1    0    0  502    0  0.00000000000E+00 -0.00000000000E+00 -0.42573009128E+04  0.42573009128E+04  0.00000000000E+00 0. -1.
          6    1    1    2  502    0  0.13246195439E+03  0.84523642067E+02 -0.20665119675E+03  0.31141472757E+03  0.17200000000E+03 0.  1.
         -6    1    1    2    0  501 -0.13246195439E+03 -0.84523642067E+02 -0.39948743302E+04  0.40016615711E+04  0.17200000000E+03 0. -1.
</event>
<event>
 4    1  0.3205520E-002  0.2078951E+03  0.7818608E-02  0.1143244E+00
         -2   -1    0    0    0  501 -0.00000000000E+00  0.00000000000E+00  0.27326117372E+03  0.27326117372E+03  0.00000000000E+00 0.  1.
          2   -1    0    0  502    0  0.00000000000E+00 -0.00000000000E+00 -0.16768664885E+03  0.16768664885E+03  0.00000000000E+00 0. -1.
          6    1    1    2  502    0  0.97570550768E+01  0.11636651363E+03  0.25053259490E+00  0.20789523415E+03  0.17200000000E+03 0. -1.
         -6    1    1    2    0  501 -0.97570550768E+01 -0.11636651363E+03  0.10532399228E+03  0.23305258842E+03  0.17200000000E+03 0.  1.
</event>
<event>
 4    1  0.3205520E-002  0.2731647E+03  0.7818608E-02  0.1099482E+00
          1   -1    0    0  502    0  0.00000000000E+00  0.00000000000E+00  0.35442229444E+03  0.35442229444E+03  0.00000000000E+00 0. -1.
         -1   -1    0    0    0  501 -0.00000000000E+00 -0.00000000000E+00 -0.23877969151E+03  0.23877969151E+03  0.00000000000E+00 0.  1.
          6    1    1    2  502    0 -0.17369084312E+03  0.12192798512E+03  0.15982791696E+03  0.31648681738E+03  0.17200000000E+03 0. -1.
         -6    1    1    2    0  501  0.17369084312E+03 -0.12192798512E+03 -0.44185314039E+02  0.27671516856E+03  0.17200000000E+03 0.  1.
</event>
<event>
 4    1  0.3205520E-002  0.2015678E+03  0.7818608E-02  0.1148423E+00
          1   -1    0    0  502    0  0.00000000000E+00  0.00000000000E+00  0.54909673402E+03  0.54909673402E+03  0.00000000000E+00 0. -1.
         -1   -1    0    0    0  501 -0.00000000000E+00 -0.00000000000E+00 -0.14308056972E+03  0.14308056972E+03  0.00000000000E+00 0.  1.
          6    1    1    2  502    0 -0.10509793332E+03 -0.12682638211E+00 -0.37481020004E+02  0.20502297075E+03  0.17200000000E+03 0.  1.
         -6    1    1    2    0  501  0.10509793332E+03  0.12682638211E+00  0.44349718431E+03  0.48715433300E+03  0.17200000000E+03 0. -1.
</event>
<event>
 4    1  0.3205520E-002  0.1967572E+03  0.7818608E-02  0.1152504E+00
          1   -1    0    0  502    0  0.00000000000E+00  0.00000000000E+00  0.30456820485E+03  0.30456820485E+03  0.00000000000E+00 0. -1.
         -1   -1    0    0    0  501 -0.00000000000E+00 -0.00000000000E+00 -0.12976168350E+03  0.12976168350E+03  0.00000000000E+00 0.  1.
          6    1    1    2  502    0  0.41378599069E+02  0.86123211013E+02  0.56354123910E+02  0.20466847148E+03  0.17200000000E+03 0. -1.
         -6    1    1    2    0  501 -0.41378599069E+02 -0.86123211013E+02  0.11845239744E+03  0.22966141687E+03  0.17200000000E+03 0.  1.
</event>
<event>
 4    1  0.3205520E-002  0.2160144E+03  0.7818608E-02  0.1136890E+00
         -2   -1    0    0    0  501 -0.00000000000E+00  0.00000000000E+00  0.82606823862E+02  0.82606823862E+02  0.00000000000E+00 0.  1.
          2   -1    0    0  502    0  0.00000000000E+00 -0.00000000000E+00 -0.15628664243E+04  0.15628664243E+04  0.00000000000E+00 0. -1.
          6    1    1    2  502    0 -0.13050903899E+03 -0.67549160013E+01 -0.13975818326E+04  0.14141772226E+04  0.17200000000E+03 0. -1.
         -6    1    1    2    0  501  0.13050903899E+03  0.67549160013E+01 -0.82677767867E+02  0.23129602558E+03  0.17200000000E+03 0.  1.
</event>
<event>
 4    1  0.3205520E-002  0.2170176E+03  0.7818608E-02  0.1136126E+00
          1   -1    0    0  502    0  0.00000000000E+00  0.00000000000E+00  0.17113411573E+04  0.17113411573E+04  0.00000000000E+00 0. -1.
         -1   -1    0    0    0  501 -0.00000000000E+00 -0.00000000000E+00 -0.42792773150E+02  0.42792773150E+02  0.00000000000E+00 0.  1.
          6    1    1    2  502    0 -0.57988898485E+02  0.11895344159E+03  0.13582390101E+04  0.13754671359E+04  0.17200000000E+03 0. -1.
         -6    1    1    2    0  501  0.57988898485E+02 -0.11895344159E+03  0.31030937409E+03  0.37866679451E+03  0.17200000000E+03 0.  1.
</event>
<event>
 4    1  0.3205520E-002  0.4287816E+03  0.7818608E-02  0.1034246E+00
          2   -1    0    0  502    0  0.00000000000E+00  0.00000000000E+00  0.98948019978E+03  0.98948019978E+03  0.00000000000E+00 0. -1.
         -2   -1    0    0    0  501 -0.00000000000E+00 -0.00000000000E+00 -0.18608673093E+03  0.18608673093E+03  0.00000000000E+00 0.  1.
          6    1    1    2  502    0 -0.19037234688E+03 -0.34355210616E+03  0.42443105125E+03  0.60332031075E+03  0.17200000000E+03 0.  1.
         -6    1    1    2    0  501  0.19037234688E+03  0.34355210616E+03  0.37896241761E+03  0.57224661996E+03  0.17200000000E+03 0.  1.
</event>
<event>
 4    1  0.3205520E-002  0.1758495E+03  0.7818608E-02  0.1171881E+00
         -1   -1    0    0    0  501 -0.00000000000E+00  0.00000000000E+00  0.11590445741E+02  0.11590445741E+02  0.00000000000E+00 0.  1.
          1   -1    0    0  502    0  0.00000000000E+00 -0.00000000000E+00 -0.27540555902E+04  0.27540555902E+04  0.00000000000E+00 0. -1.
          6    1    1    2  502    0 -0.83065823654E+01  0.35637949151E+02 -0.11267637657E+04  0.11404032823E+04  0.17200000000E+03 0.  1.
         -6    1    1    2    0  501  0.83065823654E+01 -0.35637949151E+02 -0.16157013788E+04  0.16252427536E+04  0.17200000000E+03 0.  1.
</event>
<event>
 4    1  0.3205520E-002  0.1960920E+03  0.7818608E-02  0.1153079E+00
          1   -1    0    0  502    0  0.00000000000E+00  0.00000000000E+00  0.17497243276E+04  0.17497243276E+04  0.00000000000E+00 0. -1.
         -1   -1    0    0    0  501 -0.00000000000E+00 -0.00000000000E+00 -0.22603270811E+02  0.22603270811E+02  0.00000000000E+00 0.  1.
          6    1    1    2  502    0 -0.55593524920E+02 -0.76009499041E+02  0.10111746060E+04  0.10300127028E+04  0.17200000000E+03 0. -1.
         -6    1    1    2    0  501  0.55593524920E+02  0.76009499041E+02  0.71594645078E+03  0.74231489567E+03  0.17200000000E+03 0.  1.
</event>
<event>
 4    1  0.3205520E-002  0.4189505E+03  0.7818608E-02  0.1037408E+00
         -1   -1    0    0    0  501 -0.00000000000E+00  0.00000000000E+00  0.12436662191E+03  0.12436662191E+03  0.00000000000E+00 0.  1.
          1   -1    0    0  502    0  0.00000000000E+00 -0.00000000000E+00 -0.15023881117E+04  0.15023881117E+04  0.00000000000E+00 0. -1.
          6    1    1    2  502    0 -0.28485125292E+03 -0.25454921888E+03 -0.48874158218E+03  0.64372966008E+03  0.17200000000E+03 0. -1.
         -6    1    1    2    0  501  0.28485125292E+03  0.25454921888E+03 -0.88927990764E+03  0.98302507356E+03  0.17200000000E+03 0.  1.
</event>
<event>
 4    1  0.3205520E-002  0.2101271E+03  0.7818608E-02  0.1141465E+00
         -1   -1    0    0    0  501 -0.00000000000E+00  0.00000000000E+00  0.17762999556E+03  0.17762999556E+03  0.00000000000E+00 0.  1.
          1   -1    0    0  502    0  0.00000000000E+00 -0.00000000000E+00 -0.27880094940E+03  0.27880094940E+03  0.00000000000E+00 0. -1.
          6    1    1    2  502    0 -0.15345444595E+02  0.11972427448E+03 -0.12573531281E+03  0.24487293329E+03  0.17200000000E+03 0. -1.
         -6    1    1    2    0  501  0.15345444595E+02 -0.11972427448E+03  0.24564358971E+02  0.21155801167E+03  0.17200000000E+03 0.  1.
</event>
<event>
 4    1  0.3205520E-002  0.4243361E+03  0.7818608E-02  0.1035664E+00
         -1   -1    0    0    0  501 -0.00000000000E+00  0.00000000000E+00  0.85558653485E+03  0.85558653485E+03  0.00000000000E+00 0.  1.
          1   -1    0    0  502    0  0.00000000000E+00 -0.00000000000E+00 -0.36883168262E+03  0.36883168262E+03  0.00000000000E+00 0. -1.
          6    1    1    2  502    0 -0.20979740105E+03 -0.32628537066E+03 -0.15779723642E+03  0.45272625329E+03  0.17200000000E+03 0. -1.
         -6    1    1    2    0  501  0.20979740105E+03  0.32628537066E+03  0.64455208865E+03  0.77169196418E+03  0.17200000000E+03 0.  1.
</event>
<event>
 4    1  0.3205520E-002  0.1017833E+04  0.7818608E-02  0.9289199E-01
         -2   -1    0    0    0  501 -0.00000000000E+00  0.00000000000E+00  0.16030194701E+04  0.16030194701E+04  0.00000000000E+00 0.  1.
          2   -1    0    0  502    0  0.00000000000E+00 -0.00000000000E+00 -0.71615138384E+03  0.71615138384E+03  0.00000000000E+00 0. -1.
          6    1    1    2  502    0 -0.31044586472E+02  0.10027148063E+04  0.81209018491E+02  0.10210678987E+04  0.17200000000E+03 0. -1.
         -6    1    1    2    0  501  0.31044586472E+02 -0.10027148063E+04  0.80565906779E+03  0.12981029553E+04  0.17200000000E+03 0.  1.
</event>
<event>
 4    1  0.3205520E-002  0.1747403E+03  0.7818608E-02  0.1172993E+00
         -1   -1    0    0    0  501 -0.00000000000E+00  0.00000000000E+00  0.16401131668E+04  0.16401131668E+04  0.00000000000E+00 0.  1.
          1   -1    0    0  502    0  0.00000000000E+00 -0.00000000000E+00 -0.22276859750E+02  0.22276859750E+02  0.00000000000E+00 0. -1.
          6    1    1    2  502    0  0.18071830430E+02  0.24971708604E+02  0.47201794861E+03  0.50332407164E+03  0.17200000000E+03 0. -1.
         -6    1    1    2    0  501 -0.18071830430E+02 -0.24971708604E+02  0.11458183584E+04  0.11590659549E+04  0.17200000000E+03 0.  1.
</event>
<event>
 4    1  0.3205520E-002  0.2455039E+03  0.7818608E-02  0.1116180E+00
          2   -1    0    0  502    0  0.00000000000E+00  0.00000000000E+00  0.23898560824E+04  0.23898560824E+04  0.00000000000E+00 0. -1.
         -2   -1    0    0    0  501 -0.00000000000E+00 -0.00000000000E+00 -0.25274100238E+02  0.25274100238E+02  0.00000000000E+00 0.  1.
          6    1    1    2  502    0  0.12113772214E+03  0.12654569167E+03  0.12381624580E+04  0.12622671794E+04  0.17200000000E+03 0. -1.
         -6    1    1    2    0  501 -0.12113772214E+03 -0.12654569167E+03  0.11264195242E+04  0.11528630033E+04  0.17200000000E+03 0.  1.
</event>
<event>
 4    1  0.3205520E-002  0.5596683E+03  0.7818608E-02  0.9992805E-01
          2   -1    0    0  502    0  0.00000000000E+00  0.00000000000E+00  0.21794204203E+04  0.21794204203E+04  0.00000000000E+00 0. -1.
         -2   -1    0    0    0  501 -0.00000000000E+00 -0.00000000000E+00 -0.15783198104E+03  0.15783198104E+03  0.00000000000E+00 0.  1.
          6    1    1    2  502    0  0.35965578270E+03  0.39280063485E+03  0.66136779766E+03  0.86639251183E+03  0.17200000000E+03 0. -1.
         -6    1    1    2    0  501 -0.35965578270E+03 -0.39280063485E+03  0.13602206416E+04  0.14708598895E+04  0.17200000000E+03 0.  1.
</event>
<event>
 4    1  0.3205520E-002  0.2836345E+03  0.7818608E-02  0.1093720E+00
         -1   -1    0    0    0  501 -0.00000000000E+00  0.00000000000E+00  0.49219749442E+02  0.49219749442E+02  0.00000000000E+00 0.  1.
          1   -1    0    0  502    0  0.00000000000E+00 -0.00000000000E+00 -0.16639988124E+04  0.16639988124E+04  0.00000000000E+00 0. -1.
          6    1    1    2  502    0 -0.13254889951E+03  0.18246999636E+03 -0.69329010330E+03  0.74906587004E+03  0.17200000000E+03 0. -1.
         -6    1    1    2    0  501  0.13254889951E+03 -0.18246999636E+03 -0.92148895967E+03  0.96415269181E+03  0.17200000000E+03 0.  1.
</event>
<event>
 4    1  0.3205520E-002  0.2034521E+03  0.7818608E-02  0.1146859E+00
         -2   -1    0    0    0  501 -0.00000000000E+00  0.00000000000E+00  0.63960111803E+02  0.63960111803E+02  0.00000000000E+00 0.  1.
          2   -1    0    0  502    0  0.00000000000E+00 -0.00000000000E+00 -0.10150520153E+04  0.10150520153E+04  0.00000000000E+00 0. -1.
          6    1    1    2  502    0 -0.59128738634E+01  0.10850713970E+03 -0.80034090033E+03  0.82579556683E+03  0.17200000000E+03 0. -1.
         -6    1    1    2    0  501  0.59128738634E+01 -0.10850713970E+03 -0.15075100316E+03  0.25321656027E+03  0.17200000000E+03 0.  1.
</event>
<event>
 4    1  0.3205520E-002  0.2222294E+03  0.7818608E-02  0.1132232E+00
         -2   -1    0    0    0  501 -0.00000000000E+00  0.00000000000E+00  0.49912530596E+03  0.49912530596E+03  0.00000000000E+00 0.  1.
          2   -1    0    0  502    0  0.00000000000E+00 -0.00000000000E+00 -0.18565748154E+03  0.18565748154E+03  0.00000000000E+00 0. -1.
          6    1    1    2  502    0  0.12201434098E+03  0.70102954410E+02 -0.77261622156E+02  0.23527703220E+03  0.17200000000E+03 0. -1.
         -6    1    1    2    0  501 -0.12201434098E+03 -0.70102954410E+02  0.39072944658E+03  0.44950575530E+03  0.17200000000E+03 0.  1.
</event>
<event>
 4    1  0.3205520E-002  0.1901347E+03  0.7818608E-02  0.1158340E+00
          3   -1    0    0  502    0  0.00000000000E+00  0.00000000000E+00  0.72102298856E+03  0.72102298856E+03  0.00000000000E+00 0. -1.
         -3   -1    0    0    0  501 -0.00000000000E+00 -0.00000000000E+00 -0.51708996221E+02  0.51708996221E+02  0.00000000000E+00 0.  1.
          6    1    1    2  502    0 -0.13221777949E+02 -0.79952450844E+02  0.26732892371E+03  0.32804872087E+03  0.17200000000E+03 0.  1.
         -6    1    1    2    0  501  0.13221777949E+02  0.79952450844E+02  0.40198506863E+03  0.44468326392E+03  0.17200000000E+03 0. -1.
</event>
<event>
 4    1  0.3205520E-002  0.5053913E+03  0.7818608E-02  0.1012381E+00
         -3   -1    0    0    0  501 -0.00000000000E+00  0.00000000000E+00  0.52869103382E+03  0.52869103382E+03  0.00000000000E+00 0.  1.
          3   -1    0    0  502    0  0.00000000000E+00 -0.00000000000E+00 -0.49025643881E+03  0.49025643881E+03  0.00000000000E+00 0. -1.
          6    1    1    2  502    0 -0.43483676658E+03 -0.19171160821E+03  0.80692546141E+02  0.51179257644E+03  0.17200000000E+03 0. -1.
         -6    1    1    2    0  501  0.43483676658E+03  0.19171160821E+03 -0.42257951137E+02  0.50715489619E+03  0.17200000000E+03 0.  1.
</event>
<event>
 4    1  0.3205520E-002  0.2705897E+03  0.7818608E-02  0.1100943E+00
         -2   -1    0    0    0  501 -0.00000000000E+00  0.00000000000E+00  0.38902547512E+03  0.38902547512E+03  0.00000000000E+00 0.  1.
          2   -1    0    0  502    0  0.00000000000E+00 -0.00000000000E+00 -0.19518549431E+03  0.19518549431E+03  0.00000000000E+00 0. -1.
          6    1    1    2  502    0  0.88754056500E+02 -0.18909648251E+03  0.41701920227E+02  0.27378424424E+03  0.17200000000E+03 0. -1.
         -6    1    1    2    0  501 -0.88754056500E+02  0.18909648251E+03  0.15213806058E+03  0.31042672520E+03  0.17200000000E+03 0.  1.
</event>
<event>
 4    1  0.3205520E-002  0.2028287E+03  0.7818608E-02  0.1147374E+00
          4   -1    0    0  502    0  0.00000000000E+00  0.00000000000E+00  0.16890843490E+03  0.16890843490E+03  0.00000000000E+00 0. -1.
         -4   -1    0    0    0  501 -0.00000000000E+00 -0.00000000000E+00 -0.24920231495E+03  0.24920231495E+03  0.00000000000E+00 0.  1.
          6    1    1    2  502    0 -0.10138741286E+03 -0.35721980291E+02 -0.71601569901E+02  0.21509591389E+03  0.17200000000E+03 0. -1.
         -6    1    1    2    0  501  0.10138741286E+03  0.35721980291E+02 -0.86923101516E+01  0.20301483595E+03  0.17200000000E+03 0. -1.
</event>
<event>
 4    1  0.3205520E-002  0.3153483E+03  0.7818608E-02  0.1077810E+00
          2   -1    0    0  502    0  0.00000000000E+00  0.00000000000E+00  0.10026123242E+04  0.10026123242E+04  0.00000000000E+00 0. -1.
         -2   -1    0    0    0  501 -0.00000000000E+00 -0.00000000000E+00 -0.99396344328E+02  0.99396344328E+02  0.00000000000E+00 0.  1.
          6    1    1    2  502    0 -0.26291452996E+03 -0.27138511517E+02  0.42622702731E+03  0.53020187446E+03  0.17200000000E+03 0.  1.
         -6    1    1    2    0  501  0.26291452996E+03  0.27138511517E+02  0.47698895255E+03  0.57180679405E+03  0.17200000000E+03 0.  1.
</event>
<event>
 4    1  0.3205520E-002  0.1768777E+03  0.7818608E-02  0.1170860E+00
         -1   -1    0    0    0  501 -0.00000000000E+00  0.00000000000E+00  0.49732515991E+02  0.49732515991E+02  0.00000000000E+00 0.  1.
          1   -1    0    0  502    0  0.00000000000E+00 -0.00000000000E+00 -0.65732171426E+03  0.65732171426E+03  0.00000000000E+00 0. -1.
          6    1    1    2  502    0  0.33553986789E+02  0.23996609862E+02 -0.37707417612E+03  0.41649806915E+03  0.17200000000E+03 0. -1.
         -6    1    1    2    0  501 -0.33553986789E+02 -0.23996609862E+02 -0.23051502215E+03  0.29055616110E+03  0.17200000000E+03 0.  1.
</event>
<event>
 4    1  0.3205520E-002  0.2207716E+03  0.7818608E-02  0.1133309E+00
         -2   -1    0    0    0  501 -0.00000000000E+00  0.00000000000E+00  0.43602169208E+03  0.43602169208E+03  0.00000000000E+00 0.  1.
          2   -1    0    0  502    0  0.00000000000E+00 -0.00000000000E+00 -0.46050622314E+03  0.46050622314E+03  0.00000000000E+00 0. -1.
          6    1    1    2  502    0 -0.10582861599E+03  0.89198578168E+02 -0.40232445313E+03  0.45891725605E+03  0.17200000000E+03 0. -1.
         -6    1    1    2    0  501  0.10582861599E+03 -0.89198578168E+02  0.37783992208E+03  0.43761065917E+03  0.17200000000E+03 0.  1.
</event>
<event>
 4    1  0.3205520E-002  0.3861234E+03  0.7818608E-02  0.1048693E+00
         -2   -1    0    0    0  501 -0.00000000000E+00  0.00000000000E+00  0.54828958186E+03  0.54828958186E+03  0.00000000000E+00 0.  1.
          2   -1    0    0  502    0  0.00000000000E+00 -0.00000000000E+00 -0.31844648375E+03  0.31844648375E+03  0.00000000000E+00 0. -1.
          6    1    1    2  502    0  0.13695541969E+03  0.31741214912E+03 -0.50726271714E+02  0.38944115606E+03  0.17200000000E+03 0. -1.
         -6    1    1    2    0  501 -0.13695541969E+03 -0.31741214912E+03  0.28056936983E+03  0.47729490955E+03  0.17200000000E+03 0.  1.
</event>
<event>
 4    1  0.3205520E-002  0.5072888E+03  0.7818608E-02  0.1011894E+00
          1   -1    0    0  502    0  0.00000000000E+00  0.00000000000E+00  0.47253295655E+03  0.47253295655E+03  0.00000000000E+00 0. -1.
         -1   -1    0    0    0  501 -0.00000000000E+00 -0.00000000000E+00 -0.73667795725E+03  0.73667795725E+03  0.00000000000E+00 0.  1.
          6    1    1    2  502    0  0.44496770784E+03 -0.17251582573E+03  0.17665174515E+03  0.53716646416E+03  0.17200000000E+03 0. -1.
         -6    1    1    2    0  501 -0.44496770784E+03  0.17251582573E+03 -0.44079674585E+03  0.67204444964E+03  0.17200000000E+03 0.  1.
</event>
<event>
 4    1  0.3205520E-002  0.2250222E+03  0.7818608E-02  0.1130193E+00
          1   -1    0    0  502    0  0.00000000000E+00  0.00000000000E+00  0.10272774830E+04  0.10272774830E+04  0.00000000000E+00 0. -1.
         -1   -1    0    0    0  501 -0.00000000000E+00 -0.00000000000E+00 -0.49341526594E+02  0.49341526594E+02  0.00000000000E+00 0.  1.
          6    1    1    2  502    0  0.13142619990E+02 -0.14449317056E+03  0.47165426463E+03  0.52258276870E+03  0.17200000000E+03 0. -1.
         -6    1    1    2    0  501 -0.13142619990E+02  0.14449317056E+03  0.50628169178E+03  0.55403624090E+03  0.17200000000E+03 0. -1.
</event>
<event>
 4    1  0.3205520E-002  0.1991182E+03  0.7818608E-02  0.1150485E+00
          2   -1    0    0  502    0  0.00000000000E+00  0.00000000000E+00  0.21450828650E+04  0.21450828650E+04  0.00000000000E+00 0. -1.
         -2   -1    0    0    0  501 -0.00000000000E+00 -0.00000000000E+00 -0.24866141971E+02  0.24866141971E+02  0.00000000000E+00 0.  1.
          6    1    1    2  502    0 -0.38262889058E+02 -0.92736193565E+02  0.51040940924E+03  0.54787390458E+03  0.17200000000E+03 0.  1.
         -6    1    1    2    0  501  0.38262889058E+02  0.92736193565E+02  0.16098073138E+04  0.16220751024E+04  0.17200000000E+03 0.  1.
</event>
<event>
 4    1  0.3205520E-002  0.1940600E+03  0.7818608E-02  0.1154850E+00
         -2   -1    0    0    0  501 -0.00000000000E+00  0.00000000000E+00  0.15159415200E+02  0.15159415200E+02  0.00000000000E+00 0.  1.
          2   -1    0    0  502    0  0.00000000000E+00 -0.00000000000E+00 -0.24970920614E+04  0.24970920614E+04  0.00000000000E+00 0. -1.
          6    1    1    2  502    0 -0.34373177631E-02  0.89862660090E+02 -0.11507744483E+04  0.11670223342E+04  0.17200000000E+03 0. -1.
         -6    1    1    2    0  501  0.34373177631E-02 -0.89862660090E+02 -0.13311581979E+04  0.13452291424E+04  0.17200000000E+03 0. -1.
</event>
<event>
 4    1  0.3205520E-002  0.2089564E+03  0.7818608E-02  0.1142395E+00
          2   -1    0    0  502    0  0.00000000000E+00  0.00000000000E+00  0.12836581117E+04  0.12836581117E+04  0.00000000000E+00 0. -1.
         -2   -1    0    0    0  501 -0.00000000000E+00 -0.00000000000E+00 -0.36006977593E+02  0.36006977593E+02  0.00000000000E+00 0.  1.
          6    1    1    2  502    0 -0.62937815306E+02 -0.10058623468E+03  0.77904876133E+03  0.80658522906E+03  0.17200000000E+03 0.  1.
         -6    1    1    2    0  501  0.62937815306E+02  0.10058623468E+03  0.46860237273E+03  0.51307986019E+03  0.17200000000E+03 0.  1.
</event>
<event>
 4    1  0.3205520E-002  0.2030400E+03  0.7818608E-02  0.1147199E+00
          2   -1    0    0  502    0  0.00000000000E+00  0.00000000000E+00  0.26506982282E+02  0.26506982282E+02  0.00000000000E+00 0. -1.
         -2   -1    0    0    0  501 -0.00000000000E+00 -0.00000000000E+00 -0.16213130121E+04  0.16213130121E+04  0.00000000000E+00 0.  1.
          6    1    1    2  502    0  0.10781276355E+03 -0.41993198818E+01 -0.96370426105E+03  0.98486096939E+03  0.17200000000E+03 0. -1.
         -6    1    1    2    0  501 -0.10781276355E+03  0.41993198818E+01 -0.63110176882E+03  0.66295902504E+03  0.17200000000E+03 0. -1.
</event>
<event>
 4    1  0.3205520E-002  0.2268835E+03  0.7818608E-02  0.1128853E+00
         -1   -1    0    0    0  501 -0.00000000000E+00  0.00000000000E+00  0.18856685120E+03  0.18856685120E+03  0.00000000000E+00 0.  1.
          1   -1    0    0  502    0  0.00000000000E+00 -0.00000000000E+00 -0.31517980796E+03  0.31517980796E+03  0.00000000000E+00 0. -1.
          6    1    1    2  502    0 -0.89312371583E+02 -0.11796356774E+03 -0.15546331382E+03  0.27503626120E+03  0.17200000000E+03 0.  1.
         -6    1    1    2    0  501  0.89312371583E+02  0.11796356774E+03  0.28850357051E+02  0.22871039796E+03  0.17200000000E+03 0.  1.
</event>
<event>
 4    1  0.3205520E-002  0.2703647E+03  0.7818608E-02  0.1101071E+00
          2   -1    0    0  502    0  0.00000000000E+00  0.00000000000E+00  0.12263033025E+04  0.12263033025E+04  0.00000000000E+00 0. -1.
         -2   -1    0    0    0  501 -0.00000000000E+00 -0.00000000000E+00 -0.61212398603E+02  0.61212398603E+02  0.00000000000E+00 0.  1.
          6    1    1    2  502    0 -0.11104455626E+03  0.17658472134E+03  0.47831216654E+03  0.54943569773E+03  0.17200000000E+03 0. -1.
         -6    1    1    2    0  501  0.11104455626E+03 -0.17658472134E+03  0.68677873739E+03  0.73808000340E+03  0.17200000000E+03 0.  1.
</event>
<event>
 4    1  0.3205520E-002  0.2528790E+03  0.7818608E-02  0.1111499E+00
          2   -1    0    0  502    0  0.00000000000E+00  0.00000000000E+00  0.26515944899E+04  0.26515944899E+04  0.00000000000E+00 0. -1.
         -2   -1    0    0    0  501 -0.00000000000E+00 -0.00000000000E+00 -0.15514004978E+03  0.15514004978E+03  0.00000000000E+00 0.  1.
          6    1    1    2  502    0  0.15465735019E+03  0.10220016841E+03  0.25379123456E+04  0.25504797283E+04  0.17200000000E+03 0. -1.
         -6    1    1    2    0  501 -0.15465735019E+03 -0.10220016841E+03 -0.41457905562E+02  0.25625481132E+03  0.17200000000E+03 0.  1.
</event>
<event>
 4    1  0.3205520E-002  0.4009284E+03  0.7818608E-02  0.1043459E+00
         -2   -1    0    0    0  501 -0.00000000000E+00  0.00000000000E+00  0.56750048409E+02  0.56750048409E+02  0.00000000000E+00 0.  1.
          2   -1    0    0  502    0  0.00000000000E+00 -0.00000000000E+00 -0.29886256525E+04  0.29886256525E+04  0.00000000000E+00 0. -1.
          6    1    1    2  502    0  0.15506640131E+03 -0.32728278688E+03 -0.18139819450E+04  0.18577605089E+04  0.17200000000E+03 0. -1.
         -6    1    1    2    0  501 -0.15506640131E+03  0.32728278688E+03 -0.11178936590E+04  0.11876151920E+04  0.17200000000E+03 0.  1.
</event>
<event>
 4    1  0.3205520E-002  0.2573865E+03  0.7818608E-02  0.1108724E+00
         -3   -1    0    0    0  501 -0.00000000000E+00  0.00000000000E+00  0.47785437935E+03  0.47785437935E+03  0.00000000000E+00 0.  1.
          3   -1    0    0  502    0  0.00000000000E+00 -0.00000000000E+00 -0.17338217628E+03  0.17338217628E+03  0.00000000000E+00 0. -1.
          6    1    1    2  502    0 -0.11095025064E+03 -0.15605725121E+03  0.64688360844E+01  0.25746780306E+03  0.17200000000E+03 0. -1.
         -6    1    1    2    0  501  0.11095025064E+03  0.15605725121E+03  0.29800336698E+03  0.39376875257E+03  0.17200000000E+03 0. -1.
</event>
<event>
 4    1  0.3205520E-002  0.2134083E+03  0.7818608E-02  0.1138895E+00
         -2   -1    0    0    0  501 -0.00000000000E+00  0.00000000000E+00  0.42147075730E+02  0.42147075730E+02  0.00000000000E+00 0.  1.
          2   -1    0    0  502    0  0.00000000000E+00 -0.00000000000E+00 -0.10808536141E+04  0.10808536141E+04  0.00000000000E+00 0. -1.
          6    1    1    2  502    0 -0.12099841782E+03 -0.36310700117E+02 -0.51034117607E+03  0.55316471331E+03  0.17200000000E+03 0. -1.
         -6    1    1    2    0  501  0.12099841782E+03  0.36310700117E+02 -0.52836536230E+03  0.56983597652E+03  0.17200000000E+03 0. -1.
</event>
<event>
 4    1  0.3205520E-002  0.2624575E+03  0.7818608E-02  0.1105676E+00
         -2   -1    0    0    0  501 -0.00000000000E+00  0.00000000000E+00  0.57658916195E+03  0.57658916195E+03  0.00000000000E+00 0.  1.
          2   -1    0    0  502    0  0.00000000000E+00 -0.00000000000E+00 -0.17083571488E+03  0.17083571488E+03  0.00000000000E+00 0. -1.
          6    1    1    2  502    0  0.13320974168E+03 -0.14681656953E+03 -0.20475675408E+01  0.26246548897E+03  0.17200000000E+03 0. -1.
         -6    1    1    2    0  501 -0.13320974168E+03  0.14681656953E+03  0.40780101460E+03  0.48495938786E+03  0.17200000000E+03 0.  1.
</event>
<event>
 4    1  0.3205520E-002  0.2955708E+03  0.7818608E-02  0.1087476E+00
          1   -1    0    0  502    0  0.00000000000E+00  0.00000000000E+00  0.12546059549E+04  0.12546059549E+04  0.00000000000E+00 0. -1.
         -1   -1    0    0    0  501 -0.00000000000E+00 -0.00000000000E+00 -0.10956750544E+03  0.10956750544E+03  0.00000000000E+00 0.  1.
          6    1    1    2  502    0  0.21163754395E+03  0.11396334322E+03  0.98430596781E+03  0.10277258058E+04  0.17200000000E+03 0. -1.
         -6    1    1    2    0  501 -0.21163754395E+03 -0.11396334322E+03  0.16073248168E+03  0.33644765458E+03  0.17200000000E+03 0.  1.
</event>
<event>
 4    1  0.3205520E-002  0.2367206E+03  0.7818608E-02  0.1121997E+00
         -2   -1    0    0    0  501 -0.00000000000E+00  0.00000000000E+00  0.58677942081E+02  0.58677942081E+02  0.00000000000E+00 0.  1.
          2   -1    0    0  502    0  0.00000000000E+00 -0.00000000000E+00 -0.10310698792E+04  0.10310698792E+04  0.00000000000E+00 0. -1.
          6    1    1    2  502    0 -0.15264894398E+03  0.56133359241E+02 -0.33818418327E+03  0.41280164235E+03  0.17200000000E+03 0. -1.
         -6    1    1    2    0  501  0.15264894398E+03 -0.56133359241E+02 -0.63420775381E+03  0.67694617889E+03  0.17200000000E+03 0.  1.
</event>
<event>
 4    1  0.3205520E-002  0.3761294E+03  0.7818608E-02  0.1052374E+00
          1   -1    0    0  502    0  0.00000000000E+00  0.00000000000E+00  0.16165683880E+04  0.16165683880E+04  0.00000000000E+00 0. -1.
         -1   -1    0    0    0  501 -0.00000000000E+00 -0.00000000000E+00 -0.89434095782E+02  0.89434095782E+02  0.00000000000E+00 0.  1.
          6    1    1    2  502    0  0.30245399622E+03  0.14286662421E+03  0.63860031910E+03  0.74113673482E+03  0.17200000000E+03 0. -1.
         -6    1    1    2    0  501 -0.30245399622E+03 -0.14286662421E+03  0.88853397315E+03  0.96486574899E+03  0.17200000000E+03 0.  1.
</event>
<event>
 4    1  0.3205520E-002  0.3451763E+03  0.7818608E-02  0.1064612E+00
         -1   -1    0    0    0  501 -0.00000000000E+00  0.00000000000E+00  0.33711085546E+04  0.33711085546E+04  0.00000000000E+00 0.  1.
          1   -1    0    0  502    0  0.00000000000E+00 -0.00000000000E+00 -0.38903940842E+02  0.38903940842E+02  0.00000000000E+00 0. -1.
          6    1    1    2  502    0  0.62531886899E+02 -0.29266436264E+03  0.21819043269E+04  0.22090389670E+04  0.17200000000E+03 0. -1.
         -6    1    1    2    0  501 -0.62531886899E+02  0.29266436264E+03  0.11503002869E+04  0.12009735284E+04  0.17200000000E+03 0.  1.
</event>
<event>
 4    1  0.3205520E-002  0.1841976E+03  0.7818608E-02  0.1163801E+00
          2   -1    0    0  502    0  0.00000000000E+00  0.00000000000E+00  0.40230173128E+03  0.40230173128E+03  0.00000000000E+00 0. -1.
         -2   -1    0    0    0  501 -0.00000000000E+00 -0.00000000000E+00 -0.91121970301E+02  0.91121970301E+02  0.00000000000E+00 0.  1.
          6    1    1    2  502    0  0.63438842086E+02  0.17896282952E+02  0.88266647461E+02  0.20425416687E+03  0.17200000000E+03 0.  1.
         -6    1    1    2    0  501 -0.63438842086E+02 -0.17896282952E+02  0.22291311352E+03  0.28916953471E+03  0.17200000000E+03 0. -1.
</event>
<event>
 4    1  0.3205520E-002  0.1933466E+03  0.7818608E-02  0.1155477E+00
         -2   -1    0    0    0  501 -0.00000000000E+00  0.00000000000E+00  0.24960251867E+02  0.24960251867E+02  0.00000000000E+00 0.  1.
          2   -1    0    0  502    0  0.00000000000E+00 -0.00000000000E+00 -0.15863511561E+04  0.15863511561E+04  0.00000000000E+00 0. -1.
          6    1    1    2  502    0 -0.33872652365E+02  0.81556958234E+02 -0.97115353274E+03  0.99021314784E+03  0.17200000000E+03 0. -1.
         -6    1    1    2    0  501  0.33872652365E+02 -0.81556958234E+02 -0.59023737145E+03  0.62109826008E+03  0.17200000000E+03 0. -1.
</event>
<event>
 4    1  0.3205520E-002  0.5331814E+03  0.7818608E-02  0.1005463E+00
          1   -1    0    0  502    0  0.00000000000E+00  0.00000000000E+00  0.11771012667E+04  0.11771012667E+04  0.00000000000E+00 0. -1.
         -1   -1    0    0    0  501 -0.00000000000E+00 -0.00000000000E+00 -0.47840175547E+03  0.47840175547E+03  0.00000000000E+00 0.  1.
          6    1    1    2  502    0  0.49811853063E+03 -0.81094826293E+02  0.93182573012E+03  0.10735835472E+04  0.17200000000E+03 0. -1.
         -6    1    1    2    0  501 -0.49811853063E+03  0.81094826293E+02 -0.23312621893E+03  0.58191947498E+03  0.17200000000E+03 0.  1.
</event>
<event>
 4    1  0.3205520E-002  0.2582065E+03  0.7818608E-02  0.1108226E+00
          1   -1    0    0  502    0  0.00000000000E+00  0.00000000000E+00  0.31820230620E+03  0.31820230620E+03  0.00000000000E+00 0. -1.
         -1   -1    0    0    0  501 -0.00000000000E+00 -0.00000000000E+00 -0.32549765515E+03  0.32549765515E+03  0.00000000000E+00 0.  1.
          6    1    1    2  502    0  0.18805574891E+03 -0.41492440557E+02  0.18846754610E+03  0.31967265015E+03  0.17200000000E+03 0. -1.
         -6    1    1    2    0  501 -0.18805574891E+03  0.41492440557E+02 -0.19576289505E+03  0.32402731120E+03  0.17200000000E+03 0.  1.
</event>
<event>
 4    1  0.3205520E-002  0.2055141E+03  0.7818608E-02  0.1145168E+00
         -2   -1    0    0    0  501 -0.00000000000E+00  0.00000000000E+00  0.22540906021E+03  0.22540906021E+03  0.00000000000E+00 0.  1.
          2   -1    0    0  502    0  0.00000000000E+00 -0.00000000000E+00 -0.15818961252E+04  0.15818961252E+04  0.00000000000E+00 0. -1.
          6    1    1    2  502    0  0.97248382514E+02  0.56522625839E+02 -0.15266911691E+04  0.15404616129E+04  0.17200000000E+03 0. -1.
         -6    1    1    2    0  501 -0.97248382514E+02 -0.56522625839E+02  0.17020410408E+03  0.26684357249E+03  0.17200000000E+03 0.  1.
</event>
<event>
 4    1  0.3205520E-002  0.2066337E+03  0.7818608E-02  0.1144260E+00
         -2   -1    0    0    0  501 -0.00000000000E+00  0.00000000000E+00  0.29316523445E+03  0.29316523445E+03  0.00000000000E+00 0.  1.
          2   -1    0    0  502    0  0.00000000000E+00 -0.00000000000E+00 -0.16113116074E+03  0.16113116074E+03  0.00000000000E+00 0. -1.
          6    1    1    2  502    0 -0.85564309127E+02  0.76106804645E+02 -0.44065106038E+01  0.20668070555E+03  0.17200000000E+03 0.  1.
         -6    1    1    2    0  501  0.85564309127E+02 -0.76106804645E+02  0.13644058432E+03  0.24761568964E+03  0.17200000000E+03 0.  1.
</event>
<event>
 4    1  0.3205520E-002  0.3059740E+03  0.7818608E-02  0.1082292E+00
         -2   -1    0    0    0  501 -0.00000000000E+00  0.00000000000E+00  0.29661359853E+03  0.29661359853E+03  0.00000000000E+00 0.  1.
          2   -1    0    0  502    0  0.00000000000E+00 -0.00000000000E+00 -0.32281404334E+03  0.32281404334E+03  0.00000000000E+00 0. -1.
          6    1    1    2  502    0 -0.63062104819E+02 -0.24506996264E+03  0.33103009879E+02  0.30775952449E+03  0.17200000000E+03 0. -1.
         -6    1    1    2    0  501  0.63062104819E+02  0.24506996264E+03 -0.59303454696E+02  0.31166811738E+03  0.17200000000E+03 0.  1.
</event>
<event>
 4    1  0.3205520E-002  0.2397043E+03  0.7818608E-02  0.1119990E+00
          1   -1    0    0  502    0  0.00000000000E+00  0.00000000000E+00  0.94158815845E+03  0.94158815845E+03  0.00000000000E+00 0. -1.
         -1   -1    0    0    0  501 -0.00000000000E+00 -0.00000000000E+00 -0.14086059989E+03  0.14086059989E+03  0.00000000000E+00 0.  1.
          6    1    1    2  502    0  0.42208379214E+02  0.16153207460E+03  0.80782605451E+03  0.84263936102E+03  0.17200000000E+03 0. -1.
         -6    1    1    2    0  501 -0.42208379214E+02 -0.16153207460E+03 -0.70984959484E+01  0.23980939732E+03  0.17200000000E+03 0.  1.
</event>
<event>
 4    1  0.3205520E-002  0.4863640E+03  0.7818608E-02  0.1017401E+00
         -1   -1    0    0    0  501 -0.00000000000E+00  0.00000000000E+00  0.24347003166E+03  0.24347003166E+03  0.00000000000E+00 0.  1.
          1   -1    0    0  502    0  0.00000000000E+00 -0.00000000000E+00 -0.97409945251E+03  0.97409945251E+03  0.00000000000E+00 0. -1.
          6    1    1    2  502    0  0.31911687833E+03  0.32423810750E+03 -0.39629290681E+03  0.62737389201E+03  0.17200000000E+03 0. -1.
         -6    1    1    2    0  501 -0.31911687833E+03 -0.32423810750E+03 -0.33433651404E+03  0.59019559217E+03  0.17200000000E+03 0.  1.
</event>
<event>
 4    1  0.3205520E-002  0.6439537E+03  0.7818608E-02  0.9818191E-01
          1   -1    0    0  502    0  0.00000000000E+00  0.00000000000E+00  0.70626826487E+03  0.70626826487E+03  0.00000000000E+00 0. -1.
         -1   -1    0    0    0  501 -0.00000000000E+00 -0.00000000000E+00 -0.59864895956E+03  0.59864895956E+03  0.00000000000E+00 0.  1.
          6    1    1    2  502    0  0.47380445021E+03 -0.40075138844E+03 -0.36667463917E+02  0.64499677153E+03  0.17200000000E+03 0. -1.
         -6    1    1    2    0  501 -0.47380445021E+03  0.40075138844E+03  0.14428676922E+03  0.65992045290E+03  0.17200000000E+03 0.  1.
</event>
<event>
 4    1  0.3205520E-002  0.1960481E+03  0.7818608E-02  0.1153117E+00
          2   -1    0    0  502    0  0.00000000000E+00  0.00000000000E+00  0.48899270719E+03  0.48899270719E+03  0.00000000000E+00 0. -1.
         -2   -1    0    0    0  501 -0.00000000000E+00 -0.00000000000E+00 -0.28222509209E+03  0.28222509209E+03  0.00000000000E+00 0.  1.
          6    1    1    2  502    0 -0.93783392077E+02 -0.74524838387E+01  0.43092415268E+03  0.47342421728E+03  0.17200000000E+03 0. -1.
         -6    1    1    2    0  501  0.93783392077E+02  0.74524838387E+01 -0.22415653758E+03  0.29779358201E+03  0.17200000000E+03 0.  1.
</event>
<event>
 4    1  0.3205520E-002  0.2021727E+03  0.7818608E-02  0.1147919E+00
          2   -1    0    0  502    0  0.00000000000E+00  0.00000000000E+00  0.54929926145E+03  0.54929926145E+03  0.00000000000E+00 0. -1.
         -2   -1    0    0    0  501 -0.00000000000E+00 -0.00000000000E+00 -0.96776450447E+02  0.96776450447E+02  0.00000000000E+00 0.  1.
          6    1    1    2  502    0  0.17672512948E+02 -0.10477353196E+03  0.38155698987E+03  0.43180961919E+03  0.17200000000E+03 0. -1.
         -6    1    1    2    0  501 -0.17672512948E+02  0.10477353196E+03  0.70965821141E+02  0.21426609271E+03  0.17200000000E+03 0.  1.
</event>
<event>
 4    1  0.3205520E-002  0.1742683E+03  0.7818608E-02  0.1173468E+00
          1   -1    0    0  502    0  0.00000000000E+00  0.00000000000E+00  0.19187589304E+04  0.19187589304E+04  0.00000000000E+00 0. -1.
         -1   -1    0    0    0  501 -0.00000000000E+00 -0.00000000000E+00 -0.16409759894E+02  0.16409759894E+02  0.00000000000E+00 0.  1.
          6    1    1    2  502    0 -0.11366127927E+01 -0.28002802046E+02  0.11334127897E+04  0.11467318783E+04  0.17200000000E+03 0. -1.
         -6    1    1    2    0  501  0.11366127927E+01  0.28002802046E+02  0.76893638087E+03  0.78843681207E+03  0.17200000000E+03 0.  1.
</event>
<event>
 4    1  0.3205520E-002  0.2889432E+03  0.7818608E-02  0.1090902E+00
          1   -1    0    0  502    0  0.00000000000E+00  0.00000000000E+00  0.28557685587E+03  0.28557685587E+03  0.00000000000E+00 0. -1.
         -1   -1    0    0    0  501 -0.00000000000E+00 -0.00000000000E+00 -0.44158692375E+03  0.44158692375E+03  0.00000000000E+00 0.  1.
          6    1    1    2  502    0 -0.88284131588E+02 -0.21473259318E+03  0.13336012577E+03  0.31823434385E+03  0.17200000000E+03 0. -1.
         -6    1    1    2    0  501  0.88284131588E+02  0.21473259318E+03 -0.28937019365E+03  0.40892943577E+03  0.17200000000E+03 0.  1.
</event>
<event>
 4    1  0.3205520E-002  0.2093733E+03  0.7818608E-02  0.1142063E+00
          3   -1    0    0  502    0  0.00000000000E+00  0.00000000000E+00  0.35576041811E+03  0.35576041811E+03  0.00000000000E+00 0. -1.
         -3   -1    0    0    0  501 -0.00000000000E+00 -0.00000000000E+00 -0.13246611035E+03  0.13246611035E+03  0.00000000000E+00 0.  1.
          6    1    1    2  502    0  0.67891579039E+02  0.98203453657E+02  0.47157056476E+02  0.21461820237E+03  0.17200000000E+03 0. -1.
         -6    1    1    2    0  501 -0.67891579039E+02 -0.98203453657E+02  0.17613725128E+03  0.27360832609E+03  0.17200000000E+03 0. -1.
</event>
<event>
 4    1  0.3205520E-002  0.2509095E+03  0.7818608E-02  0.1112731E+00
          2   -1    0    0  502    0  0.00000000000E+00  0.00000000000E+00  0.42080205958E+04  0.42080205958E+04  0.00000000000E+00 0. -1.
         -2   -1    0    0    0  501 -0.00000000000E+00 -0.00000000000E+00 -0.32497039269E+02  0.32497039269E+02  0.00000000000E+00 0.  1.
          6    1    1    2  502    0  0.18120583876E+03  0.23152145883E+02  0.36452850860E+04  0.36539100886E+04  0.17200000000E+03 0. -1.
         -6    1    1    2    0  501 -0.18120583876E+03 -0.23152145883E+02  0.53023847051E+03  0.58660754638E+03  0.17200000000E+03 0.  1.
</event>
<event>
 4    1  0.3205520E-002  0.2351590E+03  0.7818608E-02  0.1123060E+00
         -2   -1    0    0    0  501 -0.00000000000E+00  0.00000000000E+00  0.90399130317E+02  0.90399130317E+02  0.00000000000E+00 0.  1.
          2   -1    0    0  502    0  0.00000000000E+00 -0.00000000000E+00 -0.82567625739E+03  0.82567625739E+03  0.00000000000E+00 0. -1.
          6    1    1    2  502    0 -0.13273820198E+03  0.89979704471E+02 -0.60079617324E+03  0.64517890485E+03  0.17200000000E+03 0. -1.
         -6    1    1    2    0  501  0.13273820198E+03 -0.89979704471E+02 -0.13448095384E+03  0.27089648286E+03  0.17200000000E+03 0.  1.
</event>
<event>
 4    1  0.3205520E-002  0.2170573E+03  0.7818608E-02  0.1136096E+00
         -1   -1    0    0    0  501 -0.00000000000E+00  0.00000000000E+00  0.57905885989E+02  0.57905885989E+02  0.00000000000E+00 0.  1.
          1   -1    0    0  502    0  0.00000000000E+00 -0.00000000000E+00 -0.81756051705E+03  0.81756051705E+03  0.00000000000E+00 0. -1.
          6    1    1    2  502    0 -0.28513743979E+02 -0.12929365882E+03 -0.34947073877E+03  0.41139236875E+03  0.17200000000E+03 0. -1.
         -6    1    1    2    0  501  0.28513743979E+02  0.12929365882E+03 -0.41018389229E+03  0.46407403429E+03  0.17200000000E+03 0.  1.
</event>
<event>
 4    1  0.3205520E-002  0.3315901E+03  0.7818608E-02  0.1070435E+00
         -1   -1    0    0    0  501 -0.00000000000E+00  0.00000000000E+00  0.69019037341E+03  0.69019037341E+03  0.00000000000E+00 0.  1.
          1   -1    0    0  502    0  0.00000000000E+00 -0.00000000000E+00 -0.62028620363E+03  0.62028620363E+03  0.00000000000E+00 0. -1.
          6    1    1    2  502    0 -0.28332331994E+03  0.97920079938E+01 -0.52991203545E+03  0.62510699273E+03  0.17200000000E+03 0. -1.
         -6    1    1    2    0  501  0.28332331994E+03 -0.97920079938E+01  0.59981620523E+03  0.68536958432E+03  0.17200000000E+03 0.  1.
</event>
<event>
 4    1  0.3205520E-002  0.3070133E+03  0.7818608E-02  0.1081786E+00
         -1   -1    0    0    0  501 -0.00000000000E+00  0.00000000000E+00  0.10101545594E+04  0.10101545594E+04  0.00000000000E+00 0.  1.
          1   -1    0    0  502    0  0.00000000000E+00 -0.00000000000E+00 -0.13120005588E+03  0.13120005588E+03  0.00000000000E+00 0. -1.
          6    1    1    2  502    0 -0.42778337077E+02  0.25068536702E+03  0.13279518101E+03  0.33450216660E+03  0.17200000000E+03 0. -1.
         -6    1    1    2    0  501  0.42778337077E+02 -0.25068536702E+03  0.74615932252E+03  0.80685244869E+03  0.17200000000E+03 0.  1.
</event>
<event>
 4    1  0.3205520E-002  0.2088858E+03  0.7818608E-02  0.1142451E+00
          1   -1    0    0  502    0  0.00000000000E+00  0.00000000000E+00  0.34248448195E+03  0.34248448195E+03  0.00000000000E+00 0. -1.
         -1   -1    0    0    0  501 -0.00000000000E+00 -0.00000000000E+00 -0.17283192799E+03  0.17283192799E+03  0.00000000000E+00 0.  1.
          6    1    1    2  502    0  0.13844659132E+02  0.11771833069E+03  0.21692603100E+03  0.30114810790E+03  0.17200000000E+03 0. -1.
         -6    1    1    2    0  501 -0.13844659132E+02 -0.11771833069E+03 -0.47273477044E+02  0.21416830204E+03  0.17200000000E+03 0.  1.
</event>
<event>
 4    1  0.3205520E-002  0.3071473E+03  0.7818608E-02  0.1081721E+00
          2   -1    0    0  502    0  0.00000000000E+00  0.00000000000E+00  0.91521705326E+03  0.91521705326E+03  0.00000000000E+00 0. -1.
         -2   -1    0    0    0  501 -0.00000000000E+00 -0.00000000000E+00 -0.10455431704E+03  0.10455431704E+03  0.00000000000E+00 0.  1.
          6    1    1    2  502    0  0.90836441925E+02 -0.23770618547E+03  0.46590333355E+03  0.55803710092E+03  0.17200000000E+03 0. -1.
         -6    1    1    2    0  501 -0.90836441925E+02  0.23770618547E+03  0.34475940267E+03  0.46173426938E+03  0.17200000000E+03 0.  1.
</event>
<event>
 4    1  0.3205520E-002  0.7978774E+03  0.7818608E-02  0.9563095E-01
          2   -1    0    0  502    0  0.00000000000E+00  0.00000000000E+00  0.24905782199E+04  0.24905782199E+04  0.00000000000E+00 0. -1.
         -2   -1    0    0    0  501 -0.00000000000E+00 -0.00000000000E+00 -0.54933721164E+03  0.54933721164E+03  0.00000000000E+00 0.  1.
          6    1    1    2  502    0 -0.41189945138E+03 -0.66133445401E+03  0.20820618438E+04  0.22297062451E+04  0.17200000000E+03 0. -1.
         -6    1    1    2    0  501  0.41189945138E+03  0.66133445401E+03 -0.14082083551E+03  0.81020918646E+03  0.17200000000E+03 0.  1.
</event>
<event>
 4    1  0.3205520E-002  0.1880841E+03  0.7818608E-02  0.1160201E+00
          2   -1    0    0  502    0  0.00000000000E+00  0.00000000000E+00  0.10237808915E+04  0.10237808915E+04  0.00000000000E+00 0. -1.
         -2   -1    0    0    0  501 -0.00000000000E+00 -0.00000000000E+00 -0.39829820970E+02  0.39829820970E+02  0.00000000000E+00 0.  1.
          6    1    1    2  502    0 -0.27759294091E+02 -0.70859501752E+02  0.68552709331E+03  0.71086077615E+03  0.17200000000E+03 0. -1.
         -6    1    1    2    0  501  0.27759294091E+02  0.70859501752E+02  0.29842397721E+03  0.35274993631E+03  0.17200000000E+03 0.  1.
</event>
<event>
 4    1  0.3205520E-002  0.9326603E+03  0.7818608E-02  0.9385651E-01
          2   -1    0    0  502    0  0.00000000000E+00  0.00000000000E+00  0.17517908950E+04  0.17517908950E+04  0.00000000000E+00 0. -1.
         -2   -1    0    0    0  501 -0.00000000000E+00 -0.00000000000E+00 -0.60741055223E+03  0.60741055223E+03  0.00000000000E+00 0.  1.
          6    1    1    2  502    0  0.40076038344E+03  0.82441639861E+03  0.10761297325E+04  0.14240472199E+04  0.17200000000E+03 0. -1.
         -6    1    1    2    0  501 -0.40076038344E+03 -0.82441639861E+03  0.68250610322E+02  0.93515422741E+03  0.17200000000E+03 0.  1.
</event>
<event>
 4    1  0.3205520E-002  0.1851884E+03  0.7818608E-02  0.1162874E+00
          2   -1    0    0  502    0  0.00000000000E+00  0.00000000000E+00  0.12313154542E+04  0.12313154542E+04  0.00000000000E+00 0. -1.
         -2   -1    0    0    0  501 -0.00000000000E+00 -0.00000000000E+00 -0.35958463295E+02  0.35958463295E+02  0.00000000000E+00 0.  1.
          6    1    1    2  502    0  0.50333828374E+02  0.46661043068E+02  0.89853014969E+03  0.91741548773E+03  0.17200000000E+03 0. -1.
         -6    1    1    2    0  501 -0.50333828374E+02 -0.46661043068E+02  0.29682684125E+03  0.34985842981E+03  0.17200000000E+03 0. -1.
</event>
<event>
 4    1  0.3205520E-002  0.4705418E+03  0.7818608E-02  0.1021767E+00
         -2   -1    0    0    0  501 -0.00000000000E+00  0.00000000000E+00  0.33039591051E+03  0.33039591051E+03  0.00000000000E+00 0.  1.
          2   -1    0    0  502    0  0.00000000000E+00 -0.00000000000E+00 -0.87857718904E+03  0.87857718904E+03  0.00000000000E+00 0. -1.
          6    1    1    2  502    0  0.31020142290E+02 -0.43687909265E+03 -0.56852626212E+03  0.73799166766E+03  0.17200000000E+03 0. -1.
         -6    1    1    2    0  501 -0.31020142290E+02  0.43687909265E+03  0.20344983596E+02  0.47098143188E+03  0.17200000000E+03 0.  1.
</event>
<event>
 4    1  0.3205520E-002  0.2003428E+03  0.7818608E-02  0.1149450E+00
         -1   -1    0    0    0  501 -0.00000000000E+00  0.00000000000E+00  0.50258541819E+02  0.50258541819E+02  0.00000000000E+00 0.  1.
          1   -1    0    0  502    0  0.00000000000E+00 -0.00000000000E+00 -0.19381574275E+04  0.19381574275E+04  0.00000000000E+00 0. -1.
          6    1    1    2  502    0  0.20252318583E+02 -0.10071278329E+03 -0.17062881787E+04  0.17180094790E+04  0.17200000000E+03 0.  1.
         -6    1    1    2    0  501 -0.20252318583E+02  0.10071278329E+03 -0.18161070700E+03  0.27040649034E+03  0.17200000000E+03 0.  1.
</event>
<event>
 4    1  0.3205520E-002  0.2844228E+03  0.7818608E-02  0.1093298E+00
          3   -1    0    0  502    0  0.00000000000E+00  0.00000000000E+00  0.14859633303E+03  0.14859633303E+03  0.00000000000E+00 0. -1.
         -3   -1    0    0    0  501 -0.00000000000E+00 -0.00000000000E+00 -0.11908461634E+04  0.11908461634E+04  0.00000000000E+00 0.  1.
          6    1    1    2  502    0  0.12903211463E+03 -0.18618017726E+03 -0.27688388543E+02  0.28576737370E+03  0.17200000000E+03 0. -1.
         -6    1    1    2    0  501 -0.12903211463E+03  0.18618017726E+03 -0.10145614418E+04  0.10536751227E+04  0.17200000000E+03 0.  1.
</event>
<event>
 4    1  0.3205520E-002  0.3002125E+03  0.7818608E-02  0.1085134E+00
         -1   -1    0    0    0  501 -0.00000000000E+00  0.00000000000E+00  0.72196350969E+03  0.72196350969E+03  0.00000000000E+00 0.  1.
          1   -1    0    0  502    0  0.00000000000E+00 -0.00000000000E+00 -0.38716224128E+03  0.38716224128E+03  0.00000000000E+00 0. -1.
          6    1    1    2  502    0  0.88191028585E+01 -0.24589787046E+03 -0.28908234350E+03  0.41676868956E+03  0.17200000000E+03 0. -1.
         -6    1    1    2    0  501 -0.88191028585E+01  0.24589787046E+03  0.62388361191E+03  0.69235706141E+03  0.17200000000E+03 0.  1.
</event>
<event>
 4    1  0.3205520E-002  0.2147657E+03  0.7818608E-02  0.1137847E+00
          1   -1    0    0  502    0  0.00000000000E+00  0.00000000000E+00  0.12373308052E+04  0.12373308052E+04  0.00000000000E+00 0. -1.
         -1   -1    0    0    0  501 -0.00000000000E+00 -0.00000000000E+00 -0.46876413846E+02  0.46876413846E+02  0.00000000000E+00 0.  1.
          6    1    1    2  502    0 -0.11115598789E+03 -0.64689010922E+02  0.30466170182E+03  0.37275068657E+03  0.17200000000E+03 0.  1.
         -6    1    1    2    0  501  0.11115598789E+03  0.64689010922E+02  0.88579268957E+03  0.91145653252E+03  0.17200000000E+03 0. -1.
</event>
<event>
 4    1  0.3205520E-002  0.2043025E+03  0.7818608E-02  0.1146159E+00
         -1   -1    0    0    0  501 -0.00000000000E+00  0.00000000000E+00  0.19978349689E+03  0.19978349689E+03  0.00000000000E+00 0.  1.
          1   -1    0    0  502    0  0.00000000000E+00 -0.00000000000E+00 -0.33848225346E+03  0.33848225346E+03  0.00000000000E+00 0. -1.
          6    1    1    2  502    0  0.10963255703E+03  0.11670813940E+02 -0.23585613457E+03  0.31203785295E+03  0.17200000000E+03 0. -1.
         -6    1    1    2    0  501 -0.10963255703E+03 -0.11670813940E+02  0.97157378003E+02  0.22622789740E+03  0.17200000000E+03 0.  1.
</event>
<event>
 4    1  0.3205520E-002  0.1960862E+03  0.7818608E-02  0.1153084E+00
          1   -1    0    0  502    0  0.00000000000E+00  0.00000000000E+00  0.38659219614E+03  0.38659219614E+03  0.00000000000E+00 0. -1.
         -1   -1    0    0    0  501 -0.00000000000E+00 -0.00000000000E+00 -0.33690767013E+03  0.33690767013E+03  0.00000000000E+00 0.  1.
          6    1    1    2  502    0  0.41816728540E+02 -0.84363262722E+02  0.32853788420E+03  0.38260546289E+03  0.17200000000E+03 0. -1.
         -6    1    1    2    0  501 -0.41816728540E+02  0.84363262722E+02 -0.27885335819E+03  0.34089440338E+03  0.17200000000E+03 0.  1.
</event>
<event>
 4    1  0.3205520E-002  0.2116605E+03  0.7818608E-02  0.1140258E+00
          1   -1    0    0  502    0  0.00000000000E+00  0.00000000000E+00  0.13815047200E+03  0.13815047200E+03  0.00000000000E+00 0. -1.
         -1   -1    0    0    0  501 -0.00000000000E+00 -0.00000000000E+00 -0.74513896506E+03  0.74513896506E+03  0.00000000000E+00 0.  1.
          6    1    1    2  502    0  0.95612625533E+01  0.12298266525E+03  0.28415504520E+02  0.21355934677E+03  0.17200000000E+03 0. -1.
         -6    1    1    2    0  501 -0.95612625533E+01 -0.12298266525E+03 -0.63540399758E+03  0.66973009029E+03  0.17200000000E+03 0.  1.
</event>
<event>
 4    1  0.3205520E-002  0.3671289E+03  0.7818608E-02  0.1055796E+00
          2   -1    0    0  502    0  0.00000000000E+00  0.00000000000E+00  0.33529909770E+03  0.33529909770E+03  0.00000000000E+00 0. -1.
         -2   -1    0    0    0  501 -0.00000000000E+00 -0.00000000000E+00 -0.45597580566E+03  0.45597580566E+03  0.00000000000E+00 0.  1.
          6    1    1    2  502    0  0.31174928829E+03 -0.89509769179E+02  0.75807830506E+02  0.37487390506E+03  0.17200000000E+03 0. -1.
         -6    1    1    2    0  501 -0.31174928829E+03  0.89509769179E+02 -0.19648453847E+03  0.41640099830E+03  0.17200000000E+03 0.  1.
</event>
<event>
 4    1  0.3205520E-002  0.2509900E+03  0.7818608E-02  0.1112681E+00
          2   -1    0    0  502    0  0.00000000000E+00  0.00000000000E+00  0.14585929947E+04  0.14585929947E+04  0.00000000000E+00 0. -1.
         -2   -1    0    0    0  501 -0.00000000000E+00 -0.00000000000E+00 -0.44535294113E+02  0.44535294113E+02  0.00000000000E+00 0.  1.
          6    1    1    2  502    0 -0.28981978019E+02 -0.18047722898E+03  0.83767421662E+03  0.87446788302E+03  0.17200000000E+03 0. -1.
         -6    1    1    2    0  501  0.28981978019E+02  0.18047722898E+03  0.57638348395E+03  0.62866040578E+03  0.17200000000E+03 0.  1.
</event>
<event>
 4    1  0.3205520E-002  0.2005313E+03  0.7818608E-02  0.1149292E+00
          2   -1    0    0  502    0  0.00000000000E+00  0.00000000000E+00  0.21716718906E+04  0.21716718906E+04  0.00000000000E+00 0. -1.
         -2   -1    0    0    0  501 -0.00000000000E+00 -0.00000000000E+00 -0.18536112218E+02  0.18536112218E+02  0.00000000000E+00 0.  1.
          6    1    1    2  502    0 -0.81531657972E+02  0.63098198473E+02  0.11117552346E+04  0.11296957535E+04  0.17200000000E+03 0. -1.
         -6    1    1    2    0  501  0.81531657972E+02 -0.63098198473E+02  0.10413805438E+04  0.10605122493E+04  0.17200000000E+03 0.  1.
</event>
<event>
 4    1  0.3205520E-002  0.1747581E+03  0.7818608E-02  0.1172975E+00
         -1   -1    0    0    0  501 -0.00000000000E+00  0.00000000000E+00  0.12446698761E+03  0.12446698761E+03  0.00000000000E+00 0.  1.
          1   -1    0    0  502    0  0.00000000000E+00 -0.00000000000E+00 -0.25281858959E+03  0.25281858959E+03  0.00000000000E+00 0. -1.
          6    1    1    2  502    0  0.18710868521E+02  0.24623440167E+02 -0.31795158868E+02  0.17762697581E+03  0.17200000000E+03 0.  1.
         -6    1    1    2    0  501 -0.18710868521E+02 -0.24623440167E+02 -0.96556443107E+02  0.19965860140E+03  0.17200000000E+03 0. -1.
</event>
<event>
 4    1  0.3205520E-002  0.1760138E+03  0.7818608E-02  0.1171718E+00
         -2   -1    0    0    0  501 -0.00000000000E+00  0.00000000000E+00  0.15010240296E+03  0.15010240296E+03  0.00000000000E+00 0.  1.
          2   -1    0    0  502    0  0.00000000000E+00 -0.00000000000E+00 -0.41940345652E+03  0.41940345652E+03  0.00000000000E+00 0. -1.
          6    1    1    2  502    0 -0.30971628677E+02  0.20919470972E+02 -0.33758104160E+03  0.38071226103E+03  0.17200000000E+03 0. -1.
         -6    1    1    2    0  501  0.30971628677E+02 -0.20919470972E+02  0.68279988039E+02  0.18879359845E+03  0.17200000000E+03 0.  1.
</event>
<event>
 4    1  0.3205520E-002  0.2041204E+03  0.7818608E-02  0.1146308E+00
          1   -1    0    0  502    0  0.00000000000E+00  0.00000000000E+00  0.93615175524E+03  0.93615175524E+03  0.00000000000E+00 0. -1.
         -1   -1    0    0    0  501 -0.00000000000E+00 -0.00000000000E+00 -0.52875362064E+02  0.52875362064E+02  0.00000000000E+00 0.  1.
          6    1    1    2  502    0 -0.84030433949E+02  0.70852056601E+02  0.63837096479E+03  0.67021087461E+03  0.17200000000E+03 0. -1.
         -6    1    1    2    0  501  0.84030433949E+02 -0.70852056601E+02  0.24490542838E+03  0.31881624269E+03  0.17200000000E+03 0.  1.
</event>
<event>
 4    1  0.3205520E-002  0.5200741E+03  0.7818608E-02  0.1008668E+00
          1   -1    0    0  502    0  0.00000000000E+00  0.00000000000E+00  0.19167775776E+03  0.19167775776E+03  0.00000000000E+00 0. -1.
         -1   -1    0    0    0  501 -0.00000000000E+00 -0.00000000000E+00 -0.20675021679E+04  0.20675021679E+04  0.00000000000E+00 0.  1.
          6    1    1    2  502    0  0.29256519073E+03 -0.39407957871E+03 -0.30143659039E+03  0.60111656375E+03  0.17200000000E+03 0. -1.
         -6    1    1    2    0  501 -0.29256519073E+03  0.39407957871E+03 -0.15743878198E+04  0.16580633620E+04  0.17200000000E+03 0.  1.
</event>
<event>
 4    1  0.3205520E-002  0.2186252E+03  0.7818608E-02  0.1134912E+00
          2   -1    0    0  502    0  0.00000000000E+00  0.00000000000E+00  0.40007098497E+03  0.40007098497E+03  0.00000000000E+00 0. -1.
         -2   -1    0    0    0  501 -0.00000000000E+00 -0.00000000000E+00 -0.13246279954E+03  0.13246279954E+03  0.00000000000E+00 0.  1.
          6    1    1    2  502    0 -0.16493851838E+01 -0.13494545306E+03  0.21719141927E+03  0.30817058324E+03  0.17200000000E+03 0. -1.
         -6    1    1    2    0  501  0.16493851838E+01  0.13494545306E+03  0.50416766165E+02  0.22436320127E+03  0.17200000000E+03 0.  1.
</event>
<event>
 4    1  0.3205520E-002  0.2413854E+03  0.7818608E-02  0.1118873E+00
         -2   -1    0    0    0  501 -0.00000000000E+00  0.00000000000E+00  0.36182201506E+03  0.36182201506E+03  0.00000000000E+00 0.  1.
          2   -1    0    0  502    0  0.00000000000E+00 -0.00000000000E+00 -0.30972425883E+03  0.30972425883E+03  0.00000000000E+00 0. -1.
          6    1    1    2  502    0 -0.13938678816E+03 -0.96199039328E+02 -0.20659648820E+03  0.31772478785E+03  0.17200000000E+03 0. -1.
         -6    1    1    2    0  501  0.13938678816E+03  0.96199039328E+02  0.25869424443E+03  0.35382148604E+03  0.17200000000E+03 0.  1.
</event>
<event>
 4    1  0.3205520E-002  0.1970583E+03  0.7818608E-02  0.1152245E+00
          1   -1    0    0  502    0  0.00000000000E+00  0.00000000000E+00  0.30421232228E+03  0.30421232228E+03  0.00000000000E+00 0. -1.
         -1   -1    0    0    0  501 -0.00000000000E+00 -0.00000000000E+00 -0.17249559503E+03  0.17249559503E+03  0.00000000000E+00 0.  1.
          6    1    1    2  502    0  0.73522461507E+02  0.61987416169E+02  0.18739426154E+03  0.27193492120E+03  0.17200000000E+03 0.  1.
         -6    1    1    2    0  501 -0.73522461507E+02 -0.61987416169E+02 -0.55677534290E+02  0.20477299611E+03  0.17200000000E+03 0.  1.
</event>
<event>
 4    1  0.3205520E-002  0.3249261E+03  0.7818608E-02  0.1073404E+00
         -2   -1    0    0    0  501 -0.00000000000E+00  0.00000000000E+00  0.29466089288E+03  0.29466089288E+03  0.00000000000E+00 0.  1.
          2   -1    0    0  502    0  0.00000000000E+00 -0.00000000000E+00 -0.61968854687E+03  0.61968854687E+03  0.00000000000E+00 0. -1.
          6    1    1    2  502    0  0.14070223909E+03 -0.23705660948E+03 -0.45943342749E+03  0.56272198329E+03  0.17200000000E+03 0. -1.
         -6    1    1    2    0  501 -0.14070223909E+03  0.23705660948E+03  0.13440577351E+03  0.35162745646E+03  0.17200000000E+03 0.  1.
</event>
<event>
 4    1  0.3205520E-002  0.1902300E+03  0.7818608E-02  0.1158254E+00
         -2   -1    0    0    0  501 -0.00000000000E+00  0.00000000000E+00  0.34907828543E+02  0.34907828543E+02  0.00000000000E+00 0.  1.
          2   -1    0    0  502    0  0.00000000000E+00 -0.00000000000E+00 -0.10473010204E+04  0.10473010204E+04  0.00000000000E+00 0. -1.
          6    1    1    2  502    0  0.80884582625E+02 -0.78194041374E+01 -0.45164719256E+03  0.49007412229E+03  0.17200000000E+03 0. -1.
         -6    1    1    2    0  501 -0.80884582625E+02  0.78194041374E+01 -0.56074599931E+03  0.59213472667E+03  0.17200000000E+03 0. -1.
</event>
<event>
 4    1  0.3205520E-002  0.3223039E+03  0.7818608E-02  0.1074594E+00
         -2   -1    0    0    0  501 -0.00000000000E+00  0.00000000000E+00  0.23340967662E+03  0.23340967662E+03  0.00000000000E+00 0.  1.
          2   -1    0    0  502    0  0.00000000000E+00 -0.00000000000E+00 -0.60884705850E+03  0.60884705850E+03  0.00000000000E+00 0. -1.
          6    1    1    2  502    0 -0.91888323689E+01 -0.27241765303E+03  0.30709502097E+02  0.32376362650E+03  0.17200000000E+03 0. -1.
         -6    1    1    2    0  501  0.91888323689E+01  0.27241765303E+03 -0.40614688398E+03  0.51849310863E+03  0.17200000000E+03 0. -1.
</event>
<event>
 4    1  0.3205520E-002  0.3971378E+03  0.7818608E-02  0.1044775E+00
         -1   -1    0    0    0  501 -0.00000000000E+00  0.00000000000E+00  0.39372916686E+03  0.39372916686E+03  0.00000000000E+00 0.  1.
          1   -1    0    0  502    0  0.00000000000E+00 -0.00000000000E+00 -0.78908842934E+03  0.78908842934E+03  0.00000000000E+00 0. -1.
          6    1    1    2  502    0 -0.12346414728E+02 -0.35774573640E+03 -0.61265986853E+03  0.73011681283E+03  0.17200000000E+03 0. -1.
         -6    1    1    2    0  501  0.12346414728E+02  0.35774573640E+03  0.21730060606E+03  0.45270078337E+03  0.17200000000E+03 0.  1.
</event>
<event>
 4    1  0.3205520E-002  0.1731504E+03  0.7818608E-02  0.1174602E+00
         -2   -1    0    0    0  501 -0.00000000000E+00  0.00000000000E+00  0.13100910608E+03  0.13100910608E+03  0.00000000000E+00 0.  1.
          2   -1    0    0  502    0  0.00000000000E+00 -0.00000000000E+00 -0.23591347183E+03  0.23591347183E+03  0.00000000000E+00 0. -1.
          6    1    1    2  502    0  0.14310468521E+01  0.19874658762E+02 -0.20700462521E+02  0.17438336820E+03  0.17200000000E+03 0.  1.
         -6    1    1    2    0  501 -0.14310468521E+01 -0.19874658762E+02 -0.84203903231E+02  0.19253920971E+03  0.17200000000E+03 0. -1.
</event>
<event>
 4    1  0.3205520E-002  0.2145978E+03  0.7818608E-02  0.1137976E+00
          2   -1    0    0  502    0  0.00000000000E+00  0.00000000000E+00  0.34263769299E+03  0.34263769299E+03  0.00000000000E+00 0. -1.
         -2   -1    0    0    0  501 -0.00000000000E+00 -0.00000000000E+00 -0.13446249501E+03  0.13446249501E+03  0.00000000000E+00 0.  1.
          6    1    1    2  502    0  0.87875449323E+02 -0.93520628002E+02  0.99152705476E+02  0.23639683048E+03  0.17200000000E+03 0. -1.
         -6    1    1    2    0  501 -0.87875449323E+02  0.93520628002E+02  0.10902249250E+03  0.24070335753E+03  0.17200000000E+03 0.  1.
</event>
<event>
 4    1  0.3205520E-002  0.2939415E+03  0.7818608E-02  0.1088309E+00
         -2   -1    0    0    0  501 -0.00000000000E+00  0.00000000000E+00  0.13423006418E+03  0.13423006418E+03  0.00000000000E+00 0.  1.
          2   -1    0    0  502    0  0.00000000000E+00 -0.00000000000E+00 -0.71411079995E+03  0.71411079995E+03  0.00000000000E+00 0. -1.
          6    1    1    2  502    0 -0.89255957207E+02  0.22102257554E+03 -0.15673252957E+03  0.33311663216E+03  0.17200000000E+03 0. -1.
         -6    1    1    2    0  501  0.89255957207E+02 -0.22102257554E+03 -0.42314820620E+03  0.51522423197E+03  0.17200000000E+03 0.  1.
</event>
<event>
 4    1  0.3205520E-002  0.2624773E+03  0.7818608E-02  0.1105664E+00
          2   -1    0    0  502    0  0.00000000000E+00  0.00000000000E+00  0.19844534927E+04  0.19844534927E+04  0.00000000000E+00 0. -1.
         -2   -1    0    0    0  501 -0.00000000000E+00 -0.00000000000E+00 -0.38464706817E+02  0.38464706817E+02  0.00000000000E+00 0.  1.
          6    1    1    2  502    0  0.90651105878E+02  0.17633123204E+03  0.12887116538E+04  0.13151699712E+04  0.17200000000E+03 0. -1.
         -6    1    1    2    0  501 -0.90651105878E+02 -0.17633123204E+03  0.65727713206E+03  0.70774822834E+03  0.17200000000E+03 0.  1.
</event>
<event>
 4    1  0.3205520E-002  0.1010656E+04  0.7818608E-02  0.9296934E-01
         -2   -1    0    0    0  501 -0.00000000000E+00  0.00000000000E+00  0.50849917782E+03  0.50849917782E+03  0.00000000000E+00 0.  1.
          2   -1    0    0  502    0  0.00000000000E+00 -0.00000000000E+00 -0.20320539429E+04  0.20320539429E+04  0.00000000000E+00 0. -1.
          6    1    1    2  502    0 -0.15631997957E+03 -0.98356766406E+03 -0.89793945228E+03  0.13519321528E+04  0.17200000000E+03 0. -1.
         -6    1    1    2    0  501  0.15631997957E+03  0.98356766406E+03 -0.62561531279E+03  0.11886209679E+04  0.17200000000E+03 0.  1.
</event>
<event>
 4    1  0.3205520E-002  0.1795653E+03  0.7818608E-02  0.1168224E+00
         -4   -1    0    0    0  501 -0.00000000000E+00  0.00000000000E+00  0.84817777150E+02  0.84817777150E+02  0.00000000000E+00 0.  1.
          4   -1    0    0  502    0  0.00000000000E+00 -0.00000000000E+00 -0.38198918778E+03  0.38198918778E+03  0.00000000000E+00 0. -1.
          6    1    1    2  502    0 -0.23958122967E+02  0.45669328214E+02 -0.13240063602E+03  0.22309999465E+03  0.17200000000E+03 0. -1.
         -6    1    1    2    0  501  0.23958122967E+02 -0.45669328214E+02 -0.16477077461E+03  0.24370697027E+03  0.17200000000E+03 0. -1.
</event>
<event>
 4    1  0.3205520E-002  0.2157644E+03  0.7818608E-02  0.1137081E+00
          2   -1    0    0  502    0  0.00000000000E+00  0.00000000000E+00  0.29505054434E+04  0.29505054434E+04  0.00000000000E+00 0. -1.
         -2   -1    0    0    0  501 -0.00000000000E+00 -0.00000000000E+00 -0.16266014668E+02  0.16266014668E+02  0.00000000000E+00 0.  1.
          6    1    1    2  502    0 -0.88995544478E+02 -0.95131793317E+02  0.17239524608E+04  0.17374021849E+04  0.17200000000E+03 0. -1.
         -6    1    1    2    0  501  0.88995544478E+02  0.95131793317E+02  0.12102869680E+04  0.12293692732E+04  0.17200000000E+03 0.  1.
</event>
<event>
 4    1  0.3205520E-002  0.3030634E+03  0.7818608E-02  0.1083719E+00
          2   -1    0    0  502    0  0.00000000000E+00  0.00000000000E+00  0.19813100799E+04  0.19813100799E+04  0.00000000000E+00 0. -1.
         -2   -1    0    0    0  501 -0.00000000000E+00 -0.00000000000E+00 -0.61379612467E+02  0.61379612467E+02  0.00000000000E+00 0.  1.
          6    1    1    2  502    0  0.22714435869E+03 -0.10329007830E+03  0.14652479689E+04  0.14962616784E+04  0.17200000000E+03 0. -1.
         -6    1    1    2    0  501 -0.22714435869E+03  0.10329007830E+03  0.45468249859E+03  0.54642801400E+03  0.17200000000E+03 0.  1.
</event>
<event>
 4    1  0.3205520E-002  0.2007386E+03  0.7818608E-02  0.1149117E+00
         -1   -1    0    0    0  501 -0.00000000000E+00  0.00000000000E+00  0.18363584399E+03  0.18363584399E+03  0.00000000000E+00 0.  1.
          1   -1    0    0  502    0  0.00000000000E+00 -0.00000000000E+00 -0.32559651734E+03  0.32559651734E+03  0.00000000000E+00 0. -1.
          6    1    1    2  502    0  0.93324559799E+02 -0.44749545115E+02  0.74408546076E+02  0.21408555995E+03  0.17200000000E+03 0.  1.
         -6    1    1    2    0  501 -0.93324559799E+02  0.44749545115E+02 -0.21636921942E+03  0.29514680138E+03  0.17200000000E+03 0. -1.
</event>
<event>
 4    1  0.3205520E-002  0.2809875E+03  0.7818608E-02  0.1095151E+00
          2   -1    0    0  502    0  0.00000000000E+00  0.00000000000E+00  0.37050011205E+03  0.37050011205E+03  0.00000000000E+00 0. -1.
         -2   -1    0    0    0  501 -0.00000000000E+00 -0.00000000000E+00 -0.21428575310E+03  0.21428575310E+03  0.00000000000E+00 0.  1.
          6    1    1    2  502    0  0.15943243940E+03 -0.15476195537E+03  0.99847886785E+02  0.29820054671E+03  0.17200000000E+03 0. -1.
         -6    1    1    2    0  501 -0.15943243940E+03  0.15476195537E+03  0.56366472162E+02  0.28658531844E+03  0.17200000000E+03 0.  1.
</event>
<event>
 4    1  0.3205520E-002  0.2424235E+03  0.7818608E-02  0.1118189E+00
         -1   -1    0    0    0  501 -0.00000000000E+00  0.00000000000E+00  0.53447382402E+03  0.53447382402E+03  0.00000000000E+00 0.  1.
          1   -1    0    0  502    0  0.00000000000E+00 -0.00000000000E+00 -0.12939743266E+03  0.12939743266E+03  0.00000000000E+00 0. -1.
          6    1    1    2  502    0 -0.15108525191E+03  0.79739466875E+02  0.73878046041E+02  0.25343066431E+03  0.17200000000E+03 0. -1.
         -6    1    1    2    0  501  0.15108525191E+03 -0.79739466875E+02  0.33119834532E+03  0.41044059238E+03  0.17200000000E+03 0.  1.
</event>
<event>
 4    1  0.3205520E-002  0.4166694E+03  0.7818608E-02  0.1038156E+00
          1   -1    0    0  502    0  0.00000000000E+00  0.00000000000E+00  0.18779373213E+04  0.18779373213E+04  0.00000000000E+00 0. -1.
         -1   -1    0    0    0  501 -0.00000000000E+00 -0.00000000000E+00 -0.16560841870E+03  0.16560841870E+03  0.00000000000E+00 0.  1.
          6    1    1    2  502    0 -0.37746694954E+03  0.39346266778E+02  0.15352872121E+04  0.15908237647E+04  0.17200000000E+03 0. -1.
         -6    1    1    2    0  501  0.37746694954E+03 -0.39346266778E+02  0.17704169044E+03  0.45272197523E+03  0.17200000000E+03 0.  1.
</event>
<event>
 4    1  0.3205520E-002  0.4030445E+03  0.7818608E-02  0.1042731E+00
          2   -1    0    0  502    0  0.00000000000E+00  0.00000000000E+00  0.10578385990E+04  0.10578385990E+04  0.00000000000E+00 0. -1.
         -2   -1    0    0    0  501 -0.00000000000E+00 -0.00000000000E+00 -0.19760095344E+03  0.19760095344E+03  0.00000000000E+00 0.  1.
          6    1    1    2  502    0 -0.12681226189E+03 -0.34173013226E+03  0.72645523867E+03  0.83077195839E+03  0.17200000000E+03 0. -1.
         -6    1    1    2    0  501  0.12681226189E+03  0.34173013226E+03  0.13378240691E+03  0.42466759408E+03  0.17200000000E+03 0.  1.
</event>
<event>
 4    1  0.3205520E-002  0.2183882E+03  0.7818608E-02  0.1135090E+00
         -2   -1    0    0    0  501 -0.00000000000E+00  0.00000000000E+00  0.29477823872E+02  0.29477823872E+02  0.00000000000E+00 0.  1.
          2   -1    0    0  502    0  0.00000000000E+00 -0.00000000000E+00 -0.22289797574E+04  0.22289797574E+04  0.00000000000E+00 0. -1.
          6    1    1    2  502    0 -0.10843843532E+03  0.79690065842E+02 -0.16909898741E+04  0.17050337695E+04  0.17200000000E+03 0. -1.
         -6    1    1    2    0  501  0.10843843532E+03 -0.79690065842E+02 -0.50851205945E+03  0.55342381179E+03  0.17200000000E+03 0.  1.
</event>
<event>
 4    1  0.3205520E-002  0.3927835E+03  0.7818608E-02  0.1046308E+00
          1   -1    0    0  502    0  0.00000000000E+00  0.00000000000E+00  0.21323653852E+04  0.21323653852E+04  0.00000000000E+00 0. -1.
         -1   -1    0    0    0  501 -0.00000000000E+00 -0.00000000000E+00 -0.72388038046E+02  0.72388038046E+02  0.00000000000E+00 0.  1.
          6    1    1    2  502    0 -0.98344569926E+02  0.33915070035E+03  0.10549110574E+04  0.11256625564E+04  0.17200000000E+03 0. -1.
         -6    1    1    2    0  501  0.98344569926E+02 -0.33915070035E+03  0.10050662897E+04  0.10790908668E+04  0.17200000000E+03 0.  1.
</event>
<event>
 4    1  0.3205520E-002  0.2924067E+03  0.7818608E-02  0.1089099E+00
         -2   -1    0    0    0  501 -0.00000000000E+00  0.00000000000E+00  0.43159871950E+02  0.43159871950E+02  0.00000000000E+00 0.  1.
          2   -1    0    0  502    0  0.00000000000E+00 -0.00000000000E+00 -0.20049908753E+04  0.20049908753E+04  0.00000000000E+00 0. -1.
          6    1    1    2  502    0 -0.19130423642E+03 -0.13899762462E+03 -0.10928311105E+04  0.11312742756E+04  0.17200000000E+03 0. -1.
         -6    1    1    2    0  501  0.19130423642E+03  0.13899762462E+03 -0.86899989290E+03  0.91687647171E+03  0.17200000000E+03 0.  1.
</event>
<event>
 4    1  0.3205520E-002  0.3677854E+03  0.7818608E-02  0.1055543E+00
         -2   -1    0    0    0  501 -0.00000000000E+00  0.00000000000E+00  0.73036840777E+02  0.73036840777E+02  0.00000000000E+00 0.  1.
          2   -1    0    0  502    0  0.00000000000E+00 -0.00000000000E+00 -0.20496348360E+04  0.20496348360E+04  0.00000000000E+00 0. -1.
          6    1    1    2  502    0 -0.25708473834E+03  0.19897114283E+03 -0.65875112652E+03  0.75446611922E+03  0.17200000000E+03 0. -1.
         -6    1    1    2    0  501  0.25708473834E+03 -0.19897114283E+03 -0.13178468687E+04  0.13682055575E+04  0.17200000000E+03 0.  1.
</event>
<event>
 4    1  0.3205520E-002  0.1869800E+03  0.7818608E-02  0.1161214E+00
         -2   -1    0    0    0  501 -0.00000000000E+00  0.00000000000E+00  0.16391850283E+03  0.16391850283E+03  0.00000000000E+00 0.  1.
          2   -1    0    0  502    0  0.00000000000E+00 -0.00000000000E+00 -0.28666718841E+03  0.28666718841E+03  0.00000000000E+00 0. -1.
          6    1    1    2  502    0 -0.10305374684E+02 -0.72603870970E+02 -0.17536014469E+03  0.25634489106E+03  0.17200000000E+03 0. -1.
         -6    1    1    2    0  501  0.10305374684E+02  0.72603870970E+02  0.52611459105E+02  0.19424080018E+03  0.17200000000E+03 0.  1.
</event>
<event>
 4    1  0.3205520E-002  0.3407662E+03  0.7818608E-02  0.1066470E+00
         -1   -1    0    0    0  501 -0.00000000000E+00  0.00000000000E+00  0.63635060517E+03  0.63635060517E+03  0.00000000000E+00 0.  1.
          1   -1    0    0  502    0  0.00000000000E+00 -0.00000000000E+00 -0.20083529027E+03  0.20083529027E+03  0.00000000000E+00 0. -1.
          6    1    1    2  502    0 -0.28748752536E+03 -0.62357893135E+02  0.91212227002E+02  0.35276232003E+03  0.17200000000E+03 0. -1.
         -6    1    1    2    0  501  0.28748752536E+03  0.62357893135E+02  0.34430308790E+03  0.48442357541E+03  0.17200000000E+03 0.  1.
</event>
<event>
 4    1  0.3205520E-002  0.2506989E+03  0.7818608E-02  0.1112864E+00
         -1   -1    0    0    0  501 -0.00000000000E+00  0.00000000000E+00  0.71198277372E+03  0.71198277372E+03  0.00000000000E+00 0.  1.
          1   -1    0    0  502    0  0.00000000000E+00 -0.00000000000E+00 -0.10797051629E+03  0.10797051629E+03  0.00000000000E+00 0. -1.
          6    1    1    2  502    0 -0.11391981087E+03 -0.14243676273E+03  0.12690246201E+03  0.28098788149E+03  0.17200000000E+03 0. -1.
         -6    1    1    2    0  501  0.11391981087E+03  0.14243676273E+03  0.47710979543E+03  0.53896540852E+03  0.17200000000E+03 0.  1.
</event>
<event>
 4    1  0.3205520E-002  0.6053386E+03  0.7818608E-02  0.9894392E-01
         -2   -1    0    0    0  501 -0.00000000000E+00  0.00000000000E+00  0.75309861796E+03  0.75309861796E+03  0.00000000000E+00 0.  1.
          2   -1    0    0  502    0  0.00000000000E+00 -0.00000000000E+00 -0.49435629555E+03  0.49435629555E+03  0.00000000000E+00 0. -1.
          6    1    1    2  502    0 -0.39852134007E+03  0.42193785536E+03  0.20765181164E+03  0.63996412958E+03  0.17200000000E+03 0. -1.
         -6    1    1    2    0  501  0.39852134007E+03 -0.42193785536E+03  0.51090510765E+02  0.60749078393E+03  0.17200000000E+03 0.  1.
</event>
<event>
 4    1  0.3205520E-002  0.1972777E+03  0.7818608E-02  0.1152056E+00
          2   -1    0    0  502    0  0.00000000000E+00  0.00000000000E+00  0.13711573890E+04  0.13711573890E+04  0.00000000000E+00 0. -1.
         -2   -1    0    0    0  501 -0.00000000000E+00 -0.00000000000E+00 -0.28579844581E+02  0.28579844581E+02  0.00000000000E+00 0.  1.
          6    1    1    2  502    0 -0.78627554095E+02 -0.56144473757E+02  0.72927108884E+03  0.75548316673E+03  0.17200000000E+03 0. -1.
         -6    1    1    2    0  501  0.78627554095E+02  0.56144473757E+02  0.61330645556E+03  0.64425406683E+03  0.17200000000E+03 0.  1.
</event>
<event>
 4    1  0.3205520E-002  0.3663062E+03  0.7818608E-02  0.1056114E+00
         -2   -1    0    0    0  501 -0.00000000000E+00  0.00000000000E+00  0.42921119802E+03  0.42921119802E+03  0.00000000000E+00 0.  1.
          2   -1    0    0  502    0  0.00000000000E+00 -0.00000000000E+00 -0.46360564953E+03  0.46360564953E+03  0.00000000000E+00 0. -1.
          6    1    1    2  502    0 -0.29291412389E+03  0.13710406173E+03  0.23755921753E+03  0.43659430774E+03  0.17200000000E+03 0.  1.
         -6    1    1    2    0  501  0.29291412389E+03 -0.13710406173E+03 -0.27195366904E+03  0.45622253980E+03  0.17200000000E+03 0. -1.
</event>
<event>
 4    1  0.3205520E-002  0.3465844E+03  0.7818608E-02  0.1064026E+00
         -2   -1    0    0    0  501 -0.00000000000E+00  0.00000000000E+00  0.18259955290E+03  0.18259955290E+03  0.00000000000E+00 0.  1.
          2   -1    0    0  502    0  0.00000000000E+00 -0.00000000000E+00 -0.65789034048E+03  0.65789034048E+03  0.00000000000E+00 0. -1.
          6    1    1    2  502    0  0.15482065181E+03 -0.25800644657E+03 -0.24142580199E+03  0.42238273942E+03  0.17200000000E+03 0. -1.
         -6    1    1    2    0  501 -0.15482065181E+03  0.25800644657E+03 -0.23386498560E+03  0.41810715396E+03  0.17200000000E+03 0.  1.
</event>
<event>
 4    1  0.3205520E-002  0.2468926E+03  0.7818608E-02  0.1115285E+00
         -1   -1    0    0    0  501 -0.00000000000E+00  0.00000000000E+00  0.51045870699E+03  0.51045870699E+03  0.00000000000E+00 0.  1.
          1   -1    0    0  502    0  0.00000000000E+00 -0.00000000000E+00 -0.21754254448E+03  0.21754254448E+03  0.00000000000E+00 0. -1.
          6    1    1    2  502    0 -0.23605028867E+02  0.17554127401E+03 -0.98013070788E+02  0.26563602601E+03  0.17200000000E+03 0. -1.
         -6    1    1    2    0  501  0.23605028867E+02 -0.17554127401E+03  0.39092923330E+03  0.46236522546E+03  0.17200000000E+03 0.  1.
</event>
<event>
 4    1  0.3205520E-002  0.2442551E+03  0.7818608E-02  0.1116990E+00
         -2   -1    0    0    0  501 -0.00000000000E+00  0.00000000000E+00  0.51955066979E+02  0.51955066979E+02  0.00000000000E+00 0.  1.
          2   -1    0    0  502    0  0.00000000000E+00 -0.00000000000E+00 -0.14785367576E+04  0.14785367576E+04  0.00000000000E+00 0. -1.
          6    1    1    2  502    0  0.25499611245E+02  0.17154098227E+03 -0.10749428573E+04  0.11023441773E+04  0.17200000000E+03 0. -1.
         -6    1    1    2    0  501 -0.25499611245E+02 -0.17154098227E+03 -0.35163883336E+03  0.42814764731E+03  0.17200000000E+03 0.  1.
</event>
<event>
 4    1  0.3205520E-002  0.1971903E+03  0.7818608E-02  0.1152131E+00
         -2   -1    0    0    0  501 -0.00000000000E+00  0.00000000000E+00  0.35396969174E+03  0.35396969174E+03  0.00000000000E+00 0.  1.
          2   -1    0    0  502    0  0.00000000000E+00 -0.00000000000E+00 -0.13230694521E+03  0.13230694521E+03  0.00000000000E+00 0. -1.
          6    1    1    2  502    0  0.18953075168E+02 -0.94555689489E+02  0.21099862702E+03  0.28879823074E+03  0.17200000000E+03 0.  1.
         -6    1    1    2    0  501 -0.18953075168E+02  0.94555689489E+02  0.10664119504E+02  0.19747840621E+03  0.17200000000E+03 0.  1.
</event>
<event>
 4    1  0.3205520E-002  0.1945775E+03  0.7818608E-02  0.1154396E+00
         -2   -1    0    0    0  501 -0.00000000000E+00  0.00000000000E+00  0.26570005024E+02  0.26570005024E+02  0.00000000000E+00 0.  1.
          2   -1    0    0  502    0  0.00000000000E+00 -0.00000000000E+00 -0.17502103981E+04  0.17502103981E+04  0.00000000000E+00 0. -1.
          6    1    1    2  502    0  0.26943551901E+02  0.86893424904E+02 -0.12448097673E+04  0.12599253069E+04  0.17200000000E+03 0. -1.
         -6    1    1    2    0  501 -0.26943551901E+02 -0.86893424904E+02 -0.47883062579E+03  0.51685509621E+03  0.17200000000E+03 0.  1.
</event>
<event>
 4    1  0.3205520E-002  0.3852662E+03  0.7818608E-02  0.1049004E+00
          1   -1    0    0  502    0  0.00000000000E+00  0.00000000000E+00  0.10105007108E+04  0.10105007108E+04  0.00000000000E+00 0. -1.
         -1   -1    0    0    0  501 -0.00000000000E+00 -0.00000000000E+00 -0.68687967422E+03  0.68687967422E+03  0.00000000000E+00 0.  1.
          6    1    1    2  502    0  0.68091380740E+02 -0.33794910794E+03  0.91430364788E+03  0.99215986424E+03  0.17200000000E+03 0. -1.
         -6    1    1    2    0  501 -0.68091380740E+02  0.33794910794E+03 -0.59068261128E+03  0.70522052080E+03  0.17200000000E+03 0.  1.
</event>
<event>
 4    1  0.3205520E-002  0.4806235E+03  0.7818608E-02  0.1018964E+00
          2   -1    0    0  502    0  0.00000000000E+00  0.00000000000E+00  0.11429966341E+04  0.11429966341E+04  0.00000000000E+00 0. -1.
         -2   -1    0    0    0  501 -0.00000000000E+00 -0.00000000000E+00 -0.20601285798E+03  0.20601285798E+03  0.00000000000E+00 0.  1.
          6    1    1    2  502    0 -0.39526093751E+03  0.21256472664E+03  0.37552755673E+03  0.60993435515E+03  0.17200000000E+03 0. -1.
         -6    1    1    2    0  501  0.39526093751E+03 -0.21256472664E+03  0.56145621936E+03  0.73907513690E+03  0.17200000000E+03 0.  1.
</event>
<event>
 4    1  0.3205520E-002  0.2905075E+03  0.7818608E-02  0.1090084E+00
          2   -1    0    0  502    0  0.00000000000E+00  0.00000000000E+00  0.16246932571E+04  0.16246932571E+04  0.00000000000E+00 0. -1.
         -2   -1    0    0    0  501 -0.00000000000E+00 -0.00000000000E+00 -0.68434007824E+03  0.68434007824E+03  0.00000000000E+00 0.  1.
          6    1    1    2  502    0  0.18364840307E+03  0.14520277471E+03  0.15800117599E+04  0.16064967299E+04  0.17200000000E+03 0. -1.
         -6    1    1    2    0  501 -0.18364840307E+03 -0.14520277471E+03 -0.63965858103E+03  0.70253660547E+03  0.17200000000E+03 0.  1.
</event>
<event>
 4    1  0.3205520E-002  0.2273252E+03  0.7818608E-02  0.1128537E+00
         -2   -1    0    0    0  501 -0.00000000000E+00  0.00000000000E+00  0.15575130525E+02  0.15575130525E+02  0.00000000000E+00 0.  1.
          2   -1    0    0  502    0  0.00000000000E+00 -0.00000000000E+00 -0.35002518099E+04  0.35002518099E+04  0.00000000000E+00 0. -1.
          6    1    1    2  502    0 -0.13376890707E+03  0.64796649104E+02 -0.13410996183E+04  0.13602297278E+04  0.17200000000E+03 0. -1.
         -6    1    1    2    0  501  0.13376890707E+03 -0.64796649104E+02 -0.21435770611E+04  0.21555972126E+04  0.17200000000E+03 0. -1.
</event>
<event>
 4    1  0.3205520E-002  0.2115710E+03  0.7818608E-02  0.1140328E+00
         -3   -1    0    0    0  501 -0.00000000000E+00  0.00000000000E+00  0.10387354229E+03  0.10387354229E+03  0.00000000000E+00 0.  1.
          3   -1    0    0  502    0  0.00000000000E+00 -0.00000000000E+00 -0.43825580314E+03  0.43825580314E+03  0.00000000000E+00 0. -1.
          6    1    1    2  502    0 -0.14396551439E+02  0.12235613362E+03 -0.20223564084E+03  0.29267992510E+03  0.17200000000E+03 0.  1.
         -6    1    1    2    0  501  0.14396551439E+02 -0.12235613362E+03 -0.13214662001E+03  0.24944942034E+03  0.17200000000E+03 0.  1.
</event>
<event>
 4    1  0.3205520E-002  0.3885474E+03  0.7818608E-02  0.1047819E+00
          1   -1    0    0  502    0  0.00000000000E+00  0.00000000000E+00  0.18850638339E+04  0.18850638339E+04  0.00000000000E+00 0. -1.
         -1   -1    0    0    0  501 -0.00000000000E+00 -0.00000000000E+00 -0.19584586036E+03  0.19584586036E+03  0.00000000000E+00 0.  1.
          6    1    1    2  502    0  0.32804243398E+03 -0.11735935217E+03  0.16445228285E+04  0.16898001034E+04  0.17200000000E+03 0. -1.
         -6    1    1    2    0  501 -0.32804243398E+03  0.11735935217E+03  0.44695145002E+02  0.39110959081E+03  0.17200000000E+03 0.  1.
</event>
<event>
 4    1  0.3205520E-002  0.2855334E+03  0.7818608E-02  0.1092705E+00
         -1   -1    0    0    0  501 -0.00000000000E+00  0.00000000000E+00  0.51710900112E+02  0.51710900112E+02  0.00000000000E+00 0.  1.
          1   -1    0    0  502    0  0.00000000000E+00 -0.00000000000E+00 -0.15777051905E+04  0.15777051905E+04  0.00000000000E+00 0. -1.
          6    1    1    2  502    0  0.21890256183E+03 -0.63458747152E+02 -0.74180318082E+03  0.79485929777E+03  0.17200000000E+03 0. -1.
         -6    1    1    2    0  501 -0.21890256183E+03  0.63458747152E+02 -0.78419110960E+03  0.83455679288E+03  0.17200000000E+03 0. -1.
</event>
<event>
 4    1  0.3205520E-002  0.2550246E+03  0.7818608E-02  0.1110170E+00
         -1   -1    0    0    0  501 -0.00000000000E+00  0.00000000000E+00  0.21874802456E+03  0.21874802456E+03  0.00000000000E+00 0.  1.
          1   -1    0    0  502    0  0.00000000000E+00 -0.00000000000E+00 -0.35962088466E+03  0.35962088466E+03  0.00000000000E+00 0. -1.
          6    1    1    2  502    0  0.15885182898E+03 -0.10109230834E+03 -0.19080392600E+03  0.31850227088E+03  0.17200000000E+03 0. -1.
         -6    1    1    2    0  501 -0.15885182898E+03  0.10109230834E+03  0.49931065909E+02  0.25986663834E+03  0.17200000000E+03 0.  1.
</event>
<event>
 4    1  0.3205520E-002  0.1751489E+03  0.7818608E-02  0.1172582E+00
         -1   -1    0    0    0  501 -0.00000000000E+00  0.00000000000E+00  0.24437758800E+03  0.24437758800E+03  0.00000000000E+00 0.  1.
          1   -1    0    0  502    0  0.00000000000E+00 -0.00000000000E+00 -0.21077741748E+03  0.21077741748E+03  0.00000000000E+00 0. -1.
          6    1    1    2  502    0  0.32981591321E+02  0.23159122659E+01  0.16152837144E+03  0.23826154452E+03  0.17200000000E+03 0.  1.
         -6    1    1    2    0  501 -0.32981591321E+02 -0.23159122659E+01 -0.12792820092E+03  0.21689346096E+03  0.17200000000E+03 0. -1.
</event>
<event>
 4    1  0.3205520E-002  0.2396746E+03  0.7818608E-02  0.1120010E+00
         -2   -1    0    0    0  501 -0.00000000000E+00  0.00000000000E+00  0.15875119174E+03  0.15875119174E+03  0.00000000000E+00 0.  1.
          2   -1    0    0  502    0  0.00000000000E+00 -0.00000000000E+00 -0.62465399380E+03  0.62465399380E+03  0.00000000000E+00 0. -1.
          6    1    1    2  502    0 -0.14345027558E+03  0.85334292911E+02 -0.48702157463E+03  0.54280193189E+03  0.17200000000E+03 0. -1.
         -6    1    1    2    0  501  0.14345027558E+03 -0.85334292911E+02  0.21118772576E+02  0.24060325365E+03  0.17200000000E+03 0.  1.
</event>
<event>
 4    1  0.3205520E-002  0.1756431E+03  0.7818608E-02  0.1172088E+00
          2   -1    0    0  502    0  0.00000000000E+00  0.00000000000E+00  0.13812155848E+04  0.13812155848E+04  0.00000000000E+00 0. -1.
         -2   -1    0    0    0  501 -0.00000000000E+00 -0.00000000000E+00 -0.56792182433E+03  0.56792182433E+03  0.00000000000E+00 0.  1.
          6    1    1    2  502    0  0.18317774004E+02 -0.30511798142E+02  0.13618589761E+04  0.13731388792E+04  0.17200000000E+03 0. -1.
         -6    1    1    2    0  501 -0.18317774004E+02  0.30511798142E+02 -0.54856521566E+03  0.57599852995E+03  0.17200000000E+03 0.  1.
</event>
<event>
 4    1  0.3205520E-002  0.3124244E+03  0.7818608E-02  0.1079190E+00
         -2   -1    0    0    0  501 -0.00000000000E+00  0.00000000000E+00  0.15713328007E+03  0.15713328007E+03  0.00000000000E+00 0.  1.
          2   -1    0    0  502    0  0.00000000000E+00 -0.00000000000E+00 -0.74731463087E+03  0.74731463087E+03  0.00000000000E+00 0. -1.
          6    1    1    2  502    0 -0.18534022194E+03  0.18350477885E+03 -0.48087478903E+03  0.57345406482E+03  0.17200000000E+03 0. -1.
         -6    1    1    2    0  501  0.18534022194E+03 -0.18350477885E+03 -0.10930656176E+03  0.33099384612E+03  0.17200000000E+03 0.  1.
</event>
<event>
 4    1  0.3205520E-002  0.3055979E+03  0.7818608E-02  0.1082475E+00
          2   -1    0    0  502    0  0.00000000000E+00  0.00000000000E+00  0.23286416336E+03  0.23286416336E+03  0.00000000000E+00 0. -1.
         -2   -1    0    0    0  501 -0.00000000000E+00 -0.00000000000E+00 -0.42791888282E+03  0.42791888282E+03  0.00000000000E+00 0.  1.
          6    1    1    2  502    0 -0.12176469771E+03 -0.22131296849E+03 -0.14737626488E+02  0.30595305076E+03  0.17200000000E+03 0. -1.
         -6    1    1    2    0  501  0.12176469771E+03  0.22131296849E+03 -0.18031709298E+03  0.35482999542E+03  0.17200000000E+03 0.  1.
</event>
<event>
 4    1  0.3205520E-002  0.1907901E+03  0.7818608E-02  0.1157751E+00
          2   -1    0    0  502    0  0.00000000000E+00  0.00000000000E+00  0.16534995780E+03  0.16534995780E+03  0.00000000000E+00 0. -1.
         -2   -1    0    0    0  501 -0.00000000000E+00 -0.00000000000E+00 -0.22071871421E+03  0.22071871421E+03  0.00000000000E+00 0.  1.
          6    1    1    2  502    0  0.49064328392E+02 -0.66404438832E+02 -0.37531545944E+02  0.19444658587E+03  0.17200000000E+03 0.  1.
         -6    1    1    2    0  501 -0.49064328392E+02  0.66404438832E+02 -0.17837210474E+02  0.19162208613E+03  0.17200000000E+03 0. -1.
</event>
<event>
 4    1  0.3205520E-002  0.1852854E+03  0.7818608E-02  0.1162784E+00
         -1   -1    0    0    0  501 -0.00000000000E+00  0.00000000000E+00  0.70133624944E+02  0.70133624944E+02  0.00000000000E+00 0.  1.
          1   -1    0    0  502    0  0.00000000000E+00 -0.00000000000E+00 -0.17925974037E+04  0.17925974037E+04  0.00000000000E+00 0. -1.
          6    1    1    2  502    0 -0.52647124519E+02  0.44440399994E+02 -0.16553161627E+04  0.16656537057E+04  0.17200000000E+03 0. -1.
         -6    1    1    2    0  501  0.52647124519E+02 -0.44440399994E+02 -0.67147616062E+02  0.19707732293E+03  0.17200000000E+03 0.  1.
</event>
<event>
 4    1  0.3205520E-002  0.3449435E+03  0.7818608E-02  0.1064710E+00
         -2   -1    0    0    0  501 -0.00000000000E+00  0.00000000000E+00  0.18125540120E+03  0.18125540120E+03  0.00000000000E+00 0.  1.
          2   -1    0    0  502    0  0.00000000000E+00 -0.00000000000E+00 -0.98097888995E+03  0.98097888995E+03  0.00000000000E+00 0. -1.
          6    1    1    2  502    0  0.19816747166E+03  0.22390102985E+03 -0.73410078929E+03  0.81110417754E+03  0.17200000000E+03 0. -1.
         -6    1    1    2    0  501 -0.19816747166E+03 -0.22390102985E+03 -0.65622699466E+02  0.35113011360E+03  0.17200000000E+03 0.  1.
</event>
<event>
 4    1  0.3205520E-002  0.2832851E+03  0.7818608E-02  0.1093908E+00
          2   -1    0    0  502    0  0.00000000000E+00  0.00000000000E+00  0.38637315412E+03  0.38637315412E+03  0.00000000000E+00 0. -1.
         -2   -1    0    0    0  501 -0.00000000000E+00 -0.00000000000E+00 -0.20896688754E+03  0.20896688754E+03  0.00000000000E+00 0.  1.
          6    1    1    2  502    0 -0.22439789265E+03  0.17665070131E+02  0.65543811303E+02  0.29076873995E+03  0.17200000000E+03 0. -1.
         -6    1    1    2    0  501  0.22439789265E+03 -0.17665070131E+02  0.11186245528E+03  0.30457130172E+03  0.17200000000E+03 0.  1.
</event>
<event>
 4    1  0.3205520E-002  0.2112756E+03  0.7818608E-02  0.1140560E+00
          3   -1    0    0  502    0  0.00000000000E+00  0.00000000000E+00  0.37639817451E+03  0.37639817451E+03  0.00000000000E+00 0. -1.
         -3   -1    0    0    0  501 -0.00000000000E+00 -0.00000000000E+00 -0.13134090204E+03  0.13134090204E+03  0.00000000000E+00 0.  1.
          6    1    1    2  502    0 -0.11999223159E+03  0.25597654077E+02  0.20162686378E+03  0.29204583156E+03  0.17200000000E+03 0.  1.
         -6    1    1    2    0  501  0.11999223159E+03 -0.25597654077E+02  0.43430408686E+02  0.21569324499E+03  0.17200000000E+03 0.  1.
</event>
<event>
 4    1  0.3205520E-002  0.2447125E+03  0.7818608E-02  0.1116693E+00
          4   -1    0    0  502    0  0.00000000000E+00  0.00000000000E+00  0.25457410444E+03  0.25457410444E+03  0.00000000000E+00 0. -1.
         -4   -1    0    0    0  501 -0.00000000000E+00 -0.00000000000E+00 -0.23566811559E+03  0.23566811559E+03  0.00000000000E+00 0.  1.
          6    1    1    2  502    0  0.16163655423E+03  0.64605154382E+02  0.19986885563E+02  0.24552734518E+03  0.17200000000E+03 0. -1.
         -6    1    1    2    0  501 -0.16163655423E+03 -0.64605154382E+02 -0.10808967168E+01  0.24471487485E+03  0.17200000000E+03 0. -1.
</event>
<event>
 4    1  0.3205520E-002  0.1996599E+03  0.7818608E-02  0.1150026E+00
         -2   -1    0    0    0  501 -0.00000000000E+00  0.00000000000E+00  0.19095589626E+03  0.19095589626E+03  0.00000000000E+00 0.  1.
          2   -1    0    0  502    0  0.00000000000E+00 -0.00000000000E+00 -0.21327165759E+03  0.21327165759E+03  0.00000000000E+00 0. -1.
          6    1    1    2  502    0  0.33119355105E+02  0.95828881664E+02 -0.40552567802E+02  0.20373653820E+03  0.17200000000E+03 0.  1.
         -6    1    1    2    0  501 -0.33119355105E+02 -0.95828881664E+02  0.18236806471E+02  0.20049101564E+03  0.17200000000E+03 0.  1.
</event>
<event>
 4    1  0.3205520E-002  0.2740580E+03  0.7818608E-02  0.1098979E+00
          1   -1    0    0  502    0  0.00000000000E+00  0.00000000000E+00  0.11911866088E+04  0.11911866088E+04  0.00000000000E+00 0. -1.
         -1   -1    0    0    0  501 -0.00000000000E+00 -0.00000000000E+00 -0.63174409349E+02  0.63174409349E+02  0.00000000000E+00 0.  1.
          6    1    1    2  502    0  0.19759168980E+03  0.80506676892E+02  0.53650306436E+03  0.60244778941E+03  0.17200000000E+03 0. -1.
         -6    1    1    2    0  501 -0.19759168980E+03 -0.80506676892E+02  0.59150913508E+03  0.65191322872E+03  0.17200000000E+03 0. -1.
</event>
<event>
 4    1  0.3205520E-002  0.3430198E+03  0.7818608E-02  0.1065517E+00
          2   -1    0    0  502    0  0.00000000000E+00  0.00000000000E+00  0.16706119454E+04  0.16706119454E+04  0.00000000000E+00 0. -1.
         -2   -1    0    0    0  501 -0.00000000000E+00 -0.00000000000E+00 -0.32281226949E+03  0.32281226949E+03  0.00000000000E+00 0.  1.
          6    1    1    2  502    0  0.24194147819E+02  0.29579248763E+03  0.15551991702E+04  0.15925787301E+04  0.17200000000E+03 0. -1.
         -6    1    1    2    0  501 -0.24194147819E+02 -0.29579248763E+03 -0.20739949424E+03  0.40084548486E+03  0.17200000000E+03 0.  1.
</event>
<event>
 4    1  0.3205520E-002  0.3205430E+03  0.7818608E-02  0.1075400E+00
         -1   -1    0    0    0  501 -0.00000000000E+00  0.00000000000E+00  0.21036707597E+03  0.21036707597E+03  0.00000000000E+00 0.  1.
          1   -1    0    0  502    0  0.00000000000E+00 -0.00000000000E+00 -0.10879606206E+04  0.10879606206E+04  0.00000000000E+00 0. -1.
          6    1    1    2  502    0  0.23975224955E+03 -0.12523042987E+03 -0.92069630277E+03  0.97489973006E+03  0.17200000000E+03 0. -1.
         -6    1    1    2    0  501 -0.23975224955E+03  0.12523042987E+03  0.43102758187E+02  0.32342796647E+03  0.17200000000E+03 0.  1.
</event>
<event>
 4    1  0.3205520E-002  0.2192684E+03  0.7818608E-02  0.1134430E+00
          2   -1    0    0  502    0  0.00000000000E+00  0.00000000000E+00  0.87426055056E+03  0.87426055056E+03  0.00000000000E+00 0. -1.
         -2   -1    0    0    0  501 -0.00000000000E+00 -0.00000000000E+00 -0.82593865114E+02  0.82593865114E+02  0.00000000000E+00 0.  1.
          6    1    1    2  502    0 -0.17581926497E+01  0.13598363271E+03  0.67239977040E+03  0.70724825263E+03  0.17200000000E+03 0. -1.
         -6    1    1    2    0  501  0.17581926497E+01 -0.13598363271E+03  0.11926691504E+03  0.24960616305E+03  0.17200000000E+03 0.  1.
</event>
<event>
 4    1  0.3205520E-002  0.1795558E+03  0.7818608E-02  0.1168234E+00
         -2   -1    0    0    0  501 -0.00000000000E+00  0.00000000000E+00  0.82773777396E+02  0.82773777396E+02  0.00000000000E+00 0.  1.
          2   -1    0    0  502    0  0.00000000000E+00 -0.00000000000E+00 -0.39236168169E+03  0.39236168169E+03  0.00000000000E+00 0. -1.
          6    1    1    2  502    0 -0.89900440522E-01  0.51539046017E+02 -0.17508717408E+03  0.25079035044E+03  0.17200000000E+03 0. -1.
         -6    1    1    2    0  501  0.89900440522E-01 -0.51539046017E+02 -0.13450073022E+03  0.22434510865E+03  0.17200000000E+03 0. -1.
</event>
<event>
 4    1  0.3205520E-002  0.2901144E+03  0.7818608E-02  0.1090289E+00
          1   -1    0    0  502    0  0.00000000000E+00  0.00000000000E+00  0.70531936743E+03  0.70531936743E+03  0.00000000000E+00 0. -1.
         -1   -1    0    0    0  501 -0.00000000000E+00 -0.00000000000E+00 -0.12201456618E+03  0.12201456618E+03  0.00000000000E+00 0.  1.
          6    1    1    2  502    0  0.12786345056E+03 -0.19553336037E+03  0.35300226341E+03  0.45692116933E+03  0.17200000000E+03 0.  1.
         -6    1    1    2    0  501 -0.12786345056E+03  0.19553336037E+03  0.23030253784E+03  0.37041276428E+03  0.17200000000E+03 0.  1.
</event>
<event>
 4    1  0.3205520E-002  0.1965721E+03  0.7818608E-02  0.1152664E+00
          1   -1    0    0  502    0  0.00000000000E+00  0.00000000000E+00  0.34427789620E+03  0.34427789620E+03  0.00000000000E+00 0. -1.
         -1   -1    0    0    0  501 -0.00000000000E+00 -0.00000000000E+00 -0.11278767287E+03  0.11278767287E+03  0.00000000000E+00 0.  1.
          6    1    1    2  502    0  0.91344184271E+02 -0.26698647831E+02  0.13171954026E+03  0.23662336124E+03  0.17200000000E+03 0. -1.
         -6    1    1    2    0  501 -0.91344184271E+02  0.26698647831E+02  0.99770683062E+02  0.22044220783E+03  0.17200000000E+03 0.  1.
</event>
<event>
 4    1  0.3205520E-002  0.3247523E+03  0.7818608E-02  0.1073483E+00
         -2   -1    0    0    0  501 -0.00000000000E+00  0.00000000000E+00  0.16300485077E+03  0.16300485077E+03  0.00000000000E+00 0.  1.
          2   -1    0    0  502    0  0.00000000000E+00 -0.00000000000E+00 -0.76512368762E+03  0.76512368762E+03  0.00000000000E+00 0. -1.
          6    1    1    2  502    0 -0.27130040680E+03 -0.47708707784E+02 -0.48339944397E+03  0.58235646640E+03  0.17200000000E+03 0. -1.
         -6    1    1    2    0  501  0.27130040680E+03  0.47708707784E+02 -0.11871939288E+03  0.34577207199E+03  0.17200000000E+03 0.  1.
</event>
<event>
 4    1  0.3205520E-002  0.1725939E+03  0.7818608E-02  0.1175170E+00
          4   -1    0    0  502    0  0.00000000000E+00  0.00000000000E+00  0.49554393819E+02  0.49554393819E+02  0.00000000000E+00 0. -1.
         -4   -1    0    0    0  501 -0.00000000000E+00 -0.00000000000E+00 -0.62776670164E+03  0.62776670164E+03  0.00000000000E+00 0.  1.
          6    1    1    2  502    0 -0.30432925465E+00 -0.14302511090E+02 -0.35886545560E+03  0.39821234243E+03  0.17200000000E+03 0.  1.
         -6    1    1    2    0  501  0.30432925465E+00  0.14302511090E+02 -0.21934685223E+03  0.27910875304E+03  0.17200000000E+03 0. -1.
</event>
<event>
 4    1  0.3205520E-002  0.2796164E+03  0.7818608E-02  0.1095899E+00
          1   -1    0    0  502    0  0.00000000000E+00  0.00000000000E+00  0.92545448110E+03  0.92545448110E+03  0.00000000000E+00 0. -1.
         -1   -1    0    0    0  501 -0.00000000000E+00 -0.00000000000E+00 -0.87570970130E+02  0.87570970130E+02  0.00000000000E+00 0.  1.
          6    1    1    2  502    0  0.50857127021E+01 -0.22039843177E+03  0.51405357616E+03  0.58518066643E+03  0.17200000000E+03 0. -1.
         -6    1    1    2    0  501 -0.50857127021E+01  0.22039843177E+03  0.32382993480E+03  0.42784478479E+03  0.17200000000E+03 0.  1.
</event>
<event>
 4    1  0.3205520E-002  0.2126784E+03  0.7818608E-02  0.1139462E+00
          1   -1    0    0  502    0  0.00000000000E+00  0.00000000000E+00  0.47891962308E+03  0.47891962308E+03  0.00000000000E+00 0. -1.
         -1   -1    0    0    0  501 -0.00000000000E+00 -0.00000000000E+00 -0.17324295631E+03  0.17324295631E+03  0.00000000000E+00 0.  1.
          6    1    1    2  502    0  0.12418656456E+03  0.15026153657E+02  0.37275216575E+03  0.42915762277E+03  0.17200000000E+03 0. -1.
         -6    1    1    2    0  501 -0.12418656456E+03 -0.15026153657E+02 -0.67075498987E+02  0.22300495662E+03  0.17200000000E+03 0.  1.
</event>
<event>
 4    1  0.3205520E-002  0.1855925E+03  0.7818608E-02  0.1162498E+00
          4   -1    0    0  502    0  0.00000000000E+00  0.00000000000E+00  0.45106851703E+03  0.45106851703E+03  0.00000000000E+00 0. -1.
         -4   -1    0    0    0  501 -0.00000000000E+00 -0.00000000000E+00 -0.79278723233E+02  0.79278723233E+02  0.00000000000E+00 0.  1.
          6    1    1    2  502    0  0.49038566013E+02  0.49555939475E+02  0.13503368188E+03  0.22951833769E+03  0.17200000000E+03 0.  1.
         -6    1    1    2    0  501 -0.49038566013E+02 -0.49555939475E+02  0.23675611192E+03  0.30082890257E+03  0.17200000000E+03 0. -1.
</event>
<event>
 4    1  0.3205520E-002  0.2168923E+03  0.7818608E-02  0.1136221E+00
          2   -1    0    0  502    0  0.00000000000E+00  0.00000000000E+00  0.12054537246E+04  0.12054537246E+04  0.00000000000E+00 0. -1.
         -2   -1    0    0    0  501 -0.00000000000E+00 -0.00000000000E+00 -0.71069822340E+02  0.71069822340E+02  0.00000000000E+00 0.  1.
          6    1    1    2  502    0  0.87705853967E+02 -0.98822902601E+02  0.99577820554E+03  0.10191253689E+04  0.17200000000E+03 0. -1.
         -6    1    1    2    0  501 -0.87705853967E+02  0.98822902601E+02  0.13860569673E+03  0.25739817805E+03  0.17200000000E+03 0.  1.
</event>
<event>
 4    1  0.3205520E-002  0.3375443E+03  0.7818608E-02  0.1067847E+00
          3   -1    0    0  502    0  0.00000000000E+00  0.00000000000E+00  0.48746882189E+02  0.48746882189E+02  0.00000000000E+00 0. -1.
         -3   -1    0    0    0  501 -0.00000000000E+00 -0.00000000000E+00 -0.29222845421E+04  0.29222845421E+04  0.00000000000E+00 0.  1.
          6    1    1    2  502    0 -0.26804602330E+02 -0.28919486042E+03 -0.77212697061E+03  0.84268393408E+03  0.17200000000E+03 0. -1.
         -6    1    1    2    0  501  0.26804602330E+02  0.28919486042E+03 -0.21014106893E+04  0.21283474902E+04  0.17200000000E+03 0.  1.
</event>
<event>
 4    1  0.3205520E-002  0.2071122E+03  0.7818608E-02  0.1143873E+00
         -2   -1    0    0    0  501 -0.00000000000E+00  0.00000000000E+00  0.11259999002E+03  0.11259999002E+03  0.00000000000E+00 0.  1.
          2   -1    0    0  502    0  0.00000000000E+00 -0.00000000000E+00 -0.58869467821E+03  0.58869467821E+03  0.00000000000E+00 0. -1.
          6    1    1    2  502    0  0.70049044580E+02 -0.91676657242E+02 -0.44634562603E+03  0.49205680160E+03  0.17200000000E+03 0. -1.
         -6    1    1    2    0  501 -0.70049044580E+02  0.91676657242E+02 -0.29749062158E+02  0.20923786662E+03  0.17200000000E+03 0.  1.
</event>
<event>
 4    1  0.3205520E-002  0.2760157E+03  0.7818608E-02  0.1097885E+00
         -2   -1    0    0    0  501 -0.00000000000E+00  0.00000000000E+00  0.16243237517E+03  0.16243237517E+03  0.00000000000E+00 0.  1.
          2   -1    0    0  502    0  0.00000000000E+00 -0.00000000000E+00 -0.78497264242E+03  0.78497264242E+03  0.00000000000E+00 0. -1.
          6    1    1    2  502    0 -0.21224884500E+03 -0.39383919115E+02 -0.61179938060E+03  0.67118041344E+03  0.17200000000E+03 0. -1.
         -6    1    1    2    0  501  0.21224884500E+03  0.39383919115E+02 -0.10740886657E+02  0.27622460415E+03  0.17200000000E+03 0.  1.
</event>
<event>
 4    1  0.3205520E-002  0.3131423E+03  0.7818608E-02  0.1078849E+00
          2   -1    0    0  502    0  0.00000000000E+00  0.00000000000E+00  0.17209707566E+04  0.17209707566E+04  0.00000000000E+00 0. -1.
         -2   -1    0    0    0  501 -0.00000000000E+00 -0.00000000000E+00 -0.57471313474E+02  0.57471313474E+02  0.00000000000E+00 0.  1.
          6    1    1    2  502    0 -0.24778367860E+03  0.84126982312E+02  0.91410373586E+03  0.96625242067E+03  0.17200000000E+03 0. -1.
         -6    1    1    2    0  501  0.24778367860E+03 -0.84126982312E+02  0.74939570723E+03  0.81218964937E+03  0.17200000000E+03 0.  1.
</event>
<event>
 4    1  0.3205520E-002  0.2823211E+03  0.7818608E-02  0.1094428E+00
         -2   -1    0    0    0  501 -0.00000000000E+00  0.00000000000E+00  0.96654629411E+02  0.96654629411E+02  0.00000000000E+00 0.  1.
          2   -1    0    0  502    0  0.00000000000E+00 -0.00000000000E+00 -0.15655845145E+04  0.15655845145E+04  0.00000000000E+00 0. -1.
          6    1    1    2  502    0  0.15275729344E+03 -0.16366546692E+03 -0.13062310279E+04  0.13363924102E+04  0.17200000000E+03 0. -1.
         -6    1    1    2    0  501 -0.15275729344E+03  0.16366546692E+03 -0.16269885722E+03  0.32584673376E+03  0.17200000000E+03 0.  1.
</event>
<event>
 4    1  0.3205520E-002  0.2845622E+03  0.7818608E-02  0.1093223E+00
          1   -1    0    0  502    0  0.00000000000E+00  0.00000000000E+00  0.14724496760E+04  0.14724496760E+04  0.00000000000E+00 0. -1.
         -1   -1    0    0    0  501 -0.00000000000E+00 -0.00000000000E+00 -0.14348616172E+03  0.14348616172E+03  0.00000000000E+00 0.  1.
          6    1    1    2  502    0  0.36782381684E+02  0.22369337985E+03  0.12989967467E+04  0.13298000675E+04  0.17200000000E+03 0. -1.
         -6    1    1    2    0  501 -0.36782381684E+02 -0.22369337985E+03  0.29966767576E+02  0.28613577013E+03  0.17200000000E+03 0.  1.
</event>
<event>
 4    1  0.3205520E-002  0.2270207E+03  0.7818608E-02  0.1128754E+00
         -2   -1    0    0    0  501 -0.00000000000E+00  0.00000000000E+00  0.25588520904E+03  0.25588520904E+03  0.00000000000E+00 0.  1.
          2   -1    0    0  502    0  0.00000000000E+00 -0.00000000000E+00 -0.57036143186E+03  0.57036143186E+03  0.00000000000E+00 0. -1.
          6    1    1    2  502    0  0.12118036207E+03  0.85262756109E+02 -0.48950564448E+03  0.53958705851E+03  0.17200000000E+03 0. -1.
         -6    1    1    2    0  501 -0.12118036207E+03 -0.85262756109E+02  0.17502942167E+03  0.28665958240E+03  0.17200000000E+03 0.  1.
</event>
<event>
 4    1  0.3205520E-002  0.3093672E+03  0.7818608E-02  0.1080650E+00
         -1   -1    0    0    0  501 -0.00000000000E+00  0.00000000000E+00  0.22200881835E+03  0.22200881835E+03  0.00000000000E+00 0.  1.
          1   -1    0    0  502    0  0.00000000000E+00 -0.00000000000E+00 -0.46944564526E+03  0.46944564526E+03  0.00000000000E+00 0. -1.
          6    1    1    2  502    0  0.60873410928E+02 -0.24983693897E+03 -0.22252758472E+03  0.38108607189E+03  0.17200000000E+03 0. -1.
         -6    1    1    2    0  501 -0.60873410928E+02  0.24983693897E+03 -0.24909242197E+02  0.31036839172E+03  0.17200000000E+03 0.  1.
</event>
<event>
 4    1  0.3205520E-002  0.2188837E+03  0.7818608E-02  0.1134718E+00
         -2   -1    0    0    0  501 -0.00000000000E+00  0.00000000000E+00  0.11851581941E+03  0.11851581941E+03  0.00000000000E+00 0.  1.
          2   -1    0    0  502    0  0.00000000000E+00 -0.00000000000E+00 -0.67131311876E+03  0.67131311876E+03  0.00000000000E+00 0. -1.
          6    1    1    2  502    0  0.12098928789E+03 -0.60726125807E+02 -0.27313926079E+02  0.22058132445E+03  0.17200000000E+03 0.  1.
         -6    1    1    2    0  501 -0.12098928789E+03  0.60726125807E+02 -0.52548337327E+03  0.56924761372E+03  0.17200000000E+03 0. -1.
</event>
<event>
 4    1  0.3205520E-002  0.1785732E+03  0.7818608E-02  0.1169191E+00
         -2   -1    0    0    0  501 -0.00000000000E+00  0.00000000000E+00  0.14685756743E+02  0.14685756743E+02  0.00000000000E+00 0.  1.
          2   -1    0    0  502    0  0.00000000000E+00 -0.00000000000E+00 -0.35692753579E+04  0.35692753579E+04  0.00000000000E+00 0. -1.
          6    1    1    2  502    0 -0.20568824003E+02  0.43373918332E+02 -0.28987461580E+04  0.29042413229E+04  0.17200000000E+03 0. -1.
         -6    1    1    2    0  501  0.20568824003E+02 -0.43373918332E+02 -0.65584344318E+03  0.67971979173E+03  0.17200000000E+03 0.  1.
</event>
<event>
 4    1  0.3205520E-002  0.1874953E+03  0.7818608E-02  0.1160740E+00
          1   -1    0    0  502    0  0.00000000000E+00  0.00000000000E+00  0.83074446635E+03  0.83074446635E+03  0.00000000000E+00 0. -1.
         -1   -1    0    0    0  501 -0.00000000000E+00 -0.00000000000E+00 -0.11746763427E+03  0.11746763427E+03  0.00000000000E+00 0.  1.
          6    1    1    2  502    0  0.68209052059E+02 -0.30298617502E+02  0.73585137720E+03  0.75936271329E+03  0.17200000000E+03 0. -1.
         -6    1    1    2    0  501 -0.68209052059E+02  0.30298617502E+02 -0.22574545118E+02  0.18884938732E+03  0.17200000000E+03 0.  1.
</event>
<event>
 4    1  0.3205520E-002  0.2553869E+03  0.7818608E-02  0.1109947E+00
         -2   -1    0    0    0  501 -0.00000000000E+00  0.00000000000E+00  0.13778209692E+03  0.13778209692E+03  0.00000000000E+00 0.  1.
          2   -1    0    0  502    0  0.00000000000E+00 -0.00000000000E+00 -0.50156627289E+03  0.50156627289E+03  0.00000000000E+00 0. -1.
          6    1    1    2  502    0 -0.97731696175E+02  0.16151461728E+03 -0.25768154615E+03  0.36279778839E+03  0.17200000000E+03 0. -1.
         -6    1    1    2    0  501  0.97731696175E+02 -0.16151461728E+03 -0.10610262982E+03  0.27655058142E+03  0.17200000000E+03 0.  1.
</event>
<event>
 4    1  0.3205520E-002  0.2293027E+03  0.7818608E-02  0.1127132E+00
         -1   -1    0    0    0  501 -0.00000000000E+00  0.00000000000E+00  0.46980851934E+02  0.46980851934E+02  0.00000000000E+00 0.  1.
          1   -1    0    0  502    0  0.00000000000E+00 -0.00000000000E+00 -0.11795488623E+04  0.11795488623E+04  0.00000000000E+00 0. -1.
          6    1    1    2  502    0 -0.63188588085E+02  0.13785113602E+03 -0.42753837759E+03  0.48514822238E+03  0.17200000000E+03 0.  1.
         -6    1    1    2    0  501  0.63188588085E+02 -0.13785113602E+03 -0.70502963274E+03  0.74138149182E+03  0.17200000000E+03 0.  1.
</event>
<event>
 4    1  0.3205520E-002  0.5326276E+03  0.7818608E-02  0.1005597E+00
         -1   -1    0    0    0  501 -0.00000000000E+00  0.00000000000E+00  0.26361648389E+03  0.26361648389E+03  0.00000000000E+00 0.  1.
          1   -1    0    0  502    0  0.00000000000E+00 -0.00000000000E+00 -0.14156947739E+04  0.14156947739E+04  0.00000000000E+00 0. -1.
          6    1    1    2  502    0 -0.46978748581E+03 -0.18277826096E+03 -0.98724735025E+03  0.11217617862E+04  0.17200000000E+03 0. -1.
         -6    1    1    2    0  501  0.46978748581E+03  0.18277826096E+03 -0.16483093973E+03  0.55754947152E+03  0.17200000000E+03 0.  1.
</event>
<event>
 4    1  0.3205520E-002  0.2003244E+03  0.7818608E-02  0.1149466E+00
          1   -1    0    0  502    0  0.00000000000E+00  0.00000000000E+00  0.12252941252E+03  0.12252941252E+03  0.00000000000E+00 0. -1.
         -1   -1    0    0    0  501 -0.00000000000E+00 -0.00000000000E+00 -0.33056652597E+03  0.33056652597E+03  0.00000000000E+00 0.  1.
          6    1    1    2  502    0  0.40191392841E+02  0.94501502647E+02 -0.82242173086E+02  0.21654943337E+03  0.17200000000E+03 0. -1.
         -6    1    1    2    0  501 -0.40191392841E+02 -0.94501502647E+02 -0.12579494037E+03  0.23654650512E+03  0.17200000000E+03 0.  1.
</event>
<event>
 4    1  0.3205520E-002  0.3492150E+03  0.7818608E-02  0.1062938E+00
          1   -1    0    0  502    0  0.00000000000E+00  0.00000000000E+00  0.16799978354E+04  0.16799978354E+04  0.00000000000E+00 0. -1.
         -1   -1    0    0    0  501 -0.00000000000E+00 -0.00000000000E+00 -0.78569490126E+02  0.78569490126E+02  0.00000000000E+00 0.  1.
          6    1    1    2  502    0  0.30384179267E+03 -0.68754635206E+01  0.55814660823E+03  0.65839102610E+03  0.17200000000E+03 0. -1.
         -6    1    1    2    0  501 -0.30384179267E+03  0.68754635206E+01  0.10432817371E+04  0.11001762995E+04  0.17200000000E+03 0.  1.
</event>
<event>
 4    1  0.3205520E-002  0.2748560E+03  0.7818608E-02  0.1098532E+00
         -1   -1    0    0    0  501 -0.00000000000E+00  0.00000000000E+00  0.67772787665E+02  0.67772787665E+02  0.00000000000E+00 0.  1.
          1   -1    0    0  502    0  0.00000000000E+00 -0.00000000000E+00 -0.11735448628E+04  0.11735448628E+04  0.00000000000E+00 0. -1.
          6    1    1    2  502    0 -0.10603975625E+03  0.18632608538E+03 -0.41389594411E+03  0.49684574322E+03  0.17200000000E+03 0. -1.
         -6    1    1    2    0  501  0.10603975625E+03 -0.18632608538E+03 -0.69187613098E+03  0.74447190721E+03  0.17200000000E+03 0. -1.
</event>
<event>
 4    1  0.3205520E-002  0.1773291E+03  0.7818608E-02  0.1170413E+00
         -1   -1    0    0    0  501 -0.00000000000E+00  0.00000000000E+00  0.17089950150E+04  0.17089950150E+04  0.00000000000E+00 0.  1.
          1   -1    0    0  502    0  0.00000000000E+00 -0.00000000000E+00 -0.51298297209E+02  0.51298297209E+02  0.00000000000E+00 0. -1.
          6    1    1    2  502    0 -0.29187140631E+02  0.31776313226E+02  0.12400950814E+03  0.21638849639E+03  0.17200000000E+03 0. -1.
         -6    1    1    2    0  501  0.29187140631E+02 -0.31776313226E+02  0.15336872097E+04  0.15439048159E+04  0.17200000000E+03 0.  1.
</event>
<event>
 4    1  0.3205520E-002  0.2588632E+03  0.7818608E-02  0.1107828E+00
          1   -1    0    0  502    0  0.00000000000E+00  0.00000000000E+00  0.43335821186E+03  0.43335821186E+03  0.00000000000E+00 0. -1.
         -1   -1    0    0    0  501 -0.00000000000E+00 -0.00000000000E+00 -0.15613012056E+03  0.15613012056E+03  0.00000000000E+00 0.  1.
          6    1    1    2  502    0  0.12923034123E+03 -0.14396418989E+03  0.10972263787E+03  0.28115694252E+03  0.17200000000E+03 0. -1.
         -6    1    1    2    0  501 -0.12923034123E+03  0.14396418989E+03  0.16750545344E+03  0.30833138990E+03  0.17200000000E+03 0. -1.
</event>
<event>
 4    1  0.3205520E-002  0.2689030E+03  0.7818608E-02  0.1101909E+00
          2   -1    0    0  502    0  0.00000000000E+00  0.00000000000E+00  0.16477216457E+03  0.16477216457E+03  0.00000000000E+00 0. -1.
         -2   -1    0    0    0  501 -0.00000000000E+00 -0.00000000000E+00 -0.45101340968E+03  0.45101340968E+03  0.00000000000E+00 0.  1.
          6    1    1    2  502    0  0.17267215818E+03  0.11361848943E+03 -0.19370160198E+03  0.33140480679E+03  0.17200000000E+03 0. -1.
         -6    1    1    2    0  501 -0.17267215818E+03 -0.11361848943E+03 -0.92539643138E+02  0.28438076747E+03  0.17200000000E+03 0.  1.
</event>
<event>
 4    1  0.3205520E-002  0.2368706E+03  0.7818608E-02  0.1121895E+00
          1   -1    0    0  502    0  0.00000000000E+00  0.00000000000E+00  0.42942038343E+03  0.42942038343E+03  0.00000000000E+00 0. -1.
         -1   -1    0    0    0  501 -0.00000000000E+00 -0.00000000000E+00 -0.14219380446E+03  0.14219380446E+03  0.00000000000E+00 0.  1.
          6    1    1    2  502    0 -0.15151861705E+03  0.59714109620E+02  0.22501556472E+03  0.32671037719E+03  0.17200000000E+03 0. -1.
         -6    1    1    2    0  501  0.15151861705E+03 -0.59714109620E+02  0.62211014255E+02  0.24490381070E+03  0.17200000000E+03 0. -1.
</event>
<event>
 4    1  0.3205520E-002  0.3530426E+03  0.7818608E-02  0.1061373E+00
         -2   -1    0    0    0  501 -0.00000000000E+00  0.00000000000E+00  0.11969792672E+03  0.11969792672E+03  0.00000000000E+00 0.  1.
          2   -1    0    0  502    0  0.00000000000E+00 -0.00000000000E+00 -0.11674361889E+04  0.11674361889E+04  0.00000000000E+00 0. -1.
          6    1    1    2  502    0  0.23822523187E+03 -0.19571357134E+03 -0.73542809167E+03  0.81577787487E+03  0.17200000000E+03 0. -1.
         -6    1    1    2    0  501 -0.23822523187E+03  0.19571357134E+03 -0.31231017054E+03  0.47135624079E+03  0.17200000000E+03 0.  1.
</event>
<event>
 4    1  0.3205520E-002  0.2744480E+03  0.7818608E-02  0.1098761E+00
         -2   -1    0    0    0  501 -0.00000000000E+00  0.00000000000E+00  0.82781528928E+03  0.82781528928E+03  0.00000000000E+00 0.  1.
          2   -1    0    0  502    0  0.00000000000E+00 -0.00000000000E+00 -0.11499977760E+03  0.11499977760E+03  0.00000000000E+00 0. -1.
          6    1    1    2  502    0  0.18242436188E+03 -0.11162004058E+03  0.57181263957E+03  0.63426443699E+03  0.17200000000E+03 0.  1.
         -6    1    1    2    0  501 -0.18242436188E+03  0.11162004058E+03  0.14100287211E+03  0.30855062989E+03  0.17200000000E+03 0.  1.
</event>
<event>
 4    1  0.3205520E-002  0.2383237E+03  0.7818608E-02  0.1120915E+00
          2   -1    0    0  502    0  0.00000000000E+00  0.00000000000E+00  0.21567997500E+03  0.21567997500E+03  0.00000000000E+00 0. -1.
         -2   -1    0    0    0  501 -0.00000000000E+00 -0.00000000000E+00 -0.26526202359E+03  0.26526202359E+03  0.00000000000E+00 0.  1.
          6    1    1    2  502    0  0.16220131247E+03  0.30082011880E+02 -0.43470626901E+01  0.23836335742E+03  0.17200000000E+03 0. -1.
         -6    1    1    2    0  501 -0.16220131247E+03 -0.30082011880E+02 -0.45234985898E+02  0.24257864118E+03  0.17200000000E+03 0.  1.
</event>
<event>
 4    1  0.3205520E-002  0.1807932E+03  0.7818608E-02  0.1167038E+00
         -2   -1    0    0    0  501 -0.00000000000E+00  0.00000000000E+00  0.10733595770E+02  0.10733595770E+02  0.00000000000E+00 0.  1.
          2   -1    0    0  502    0  0.00000000000E+00 -0.00000000000E+00 -0.39534585125E+04  0.39534585125E+04  0.00000000000E+00 0. -1.
          6    1    1    2  502    0 -0.33226886143E+02  0.44700813662E+02 -0.10213365857E+04  0.10372148331E+04  0.17200000000E+03 0.  1.
         -6    1    1    2    0  501  0.33226886143E+02 -0.44700813662E+02 -0.29213883310E+04  0.29269772751E+04  0.17200000000E+03 0. -1.
</event>
<event>
 4    1  0.3205520E-002  0.1001308E+04  0.7818608E-02  0.9307111E-01
          2   -1    0    0  502    0  0.00000000000E+00  0.00000000000E+00  0.63286981475E+03  0.63286981475E+03  0.00000000000E+00 0. -1.
         -2   -1    0    0    0  501 -0.00000000000E+00 -0.00000000000E+00 -0.15989472072E+04  0.15989472072E+04  0.00000000000E+00 0.  1.
          6    1    1    2  502    0 -0.35466480728E+03  0.92046016050E+03 -0.59005952194E+03  0.11622341726E+04  0.17200000000E+03 0. -1.
         -6    1    1    2    0  501  0.35466480728E+03 -0.92046016050E+03 -0.37601787050E+03  0.10695828493E+04  0.17200000000E+03 0.  1.
</event>
<event>
 4    1  0.3205520E-002  0.1749370E+03  0.7818608E-02  0.1172795E+00
          2   -1    0    0  502    0  0.00000000000E+00  0.00000000000E+00  0.55900514149E+03  0.55900514149E+03  0.00000000000E+00 0. -1.
         -2   -1    0    0    0  501 -0.00000000000E+00 -0.00000000000E+00 -0.86429752449E+02  0.86429752449E+02  0.00000000000E+00 0.  1.
          6    1    1    2  502    0 -0.27070217742E+01  0.31806101117E+02  0.40892770264E+02  0.17965292843E+03  0.17200000000E+03 0.  1.
         -6    1    1    2    0  501  0.27070217742E+01 -0.31806101117E+02  0.43168261878E+03  0.46578196551E+03  0.17200000000E+03 0. -1.
</event>
<event>
 4    1  0.3205520E-002  0.2070918E+03  0.7818608E-02  0.1143890E+00
         -1   -1    0    0    0  501 -0.00000000000E+00  0.00000000000E+00  0.10341578327E+04  0.10341578327E+04  0.00000000000E+00 0.  1.
          1   -1    0    0  502    0  0.00000000000E+00 -0.00000000000E+00 -0.45134596363E+02  0.45134596363E+02  0.00000000000E+00 0. -1.
          6    1    1    2  502    0  0.17206760451E+02  0.11404800890E+03  0.34075315598E+03  0.39874770752E+03  0.17200000000E+03 0. -1.
         -6    1    1    2    0  501 -0.17206760451E+02 -0.11404800890E+03  0.64827008035E+03  0.68054472154E+03  0.17200000000E+03 0.  1.
</event>
<event>
 4    1  0.3205520E-002  0.1936831E+03  0.7818608E-02  0.1155181E+00
          1   -1    0    0  502    0  0.00000000000E+00  0.00000000000E+00  0.10255065432E+03  0.10255065432E+03  0.00000000000E+00 0. -1.
         -1   -1    0    0    0  501 -0.00000000000E+00 -0.00000000000E+00 -0.54259933207E+03  0.54259933207E+03  0.00000000000E+00 0.  1.
          6    1    1    2  502    0 -0.88750613930E+02 -0.72429669657E+01 -0.35891966192E+02  0.19698062159E+03  0.17200000000E+03 0. -1.
         -6    1    1    2    0  501  0.88750613930E+02  0.72429669657E+01 -0.40415671156E+03  0.44816936480E+03  0.17200000000E+03 0.  1.
</event>
<event>
 4    1  0.3205520E-002  0.2310232E+03  0.7818608E-02  0.1125922E+00
         -1   -1    0    0    0  501 -0.00000000000E+00  0.00000000000E+00  0.94296697050E+02  0.94296697050E+02  0.00000000000E+00 0.  1.
          1   -1    0    0  502    0  0.00000000000E+00 -0.00000000000E+00 -0.58046898812E+03  0.58046898812E+03  0.00000000000E+00 0. -1.
          6    1    1    2  502    0 -0.70150863274E+01 -0.15407303089E+03 -0.18981554258E+03  0.29900108777E+03  0.17200000000E+03 0.  1.
         -6    1    1    2    0  501  0.70150863274E+01  0.15407303089E+03 -0.29635674849E+03  0.37576459740E+03  0.17200000000E+03 0.  1.
</event>
<event>
 4    1  0.3205520E-002  0.3186530E+03  0.7818608E-02  0.1076271E+00
          2   -1    0    0  502    0  0.00000000000E+00  0.00000000000E+00  0.19059406615E+03  0.19059406615E+03  0.00000000000E+00 0. -1.
         -2   -1    0    0    0  501 -0.00000000000E+00 -0.00000000000E+00 -0.70849586281E+03  0.70849586281E+03  0.00000000000E+00 0.  1.
          6    1    1    2  502    0 -0.19870395373E+03 -0.18020127303E+03 -0.35057116072E+02  0.32057567191E+03  0.17200000000E+03 0. -1.
         -6    1    1    2    0  501  0.19870395373E+03  0.18020127303E+03 -0.48284468059E+03  0.57851425705E+03  0.17200000000E+03 0.  1.
</event>
<event>
 4    1  0.3205520E-002  0.2525359E+03  0.7818608E-02  0.1111713E+00
         -2   -1    0    0    0  501 -0.00000000000E+00  0.00000000000E+00  0.86615799879E+02  0.86615799879E+02  0.00000000000E+00 0.  1.
          2   -1    0    0  502    0  0.00000000000E+00 -0.00000000000E+00 -0.16961788008E+04  0.16961788008E+04  0.00000000000E+00 0. -1.
          6    1    1    2  502    0 -0.11390233408E+03  0.14565926196E+03 -0.14753542829E+04  0.14968114853E+04  0.17200000000E+03 0. -1.
         -6    1    1    2    0  501  0.11390233408E+03 -0.14565926196E+03 -0.13420871798E+03  0.28598311539E+03  0.17200000000E+03 0.  1.
</event>
<event>
 4    1  0.3205520E-002  0.2697606E+03  0.7818608E-02  0.1101417E+00
         -2   -1    0    0    0  501 -0.00000000000E+00  0.00000000000E+00  0.66574578737E+02  0.66574578737E+02  0.00000000000E+00 0.  1.
          2   -1    0    0  502    0  0.00000000000E+00 -0.00000000000E+00 -0.13879107682E+04  0.13879107682E+04  0.00000000000E+00 0. -1.
          6    1    1    2  502    0  0.13222383879E+03  0.16032358746E+03 -0.99585805767E+03  0.10317480639E+04  0.17200000000E+03 0. -1.
         -6    1    1    2    0  501 -0.13222383879E+03 -0.16032358746E+03 -0.32547813184E+03  0.42273728313E+03  0.17200000000E+03 0.  1.
</event>
<event>
 4    1  0.3205520E-002  0.6412802E+03  0.7818608E-02  0.9823280E-01
          2   -1    0    0  502    0  0.00000000000E+00  0.00000000000E+00  0.47636052337E+03  0.47636052337E+03  0.00000000000E+00 0. -1.
         -2   -1    0    0    0  501 -0.00000000000E+00 -0.00000000000E+00 -0.86339033788E+03  0.86339033788E+03  0.00000000000E+00 0.  1.
          6    1    1    2  502    0  0.26897037259E+03  0.55615754402E+03 -0.20050612043E+03  0.67189506579E+03  0.17200000000E+03 0. -1.
         -6    1    1    2    0  501 -0.26897037259E+03 -0.55615754402E+03 -0.18652369408E+03  0.66785579547E+03  0.17200000000E+03 0.  1.
</event>
<event>
 4    1  0.3205520E-002  0.2887856E+03  0.7818608E-02  0.1090985E+00
          2   -1    0    0  502    0  0.00000000000E+00  0.00000000000E+00  0.89686246061E+03  0.89686246061E+03  0.00000000000E+00 0. -1.
         -2   -1    0    0    0  501 -0.00000000000E+00 -0.00000000000E+00 -0.12262152198E+03  0.12262152198E+03  0.00000000000E+00 0.  1.
          6    1    1    2  502    0  0.16907207638E+03 -0.15883241603E+03  0.13653176029E+03  0.31943391330E+03  0.17200000000E+03 0. -1.
         -6    1    1    2    0  501 -0.16907207638E+03  0.15883241603E+03  0.63770917833E+03  0.70005006930E+03  0.17200000000E+03 0. -1.
</event>
<event>
 4    1  0.3205520E-002  0.3312280E+03  0.7818608E-02  0.1070595E+00
          1   -1    0    0  502    0  0.00000000000E+00  0.00000000000E+00  0.10835247368E+04  0.10835247368E+04  0.00000000000E+00 0. -1.
         -1   -1    0    0    0  501 -0.00000000000E+00 -0.00000000000E+00 -0.15024006915E+03  0.15024006915E+03  0.00000000000E+00 0.  1.
          6    1    1    2  502    0  0.27669088881E+03  0.59750614005E+02  0.81888555123E+03  0.88333772128E+03  0.17200000000E+03 0. -1.
         -6    1    1    2    0  501 -0.27669088881E+03 -0.59750614005E+02  0.11439911639E+03  0.35042708464E+03  0.17200000000E+03 0.  1.
</event>
<event>
 4    1  0.3205520E-002  0.2188432E+03  0.7818608E-02  0.1134748E+00
         -4   -1    0    0    0  501 -0.00000000000E+00  0.00000000000E+00  0.14820794418E+03  0.14820794418E+03  0.00000000000E+00 0.  1.
          4   -1    0    0  502    0  0.00000000000E+00 -0.00000000000E+00 -0.33736549014E+03  0.33736549014E+03  0.00000000000E+00 0. -1.
          6    1    1    2  502    0  0.49841207878E+02 -0.12579419421E+03 -0.44728681410E+02  0.22336736610E+03  0.17200000000E+03 0.  1.
         -6    1    1    2    0  501 -0.49841207878E+02  0.12579419421E+03 -0.14442886455E+03  0.26220606823E+03  0.17200000000E+03 0. -1.
</event>
<event>
 4    1  0.3205520E-002  0.1805966E+03  0.7818608E-02  0.1167227E+00
          1   -1    0    0  502    0  0.00000000000E+00  0.00000000000E+00  0.56332382516E+03  0.56332382516E+03  0.00000000000E+00 0. -1.
         -1   -1    0    0    0  501 -0.00000000000E+00 -0.00000000000E+00 -0.85755862660E+02  0.85755862660E+02  0.00000000000E+00 0.  1.
          6    1    1    2  502    0 -0.54439608993E+02 -0.82137726689E+01  0.42375878682E+03  0.46063721788E+03  0.17200000000E+03 0. -1.
         -6    1    1    2    0  501  0.54439608993E+02  0.82137726689E+01  0.53809175676E+02  0.18844246994E+03  0.17200000000E+03 0.  1.
</event>
<event>
 4    1  0.3205520E-002  0.1797020E+03  0.7818608E-02  0.1168092E+00
         -1   -1    0    0    0  501 -0.00000000000E+00  0.00000000000E+00  0.82424870885E+02  0.82424870885E+02  0.00000000000E+00 0.  1.
          1   -1    0    0  502    0  0.00000000000E+00 -0.00000000000E+00 -0.48292877109E+03  0.48292877109E+03  0.00000000000E+00 0. -1.
          6    1    1    2  502    0 -0.43863523352E+02  0.28014050300E+02 -0.32305611337E+03  0.36967289336E+03  0.17200000000E+03 0. -1.
         -6    1    1    2    0  501  0.43863523352E+02 -0.28014050300E+02 -0.77447786834E+02  0.19568074862E+03  0.17200000000E+03 0.  1.
</event>
<event>
 4    1  0.3205520E-002  0.1730166E+03  0.7818608E-02  0.1174738E+00
          2   -1    0    0  502    0  0.00000000000E+00  0.00000000000E+00  0.11006699179E+04  0.11006699179E+04  0.00000000000E+00 0. -1.
         -2   -1    0    0    0  501 -0.00000000000E+00 -0.00000000000E+00 -0.27200062864E+02  0.27200062864E+02  0.00000000000E+00 0.  1.
          6    1    1    2  502    0  0.17785981577E+02  0.58641016731E+01  0.53058357879E+03  0.55808033733E+03  0.17200000000E+03 0.  1.
         -6    1    1    2    0  501 -0.17785981577E+02 -0.58641016731E+01  0.54288627620E+03  0.56978964339E+03  0.17200000000E+03 0. -1.
</event>
<event>
 4    1  0.3205520E-002  0.1865735E+03  0.7818608E-02  0.1161589E+00
          2   -1    0    0  502    0  0.00000000000E+00  0.00000000000E+00  0.11889432116E+04  0.11889432116E+04  0.00000000000E+00 0. -1.
         -2   -1    0    0    0  501 -0.00000000000E+00 -0.00000000000E+00 -0.39131799430E+02  0.39131799430E+02  0.00000000000E+00 0.  1.
          6    1    1    2  502    0 -0.79611370877E+01 -0.71849050804E+02  0.88303699910E+03  0.90253199809E+03  0.17200000000E+03 0. -1.
         -6    1    1    2    0  501  0.79611370877E+01  0.71849050804E+02  0.26677441309E+03  0.32554301296E+03  0.17200000000E+03 0.  1.
</event>
<event>
 4    1  0.3205520E-002  0.2039020E+03  0.7818608E-02  0.1146488E+00
         -2   -1    0    0    0  501 -0.00000000000E+00  0.00000000000E+00  0.76728369677E+02  0.76728369677E+02  0.00000000000E+00 0.  1.
          2   -1    0    0  502    0  0.00000000000E+00 -0.00000000000E+00 -0.54321216327E+03  0.54321216327E+03  0.00000000000E+00 0. -1.
          6    1    1    2  502    0  0.10150988987E+03  0.41082374791E+02 -0.24870802233E+03  0.32160799062E+03  0.17200000000E+03 0. -1.
         -6    1    1    2    0  501 -0.10150988987E+03 -0.41082374791E+02 -0.21777577127E+03  0.29833254233E+03  0.17200000000E+03 0.  1.
</event>
<event>
 4    1  0.3205520E-002  0.8340514E+03  0.7818608E-02  0.9511996E-01
         -1   -1    0    0    0  501 -0.00000000000E+00  0.00000000000E+00  0.45813837170E+03  0.45813837170E+03  0.00000000000E+00 0.  1.
          1   -1    0    0  502    0  0.00000000000E+00 -0.00000000000E+00 -0.15187077584E+04  0.15187077584E+04  0.00000000000E+00 0. -1.
          6    1    1    2  502    0  0.80177114577E+03 -0.15238368604E+03 -0.51643819818E+03  0.98099448036E+03  0.17200000000E+03 0. -1.
         -6    1    1    2    0  501 -0.80177114577E+03  0.15238368604E+03 -0.54413118853E+03  0.99585164974E+03  0.17200000000E+03 0.  1.
</event>
<event>
 4    1  0.3205520E-002  0.3229577E+03  0.7818608E-02  0.1074296E+00
         -2   -1    0    0    0  501 -0.00000000000E+00  0.00000000000E+00  0.30717598080E+03  0.30717598080E+03  0.00000000000E+00 0.  1.
          2   -1    0    0  502    0  0.00000000000E+00 -0.00000000000E+00 -0.12366141920E+04  0.12366141920E+04  0.00000000000E+00 0. -1.
          6    1    1    2  502    0 -0.25494163913E+03  0.98602492351E+02 -0.11221541581E+04  0.11677035777E+04  0.17200000000E+03 0. -1.
         -6    1    1    2    0  501  0.25494163913E+03 -0.98602492351E+02  0.19271594686E+03  0.37608659513E+03  0.17200000000E+03 0.  1.
</event>
<event>
 4    1  0.3205520E-002  0.4688171E+03  0.7818608E-02  0.1022255E+00
          1   -1    0    0  502    0  0.00000000000E+00  0.00000000000E+00  0.56210282063E+03  0.56210282063E+03  0.00000000000E+00 0. -1.
         -1   -1    0    0    0  501 -0.00000000000E+00 -0.00000000000E+00 -0.57599362592E+03  0.57599362592E+03  0.00000000000E+00 0.  1.
          6    1    1    2  502    0 -0.32799270291E+03  0.28744777157E+03  0.31553513803E+03  0.56511225245E+03  0.17200000000E+03 0. -1.
         -6    1    1    2    0  501  0.32799270291E+03 -0.28744777157E+03 -0.32942594332E+03  0.57298419409E+03  0.17200000000E+03 0.  1.
</event>
<event>
 4    1  0.3205520E-002  0.2199441E+03  0.7818608E-02  0.1133925E+00
          2   -1    0    0  502    0  0.00000000000E+00  0.00000000000E+00  0.31992283173E+03  0.31992283173E+03  0.00000000000E+00 0. -1.
         -2   -1    0    0    0  501 -0.00000000000E+00 -0.00000000000E+00 -0.15125880682E+03  0.15125880682E+03  0.00000000000E+00 0.  1.
          6    1    1    2  502    0 -0.77927893234E+02  0.11277697902E+03  0.88581229718E+02  0.23711186769E+03  0.17200000000E+03 0.  1.
         -6    1    1    2    0  501  0.77927893234E+02 -0.11277697902E+03  0.80082795189E+02  0.23406977085E+03  0.17200000000E+03 0.  1.
</event>
<event>
 4    1  0.3205520E-002  0.1766084E+03  0.7818608E-02  0.1171126E+00
          2   -1    0    0  502    0  0.00000000000E+00  0.00000000000E+00  0.13758304396E+04  0.13758304396E+04  0.00000000000E+00 0. -1.
         -2   -1    0    0    0  501 -0.00000000000E+00 -0.00000000000E+00 -0.29619070993E+02  0.29619070993E+02  0.00000000000E+00 0.  1.
          6    1    1    2  502    0 -0.37641076968E+02  0.13772105044E+02  0.10134768740E+04  0.10287496759E+04  0.17200000000E+03 0. -1.
         -6    1    1    2    0  501  0.37641076968E+02 -0.13772105044E+02  0.33273449464E+03  0.37669983472E+03  0.17200000000E+03 0.  1.
</event>
<event>
 4    1  0.3205520E-002  0.2286104E+03  0.7818608E-02  0.1127622E+00
         -2   -1    0    0    0  501 -0.00000000000E+00  0.00000000000E+00  0.16581808027E+03  0.16581808027E+03  0.00000000000E+00 0.  1.
          2   -1    0    0  502    0  0.00000000000E+00 -0.00000000000E+00 -0.37981631278E+03  0.37981631278E+03  0.00000000000E+00 0. -1.
          6    1    1    2  502    0  0.40359535315E+02  0.14508550247E+03 -0.21954254203E+03  0.31695681548E+03  0.17200000000E+03 0. -1.
         -6    1    1    2    0  501 -0.40359535315E+02 -0.14508550247E+03  0.55443095228E+01  0.22867757757E+03  0.17200000000E+03 0.  1.
</event>
<event>
 4    1  0.3205520E-002  0.1774249E+03  0.7818608E-02  0.1170319E+00
          1   -1    0    0  502    0  0.00000000000E+00  0.00000000000E+00  0.94833508027E+03  0.94833508027E+03  0.00000000000E+00 0. -1.
         -1   -1    0    0    0  501 -0.00000000000E+00 -0.00000000000E+00 -0.91257813223E+02  0.91257813223E+02  0.00000000000E+00 0.  1.
          6    1    1    2  502    0  0.32699821535E+02  0.28745996861E+02  0.84315723549E+03  0.86162273323E+03  0.17200000000E+03 0. -1.
         -6    1    1    2    0  501 -0.32699821535E+02 -0.28745996861E+02  0.13920031554E+02  0.17797016026E+03  0.17200000000E+03 0.  1.
</event>
<event>
 4    1  0.3205520E-002  0.1732509E+03  0.7818608E-02  0.1174499E+00
         -1   -1    0    0    0  501 -0.00000000000E+00  0.00000000000E+00  0.75418825344E+02  0.75418825344E+02  0.00000000000E+00 0.  1.
          1   -1    0    0  502    0  0.00000000000E+00 -0.00000000000E+00 -0.47588333408E+03  0.47588333408E+03  0.00000000000E+00 0. -1.
          6    1    1    2  502    0  0.18468418933E+02  0.95286679422E+01 -0.31175458202E+03  0.35666061939E+03  0.17200000000E+03 0. -1.
         -6    1    1    2    0  501 -0.18468418933E+02 -0.95286679422E+01 -0.88709926719E+02  0.19464154004E+03  0.17200000000E+03 0.  1.
</event>
<event>
 4    1  0.3205520E-002  0.5145287E+03  0.7818608E-02  0.1010055E+00
          2   -1    0    0  502    0  0.00000000000E+00  0.00000000000E+00  0.75997240168E+03  0.75997240168E+03  0.00000000000E+00 0. -1.
         -2   -1    0    0    0  501 -0.00000000000E+00 -0.00000000000E+00 -0.52204617069E+03  0.52204617069E+03  0.00000000000E+00 0.  1.
          6    1    1    2  502    0 -0.48003981619E+03  0.68684441776E+02  0.48870564392E+03  0.70962876497E+03  0.17200000000E+03 0. -1.
         -6    1    1    2    0  501  0.48003981619E+03 -0.68684441776E+02 -0.25077941293E+03  0.57238980741E+03  0.17200000000E+03 0.  1.
</event>
<event>
 4    1  0.3205520E-002  0.2168537E+03  0.7818608E-02  0.1136251E+00
          2   -1    0    0  502    0  0.00000000000E+00  0.00000000000E+00  0.84046416914E+03  0.84046416914E+03  0.00000000000E+00 0. -1.
         -2   -1    0    0    0  501 -0.00000000000E+00 -0.00000000000E+00 -0.56321010363E+02  0.56321010363E+02  0.00000000000E+00 0.  1.
          6    1    1    2  502    0 -0.11766817914E+03 -0.59964306573E+02  0.42837398566E+03  0.48013517892E+03  0.17200000000E+03 0. -1.
         -6    1    1    2    0  501  0.11766817914E+03  0.59964306573E+02  0.35576917312E+03  0.41665000059E+03  0.17200000000E+03 0. -1.
</event>
<event>
 4    1  0.3205520E-002  0.5537211E+03  0.7818608E-02  0.1000636E+00
          2   -1    0    0  502    0  0.00000000000E+00  0.00000000000E+00  0.71835422282E+03  0.71835422282E+03  0.00000000000E+00 0. -1.
         -2   -1    0    0    0  501 -0.00000000000E+00 -0.00000000000E+00 -0.42826248284E+03  0.42826248284E+03  0.00000000000E+00 0.  1.
          6    1    1    2  502    0  0.60511187036E+02 -0.52283983533E+03  0.11175944919E+03  0.56488695475E+03  0.17200000000E+03 0. -1.
         -6    1    1    2    0  501 -0.60511187036E+02  0.52283983533E+03  0.17833229078E+03  0.58172975091E+03  0.17200000000E+03 0.  1.
</event>
<event>
 4    1  0.3205520E-002  0.1869286E+03  0.7818608E-02  0.1161261E+00
         -3   -1    0    0    0  501 -0.00000000000E+00  0.00000000000E+00  0.65681930564E+02  0.65681930564E+02  0.00000000000E+00 0.  1.
          3   -1    0    0  502    0  0.00000000000E+00 -0.00000000000E+00 -0.61425637357E+03  0.61425637357E+03  0.00000000000E+00 0. -1.
          6    1    1    2  502    0 -0.59133189679E+02  0.43145925677E+02 -0.39870109994E+03  0.44034630931E+03  0.17200000000E+03 0. -1.
         -6    1    1    2    0  501  0.59133189679E+02 -0.43145925677E+02 -0.14987334306E+03  0.23959199482E+03  0.17200000000E+03 0.  1.
</event>
<event>
 4    1  0.3205520E-002  0.2134284E+03  0.7818608E-02  0.1138879E+00
         -2   -1    0    0    0  501 -0.00000000000E+00  0.00000000000E+00  0.20403960064E+03  0.20403960064E+03  0.00000000000E+00 0.  1.
          2   -1    0    0  502    0  0.00000000000E+00 -0.00000000000E+00 -0.23129625443E+03  0.23129625443E+03  0.00000000000E+00 0. -1.
          6    1    1    2  502    0 -0.77322676304E+02 -0.99944460934E+02  0.26971741878E+02  0.21512593150E+03  0.17200000000E+03 0. -1.
         -6    1    1    2    0  501  0.77322676304E+02  0.99944460934E+02 -0.54228395672E+02  0.22020992357E+03  0.17200000000E+03 0.  1.
</event>
<event>
 4    1  0.3205520E-002  0.2313357E+03  0.7818608E-02  0.1125703E+00
          2   -1    0    0  502    0  0.00000000000E+00  0.00000000000E+00  0.18163466031E+04  0.18163466031E+04  0.00000000000E+00 0. -1.
         -2   -1    0    0    0  501 -0.00000000000E+00 -0.00000000000E+00 -0.40571585368E+02  0.40571585368E+02  0.00000000000E+00 0.  1.
          6    1    1    2  502    0  0.11677480314E+03  0.10146849283E+03  0.13736996447E+04  0.13930423265E+04  0.17200000000E+03 0. -1.
         -6    1    1    2    0  501 -0.11677480314E+03 -0.10146849283E+03  0.40207537309E+03  0.46387586198E+03  0.17200000000E+03 0.  1.
</event>
<event>
 4    1  0.3205520E-002  0.1742606E+03  0.7818608E-02  0.1173476E+00
          2   -1    0    0  502    0  0.00000000000E+00  0.00000000000E+00  0.11578787219E+04  0.11578787219E+04  0.00000000000E+00 0. -1.
         -2   -1    0    0    0  501 -0.00000000000E+00 -0.00000000000E+00 -0.30253372676E+02  0.30253372676E+02  0.00000000000E+00 0.  1.
          6    1    1    2  502    0  0.22051137565E+02 -0.17219106441E+02  0.78055731213E+03  0.79977276011E+03  0.17200000000E+03 0. -1.
         -6    1    1    2    0  501 -0.22051137565E+02  0.17219106441E+02  0.34706803710E+03  0.38835933447E+03  0.17200000000E+03 0.  1.
</event>
<event>
 4    1  0.3205520E-002  0.1723768E+03  0.7818608E-02  0.1175392E+00
         -1   -1    0    0    0  501 -0.00000000000E+00  0.00000000000E+00  0.44465760912E+02  0.44465760912E+02  0.00000000000E+00 0.  1.
          1   -1    0    0  502    0  0.00000000000E+00 -0.00000000000E+00 -0.85717812400E+03  0.85717812400E+03  0.00000000000E+00 0. -1.
          6    1    1    2  502    0  0.21331633621E+01 -0.11189248658E+02 -0.61801219337E+03  0.64160176186E+03  0.17200000000E+03 0. -1.
         -6    1    1    2    0  501 -0.21331633621E+01  0.11189248658E+02 -0.19470016971E+03  0.26004212305E+03  0.17200000000E+03 0.  1.
</event>
<event>
 4    1  0.3205520E-002  0.1888599E+03  0.7818608E-02  0.1159494E+00
         -2   -1    0    0    0  501 -0.00000000000E+00  0.00000000000E+00  0.13093906349E+03  0.13093906349E+03  0.00000000000E+00 0.  1.
          2   -1    0    0  502    0  0.00000000000E+00 -0.00000000000E+00 -0.27244077876E+03  0.27244077876E+03  0.00000000000E+00 0. -1.
          6    1    1    2  502    0 -0.74700736247E+02  0.22447274490E+02 -0.68348699487E+02  0.20084726747E+03  0.17200000000E+03 0. -1.
         -6    1    1    2    0  501  0.74700736247E+02 -0.22447274490E+02 -0.73153015783E+02  0.20253257478E+03  0.17200000000E+03 0. -1.
</event>
<event>
 4    1  0.3205520E-002  0.2790606E+03  0.7818608E-02  0.1096203E+00
         -2   -1    0    0    0  501 -0.00000000000E+00  0.00000000000E+00  0.34542049958E+03  0.34542049958E+03  0.00000000000E+00 0.  1.
          2   -1    0    0  502    0  0.00000000000E+00 -0.00000000000E+00 -0.28545983871E+03  0.28545983871E+03  0.00000000000E+00 0. -1.
          6    1    1    2  502    0  0.33064753710E+02  0.21724995293E+03 -0.11464958933E+03  0.30169413041E+03  0.17200000000E+03 0. -1.
         -6    1    1    2    0  501 -0.33064753710E+02 -0.21724995293E+03  0.17461025020E+03  0.32918620789E+03  0.17200000000E+03 0.  1.
</event>
<event>
 4    1  0.3205520E-002  0.1774329E+03  0.7818608E-02  0.1170311E+00
          2   -1    0    0  502    0  0.00000000000E+00  0.00000000000E+00  0.13891499441E+04  0.13891499441E+04  0.00000000000E+00 0. -1.
         -2   -1    0    0    0  501 -0.00000000000E+00 -0.00000000000E+00 -0.23987654883E+02  0.23987654883E+02  0.00000000000E+00 0.  1.
          6    1    1    2  502    0  0.43451826522E+02  0.32234181807E+01  0.51654805573E+03  0.54617245036E+03  0.17200000000E+03 0. -1.
         -6    1    1    2    0  501 -0.43451826522E+02 -0.32234181807E+01  0.84861423353E+03  0.86696514867E+03  0.17200000000E+03 0. -1.
</event>
<event>
 4    1  0.3205520E-002  0.4312390E+03  0.7818608E-02  0.1033469E+00
         -1   -1    0    0    0  501 -0.00000000000E+00  0.00000000000E+00  0.47988274990E+03  0.47988274990E+03  0.00000000000E+00 0.  1.
          1   -1    0    0  502    0  0.00000000000E+00 -0.00000000000E+00 -0.82551678041E+03  0.82551678041E+03  0.00000000000E+00 0. -1.
          6    1    1    2  502    0 -0.24913218636E+03  0.30710950418E+03 -0.64824302222E+03  0.77857954615E+03  0.17200000000E+03 0. -1.
         -6    1    1    2    0  501  0.24913218636E+03 -0.30710950418E+03  0.30260899171E+03  0.52681998415E+03  0.17200000000E+03 0.  1.
</event>
<event>
 4    1  0.3205520E-002  0.1794097E+03  0.7818608E-02  0.1168376E+00
         -3   -1    0    0    0  501 -0.00000000000E+00  0.00000000000E+00  0.62506127751E+03  0.62506127751E+03  0.00000000000E+00 0.  1.
          3   -1    0    0  502    0  0.00000000000E+00 -0.00000000000E+00 -0.11444215405E+03  0.11444215405E+03  0.00000000000E+00 0. -1.
          6    1    1    2  502    0 -0.42506168557E+02  0.28232656323E+02 -0.18913157218E+02  0.18040389343E+03  0.17200000000E+03 0. -1.
         -6    1    1    2    0  501  0.42506168557E+02 -0.28232656323E+02  0.52953228068E+03  0.55909953812E+03  0.17200000000E+03 0.  1.
</event>
<event>
 4    1  0.3205520E-002  0.4422279E+03  0.7818608E-02  0.1030065E+00
          2   -1    0    0  502    0  0.00000000000E+00  0.00000000000E+00  0.41946936029E+03  0.41946936029E+03  0.00000000000E+00 0. -1.
         -2   -1    0    0    0  501 -0.00000000000E+00 -0.00000000000E+00 -0.51263944339E+03  0.51263944339E+03  0.00000000000E+00 0.  1.
          6    1    1    2  502    0 -0.40350101853E+03 -0.56288606287E+02 -0.18682613301E+03  0.48007237281E+03  0.17200000000E+03 0. -1.
         -6    1    1    2    0  501  0.40350101853E+03  0.56288606287E+02  0.93656049909E+02  0.45203643088E+03  0.17200000000E+03 0.  1.
</event>
<event>
 4    1  0.3205520E-002  0.3114772E+03  0.7818608E-02  0.1079640E+00
          2   -1    0    0  502    0  0.00000000000E+00  0.00000000000E+00  0.23561278961E+03  0.23561278961E+03  0.00000000000E+00 0. -1.
         -2   -1    0    0    0  501 -0.00000000000E+00 -0.00000000000E+00 -0.70221463326E+03  0.70221463326E+03  0.00000000000E+00 0.  1.
          6    1    1    2  502    0  0.13412939018E+03 -0.22235859964E+03  0.68270670006E+02  0.31887132911E+03  0.17200000000E+03 0. -1.
         -6    1    1    2    0  501 -0.13412939018E+03  0.22235859964E+03 -0.53487251366E+03  0.61895609377E+03  0.17200000000E+03 0.  1.
</event>
<event>
 4    1  0.3205520E-002  0.5374187E+03  0.7818608E-02  0.1004449E+00
         -2   -1    0    0    0  501 -0.00000000000E+00  0.00000000000E+00  0.26351992112E+03  0.26351992112E+03  0.00000000000E+00 0.  1.
          2   -1    0    0  502    0  0.00000000000E+00 -0.00000000000E+00 -0.11519370853E+04  0.11519370853E+04  0.00000000000E+00 0. -1.
          6    1    1    2  502    0  0.27788667992E+03 -0.42663081512E+03 -0.60015920449E+03  0.80561152550E+03  0.17200000000E+03 0. -1.
         -6    1    1    2    0  501 -0.27788667992E+03  0.42663081512E+03 -0.28825795971E+03  0.60984548094E+03  0.17200000000E+03 0.  1.
</event>
<event>
 4    1  0.3205520E-002  0.2443745E+03  0.7818608E-02  0.1116913E+00
         -1   -1    0    0    0  501 -0.00000000000E+00  0.00000000000E+00  0.44249997661E+02  0.44249997661E+02  0.00000000000E+00 0.  1.
          1   -1    0    0  502    0  0.00000000000E+00 -0.00000000000E+00 -0.13906793810E+04  0.13906793810E+04  0.00000000000E+00 0. -1.
          6    1    1    2  502    0  0.45532988942E+02  0.16751604349E+03 -0.79655604687E+03  0.83319890405E+03  0.17200000000E+03 0. -1.
         -6    1    1    2    0  501 -0.45532988942E+02 -0.16751604349E+03 -0.54987333643E+03  0.60173047457E+03  0.17200000000E+03 0.  1.
</event>
<event>
 4    1  0.3205520E-002  0.1845643E+03  0.7818608E-02  0.1163457E+00
          2   -1    0    0  502    0  0.00000000000E+00  0.00000000000E+00  0.12322297480E+04  0.12322297480E+04  0.00000000000E+00 0. -1.
         -2   -1    0    0    0  501 -0.00000000000E+00 -0.00000000000E+00 -0.27975912968E+02  0.27975912968E+02  0.00000000000E+00 0.  1.
          6    1    1    2  502    0  0.53026933438E+02  0.40842630486E+02  0.67074146030E+03  0.69567095864E+03  0.17200000000E+03 0. -1.
         -6    1    1    2    0  501 -0.53026933438E+02 -0.40842630486E+02  0.53351237472E+03  0.56453470231E+03  0.17200000000E+03 0.  1.
</event>
<event>
 4    1  0.3205520E-002  0.1732726E+03  0.7818608E-02  0.1174477E+00
          2   -1    0    0  502    0  0.00000000000E+00  0.00000000000E+00  0.44485336275E+03  0.44485336275E+03  0.00000000000E+00 0. -1.
         -2   -1    0    0    0  501 -0.00000000000E+00 -0.00000000000E+00 -0.90294330394E+02  0.90294330394E+02  0.00000000000E+00 0.  1.
          6    1    1    2  502    0  0.19622836910E+02 -0.73715056183E+01  0.42812144324E+02  0.17848326119E+03  0.17200000000E+03 0.  1.
         -6    1    1    2    0  501 -0.19622836910E+02  0.73715056183E+01  0.31174688803E+03  0.35666443195E+03  0.17200000000E+03 0. -1.
</event>
<event>
 4    1  0.3205520E-002  0.2086817E+03  0.7818608E-02  0.1142614E+00
         -1   -1    0    0    0  501 -0.00000000000E+00  0.00000000000E+00  0.11461789077E+03  0.11461789077E+03  0.00000000000E+00 0.  1.
          1   -1    0    0  502    0  0.00000000000E+00 -0.00000000000E+00 -0.44064749512E+03  0.44064749512E+03  0.00000000000E+00 0. -1.
          6    1    1    2  502    0 -0.90006627585E+02 -0.76569406352E+02 -0.59966327836E+02  0.21712675439E+03  0.17200000000E+03 0.  1.
         -6    1    1    2    0  501  0.90006627585E+02  0.76569406352E+02 -0.26606327652E+03  0.33813863150E+03  0.17200000000E+03 0.  1.
</event>
<event>
 4    1  0.3205520E-002  0.2968658E+03  0.7818608E-02  0.1086818E+00
          2   -1    0    0  502    0  0.00000000000E+00  0.00000000000E+00  0.60240144734E+03  0.60240144734E+03  0.00000000000E+00 0. -1.
         -2   -1    0    0    0  501 -0.00000000000E+00 -0.00000000000E+00 -0.31371693770E+03  0.31371693770E+03  0.00000000000E+00 0.  1.
          6    1    1    2  502    0  0.24128773646E+03  0.18042345276E+02  0.47896595361E+03  0.56350482048E+03  0.17200000000E+03 0. -1.
         -6    1    1    2    0  501 -0.24128773646E+03 -0.18042345276E+02 -0.19028144397E+03  0.35261356455E+03  0.17200000000E+03 0.  1.
</event>
<event>
 4    1  0.3205520E-002  0.1852099E+03  0.7818608E-02  0.1162854E+00
          2   -1    0    0  502    0  0.00000000000E+00  0.00000000000E+00  0.10259489310E+04  0.10259489310E+04  0.00000000000E+00 0. -1.
         -2   -1    0    0    0  501 -0.00000000000E+00 -0.00000000000E+00 -0.44679791552E+02  0.44679791552E+02  0.00000000000E+00 0.  1.
          6    1    1    2  502    0  0.67978001003E+02 -0.98849117130E+01  0.75918559623E+03  0.78145088753E+03  0.17200000000E+03 0. -1.
         -6    1    1    2    0  501 -0.67978001003E+02  0.98849117130E+01  0.22208354322E+03  0.28917783503E+03  0.17200000000E+03 0.  1.
</event>
<event>
 4    1  0.3205520E-002  0.4167371E+03  0.7818608E-02  0.1038134E+00
          2   -1    0    0  502    0  0.00000000000E+00  0.00000000000E+00  0.26190133571E+04  0.26190133571E+04  0.00000000000E+00 0. -1.
         -2   -1    0    0    0  501 -0.00000000000E+00 -0.00000000000E+00 -0.23288343108E+03  0.23288343108E+03  0.00000000000E+00 0.  1.
          6    1    1    2  502    0 -0.24513918084E+03 -0.28981477760E+03  0.23990331786E+04  0.24349599617E+04  0.17200000000E+03 0. -1.
         -6    1    1    2    0  501  0.24513918084E+03  0.28981477760E+03 -0.12903252600E+02  0.41693682642E+03  0.17200000000E+03 0.  1.
</event>
<event>
 4    1  0.3205520E-002  0.5110355E+03  0.7818608E-02  0.1010938E+00
         -2   -1    0    0    0  501 -0.00000000000E+00  0.00000000000E+00  0.13794867570E+04  0.13794867570E+04  0.00000000000E+00 0.  1.
          2   -1    0    0  502    0  0.00000000000E+00 -0.00000000000E+00 -0.20443797542E+03  0.20443797542E+03  0.00000000000E+00 0. -1.
          6    1    1    2  502    0 -0.20756206133E+03 -0.43415581784E+03  0.37212473536E+03  0.63216619819E+03  0.17200000000E+03 0. -1.
         -6    1    1    2    0  501  0.20756206133E+03  0.43415581784E+03  0.80292404619E+03  0.95175853420E+03  0.17200000000E+03 0.  1.
</event>
<event>
 4    1  0.3205520E-002  0.4246112E+03  0.7818608E-02  0.1035576E+00
          1   -1    0    0  502    0  0.00000000000E+00  0.00000000000E+00  0.17099993282E+04  0.17099993282E+04  0.00000000000E+00 0. -1.
         -1   -1    0    0    0  501 -0.00000000000E+00 -0.00000000000E+00 -0.12298140767E+03  0.12298140767E+03  0.00000000000E+00 0.  1.
          6    1    1    2  502    0 -0.22027060274E+02 -0.38758935491E+03  0.11396838979E+04  0.12162130104E+04  0.17200000000E+03 0. -1.
         -6    1    1    2    0  501  0.22027060274E+02  0.38758935491E+03  0.44733402257E+03  0.61676772546E+03  0.17200000000E+03 0.  1.
</event>
<event>
 4    1  0.3205520E-002  0.3286713E+03  0.7818608E-02  0.1071726E+00
         -1   -1    0    0    0  501 -0.00000000000E+00  0.00000000000E+00  0.13998675313E+03  0.13998675313E+03  0.00000000000E+00 0.  1.
          1   -1    0    0  502    0  0.00000000000E+00 -0.00000000000E+00 -0.18502260101E+04  0.18502260101E+04  0.00000000000E+00 0. -1.
          6    1    1    2  502    0 -0.17566010985E+03 -0.21813836997E+03 -0.16148800775E+04  0.16479874051E+04  0.17200000000E+03 0. -1.
         -6    1    1    2    0  501  0.17566010985E+03  0.21813836997E+03 -0.95359179492E+02  0.34222535815E+03  0.17200000000E+03 0.  1.
</event>
<event>
 4    1  0.3205520E-002  0.2912805E+03  0.7818608E-02  0.1089682E+00
         -2   -1    0    0    0  501 -0.00000000000E+00  0.00000000000E+00  0.19567902470E+02  0.19567902470E+02  0.00000000000E+00 0.  1.
          2   -1    0    0  502    0  0.00000000000E+00 -0.00000000000E+00 -0.43556155111E+04  0.43556155111E+04  0.00000000000E+00 0. -1.
          6    1    1    2  502    0  0.12695963727E+03  0.19784235150E+03 -0.23152261115E+04  0.23334772964E+04  0.17200000000E+03 0. -1.
         -6    1    1    2    0  501 -0.12695963727E+03 -0.19784235150E+03 -0.20208214972E+04  0.20417061172E+04  0.17200000000E+03 0.  1.
</event>
<event>
 4    1  0.3205520E-002  0.1831265E+03  0.7818608E-02  0.1164811E+00
         -1   -1    0    0    0  501 -0.00000000000E+00  0.00000000000E+00  0.70860713180E+03  0.70860713180E+03  0.00000000000E+00 0.  1.
          1   -1    0    0  502    0  0.00000000000E+00 -0.00000000000E+00 -0.63988780308E+02  0.63988780308E+02  0.00000000000E+00 0. -1.
          6    1    1    2  502    0  0.21169219995E+02 -0.59187768834E+02  0.12518125076E+03  0.22182351859E+03  0.17200000000E+03 0. -1.
         -6    1    1    2    0  501 -0.21169219995E+02  0.59187768834E+02  0.51943710073E+03  0.55077239352E+03  0.17200000000E+03 0.  1.
</event>
<event>
 4    1  0.3205520E-002  0.2031064E+03  0.7818608E-02  0.1147144E+00
          2   -1    0    0  502    0  0.00000000000E+00  0.00000000000E+00  0.12125649436E+04  0.12125649436E+04  0.00000000000E+00 0. -1.
         -2   -1    0    0    0  501 -0.00000000000E+00 -0.00000000000E+00 -0.35284004452E+02  0.35284004452E+02  0.00000000000E+00 0.  1.
          6    1    1    2  502    0 -0.92990651787E+02 -0.54963190086E+02  0.70670257107E+03  0.73530996018E+03  0.17200000000E+03 0. -1.
         -6    1    1    2    0  501  0.92990651787E+02  0.54963190086E+02  0.47057836806E+03  0.51253898786E+03  0.17200000000E+03 0.  1.
</event>
<event>
 4    1  0.3205520E-002  0.1726251E+03  0.7818608E-02  0.1175138E+00
          2   -1    0    0  502    0  0.00000000000E+00  0.00000000000E+00  0.31545485943E+04  0.31545485943E+04  0.00000000000E+00 0. -1.
         -2   -1    0    0    0  501 -0.00000000000E+00 -0.00000000000E+00 -0.23728533048E+03  0.23728533048E+03  0.00000000000E+00 0.  1.
          6    1    1    2  502    0  0.79919380001E+01 -0.12310406171E+02  0.31204479464E+04  0.31252191608E+04  0.17200000000E+03 0. -1.
         -6    1    1    2    0  501 -0.79919380001E+01  0.12310406171E+02 -0.20318468251E+03  0.26661476400E+03  0.17200000000E+03 0.  1.
</event>
<event>
 4    1  0.3205520E-002  0.3380096E+03  0.7818608E-02  0.1067647E+00
          3   -1    0    0  502    0  0.00000000000E+00  0.00000000000E+00  0.13083517105E+03  0.13083517105E+03  0.00000000000E+00 0. -1.
         -3   -1    0    0    0  501 -0.00000000000E+00 -0.00000000000E+00 -0.10231641860E+04  0.10231641860E+04  0.00000000000E+00 0.  1.
          6    1    1    2  502    0 -0.27260583078E+03  0.10174744129E+03 -0.22529334271E+03  0.40621123945E+03  0.17200000000E+03 0. -1.
         -6    1    1    2    0  501  0.27260583078E+03 -0.10174744129E+03 -0.66703567225E+03  0.74778811761E+03  0.17200000000E+03 0.  1.
</event>
<event>
 4    1  0.3205520E-002  0.2971569E+03  0.7818608E-02  0.1086671E+00
          2   -1    0    0  502    0  0.00000000000E+00  0.00000000000E+00  0.14678288670E+03  0.14678288670E+03  0.00000000000E+00 0. -1.
         -2   -1    0    0    0  501 -0.00000000000E+00 -0.00000000000E+00 -0.65894201008E+03  0.65894201008E+03  0.00000000000E+00 0.  1.
          6    1    1    2  502    0 -0.24071384471E+03  0.27839692871E+02 -0.13722083654E+03  0.32730988606E+03  0.17200000000E+03 0. -1.
         -6    1    1    2    0  501  0.24071384471E+03 -0.27839692871E+02 -0.37493828684E+03  0.47841501071E+03  0.17200000000E+03 0.  1.
</event>
<event>
 4    1  0.3205520E-002  0.1745173E+03  0.7818608E-02  0.1173217E+00
          2   -1    0    0  502    0  0.00000000000E+00  0.00000000000E+00  0.19179306971E+04  0.19179306971E+04  0.00000000000E+00 0. -1.
         -2   -1    0    0    0  501 -0.00000000000E+00 -0.00000000000E+00 -0.20812448733E+02  0.20812448733E+02  0.00000000000E+00 0.  1.
          6    1    1    2  502    0  0.21624484445E+02  0.20116419072E+02  0.14204812367E+04  0.14311614976E+04  0.17200000000E+03 0.  1.
         -6    1    1    2    0  501 -0.21624484445E+02 -0.20116419072E+02  0.47663701168E+03  0.50758164816E+03  0.17200000000E+03 0.  1.
</event>
<event>
 4    1  0.3205520E-002  0.7068408E+03  0.7818608E-02  0.9705604E-01
          2   -1    0    0  502    0  0.00000000000E+00  0.00000000000E+00  0.29564305299E+04  0.29564305299E+04  0.00000000000E+00 0. -1.
         -2   -1    0    0    0  501 -0.00000000000E+00 -0.00000000000E+00 -0.27144157266E+03  0.27144157266E+03  0.00000000000E+00 0.  1.
          6    1    1    2  502    0 -0.81663030035E+02 -0.68071366466E+03  0.23340007110E+04  0.24386847403E+04  0.17200000000E+03 0. -1.
         -6    1    1    2    0  501  0.81663030035E+02  0.68071366466E+03  0.35098824625E+03  0.78918736225E+03  0.17200000000E+03 0.  1.
</event>
<event>
 4    1  0.3205520E-002  0.1752484E+03  0.7818608E-02  0.1172483E+00
          1   -1    0    0  502    0  0.00000000000E+00  0.00000000000E+00  0.10720613806E+04  0.10720613806E+04  0.00000000000E+00 0. -1.
         -1   -1    0    0    0  501 -0.00000000000E+00 -0.00000000000E+00 -0.28652036036E+02  0.28652036036E+02  0.00000000000E+00 0.  1.
          6    1    1    2  502    0 -0.19253169944E+02 -0.27519341962E+02  0.52854321799E+03  0.55683923355E+03  0.17200000000E+03 0.  1.
         -6    1    1    2    0  501  0.19253169944E+02  0.27519341962E+02  0.51486612654E+03  0.54387418306E+03  0.17200000000E+03 0.  1.
</event>
<event>
 4    1  0.3205520E-002  0.2101260E+03  0.7818608E-02  0.1141466E+00
          3   -1    0    0  502    0  0.00000000000E+00  0.00000000000E+00  0.52956600044E+03  0.52956600044E+03  0.00000000000E+00 0. -1.
         -3   -1    0    0    0  501 -0.00000000000E+00 -0.00000000000E+00 -0.16459728843E+03  0.16459728843E+03  0.00000000000E+00 0.  1.
          6    1    1    2  502    0 -0.75509365764E+02  0.94166162948E+02  0.42629691622E+03  0.47527044021E+03  0.17200000000E+03 0. -1.
         -6    1    1    2    0  501  0.75509365764E+02 -0.94166162948E+02 -0.61328204214E+02  0.21889284866E+03  0.17200000000E+03 0.  1.
</event>
<event>
 4    1  0.3205520E-002  0.3106732E+03  0.7818608E-02  0.1080024E+00
         -2   -1    0    0    0  501 -0.00000000000E+00  0.00000000000E+00  0.97745919339E+02  0.97745919339E+02  0.00000000000E+00 0.  1.
          2   -1    0    0  502    0  0.00000000000E+00 -0.00000000000E+00 -0.11569652295E+04  0.11569652295E+04  0.00000000000E+00 0. -1.
          6    1    1    2  502    0  0.25062428652E+03 -0.64197223759E+02 -0.76975612343E+03  0.83008572213E+03  0.17200000000E+03 0. -1.
         -6    1    1    2    0  501 -0.25062428652E+03  0.64197223759E+02 -0.28946318673E+03  0.42462542670E+03  0.17200000000E+03 0.  1.
</event>
<event>
 4    1  0.3205520E-002  0.2470043E+03  0.7818608E-02  0.1115213E+00
         -2   -1    0    0    0  501 -0.00000000000E+00  0.00000000000E+00  0.27473208232E+02  0.27473208232E+02  0.00000000000E+00 0.  1.
          2   -1    0    0  502    0  0.00000000000E+00 -0.00000000000E+00 -0.22232632191E+04  0.22232632191E+04  0.00000000000E+00 0. -1.
          6    1    1    2  502    0 -0.41856244122E+02 -0.17226490023E+03 -0.11357280103E+04  0.11622776150E+04  0.17200000000E+03 0. -1.
         -6    1    1    2    0  501  0.41856244122E+02  0.17226490023E+03 -0.10600620006E+04  0.10884588123E+04  0.17200000000E+03 0.  1.
</event>
<event>
 4    1  0.3205520E-002  0.2285116E+03  0.7818608E-02  0.1127692E+00
          2   -1    0    0  502    0  0.00000000000E+00  0.00000000000E+00  0.28146804894E+03  0.28146804894E+03  0.00000000000E+00 0. -1.
         -2   -1    0    0    0  501 -0.00000000000E+00 -0.00000000000E+00 -0.24105959711E+03  0.24105959711E+03  0.00000000000E+00 0.  1.
          6    1    1    2  502    0  0.28107001595E+02  0.14779565375E+03  0.14561183689E+03  0.27096192693E+03  0.17200000000E+03 0. -1.
         -6    1    1    2    0  501 -0.28107001595E+02 -0.14779565375E+03 -0.10520338506E+03  0.25156571911E+03  0.17200000000E+03 0.  1.
</event>
<event>
 4    1  0.3205520E-002  0.2050543E+03  0.7818608E-02  0.1145543E+00
         -2   -1    0    0    0  501 -0.00000000000E+00  0.00000000000E+00  0.21495550938E+03  0.21495550938E+03  0.00000000000E+00 0.  1.
          2   -1    0    0  502    0  0.00000000000E+00 -0.00000000000E+00 -0.19712001235E+03  0.19712001235E+03  0.00000000000E+00 0. -1.
          6    1    1    2  502    0  0.10018761581E+03 -0.49251538555E+02  0.26955757851E+02  0.20681848393E+03  0.17200000000E+03 0.  1.
         -6    1    1    2    0  501 -0.10018761581E+03  0.49251538555E+02 -0.91202608205E+01  0.20525703781E+03  0.17200000000E+03 0. -1.
</event>
<event>
 4    1  0.3205520E-002  0.2359362E+03  0.7818608E-02  0.1122530E+00
          1   -1    0    0  502    0  0.00000000000E+00  0.00000000000E+00  0.99781545283E+03  0.99781545283E+03  0.00000000000E+00 0. -1.
         -1   -1    0    0    0  501 -0.00000000000E+00 -0.00000000000E+00 -0.58612087997E+02  0.58612087997E+02  0.00000000000E+00 0.  1.
          6    1    1    2  502    0  0.13544710894E+03  0.87954241493E+02  0.58555289991E+03  0.63129871417E+03  0.17200000000E+03 0.  1.
         -6    1    1    2    0  501 -0.13544710894E+03 -0.87954241493E+02  0.35365046492E+03  0.42512882666E+03  0.17200000000E+03 0. -1.
</event>
<event>
 4    1  0.3205520E-002  0.1885700E+03  0.7818608E-02  0.1159757E+00
          2   -1    0    0  502    0  0.00000000000E+00  0.00000000000E+00  0.31588574815E+03  0.31588574815E+03  0.00000000000E+00 0. -1.
         -2   -1    0    0    0  501 -0.00000000000E+00 -0.00000000000E+00 -0.11375225932E+03  0.11375225932E+03  0.00000000000E+00 0.  1.
          6    1    1    2  502    0 -0.31436159924E+02  0.70614657781E+02  0.12298448012E+03  0.22513072734E+03  0.17200000000E+03 0. -1.
         -6    1    1    2    0  501  0.31436159924E+02 -0.70614657781E+02  0.79149008720E+02  0.20450728013E+03  0.17200000000E+03 0.  1.
</event>
<event>
 4    1  0.3205520E-002  0.2504351E+03  0.7818608E-02  0.1113030E+00
         -2   -1    0    0    0  501 -0.00000000000E+00  0.00000000000E+00  0.22748663310E+03  0.22748663310E+03  0.00000000000E+00 0.  1.
          2   -1    0    0  502    0  0.00000000000E+00 -0.00000000000E+00 -0.29276575101E+04  0.29276575101E+04  0.00000000000E+00 0. -1.
          6    1    1    2  502    0 -0.12563137918E+02 -0.18159263434E+03 -0.28515409902E+04  0.28625170281E+04  0.17200000000E+03 0. -1.
         -6    1    1    2    0  501  0.12563137918E+02  0.18159263434E+03  0.15137011326E+03  0.29262711506E+03  0.17200000000E+03 0.  1.
</event>
<event>
 4    1  0.3205520E-002  0.2212458E+03  0.7818608E-02  0.1132958E+00
          1   -1    0    0  502    0  0.00000000000E+00  0.00000000000E+00  0.23068055108E+04  0.23068055108E+04  0.00000000000E+00 0. -1.
         -1   -1    0    0    0  501 -0.00000000000E+00 -0.00000000000E+00 -0.51951675010E+02  0.51951675010E+02  0.00000000000E+00 0.  1.
          6    1    1    2  502    0  0.13476054149E+03 -0.34717131569E+02  0.20345136525E+04  0.20465081199E+04  0.17200000000E+03 0. -1.
         -6    1    1    2    0  501 -0.13476054149E+03  0.34717131569E+02  0.22034018331E+03  0.31224906589E+03  0.17200000000E+03 0.  1.
</event>
<event>
 4    1  0.3205520E-002  0.2235508E+03  0.7818608E-02  0.1131263E+00
         -1   -1    0    0    0  501 -0.00000000000E+00  0.00000000000E+00  0.10609989259E+03  0.10609989259E+03  0.00000000000E+00 0.  1.
          1   -1    0    0  502    0  0.00000000000E+00 -0.00000000000E+00 -0.58069857833E+03  0.58069857833E+03  0.00000000000E+00 0. -1.
          6    1    1    2  502    0  0.13956015139E+03  0.30231521000E+02 -0.38654043106E+03  0.44652937816E+03  0.17200000000E+03 0. -1.
         -6    1    1    2    0  501 -0.13956015139E+03 -0.30231521000E+02 -0.88058254690E+02  0.24026909276E+03  0.17200000000E+03 0.  1.
</event>
<event>
 4    1  0.3205520E-002  0.2190005E+03  0.7818608E-02  0.1134630E+00
         -1   -1    0    0    0  501 -0.00000000000E+00  0.00000000000E+00  0.12518658056E+03  0.12518658056E+03  0.00000000000E+00 0.  1.
          1   -1    0    0  502    0  0.00000000000E+00 -0.00000000000E+00 -0.52461750526E+03  0.52461750526E+03  0.00000000000E+00 0. -1.
          6    1    1    2  502    0  0.92625564281E+02  0.98983391675E+02 -0.36845188017E+03  0.42862337196E+03  0.17200000000E+03 0. -1.
         -6    1    1    2    0  501 -0.92625564281E+02 -0.98983391675E+02 -0.30979044522E+02  0.22118071386E+03  0.17200000000E+03 0.  1.
</event>
<event>
 4    1  0.3205520E-002  0.1722394E+03  0.7818608E-02  0.1175532E+00
          1   -1    0    0  502    0  0.00000000000E+00  0.00000000000E+00  0.28643341311E+03  0.28643341311E+03  0.00000000000E+00 0. -1.
         -1   -1    0    0    0  501 -0.00000000000E+00 -0.00000000000E+00 -0.17578148900E+03  0.17578148900E+03  0.00000000000E+00 0.  1.
          6    1    1    2  502    0 -0.54520344011E+01  0.72594368483E+01  0.20344985455E+03  0.26656756633E+03  0.17200000000E+03 0. -1.
         -6    1    1    2    0  501  0.54520344011E+01 -0.72594368483E+01 -0.92797930441E+02  0.19564733578E+03  0.17200000000E+03 0.  1.
</event>
<event>
 4    1  0.3205520E-002  0.1751891E+03  0.7818608E-02  0.1172542E+00
         -1   -1    0    0    0  501 -0.00000000000E+00  0.00000000000E+00  0.19836143713E+03  0.19836143713E+03  0.00000000000E+00 0.  1.
          1   -1    0    0  502    0  0.00000000000E+00 -0.00000000000E+00 -0.56529491463E+03  0.56529491463E+03  0.00000000000E+00 0. -1.
          6    1    1    2  502    0  0.29054006738E+02  0.16219854844E+02 -0.50887207669E+03  0.53818399217E+03  0.17200000000E+03 0. -1.
         -6    1    1    2    0  501 -0.29054006738E+02 -0.16219854844E+02  0.14193859918E+03  0.22547235958E+03  0.17200000000E+03 0.  1.
</event>
<event>
 4    1  0.3205520E-002  0.2637638E+03  0.7818608E-02  0.1104903E+00
          2   -1    0    0  502    0  0.00000000000E+00  0.00000000000E+00  0.96345680625E+03  0.96345680625E+03  0.00000000000E+00 0. -1.
         -2   -1    0    0    0  501 -0.00000000000E+00 -0.00000000000E+00 -0.72616645820E+02  0.72616645820E+02  0.00000000000E+00 0.  1.
          6    1    1    2  502    0 -0.13921034289E+03 -0.14355418670E+03  0.48418069769E+03  0.55136401053E+03  0.17200000000E+03 0. -1.
         -6    1    1    2    0  501  0.13921034289E+03  0.14355418670E+03  0.40665946274E+03  0.48470944155E+03  0.17200000000E+03 0.  1.
</event>
<event>
 4    1  0.3205520E-002  0.1920125E+03  0.7818608E-02  0.1156659E+00
         -2   -1    0    0    0  501 -0.00000000000E+00  0.00000000000E+00  0.21976832908E+02  0.21976832908E+02  0.00000000000E+00 0.  1.
          2   -1    0    0  502    0  0.00000000000E+00 -0.00000000000E+00 -0.31298198085E+04  0.31298198085E+04  0.00000000000E+00 0. -1.
          6    1    1    2  502    0  0.13807204471E+02  0.84226744903E+02 -0.26273710703E+04  0.26343780147E+04  0.17200000000E+03 0. -1.
         -6    1    1    2    0  501 -0.13807204471E+02 -0.84226744903E+02 -0.48047190524E+03  0.51741862662E+03  0.17200000000E+03 0.  1.
</event>
<event>
 4    1  0.3205520E-002  0.1789341E+03  0.7818608E-02  0.1168839E+00
          2   -1    0    0  502    0  0.00000000000E+00  0.00000000000E+00  0.30251753850E+03  0.30251753850E+03  0.00000000000E+00 0. -1.
         -2   -1    0    0    0  501 -0.00000000000E+00 -0.00000000000E+00 -0.30588096554E+03  0.30588096554E+03  0.00000000000E+00 0.  1.
          6    1    1    2  502    0 -0.20531934973E+02  0.44853809389E+02  0.24432394047E+03  0.30283925185E+03  0.17200000000E+03 0. -1.
         -6    1    1    2    0  501  0.20531934973E+02 -0.44853809389E+02 -0.24768736752E+03  0.30555925219E+03  0.17200000000E+03 0.  1.
</event>
<event>
 4    1  0.3205520E-002  0.3804614E+03  0.7818608E-02  0.1050763E+00
          2   -1    0    0  502    0  0.00000000000E+00  0.00000000000E+00  0.12586469491E+04  0.12586469491E+04  0.00000000000E+00 0. -1.
         -2   -1    0    0    0  501 -0.00000000000E+00 -0.00000000000E+00 -0.26840512345E+03  0.26840512345E+03  0.00000000000E+00 0.  1.
          6    1    1    2  502    0 -0.32120491580E+03  0.10951852130E+03  0.10723405086E+04  0.11378334987E+04  0.17200000000E+03 0. -1.
         -6    1    1    2    0  501  0.32120491580E+03 -0.10951852130E+03 -0.82098682973E+02  0.38921857379E+03  0.17200000000E+03 0.  1.
</event>
<event>
 4    1  0.3205520E-002  0.2263342E+03  0.7818608E-02  0.1129247E+00
          2   -1    0    0  502    0  0.00000000000E+00  0.00000000000E+00  0.24428348092E+04  0.24428348092E+04  0.00000000000E+00 0. -1.
         -2   -1    0    0    0  501 -0.00000000000E+00 -0.00000000000E+00 -0.72046743132E+02  0.72046743132E+02  0.00000000000E+00 0.  1.
          6    1    1    2  502    0  0.33416633717E+02 -0.14327071612E+03  0.22441365505E+04  0.22555212318E+04  0.17200000000E+03 0. -1.
         -6    1    1    2    0  501 -0.33416633717E+02  0.14327071612E+03  0.12665151557E+03  0.25936032060E+03  0.17200000000E+03 0.  1.
</event>
<event>
 4    1  0.3205520E-002  0.4896931E+03  0.7818608E-02  0.1016505E+00
         -2   -1    0    0    0  501 -0.00000000000E+00  0.00000000000E+00  0.29718564381E+03  0.29718564381E+03  0.00000000000E+00 0.  1.
          2   -1    0    0  502    0  0.00000000000E+00 -0.00000000000E+00 -0.83730177571E+03  0.83730177571E+03  0.00000000000E+00 0. -1.
          6    1    1    2  502    0 -0.29303461712E+03  0.35262736462E+03 -0.16197138763E+03  0.51578491207E+03  0.17200000000E+03 0. -1.
         -6    1    1    2    0  501  0.29303461712E+03 -0.35262736462E+03 -0.37814474427E+03  0.61870250745E+03  0.17200000000E+03 0.  1.
</event>
<event>
 4    1  0.3205520E-002  0.2576987E+03  0.7818608E-02  0.1108534E+00
         -2   -1    0    0    0  501 -0.00000000000E+00  0.00000000000E+00  0.14315090072E+03  0.14315090072E+03  0.00000000000E+00 0.  1.
          2   -1    0    0  502    0  0.00000000000E+00 -0.00000000000E+00 -0.10085144660E+04  0.10085144660E+04  0.00000000000E+00 0. -1.
          6    1    1    2  502    0  0.11114210830E+03 -0.15643543698E+03 -0.85583465494E+03  0.89379056315E+03  0.17200000000E+03 0. -1.
         -6    1    1    2    0  501 -0.11114210830E+03  0.15643543698E+03 -0.95289103277E+01  0.25787480356E+03  0.17200000000E+03 0.  1.
</event>
<event>
 4    1  0.3205520E-002  0.2096162E+03  0.7818608E-02  0.1141870E+00
          2   -1    0    0  502    0  0.00000000000E+00  0.00000000000E+00  0.27166725670E+04  0.27166725670E+04  0.00000000000E+00 0. -1.
         -2   -1    0    0    0  501 -0.00000000000E+00 -0.00000000000E+00 -0.17891006863E+02  0.17891006863E+02  0.00000000000E+00 0.  1.
          6    1    1    2  502    0  0.69647845792E+02 -0.97489078730E+02  0.17729857770E+04  0.17853340047E+04  0.17200000000E+03 0.  1.
         -6    1    1    2    0  501 -0.69647845792E+02  0.97489078730E+02  0.92579578305E+03  0.94922956908E+03  0.17200000000E+03 0.  1.
</event>
<event>
 4    1  0.3205520E-002  0.2103123E+03  0.7818608E-02  0.1141319E+00
         -2   -1    0    0    0  501 -0.00000000000E+00  0.00000000000E+00  0.19996209129E+03  0.19996209129E+03  0.00000000000E+00 0.  1.
          2   -1    0    0  502    0  0.00000000000E+00 -0.00000000000E+00 -0.24315069653E+04  0.24315069653E+04  0.00000000000E+00 0. -1.
          6    1    1    2  502    0  0.34991488535E+02  0.11585709278E+03 -0.23702329001E+04  0.23795451816E+04  0.17200000000E+03 0. -1.
         -6    1    1    2    0  501 -0.34991488535E+02 -0.11585709278E+03  0.13868802612E+03  0.25192387502E+03  0.17200000000E+03 0.  1.
</event>
<event>
 4    1  0.3205520E-002  0.2157395E+03  0.7818608E-02  0.1137100E+00
          2   -1    0    0  502    0  0.00000000000E+00  0.00000000000E+00  0.58666454774E+03  0.58666454774E+03  0.00000000000E+00 0. -1.
         -2   -1    0    0    0  501 -0.00000000000E+00 -0.00000000000E+00 -0.14487918012E+03  0.14487918012E+03  0.00000000000E+00 0.  1.
          6    1    1    2  502    0 -0.86549837598E+02 -0.97307109818E+02  0.46691327551E+03  0.51434575420E+03  0.17200000000E+03 0. -1.
         -6    1    1    2    0  501  0.86549837598E+02  0.97307109818E+02 -0.25127907895E+02  0.21719797367E+03  0.17200000000E+03 0.  1.
</event>
<event>
 4    1  0.3205520E-002  0.2779692E+03  0.7818608E-02  0.1096803E+00
         -2   -1    0    0    0  501 -0.00000000000E+00  0.00000000000E+00  0.68734477798E+02  0.68734477798E+02  0.00000000000E+00 0.  1.
          2   -1    0    0  502    0  0.00000000000E+00 -0.00000000000E+00 -0.11337562404E+04  0.11337562404E+04  0.00000000000E+00 0. -1.
          6    1    1    2  502    0 -0.52368837921E+02 -0.21199148006E+03 -0.58789570888E+03  0.65029858321E+03  0.17200000000E+03 0. -1.
         -6    1    1    2    0  501  0.52368837921E+02  0.21199148006E+03 -0.47712605373E+03  0.55219213499E+03  0.17200000000E+03 0.  1.
</event>
<event>
 4    1  0.3205520E-002  0.1889470E+03  0.7818608E-02  0.1159415E+00
         -1   -1    0    0    0  501 -0.00000000000E+00  0.00000000000E+00  0.22174876583E+03  0.22174876583E+03  0.00000000000E+00 0.  1.
          1   -1    0    0  502    0  0.00000000000E+00 -0.00000000000E+00 -0.16315247671E+03  0.16315247671E+03  0.00000000000E+00 0. -1.
          6    1    1    2  502    0 -0.64844440418E+02 -0.43728256142E+02  0.71794385562E+01  0.18908333130E+03  0.17200000000E+03 0. -1.
         -6    1    1    2    0  501  0.64844440418E+02  0.43728256142E+02  0.51416850567E+02  0.19581791124E+03  0.17200000000E+03 0. -1.
</event>
<event>
 4    1  0.3205520E-002  0.1880958E+03  0.7818608E-02  0.1160190E+00
          1   -1    0    0  502    0  0.00000000000E+00  0.00000000000E+00  0.25146460596E+03  0.25146460596E+03  0.00000000000E+00 0. -1.
         -1   -1    0    0    0  501 -0.00000000000E+00 -0.00000000000E+00 -0.14085822712E+03  0.14085822712E+03  0.00000000000E+00 0.  1.
          6    1    1    2  502    0  0.11528702570E+02 -0.75253672166E+02  0.61963379419E+02  0.19803910358E+03  0.17200000000E+03 0. -1.
         -6    1    1    2    0  501 -0.11528702570E+02  0.75253672166E+02  0.48642999422E+02  0.19428372950E+03  0.17200000000E+03 0.  1.
</event>
<event>
 4    1  0.3205520E-002  0.2338185E+03  0.7818608E-02  0.1123981E+00
         -3   -1    0    0    0  501 -0.00000000000E+00  0.00000000000E+00  0.54307659475E+03  0.54307659475E+03  0.00000000000E+00 0.  1.
          3   -1    0    0  502    0  0.00000000000E+00 -0.00000000000E+00 -0.11396499248E+03  0.11396499248E+03  0.00000000000E+00 0. -1.
          6    1    1    2  502    0  0.15764213291E+03 -0.15363855555E+02  0.10234513770E+03  0.25523639500E+03  0.17200000000E+03 0. -1.
         -6    1    1    2    0  501 -0.15764213291E+03  0.15363855555E+02  0.32676646458E+03  0.40180519222E+03  0.17200000000E+03 0.  1.
</event>
<event>
 4    1  0.3205520E-002  0.2168641E+03  0.7818608E-02  0.1136243E+00
          2   -1    0    0  502    0  0.00000000000E+00  0.00000000000E+00  0.31291871725E+03  0.31291871725E+03  0.00000000000E+00 0. -1.
         -2   -1    0    0    0  501 -0.00000000000E+00 -0.00000000000E+00 -0.44180568929E+03  0.44180568929E+03  0.00000000000E+00 0.  1.
          6    1    1    2  502    0  0.13062873273E+03  0.19549643944E+02  0.24208450714E+03  0.32501532732E+03  0.17200000000E+03 0. -1.
         -6    1    1    2    0  501 -0.13062873273E+03 -0.19549643944E+02 -0.37097147919E+03  0.42970907922E+03  0.17200000000E+03 0.  1.
</event>
<event>
 4    1  0.3205520E-002  0.2608231E+03  0.7818608E-02  0.1106650E+00
          2   -1    0    0  502    0  0.00000000000E+00  0.00000000000E+00  0.10882219661E+04  0.10882219661E+04  0.00000000000E+00 0. -1.
         -2   -1    0    0    0  501 -0.00000000000E+00 -0.00000000000E+00 -0.63603870260E+02  0.63603870260E+02  0.00000000000E+00 0.  1.
          6    1    1    2  502    0  0.92975019268E+02 -0.17262775470E+03  0.58771018331E+03  0.64298674595E+03  0.17200000000E+03 0. -1.
         -6    1    1    2    0  501 -0.92975019268E+02  0.17262775470E+03  0.43690791253E+03  0.50883909042E+03  0.17200000000E+03 0.  1.
</event>
<event>
 4    1  0.3205520E-002  0.1788774E+03  0.7818608E-02  0.1168894E+00
          2   -1    0    0  502    0  0.00000000000E+00  0.00000000000E+00  0.89013012630E+03  0.89013012630E+03  0.00000000000E+00 0. -1.
         -2   -1    0    0    0  501 -0.00000000000E+00 -0.00000000000E+00 -0.36463805361E+02  0.36463805361E+02  0.00000000000E+00 0.  1.
          6    1    1    2  502    0  0.28458483972E+02  0.40040349941E+02  0.37165372371E+03  0.41246042874E+03  0.17200000000E+03 0.  1.
         -6    1    1    2    0  501 -0.28458483972E+02 -0.40040349941E+02  0.48201259724E+03  0.51413350292E+03  0.17200000000E+03 0. -1.
</event>
<event>
 4    1  0.3205520E-002  0.2252087E+03  0.7818608E-02  0.1130058E+00
          2   -1    0    0  502    0  0.00000000000E+00  0.00000000000E+00  0.25812899145E+03  0.25812899145E+03  0.00000000000E+00 0. -1.
         -2   -1    0    0    0  501 -0.00000000000E+00 -0.00000000000E+00 -0.33326856837E+03  0.33326856837E+03  0.00000000000E+00 0.  1.
          6    1    1    2  502    0  0.12463421723E+03  0.74841629639E+02 -0.22700746145E+03  0.31976764250E+03  0.17200000000E+03 0. -1.
         -6    1    1    2    0  501 -0.12463421723E+03 -0.74841629639E+02  0.15186788453E+03  0.27162991732E+03  0.17200000000E+03 0.  1.
</event>
<event>
 4    1  0.3205520E-002  0.1861221E+03  0.7818608E-02  0.1162006E+00
          3   -1    0    0  502    0  0.00000000000E+00  0.00000000000E+00  0.57466544866E+02  0.57466544866E+02  0.00000000000E+00 0. -1.
         -3   -1    0    0    0  501 -0.00000000000E+00 -0.00000000000E+00 -0.83018197403E+03  0.83018197403E+03  0.00000000000E+00 0.  1.
          6    1    1    2  502    0  0.63385079773E+02  0.32245642435E+02 -0.15408822925E+03  0.24162912115E+03  0.17200000000E+03 0. -1.
         -6    1    1    2    0  501 -0.63385079773E+02 -0.32245642435E+02 -0.61862719991E+03  0.64601939775E+03  0.17200000000E+03 0.  1.
</event>
<event>
 4    1  0.3205520E-002  0.2103335E+03  0.7818608E-02  0.1141302E+00
         -1   -1    0    0    0  501 -0.00000000000E+00  0.00000000000E+00  0.54549448950E+03  0.54549448950E+03  0.00000000000E+00 0.  1.
          1   -1    0    0  502    0  0.00000000000E+00 -0.00000000000E+00 -0.96356672291E+02  0.96356672291E+02  0.00000000000E+00 0. -1.
          6    1    1    2  502    0  0.18867670400E+02  0.11958333978E+03  0.96872492306E+02  0.23156952283E+03  0.17200000000E+03 0. -1.
         -6    1    1    2    0  501 -0.18867670400E+02 -0.11958333978E+03  0.35226532491E+03  0.41028163896E+03  0.17200000000E+03 0.  1.
</event>
<event>
 4    1  0.3205520E-002  0.2009216E+03  0.7818608E-02  0.1148964E+00
          1   -1    0    0  502    0  0.00000000000E+00  0.00000000000E+00  0.88736868673E+03  0.88736868673E+03  0.00000000000E+00 0. -1.
         -1   -1    0    0    0  501 -0.00000000000E+00 -0.00000000000E+00 -0.65132904124E+02  0.65132904124E+02  0.00000000000E+00 0.  1.
          6    1    1    2  502    0 -0.11679746900E+02 -0.10319441126E+03  0.67263475559E+03  0.70200214916E+03  0.17200000000E+03 0. -1.
         -6    1    1    2    0  501  0.11679746900E+02  0.10319441126E+03  0.14960102702E+03  0.25049944169E+03  0.17200000000E+03 0.  1.
</event>
<event>
 4    1  0.3205520E-002  0.1914542E+03  0.7818608E-02  0.1157156E+00
          2   -1    0    0  502    0  0.00000000000E+00  0.00000000000E+00  0.10806691883E+04  0.10806691883E+04  0.00000000000E+00 0. -1.
         -2   -1    0    0    0  501 -0.00000000000E+00 -0.00000000000E+00 -0.51473192317E+02  0.51473192317E+02  0.00000000000E+00 0.  1.
          6    1    1    2  502    0  0.32384857753E+02 -0.77601228283E+02  0.84517795502E+03  0.86659131388E+03  0.17200000000E+03 0. -1.
         -6    1    1    2    0  501 -0.32384857753E+02  0.77601228283E+02  0.18401804095E+03  0.26555106672E+03  0.17200000000E+03 0.  1.
</event>
<event>
 4    1  0.3205520E-002  0.4741379E+03  0.7818608E-02  0.1020759E+00
          2   -1    0    0  502    0  0.00000000000E+00  0.00000000000E+00  0.18277237457E+04  0.18277237457E+04  0.00000000000E+00 0. -1.
         -2   -1    0    0    0  501 -0.00000000000E+00 -0.00000000000E+00 -0.15028680490E+03  0.15028680490E+03  0.00000000000E+00 0.  1.
          6    1    1    2  502    0 -0.42553363637E+03  0.11892791517E+03  0.12601517964E+04  0.13463986314E+04  0.17200000000E+03 0. -1.
         -6    1    1    2    0  501  0.42553363637E+03 -0.11892791517E+03  0.41728514432E+03  0.63161191911E+03  0.17200000000E+03 0.  1.
</event>
<event>
 4    1  0.3205520E-002  0.4913165E+03  0.7818608E-02  0.1016071E+00
          1   -1    0    0  502    0  0.00000000000E+00  0.00000000000E+00  0.48563680689E+03  0.48563680689E+03  0.00000000000E+00 0. -1.
         -1   -1    0    0    0  501 -0.00000000000E+00 -0.00000000000E+00 -0.50998365997E+03  0.50998365997E+03  0.00000000000E+00 0.  1.
          6    1    1    2  502    0 -0.44973746344E+03 -0.97693850409E+02 -0.91411778417E+02  0.49974792412E+03  0.17200000000E+03 0. -1.
         -6    1    1    2    0  501  0.44973746344E+03  0.97693850409E+02  0.67064925337E+02  0.49587254274E+03  0.17200000000E+03 0.  1.
</event>
<event>
 4    1  0.3205520E-002  0.3017619E+03  0.7818608E-02  0.1084363E+00
         -1   -1    0    0    0  501 -0.00000000000E+00  0.00000000000E+00  0.15115759806E+03  0.15115759806E+03  0.00000000000E+00 0.  1.
          1   -1    0    0  502    0  0.00000000000E+00 -0.00000000000E+00 -0.66536632631E+03  0.66536632631E+03  0.00000000000E+00 0. -1.
          6    1    1    2  502    0 -0.76831793521E+02 -0.23573952404E+03 -0.13153136345E+03  0.32918193641E+03  0.17200000000E+03 0.  1.
         -6    1    1    2    0  501  0.76831793521E+02  0.23573952404E+03 -0.38267736480E+03  0.48734198795E+03  0.17200000000E+03 0.  1.
</event>
<event>
 4    1  0.3205520E-002  0.2500957E+03  0.7818608E-02  0.1113244E+00
         -1   -1    0    0    0  501 -0.00000000000E+00  0.00000000000E+00  0.97088960206E+02  0.97088960206E+02  0.00000000000E+00 0.  1.
          1   -1    0    0  502    0  0.00000000000E+00 -0.00000000000E+00 -0.64568254443E+03  0.64568254443E+03  0.00000000000E+00 0. -1.
          6    1    1    2  502    0  0.46993387642E+02  0.17537236412E+03 -0.25669586118E+03  0.35838611821E+03  0.17200000000E+03 0. -1.
         -6    1    1    2    0  501 -0.46993387642E+02 -0.17537236412E+03 -0.29189772305E+03  0.38438538643E+03  0.17200000000E+03 0.  1.
</event>
<event>
 4    1  0.3205520E-002  0.2046682E+03  0.7818608E-02  0.1145859E+00
          2   -1    0    0  502    0  0.00000000000E+00  0.00000000000E+00  0.11348907424E+04  0.11348907424E+04  0.00000000000E+00 0. -1.
         -2   -1    0    0    0  501 -0.00000000000E+00 -0.00000000000E+00 -0.38310354633E+02  0.38310354633E+02  0.00000000000E+00 0.  1.
          6    1    1    2  502    0 -0.10451378289E+03  0.37174649980E+02  0.43614859134E+03  0.48178281325E+03  0.17200000000E+03 0.  1.
         -6    1    1    2    0  501  0.10451378289E+03 -0.37174649980E+02  0.66043179638E+03  0.69141828374E+03  0.17200000000E+03 0. -1.
</event>
<event>
 4    1  0.3205520E-002  0.3780196E+03  0.7818608E-02  0.1051668E+00
         -1   -1    0    0    0  501 -0.00000000000E+00  0.00000000000E+00  0.31527700024E+03  0.31527700024E+03  0.00000000000E+00 0.  1.
          1   -1    0    0  502    0  0.00000000000E+00 -0.00000000000E+00 -0.55812972496E+03  0.55812972496E+03  0.00000000000E+00 0. -1.
          6    1    1    2  502    0 -0.20568901888E+03 -0.26647107482E+03 -0.31073392964E+03  0.48934076188E+03  0.17200000000E+03 0. -1.
         -6    1    1    2    0  501  0.20568901888E+03  0.26647107482E+03  0.67881204924E+02  0.38406596332E+03  0.17200000000E+03 0.  1.
</event>
<event>
 4    1  0.3205520E-002  0.1757044E+03  0.7818608E-02  0.1172026E+00
         -1   -1    0    0    0  501 -0.00000000000E+00  0.00000000000E+00  0.17980195483E+03  0.17980195483E+03  0.00000000000E+00 0.  1.
          1   -1    0    0  502    0  0.00000000000E+00 -0.00000000000E+00 -0.18857317864E+03  0.18857317864E+03  0.00000000000E+00 0. -1.
          6    1    1    2  502    0  0.28113471840E+02  0.22308444833E+02 -0.59481102664E+02  0.18549942206E+03  0.17200000000E+03 0. -1.
         -6    1    1    2    0  501 -0.28113471840E+02 -0.22308444833E+02  0.50709878859E+02  0.18287571141E+03  0.17200000000E+03 0.  1.
</event>
<event>
 4    1  0.3205520E-002  0.4955304E+03  0.7818608E-02  0.1014952E+00
         -2   -1    0    0    0  501 -0.00000000000E+00  0.00000000000E+00  0.60673612030E+03  0.60673612030E+03  0.00000000000E+00 0.  1.
          2   -1    0    0  502    0  0.00000000000E+00 -0.00000000000E+00 -0.63993531820E+03  0.63993531820E+03  0.00000000000E+00 0. -1.
          6    1    1    2  502    0  0.37596600087E+03 -0.27315913467E+03 -0.39451865297E+03  0.63339980597E+03  0.17200000000E+03 0. -1.
         -6    1    1    2    0  501 -0.37596600087E+03  0.27315913467E+03  0.36131945506E+03  0.61327163253E+03  0.17200000000E+03 0.  1.
</event>
<event>
 4    1  0.3205520E-002  0.1803727E+03  0.7818608E-02  0.1167443E+00
          1   -1    0    0  502    0  0.00000000000E+00  0.00000000000E+00  0.17224980886E+04  0.17224980886E+04  0.00000000000E+00 0. -1.
         -1   -1    0    0    0  501 -0.00000000000E+00 -0.00000000000E+00 -0.20482392673E+02  0.20482392673E+02  0.00000000000E+00 0.  1.
          6    1    1    2  502    0  0.51160682931E+02 -0.18245019406E+02  0.60784937225E+03  0.63404665093E+03  0.17200000000E+03 0.  1.
         -6    1    1    2    0  501 -0.51160682931E+02  0.18245019406E+02  0.10941663237E+04  0.11089338303E+04  0.17200000000E+03 0. -1.
</event>
<event>
 4    1  0.3205520E-002  0.1921178E+03  0.7818608E-02  0.1156565E+00
         -2   -1    0    0    0  501 -0.00000000000E+00  0.00000000000E+00  0.28681012812E+03  0.28681012812E+03  0.00000000000E+00 0.  1.
          2   -1    0    0  502    0  0.00000000000E+00 -0.00000000000E+00 -0.31405046110E+03  0.31405046110E+03  0.00000000000E+00 0. -1.
          6    1    1    2  502    0 -0.59114986426E+02 -0.61892259842E+02 -0.24442985499E+03  0.31089417405E+03  0.17200000000E+03 0.  1.
         -6    1    1    2    0  501  0.59114986426E+02  0.61892259842E+02  0.21718952201E+03  0.28996641516E+03  0.17200000000E+03 0.  1.
</event>
<event>
 4    1  0.3205520E-002  0.1943457E+03  0.7818608E-02  0.1154599E+00
          1   -1    0    0  502    0  0.00000000000E+00  0.00000000000E+00  0.10588940839E+04  0.10588940839E+04  0.00000000000E+00 0. -1.
         -1   -1    0    0    0  501 -0.00000000000E+00 -0.00000000000E+00 -0.66714316339E+02  0.66714316339E+02  0.00000000000E+00 0.  1.
          6    1    1    2  502    0  0.62246727005E+02  0.65662770639E+02  0.88001112975E+03  0.90121575827E+03  0.17200000000E+03 0. -1.
         -6    1    1    2    0  501 -0.62246727005E+02 -0.65662770639E+02  0.11216863785E+03  0.22439264201E+03  0.17200000000E+03 0.  1.
</event>
<event>
 4    1  0.3205520E-002  0.2052222E+03  0.7818608E-02  0.1145406E+00
         -1   -1    0    0    0  501 -0.00000000000E+00  0.00000000000E+00  0.89206992411E+02  0.89206992411E+02  0.00000000000E+00 0.  1.
          1   -1    0    0  502    0  0.00000000000E+00 -0.00000000000E+00 -0.51626619092E+03  0.51626619092E+03  0.00000000000E+00 0. -1.
          6    1    1    2  502    0  0.11778351961E+02 -0.11132576221E+03 -0.30205919825E+03  0.36517929042E+03  0.17200000000E+03 0. -1.
         -6    1    1    2    0  501 -0.11778351961E+02  0.11132576221E+03 -0.12500000026E+03  0.24029389291E+03  0.17200000000E+03 0.  1.
</event>
<event>
 4    1  0.3205520E-002  0.2567314E+03  0.7818608E-02  0.1109123E+00
          2   -1    0    0  502    0  0.00000000000E+00  0.00000000000E+00  0.41969045292E+02  0.41969045292E+02  0.00000000000E+00 0. -1.
         -2   -1    0    0    0  501 -0.00000000000E+00 -0.00000000000E+00 -0.16378609555E+04  0.16378609555E+04  0.00000000000E+00 0.  1.
          6    1    1    2  502    0 -0.18893879551E+03  0.25083051374E+02 -0.62757121630E+03  0.67805358154E+03  0.17200000000E+03 0. -1.
         -6    1    1    2    0  501  0.18893879551E+03 -0.25083051374E+02 -0.96832069390E+03  0.10017764192E+04  0.17200000000E+03 0.  1.
</event>
<event>
 4    1  0.3205520E-002  0.1760600E+03  0.7818608E-02  0.1171672E+00
         -1   -1    0    0    0  501 -0.00000000000E+00  0.00000000000E+00  0.17512984092E+03  0.17512984092E+03  0.00000000000E+00 0.  1.
          1   -1    0    0  502    0  0.00000000000E+00 -0.00000000000E+00 -0.21996195567E+03  0.21996195567E+03  0.00000000000E+00 0. -1.
          6    1    1    2  502    0 -0.36975486969E+02 -0.67776551057E+01  0.64893347983E+02  0.18763866834E+03  0.17200000000E+03 0.  1.
         -6    1    1    2    0  501  0.36975486969E+02  0.67776551057E+01 -0.10972546274E+03  0.20745312825E+03  0.17200000000E+03 0. -1.
</event>
<event>
 4    1  0.3205520E-002  0.3203435E+03  0.7818608E-02  0.1075491E+00
          2   -1    0    0  502    0  0.00000000000E+00  0.00000000000E+00  0.20725902834E+04  0.20725902834E+04  0.00000000000E+00 0. -1.
         -2   -1    0    0    0  501 -0.00000000000E+00 -0.00000000000E+00 -0.53358782315E+02  0.53358782315E+02  0.00000000000E+00 0.  1.
          6    1    1    2  502    0  0.22004671240E+03  0.15689291035E+03  0.12949923080E+04  0.13340258688E+04  0.17200000000E+03 0. -1.
         -6    1    1    2    0  501 -0.22004671240E+03 -0.15689291035E+03  0.72423919316E+03  0.79192319695E+03  0.17200000000E+03 0.  1.
</event>
<event>
 4    1  0.3205520E-002  0.2811477E+03  0.7818608E-02  0.1095064E+00
         -2   -1    0    0    0  501 -0.00000000000E+00  0.00000000000E+00  0.63146536169E+02  0.63146536169E+02  0.00000000000E+00 0.  1.
          2   -1    0    0  502    0  0.00000000000E+00 -0.00000000000E+00 -0.39417419249E+04  0.39417419249E+04  0.00000000000E+00 0. -1.
          6    1    1    2  502    0  0.18740026791E+03  0.11975455861E+03 -0.35935105522E+04  0.36044919342E+04  0.17200000000E+03 0. -1.
         -6    1    1    2    0  501 -0.18740026791E+03 -0.11975455861E+03 -0.28508483649E+03  0.40039652685E+03  0.17200000000E+03 0.  1.
</event>
<event>
 4    1  0.3205520E-002  0.2442755E+03  0.7818608E-02  0.1116977E+00
          1   -1    0    0  502    0  0.00000000000E+00  0.00000000000E+00  0.16239222668E+04  0.16239222668E+04  0.00000000000E+00 0. -1.
         -1   -1    0    0    0  501 -0.00000000000E+00 -0.00000000000E+00 -0.36744822756E+02  0.36744822756E+02  0.00000000000E+00 0.  1.
          6    1    1    2  502    0  0.23249860721E+02 -0.17188937441E+03  0.79198424433E+03  0.82880007017E+03  0.17200000000E+03 0. -1.
         -6    1    1    2    0  501 -0.23249860721E+02  0.17188937441E+03  0.79519319969E+03  0.83186701936E+03  0.17200000000E+03 0.  1.
</event>
<event>
 4    1  0.3205520E-002  0.2166470E+03  0.7818608E-02  0.1136408E+00
         -1   -1    0    0    0  501 -0.00000000000E+00  0.00000000000E+00  0.10702502713E+04  0.10702502713E+04  0.00000000000E+00 0.  1.
          1   -1    0    0  502    0  0.00000000000E+00 -0.00000000000E+00 -0.68082983468E+03  0.68082983468E+03  0.00000000000E+00 0. -1.
          6    1    1    2  502    0  0.31455712546E+02  0.12791590549E+03 -0.65216189019E+03  0.68720526172E+03  0.17200000000E+03 0. -1.
         -6    1    1    2    0  501 -0.31455712546E+02 -0.12791590549E+03  0.10415823268E+04  0.10638748443E+04  0.17200000000E+03 0.  1.
</event>
<event>
 4    1  0.3205520E-002  0.2404777E+03  0.7818608E-02  0.1119475E+00
         -2   -1    0    0    0  501 -0.00000000000E+00  0.00000000000E+00  0.10117166308E+03  0.10117166308E+03  0.00000000000E+00 0.  1.
          2   -1    0    0  502    0  0.00000000000E+00 -0.00000000000E+00 -0.57478861906E+03  0.57478861906E+03  0.00000000000E+00 0. -1.
          6    1    1    2  502    0  0.96895623844E+02  0.13731995286E+03 -0.26198913820E+03  0.35562317122E+03  0.17200000000E+03 0. -1.
         -6    1    1    2    0  501 -0.96895623844E+02 -0.13731995286E+03 -0.21162781779E+03  0.32033711092E+03  0.17200000000E+03 0.  1.
</event>
<event>
 4    1  0.3205520E-002  0.3949280E+03  0.7818608E-02  0.1045550E+00
         -1   -1    0    0    0  501 -0.00000000000E+00  0.00000000000E+00  0.15167556162E+03  0.15167556162E+03  0.00000000000E+00 0.  1.
          1   -1    0    0  502    0  0.00000000000E+00 -0.00000000000E+00 -0.11903013353E+04  0.11903013353E+04  0.00000000000E+00 0. -1.
          6    1    1    2  502    0  0.27859857466E+03  0.22083249788E+03 -0.76685227208E+03  0.86257206372E+03  0.17200000000E+03 0. -1.
         -6    1    1    2    0  501 -0.27859857466E+03 -0.22083249788E+03 -0.27177350161E+03  0.47940483321E+03  0.17200000000E+03 0.  1.
</event>
<event>
 4    1  0.3205520E-002  0.2262835E+03  0.7818608E-02  0.1129283E+00
          1   -1    0    0  502    0  0.00000000000E+00  0.00000000000E+00  0.19837733170E+04  0.19837733170E+04  0.00000000000E+00 0. -1.
         -1   -1    0    0    0  501 -0.00000000000E+00 -0.00000000000E+00 -0.48589417329E+02  0.48589417329E+02  0.00000000000E+00 0.  1.
          6    1    1    2  502    0  0.70511057108E+02  0.12902874165E+03  0.16633481702E+04  0.16786695210E+04  0.17200000000E+03 0. -1.
         -6    1    1    2    0  501 -0.70511057108E+02 -0.12902874165E+03  0.27183572943E+03  0.35369321331E+03  0.17200000000E+03 0.  1.
</event>
<event>
 4    1  0.3205520E-002  0.1832439E+03  0.7818608E-02  0.1164700E+00
         -1   -1    0    0    0  501 -0.00000000000E+00  0.00000000000E+00  0.12417064370E+03  0.12417064370E+03  0.00000000000E+00 0.  1.
          1   -1    0    0  502    0  0.00000000000E+00 -0.00000000000E+00 -0.22022405567E+04  0.22022405567E+04  0.00000000000E+00 0. -1.
          6    1    1    2  502    0  0.60910069696E+02 -0.16861004338E+02 -0.21284852071E+04  0.21363584921E+04  0.17200000000E+03 0. -1.
         -6    1    1    2    0  501 -0.60910069696E+02  0.16861004338E+02  0.50415294072E+02  0.19005270830E+03  0.17200000000E+03 0.  1.
</event>
<event>
 4    1  0.3205520E-002  0.2857696E+03  0.7818608E-02  0.1092579E+00
         -2   -1    0    0    0  501 -0.00000000000E+00  0.00000000000E+00  0.28053024891E+02  0.28053024891E+02  0.00000000000E+00 0.  1.
          2   -1    0    0  502    0  0.00000000000E+00 -0.00000000000E+00 -0.30766577857E+04  0.30766577857E+04  0.00000000000E+00 0. -1.
          6    1    1    2  502    0  0.22782961752E+03 -0.13189233231E+02 -0.11641659533E+04  0.11987270988E+04  0.17200000000E+03 0. -1.
         -6    1    1    2    0  501 -0.22782961752E+03  0.13189233231E+02 -0.18844388075E+04  0.19059837118E+04  0.17200000000E+03 0.  1.
</event>
<event>
 4    1  0.3205520E-002  0.1874533E+03  0.7818608E-02  0.1160778E+00
         -2   -1    0    0    0  501 -0.00000000000E+00  0.00000000000E+00  0.28102690136E+02  0.28102690136E+02  0.00000000000E+00 0.  1.
          2   -1    0    0  502    0  0.00000000000E+00 -0.00000000000E+00 -0.12589491941E+04  0.12589491941E+04  0.00000000000E+00 0. -1.
          6    1    1    2  502    0  0.53434877480E+02 -0.51956434342E+02 -0.66854695320E+03  0.69432973855E+03  0.17200000000E+03 0. -1.
         -6    1    1    2    0  501 -0.53434877480E+02  0.51956434342E+02 -0.56229955079E+03  0.59272214571E+03  0.17200000000E+03 0.  1.
</event>
<event>
 4    1  0.3205520E-002  0.2259540E+03  0.7818608E-02  0.1129520E+00
         -2   -1    0    0    0  501 -0.00000000000E+00  0.00000000000E+00  0.74571979701E+02  0.74571979701E+02  0.00000000000E+00 0.  1.
          2   -1    0    0  502    0  0.00000000000E+00 -0.00000000000E+00 -0.86609703838E+03  0.86609703838E+03  0.00000000000E+00 0. -1.
          6    1    1    2  502    0  0.13367047438E+03  0.60028628337E+02 -0.18048132417E+03  0.28918634186E+03  0.17200000000E+03 0.  1.
         -6    1    1    2    0  501 -0.13367047438E+03 -0.60028628337E+02 -0.61104373451E+03  0.65148267623E+03  0.17200000000E+03 0. -1.
</event>
<event>
 4    1  0.3205520E-002  0.4138164E+03  0.7818608E-02  0.1039098E+00
          2   -1    0    0  502    0  0.00000000000E+00  0.00000000000E+00  0.15076410339E+03  0.15076410339E+03  0.00000000000E+00 0. -1.
         -2   -1    0    0    0  501 -0.00000000000E+00 -0.00000000000E+00 -0.17891392928E+04  0.17891392928E+04  0.00000000000E+00 0.  1.
          6    1    1    2  502    0 -0.13775630556E+03 -0.35026164118E+03 -0.23307120591E+03  0.47493810547E+03  0.17200000000E+03 0. -1.
         -6    1    1    2    0  501  0.13775630556E+03  0.35026164118E+03 -0.14053039835E+04  0.14649652908E+04  0.17200000000E+03 0.  1.
</event>
<event>
 4    1  0.3205520E-002  0.2168924E+03  0.7818608E-02  0.1136221E+00
          1   -1    0    0  502    0  0.00000000000E+00  0.00000000000E+00  0.17429137724E+04  0.17429137724E+04  0.00000000000E+00 0. -1.
         -1   -1    0    0    0  501 -0.00000000000E+00 -0.00000000000E+00 -0.29218776259E+02  0.29218776259E+02  0.00000000000E+00 0.  1.
          6    1    1    2  502    0  0.13204842569E+03  0.46400094391E+01  0.11015330938E+04  0.11226831579E+04  0.17200000000E+03 0. -1.
         -6    1    1    2    0  501 -0.13204842569E+03 -0.46400094391E+01  0.61216190237E+03  0.64944939073E+03  0.17200000000E+03 0.  1.
</event>
<event>
 4    1  0.3205520E-002  0.1870269E+03  0.7818608E-02  0.1161170E+00
         -2   -1    0    0    0  501 -0.00000000000E+00  0.00000000000E+00  0.27907071273E+02  0.27907071273E+02  0.00000000000E+00 0.  1.
          2   -1    0    0  502    0  0.00000000000E+00 -0.00000000000E+00 -0.12979684555E+04  0.12979684555E+04  0.00000000000E+00 0. -1.
          6    1    1    2  502    0 -0.56662926669E+02  0.46737485539E+02 -0.75785722735E+03  0.78059378479E+03  0.17200000000E+03 0.  1.
         -6    1    1    2    0  501  0.56662926669E+02 -0.46737485539E+02 -0.51220415687E+03  0.54528174197E+03  0.17200000000E+03 0.  1.
</event>
<event>
 4    1  0.3205520E-002  0.2167848E+03  0.7818608E-02  0.1136303E+00
          2   -1    0    0  502    0  0.00000000000E+00  0.00000000000E+00  0.51705916314E+02  0.51705916314E+02  0.00000000000E+00 0. -1.
         -2   -1    0    0    0  501 -0.00000000000E+00 -0.00000000000E+00 -0.14112963018E+04  0.14112963018E+04  0.00000000000E+00 0.  1.
          6    1    1    2  502    0  0.12973336014E+03 -0.24101973521E+02 -0.24335181050E+03  0.32590758434E+03  0.17200000000E+03 0. -1.
         -6    1    1    2    0  501 -0.12973336014E+03  0.24101973521E+02 -0.11162385750E+04  0.11370946338E+04  0.17200000000E+03 0.  1.
</event>
<event>
 4    1  0.3205520E-002  0.2234452E+03  0.7818608E-02  0.1131340E+00
         -2   -1    0    0    0  501 -0.00000000000E+00  0.00000000000E+00  0.18461175191E+03  0.18461175191E+03  0.00000000000E+00 0.  1.
          2   -1    0    0  502    0  0.00000000000E+00 -0.00000000000E+00 -0.39208707608E+03  0.39208707608E+03  0.00000000000E+00 0. -1.
          6    1    1    2  502    0 -0.43630367688E+02  0.13579447375E+03 -0.26434509202E+03  0.34613014281E+03  0.17200000000E+03 0. -1.
         -6    1    1    2    0  501  0.43630367688E+02 -0.13579447375E+03  0.56869767857E+02  0.23056868517E+03  0.17200000000E+03 0.  1.
</event>
<event>
 4    1  0.3205520E-002  0.2802287E+03  0.7818608E-02  0.1095564E+00
          2   -1    0    0  502    0  0.00000000000E+00  0.00000000000E+00  0.10040830004E+03  0.10040830004E+03  0.00000000000E+00 0. -1.
         -2   -1    0    0    0  501 -0.00000000000E+00 -0.00000000000E+00 -0.83110373704E+03  0.83110373704E+03  0.00000000000E+00 0.  1.
          6    1    1    2  502    0  0.14772021915E+02  0.22073942592E+03 -0.25223810993E+03  0.37703072937E+03  0.17200000000E+03 0. -1.
         -6    1    1    2    0  501 -0.14772021915E+02 -0.22073942592E+03 -0.47845732706E+03  0.55448130772E+03  0.17200000000E+03 0.  1.
</event>
<event>
 4    1  0.3205520E-002  0.1762303E+03  0.7818608E-02  0.1171502E+00
         -2   -1    0    0    0  501 -0.00000000000E+00  0.00000000000E+00  0.65995541565E+02  0.65995541565E+02  0.00000000000E+00 0.  1.
          2   -1    0    0  502    0  0.00000000000E+00 -0.00000000000E+00 -0.48563279845E+03  0.48563279845E+03  0.00000000000E+00 0. -1.
          6    1    1    2  502    0 -0.35249452536E+02 -0.15185706693E+02 -0.25835462513E+03  0.31273669743E+03  0.17200000000E+03 0. -1.
         -6    1    1    2    0  501  0.35249452536E+02  0.15185706693E+02 -0.16128263175E+03  0.23889164259E+03  0.17200000000E+03 0.  1.
</event>
<event>
 4    1  0.3205520E-002  0.1969221E+03  0.7818608E-02  0.1152362E+00
          4   -1    0    0  502    0  0.00000000000E+00  0.00000000000E+00  0.59576965996E+03  0.59576965996E+03  0.00000000000E+00 0. -1.
         -4   -1    0    0    0  501 -0.00000000000E+00 -0.00000000000E+00 -0.66289384444E+02  0.66289384444E+02  0.00000000000E+00 0.  1.
          6    1    1    2  502    0 -0.34618714885E+01  0.95824546125E+02  0.30927712660E+03  0.36664788181E+03  0.17200000000E+03 0. -1.
         -6    1    1    2    0  501  0.34618714885E+01 -0.95824546125E+02  0.22020314891E+03  0.29541116259E+03  0.17200000000E+03 0.  1.
</event>
<event>
 4    1  0.3205520E-002  0.2082431E+03  0.7818608E-02  0.1142965E+00
         -2   -1    0    0    0  501 -0.00000000000E+00  0.00000000000E+00  0.22007906343E+03  0.22007906343E+03  0.00000000000E+00 0.  1.
          2   -1    0    0  502    0  0.00000000000E+00 -0.00000000000E+00 -0.20281949495E+03  0.20281949495E+03  0.00000000000E+00 0. -1.
          6    1    1    2  502    0  0.68150203255E+02 -0.95586207765E+02  0.44312721583E+02  0.21290559084E+03  0.17200000000E+03 0. -1.
         -6    1    1    2    0  501 -0.68150203255E+02  0.95586207765E+02 -0.27053153105E+02  0.20999296753E+03  0.17200000000E+03 0. -1.
</event>
<event>
 4    1  0.3205520E-002  0.2320888E+03  0.7818608E-02  0.1125178E+00
         -1   -1    0    0    0  501 -0.00000000000E+00  0.00000000000E+00  0.96865818355E+02  0.96865818355E+02  0.00000000000E+00 0.  1.
          1   -1    0    0  502    0  0.00000000000E+00 -0.00000000000E+00 -0.18542172963E+04  0.18542172963E+04  0.00000000000E+00 0. -1.
          6    1    1    2  502    0 -0.11515308409E+03 -0.10498083591E+03 -0.16949303796E+04  0.17107466792E+04  0.17200000000E+03 0. -1.
         -6    1    1    2    0  501  0.11515308409E+03  0.10498083591E+03 -0.62421098328E+02  0.24033643544E+03  0.17200000000E+03 0.  1.
</event>
<event>
 4    1  0.3205520E-002  0.3918621E+03  0.7818608E-02  0.1046635E+00
         -1   -1    0    0    0  501 -0.00000000000E+00  0.00000000000E+00  0.87244452100E+02  0.87244452100E+02  0.00000000000E+00 0.  1.
          1   -1    0    0  502    0  0.00000000000E+00 -0.00000000000E+00 -0.23185990996E+04  0.23185990996E+04  0.00000000000E+00 0. -1.
          6    1    1    2  502    0  0.33448971783E+03 -0.10994793595E+03 -0.52527325446E+03  0.65533801340E+03  0.17200000000E+03 0. -1.
         -6    1    1    2    0  501 -0.33448971783E+03  0.10994793595E+03 -0.17060813931E+04  0.17505055383E+04  0.17200000000E+03 0.  1.
</event>
<event>
 4    1  0.3205520E-002  0.3193828E+03  0.7818608E-02  0.1075934E+00
          1   -1    0    0  502    0  0.00000000000E+00  0.00000000000E+00  0.14741132311E+04  0.14741132311E+04  0.00000000000E+00 0. -1.
         -1   -1    0    0    0  501 -0.00000000000E+00 -0.00000000000E+00 -0.72329347508E+02  0.72329347508E+02  0.00000000000E+00 0.  1.
          6    1    1    2  502    0 -0.15886472144E+03  0.21721727473E+03  0.54000221740E+03  0.62738165335E+03  0.17200000000E+03 0. -1.
         -6    1    1    2    0  501  0.15886472144E+03 -0.21721727473E+03  0.86178166620E+03  0.91906092527E+03  0.17200000000E+03 0.  1.
</event>
<event>
 4    1  0.3205520E-002  0.4022089E+03  0.7818608E-02  0.1043017E+00
         -2   -1    0    0    0  501 -0.00000000000E+00  0.00000000000E+00  0.14167427658E+03  0.14167427658E+03  0.00000000000E+00 0.  1.
          2   -1    0    0  502    0  0.00000000000E+00 -0.00000000000E+00 -0.15200646037E+04  0.15200646037E+04  0.00000000000E+00 0. -1.
          6    1    1    2  502    0  0.26280689883E+03  0.25123803255E+03 -0.11036391809E+04  0.11746452471E+04  0.17200000000E+03 0. -1.
         -6    1    1    2    0  501 -0.26280689883E+03 -0.25123803255E+03 -0.27475114621E+03  0.48709363311E+03  0.17200000000E+03 0. -1.
</event>
<event>
 4    1  0.3205520E-002  0.1903355E+03  0.7818608E-02  0.1158159E+00
          2   -1    0    0  502    0  0.00000000000E+00  0.00000000000E+00  0.68800771442E+03  0.68800771442E+03  0.00000000000E+00 0. -1.
         -2   -1    0    0    0  501 -0.00000000000E+00 -0.00000000000E+00 -0.78237647253E+02  0.78237647253E+02  0.00000000000E+00 0.  1.
          6    1    1    2  502    0 -0.73459350046E+02 -0.35317491777E+02  0.52396156912E+03  0.55746150293E+03  0.17200000000E+03 0. -1.
         -6    1    1    2    0  501  0.73459350046E+02  0.35317491777E+02  0.85808498048E+02  0.20878385874E+03  0.17200000000E+03 0.  1.
</event>
<event>
 4    1  0.3205520E-002  0.2235510E+03  0.7818608E-02  0.1131263E+00
          1   -1    0    0  502    0  0.00000000000E+00  0.00000000000E+00  0.76964240642E+03  0.76964240642E+03  0.00000000000E+00 0. -1.
         -1   -1    0    0    0  501 -0.00000000000E+00 -0.00000000000E+00 -0.17843880254E+03  0.17843880254E+03  0.00000000000E+00 0.  1.
          6    1    1    2  502    0 -0.13648113774E+03 -0.41999150563E+02  0.67367885977E+03  0.70980154671E+03  0.17200000000E+03 0. -1.
         -6    1    1    2    0  501  0.13648113774E+03  0.41999150563E+02 -0.82475255897E+02  0.23827966225E+03  0.17200000000E+03 0.  1.
</event>
<event>
 4    1  0.3205520E-002  0.2401520E+03  0.7818608E-02  0.1119692E+00
          2   -1    0    0  502    0  0.00000000000E+00  0.00000000000E+00  0.68144038812E+03  0.68144038812E+03  0.00000000000E+00 0. -1.
         -2   -1    0    0    0  501 -0.00000000000E+00 -0.00000000000E+00 -0.10560473616E+03  0.10560473616E+03  0.00000000000E+00 0.  1.
          6    1    1    2  502    0 -0.48198084279E+02  0.16051767082E+03  0.46327983174E+03  0.52182485612E+03  0.17200000000E+03 0. -1.
         -6    1    1    2    0  501  0.48198084279E+02 -0.16051767082E+03  0.11255582022E+03  0.26522026815E+03  0.17200000000E+03 0.  1.
</event>
<event>
 4    1  0.3205520E-002  0.3160940E+03  0.7818608E-02  0.1077461E+00
         -2   -1    0    0    0  501 -0.00000000000E+00  0.00000000000E+00  0.49717595409E+02  0.49717595409E+02  0.00000000000E+00 0.  1.
          2   -1    0    0  502    0  0.00000000000E+00 -0.00000000000E+00 -0.21708533085E+04  0.21708533085E+04  0.00000000000E+00 0. -1.
          6    1    1    2  502    0 -0.11002770927E+03 -0.24129921324E+03 -0.13631159521E+04  0.13992857127E+04  0.17200000000E+03 0. -1.
         -6    1    1    2    0  501  0.11002770927E+03  0.24129921324E+03 -0.75801976103E+03  0.82128519116E+03  0.17200000000E+03 0.  1.
</event>
<event>
 4    1  0.3205520E-002  0.3055420E+03  0.7818608E-02  0.1082503E+00
         -2   -1    0    0    0  501 -0.00000000000E+00  0.00000000000E+00  0.38984096726E+02  0.38984096726E+02  0.00000000000E+00 0.  1.
          2   -1    0    0  502    0  0.00000000000E+00 -0.00000000000E+00 -0.24691208687E+04  0.24691208687E+04  0.00000000000E+00 0. -1.
          6    1    1    2  502    0 -0.15664088324E+03  0.19807962581E+03 -0.99737742243E+03  0.10431287683E+04  0.17200000000E+03 0. -1.
         -6    1    1    2    0  501  0.15664088324E+03 -0.19807962581E+03 -0.14327593495E+04  0.14649761971E+04  0.17200000000E+03 0.  1.
</event>
<event>
 4    1  0.3205520E-002  0.2267074E+03  0.7818608E-02  0.1128979E+00
          2   -1    0    0  502    0  0.00000000000E+00  0.00000000000E+00  0.16181909550E+04  0.16181909550E+04  0.00000000000E+00 0. -1.
         -2   -1    0    0    0  501 -0.00000000000E+00 -0.00000000000E+00 -0.57201156221E+02  0.57201156221E+02  0.00000000000E+00 0.  1.
          6    1    1    2  502    0 -0.14161214034E+03  0.41931563434E+02  0.13391441903E+04  0.13581985925E+04  0.17200000000E+03 0. -1.
         -6    1    1    2    0  501  0.14161214034E+03 -0.41931563434E+02  0.22184560846E+03  0.31719351869E+03  0.17200000000E+03 0.  1.
</event>
<event>
 4    1  0.3205520E-002  0.4917197E+03  0.7818608E-02  0.1015963E+00
          1   -1    0    0  502    0  0.00000000000E+00  0.00000000000E+00  0.12385862720E+04  0.12385862720E+04  0.00000000000E+00 0. -1.
         -1   -1    0    0    0  501 -0.00000000000E+00 -0.00000000000E+00 -0.20121599723E+03  0.20121599723E+03  0.00000000000E+00 0.  1.
          6    1    1    2  502    0  0.25468050882E+03 -0.38385163147E+03  0.64302858718E+03  0.80948996318E+03  0.17200000000E+03 0. -1.
         -6    1    1    2    0  501 -0.25468050882E+03  0.38385163147E+03  0.39434168754E+03  0.63031230600E+03  0.17200000000E+03 0.  1.
</event>
<event>
 4    1  0.3205520E-002  0.3935482E+03  0.7818608E-02  0.1046037E+00
          2   -1    0    0  502    0  0.00000000000E+00  0.00000000000E+00  0.25178469690E+04  0.25178469690E+04  0.00000000000E+00 0. -1.
         -2   -1    0    0    0  501 -0.00000000000E+00 -0.00000000000E+00 -0.17557205732E+03  0.17557205732E+03  0.00000000000E+00 0.  1.
          6    1    1    2  502    0 -0.10478336790E+03  0.33810737275E+03  0.22565910152E+04  0.22906512523E+04  0.17200000000E+03 0. -1.
         -6    1    1    2    0  501  0.10478336790E+03 -0.33810737275E+03  0.85683896495E+02  0.40276777406E+03  0.17200000000E+03 0.  1.
</event>
<event>
 4    1  0.3205520E-002  0.2127249E+03  0.7818608E-02  0.1139426E+00
         -1   -1    0    0    0  501 -0.00000000000E+00  0.00000000000E+00  0.39208350121E+03  0.39208350121E+03  0.00000000000E+00 0.  1.
          1   -1    0    0  502    0  0.00000000000E+00 -0.00000000000E+00 -0.15200005490E+03  0.15200005490E+03  0.00000000000E+00 0. -1.
          6    1    1    2  502    0  0.61287196832E+02 -0.10914099649E+03  0.25350821452E+03  0.33093548078E+03  0.17200000000E+03 0. -1.
         -6    1    1    2    0  501 -0.61287196832E+02  0.10914099649E+03 -0.13424768210E+02  0.21314807532E+03  0.17200000000E+03 0. -1.
</event>
<event>
 4    1  0.3205520E-002  0.2497177E+03  0.7818608E-02  0.1113483E+00
          1   -1    0    0  502    0  0.00000000000E+00  0.00000000000E+00  0.51508951561E+03  0.51508951561E+03  0.00000000000E+00 0. -1.
         -1   -1    0    0    0  501 -0.00000000000E+00 -0.00000000000E+00 -0.13549119241E+03  0.13549119241E+03  0.00000000000E+00 0.  1.
          6    1    1    2  502    0  0.10373825206E+03  0.14836873445E+03  0.29594509838E+03  0.38722397596E+03  0.17200000000E+03 0. -1.
         -6    1    1    2    0  501 -0.10373825206E+03 -0.14836873445E+03  0.83653224816E+02  0.26335673207E+03  0.17200000000E+03 0.  1.
</event>
<event>
 4    1  0.3205520E-002  0.5211775E+03  0.7818608E-02  0.1008394E+00
         -1   -1    0    0    0  501 -0.00000000000E+00  0.00000000000E+00  0.26507735434E+03  0.26507735434E+03  0.00000000000E+00 0.  1.
          1   -1    0    0  502    0  0.00000000000E+00 -0.00000000000E+00 -0.10260661622E+04  0.10260661622E+04  0.00000000000E+00 0. -1.
          6    1    1    2  502    0 -0.47760031987E+03  0.11806737024E+03 -0.40401154585E+03  0.65943255806E+03  0.17200000000E+03 0. -1.
         -6    1    1    2    0  501  0.47760031987E+03 -0.11806737024E+03 -0.35697726198E+03  0.63171095845E+03  0.17200000000E+03 0.  1.
</event>
<event>
 4    1  0.3205520E-002  0.3292426E+03  0.7818608E-02  0.1071472E+00
          1   -1    0    0  502    0  0.00000000000E+00  0.00000000000E+00  0.11623786411E+03  0.11623786411E+03  0.00000000000E+00 0. -1.
         -1   -1    0    0    0  501 -0.00000000000E+00 -0.00000000000E+00 -0.93780564398E+03  0.93780564398E+03  0.00000000000E+00 0.  1.
          6    1    1    2  502    0  0.79626253054E+02 -0.26921437504E+03 -0.45013712872E+03  0.55769539586E+03  0.17200000000E+03 0. -1.
         -6    1    1    2    0  501 -0.79626253054E+02  0.26921437504E+03 -0.37143065115E+03  0.49634811224E+03  0.17200000000E+03 0.  1.
</event>
<event>
 4    1  0.3205520E-002  0.1816214E+03  0.7818608E-02  0.1166243E+00
         -1   -1    0    0    0  501 -0.00000000000E+00  0.00000000000E+00  0.68994610143E+02  0.68994610143E+02  0.00000000000E+00 0.  1.
          1   -1    0    0  502    0  0.00000000000E+00 -0.00000000000E+00 -0.50286198270E+03  0.50286198270E+03  0.00000000000E+00 0. -1.
          6    1    1    2  502    0  0.32274915116E+02 -0.48586818640E+02 -0.15348507214E+03  0.23778985777E+03  0.17200000000E+03 0.  1.
         -6    1    1    2    0  501 -0.32274915116E+02  0.48586818640E+02 -0.28038230042E+03  0.33406673507E+03  0.17200000000E+03 0. -1.
</event>
<event>
 4    1  0.3205520E-002  0.3316095E+03  0.7818608E-02  0.1070427E+00
         -1   -1    0    0    0  501 -0.00000000000E+00  0.00000000000E+00  0.83068488637E+02  0.83068488637E+02  0.00000000000E+00 0.  1.
          1   -1    0    0  502    0  0.00000000000E+00 -0.00000000000E+00 -0.19247335446E+04  0.19247335446E+04  0.00000000000E+00 0. -1.
          6    1    1    2  502    0  0.15047214723E+03 -0.24028933278E+03 -0.14817825650E+04  0.15184348523E+04  0.17200000000E+03 0. -1.
         -6    1    1    2    0  501 -0.15047214723E+03  0.24028933278E+03 -0.35988249094E+03  0.48936718098E+03  0.17200000000E+03 0.  1.
</event>
<event>
 4    1  0.3205520E-002  0.1875799E+03  0.7818608E-02  0.1160662E+00
          2   -1    0    0  502    0  0.00000000000E+00  0.00000000000E+00  0.96532758840E+03  0.96532758840E+03  0.00000000000E+00 0. -1.
         -2   -1    0    0    0  501 -0.00000000000E+00 -0.00000000000E+00 -0.99288407433E+02  0.99288407433E+02  0.00000000000E+00 0.  1.
          6    1    1    2  502    0 -0.22507354148E+02  0.71383708414E+02  0.85649306996E+03  0.87679335861E+03  0.17200000000E+03 0. -1.
         -6    1    1    2    0  501  0.22507354148E+02 -0.71383708414E+02  0.95461110082E+01  0.18782263722E+03  0.17200000000E+03 0.  1.
</event>
<event>
 4    1  0.3205520E-002  0.2235544E+03  0.7818608E-02  0.1131261E+00
          2   -1    0    0  502    0  0.00000000000E+00  0.00000000000E+00  0.84451971753E+03  0.84451971753E+03  0.00000000000E+00 0. -1.
         -2   -1    0    0    0  501 -0.00000000000E+00 -0.00000000000E+00 -0.59556159878E+02  0.59556159878E+02  0.00000000000E+00 0.  1.
          6    1    1    2  502    0 -0.50506630163E+02  0.13357266811E+03  0.35643817612E+03  0.42074309353E+03  0.17200000000E+03 0.  1.
         -6    1    1    2    0  501  0.50506630163E+02 -0.13357266811E+03  0.42852538153E+03  0.48333278388E+03  0.17200000000E+03 0.  1.
</event>
<event>
 4    1  0.3205520E-002  0.1819465E+03  0.7818608E-02  0.1165932E+00
          2   -1    0    0  502    0  0.00000000000E+00  0.00000000000E+00  0.11174830098E+04  0.11174830098E+04  0.00000000000E+00 0. -1.
         -2   -1    0    0    0  501 -0.00000000000E+00 -0.00000000000E+00 -0.71078149401E+02  0.71078149401E+02  0.00000000000E+00 0.  1.
          6    1    1    2  502    0 -0.50896014462E+02 -0.30497914728E+02  0.97704632758E+03  0.99384307279E+03  0.17200000000E+03 0. -1.
         -6    1    1    2    0  501  0.50896014462E+02  0.30497914728E+02  0.69358532775E+02  0.19471808637E+03  0.17200000000E+03 0.  1.
</event>
<event>
 4    1  0.3205520E-002  0.2270625E+03  0.7818608E-02  0.1128725E+00
         -2   -1    0    0    0  501 -0.00000000000E+00  0.00000000000E+00  0.66260306499E+02  0.66260306499E+02  0.00000000000E+00 0.  1.
          2   -1    0    0  502    0  0.00000000000E+00 -0.00000000000E+00 -0.78035838454E+03  0.78035838454E+03  0.00000000000E+00 0. -1.
          6    1    1    2  502    0 -0.75138382688E+02  0.12777944466E+03 -0.37980485360E+03  0.44250320886E+03  0.17200000000E+03 0. -1.
         -6    1    1    2    0  501  0.75138382688E+02 -0.12777944466E+03 -0.33429322443E+03  0.40411548218E+03  0.17200000000E+03 0.  1.
</event>
<event>
 4    1  0.3205520E-002  0.2078341E+03  0.7818608E-02  0.1143293E+00
          3   -1    0    0  502    0  0.00000000000E+00  0.00000000000E+00  0.11468869272E+03  0.11468869272E+03  0.00000000000E+00 0. -1.
         -3   -1    0    0    0  501 -0.00000000000E+00 -0.00000000000E+00 -0.39696561353E+03  0.39696561353E+03  0.00000000000E+00 0.  1.
          6    1    1    2  502    0 -0.88337350710E+02  0.76207113035E+02 -0.19904353040E+03  0.28777306789E+03  0.17200000000E+03 0.  1.
         -6    1    1    2    0  501  0.88337350710E+02 -0.76207113035E+02 -0.83233390408E+02  0.22388123835E+03  0.17200000000E+03 0. -1.
</event>
<event>
 4    1  0.3205520E-002  0.3933535E+03  0.7818608E-02  0.1046106E+00
         -4   -1    0    0    0  501 -0.00000000000E+00  0.00000000000E+00  0.60034520565E+03  0.60034520565E+03  0.00000000000E+00 0.  1.
          4   -1    0    0  502    0  0.00000000000E+00 -0.00000000000E+00 -0.26263337549E+03  0.26263337549E+03  0.00000000000E+00 0. -1.
          6    1    1    2  502    0  0.46657533430E+02  0.35066511442E+03  0.10989770926E+03  0.40841701042E+03  0.17200000000E+03 0. -1.
         -6    1    1    2    0  501 -0.46657533430E+02 -0.35066511442E+03  0.22781412089E+03  0.45456157072E+03  0.17200000000E+03 0.  1.
</event>
<event>
 4    1  0.3205520E-002  0.1984677E+03  0.7818608E-02  0.1151038E+00
         -1   -1    0    0    0  501 -0.00000000000E+00  0.00000000000E+00  0.16753892719E+03  0.16753892719E+03  0.00000000000E+00 0.  1.
          1   -1    0    0  502    0  0.00000000000E+00 -0.00000000000E+00 -0.31070248962E+03  0.31070248962E+03  0.00000000000E+00 0. -1.
          6    1    1    2  502    0 -0.57176380786E+02 -0.80847360583E+02 -0.18953102749E+03  0.27442930714E+03  0.17200000000E+03 0. -1.
         -6    1    1    2    0  501  0.57176380786E+02  0.80847360583E+02  0.46367465067E+02  0.20381210967E+03  0.17200000000E+03 0.  1.
</event>
<event>
 4    1  0.3205520E-002  0.1787915E+03  0.7818608E-02  0.1168978E+00
         -2   -1    0    0    0  501 -0.00000000000E+00  0.00000000000E+00  0.36164936510E+03  0.36164936510E+03  0.00000000000E+00 0.  1.
          2   -1    0    0  502    0  0.00000000000E+00 -0.00000000000E+00 -0.14650895850E+03  0.14650895850E+03  0.00000000000E+00 0. -1.
          6    1    1    2  502    0  0.48745513110E+02 -0.25035896090E+01 -0.52456973923E+02  0.18632800950E+03  0.17200000000E+03 0. -1.
         -6    1    1    2    0  501 -0.48745513110E+02  0.25035896090E+01  0.26759738053E+03  0.32183031410E+03  0.17200000000E+03 0.  1.
</event>
<event>
 4    1  0.3205520E-002  0.3048186E+03  0.7818608E-02  0.1082856E+00
          2   -1    0    0  502    0  0.00000000000E+00  0.00000000000E+00  0.28690134259E+04  0.28690134259E+04  0.00000000000E+00 0. -1.
         -2   -1    0    0    0  501 -0.00000000000E+00 -0.00000000000E+00 -0.90547030623E+02  0.90547030623E+02  0.00000000000E+00 0.  1.
          6    1    1    2  502    0  0.25134276653E+03 -0.12538562158E+02  0.25752151216E+04  0.25931924965E+04  0.17200000000E+03 0. -1.
         -6    1    1    2    0  501 -0.25134276653E+03  0.12538562158E+02  0.20325127370E+03  0.36636795996E+03  0.17200000000E+03 0.  1.
</event>
<event>
 4    1  0.3205520E-002  0.2383656E+03  0.7818608E-02  0.1120886E+00
         -1   -1    0    0    0  501 -0.00000000000E+00  0.00000000000E+00  0.10087952398E+03  0.10087952398E+03  0.00000000000E+00 0.  1.
          1   -1    0    0  502    0  0.00000000000E+00 -0.00000000000E+00 -0.81959696265E+03  0.81959696265E+03  0.00000000000E+00 0. -1.
          6    1    1    2  502    0 -0.49698784886E+02  0.15736642391E+03 -0.61676275791E+03  0.66122194469E+03  0.17200000000E+03 0. -1.
         -6    1    1    2    0  501  0.49698784886E+02 -0.15736642391E+03 -0.10195468076E+03  0.25925454195E+03  0.17200000000E+03 0.  1.
</event>
<event>
 4    1  0.3205520E-002  0.2022557E+03  0.7818608E-02  0.1147850E+00
         -1   -1    0    0    0  501 -0.00000000000E+00  0.00000000000E+00  0.25150295365E+03  0.25150295365E+03  0.00000000000E+00 0.  1.
          1   -1    0    0  502    0  0.00000000000E+00 -0.00000000000E+00 -0.40182420280E+03  0.40182420280E+03  0.00000000000E+00 0. -1.
          6    1    1    2  502    0 -0.43486764883E+02 -0.97119909081E+02 -0.32718254713E+03  0.38465022371E+03  0.17200000000E+03 0. -1.
         -6    1    1    2    0  501  0.43486764883E+02  0.97119909081E+02  0.17686129798E+03  0.26867693274E+03  0.17200000000E+03 0.  1.
</event>
<event>
 4    1  0.3205520E-002  0.2277749E+03  0.7818608E-02  0.1128216E+00
         -2   -1    0    0    0  501 -0.00000000000E+00  0.00000000000E+00  0.33991930193E+02  0.33991930193E+02  0.00000000000E+00 0.  1.
          2   -1    0    0  502    0  0.00000000000E+00 -0.00000000000E+00 -0.33444867010E+04  0.33444867010E+04  0.00000000000E+00 0. -1.
          6    1    1    2  502    0 -0.14690438898E+03 -0.26767770631E+02 -0.29007577153E+04  0.29096867075E+04  0.17200000000E+03 0. -1.
         -6    1    1    2    0  501  0.14690438898E+03  0.26767770631E+02 -0.40973705551E+03  0.46879192368E+03  0.17200000000E+03 0.  1.
</event>
<event>
 4    1  0.3205520E-002  0.4646545E+03  0.7818608E-02  0.1023440E+00
         -2   -1    0    0    0  501 -0.00000000000E+00  0.00000000000E+00  0.14740347314E+03  0.14740347314E+03  0.00000000000E+00 0.  1.
          2   -1    0    0  502    0  0.00000000000E+00 -0.00000000000E+00 -0.24182237297E+04  0.24182237297E+04  0.00000000000E+00 0. -1.
          6    1    1    2  502    0 -0.40009594447E+03  0.16199700241E+03 -0.19409334026E+04  0.19957771085E+04  0.17200000000E+03 0. -1.
         -6    1    1    2    0  501  0.40009594447E+03 -0.16199700241E+03 -0.32988685393E+03  0.56985009430E+03  0.17200000000E+03 0.  1.
</event>
<event>
 4    1  0.3205520E-002  0.1962043E+03  0.7818608E-02  0.1152982E+00
         -2   -1    0    0    0  501 -0.00000000000E+00  0.00000000000E+00  0.21079151850E+02  0.21079151850E+02  0.00000000000E+00 0.  1.
          2   -1    0    0  502    0  0.00000000000E+00 -0.00000000000E+00 -0.19081242423E+04  0.19081242423E+04  0.00000000000E+00 0. -1.
          6    1    1    2  502    0 -0.48565657182E+01  0.94279043145E+02 -0.74373073491E+03  0.76917587733E+03  0.17200000000E+03 0. -1.
         -6    1    1    2    0  501  0.48565657182E+01 -0.94279043145E+02 -0.11433143555E+04  0.11600275168E+04  0.17200000000E+03 0. -1.
</event>
<event>
 4    1  0.3205520E-002  0.2256541E+03  0.7818608E-02  0.1129737E+00
          1   -1    0    0  502    0  0.00000000000E+00  0.00000000000E+00  0.39572228529E+03  0.39572228529E+03  0.00000000000E+00 0. -1.
         -1   -1    0    0    0  501 -0.00000000000E+00 -0.00000000000E+00 -0.14394684947E+03  0.14394684947E+03  0.00000000000E+00 0.  1.
          6    1    1    2  502    0  0.14577025872E+03  0.93160436993E+01  0.21377690008E+03  0.31083809291E+03  0.17200000000E+03 0. -1.
         -6    1    1    2    0  501 -0.14577025872E+03 -0.93160436993E+01  0.37998535733E+02  0.22883104185E+03  0.17200000000E+03 0.  1.
</event>
<event>
 4    1  0.3205520E-002  0.2024378E+03  0.7818608E-02  0.1147698E+00
         -1   -1    0    0    0  501 -0.00000000000E+00  0.00000000000E+00  0.88665890810E+02  0.88665890810E+02  0.00000000000E+00 0.  1.
          1   -1    0    0  502    0  0.00000000000E+00 -0.00000000000E+00 -0.50895413824E+03  0.50895413824E+03  0.00000000000E+00 0. -1.
          6    1    1    2  502    0 -0.54514330068E+02  0.91789241303E+02 -0.11957473283E+03  0.23511527754E+03  0.17200000000E+03 0. -1.
         -6    1    1    2    0  501  0.54514330068E+02 -0.91789241303E+02 -0.30071351460E+03  0.36250475151E+03  0.17200000000E+03 0.  1.
</event>
<event>
 4    1  0.3205520E-002  0.1737490E+03  0.7818608E-02  0.1173994E+00
          2   -1    0    0  502    0  0.00000000000E+00  0.00000000000E+00  0.21795162697E+04  0.21795162697E+04  0.00000000000E+00 0. -1.
         -2   -1    0    0    0  501 -0.00000000000E+00 -0.00000000000E+00 -0.16501537758E+02  0.16501537758E+02  0.00000000000E+00 0.  1.
          6    1    1    2  502    0  0.15007481048E+01 -0.24545459001E+02  0.15215565094E+04  0.15314447241E+04  0.17200000000E+03 0. -1.
         -6    1    1    2    0  501 -0.15007481048E+01  0.24545459001E+02  0.64145822252E+03  0.66457308330E+03  0.17200000000E+03 0.  1.
</event>
<event>
 4    1  0.3205520E-002  0.3070728E+03  0.7818608E-02  0.1081757E+00
         -2   -1    0    0    0  501 -0.00000000000E+00  0.00000000000E+00  0.76221235997E+02  0.76221235997E+02  0.00000000000E+00 0.  1.
          2   -1    0    0  502    0  0.00000000000E+00 -0.00000000000E+00 -0.12791241313E+04  0.12791241313E+04  0.00000000000E+00 0. -1.
          6    1    1    2  502    0  0.17360813933E+03  0.18592994931E+03 -0.72427541041E+03  0.78668202103E+03  0.17200000000E+03 0. -1.
         -6    1    1    2    0  501 -0.17360813933E+03 -0.18592994931E+03 -0.47862748493E+03  0.56866334630E+03  0.17200000000E+03 0.  1.
</event>
<event>
 4    1  0.3205520E-002  0.3115369E+03  0.7818608E-02  0.1079612E+00
         -2   -1    0    0    0  501 -0.00000000000E+00  0.00000000000E+00  0.10896560782E+03  0.10896560782E+03  0.00000000000E+00 0.  1.
          2   -1    0    0  502    0  0.00000000000E+00 -0.00000000000E+00 -0.10880313073E+04  0.10880313073E+04  0.00000000000E+00 0. -1.
          6    1    1    2  502    0 -0.10398499397E+03  0.23803016394E+03 -0.23464762080E+03  0.39001890193E+03  0.17200000000E+03 0.  1.
         -6    1    1    2    0  501  0.10398499397E+03 -0.23803016394E+03 -0.74441807871E+03  0.80697801323E+03  0.17200000000E+03 0.  1.
</event>
<event>
 4    1  0.3205520E-002  0.4013434E+03  0.7818608E-02  0.1043315E+00
          2   -1    0    0  502    0  0.00000000000E+00  0.00000000000E+00  0.72564194143E+03  0.72564194143E+03  0.00000000000E+00 0. -1.
         -2   -1    0    0    0  501 -0.00000000000E+00 -0.00000000000E+00 -0.31761617748E+03  0.31761617748E+03  0.00000000000E+00 0.  1.
          6    1    1    2  502    0  0.36150292507E+03  0.28428790862E+02  0.49025007988E+03  0.63357848906E+03  0.17200000000E+03 0. -1.
         -6    1    1    2    0  501 -0.36150292507E+03 -0.28428790862E+02 -0.82224315929E+02  0.40967962985E+03  0.17200000000E+03 0.  1.
</event>
<event>
 4    1  0.3205520E-002  0.5269421E+03  0.7818608E-02  0.1006976E+00
         -2   -1    0    0    0  501 -0.00000000000E+00  0.00000000000E+00  0.51092675677E+03  0.51092675677E+03  0.00000000000E+00 0.  1.
          2   -1    0    0  502    0  0.00000000000E+00 -0.00000000000E+00 -0.55733206989E+03  0.55733206989E+03  0.00000000000E+00 0. -1.
          6    1    1    2  502    0  0.25825065790E+03  0.42589976252E+03 -0.10747161463E+03  0.53779006868E+03  0.17200000000E+03 0. -1.
         -6    1    1    2    0  501 -0.25825065790E+03 -0.42589976252E+03  0.61066301498E+02  0.53046875798E+03  0.17200000000E+03 0.  1.
</event>
<event>
 4    1  0.3205520E-002  0.2645027E+03  0.7818608E-02  0.1104468E+00
          1   -1    0    0  502    0  0.00000000000E+00  0.00000000000E+00  0.88943700529E+03  0.88943700529E+03  0.00000000000E+00 0. -1.
         -1   -1    0    0    0  501 -0.00000000000E+00 -0.00000000000E+00 -0.16448677255E+03  0.16448677255E+03  0.00000000000E+00 0.  1.
          6    1    1    2  502    0 -0.16326263701E+03 -0.11714517928E+03  0.74312805337E+03  0.78879717632E+03  0.17200000000E+03 0. -1.
         -6    1    1    2    0  501  0.16326263701E+03  0.11714517928E+03 -0.18177820628E+02  0.26512660152E+03  0.17200000000E+03 0.  1.
</event>
<event>
 4    1  0.3205520E-002  0.1878553E+03  0.7818608E-02  0.1160410E+00
         -1   -1    0    0    0  501 -0.00000000000E+00  0.00000000000E+00  0.23471037428E+02  0.23471037428E+02  0.00000000000E+00 0.  1.
          1   -1    0    0  502    0  0.00000000000E+00 -0.00000000000E+00 -0.18302751648E+04  0.18302751648E+04  0.00000000000E+00 0. -1.
          6    1    1    2  502    0 -0.67327263582E+02  0.34244026107E+02 -0.12950184629E+04  0.13085726701E+04  0.17200000000E+03 0. -1.
         -6    1    1    2    0  501  0.67327263582E+02 -0.34244026107E+02 -0.51178566445E+03  0.54517353208E+03  0.17200000000E+03 0.  1.
</event>
<event>
 4    1  0.3205520E-002  0.2014639E+03  0.7818608E-02  0.1148510E+00
         -2   -1    0    0    0  501 -0.00000000000E+00  0.00000000000E+00  0.64058399708E+02  0.64058399708E+02  0.00000000000E+00 0.  1.
          2   -1    0    0  502    0  0.00000000000E+00 -0.00000000000E+00 -0.63455625956E+03  0.63455625956E+03  0.00000000000E+00 0. -1.
          6    1    1    2  502    0  0.98077464647E+02  0.37209168432E+02 -0.29877468622E+03  0.36035263897E+03  0.17200000000E+03 0.  1.
         -6    1    1    2    0  501 -0.98077464647E+02 -0.37209168432E+02 -0.27172317364E+03  0.33826202030E+03  0.17200000000E+03 0.  1.
</event>
<event>
 4    1  0.3205520E-002  0.1781352E+03  0.7818608E-02  0.1169620E+00
          2   -1    0    0  502    0  0.00000000000E+00  0.00000000000E+00  0.11092908626E+04  0.11092908626E+04  0.00000000000E+00 0. -1.
         -2   -1    0    0    0  501 -0.00000000000E+00 -0.00000000000E+00 -0.13644934111E+03  0.13644934111E+03  0.00000000000E+00 0.  1.
          6    1    1    2  502    0  0.45359945220E+02 -0.95196132089E+01  0.10401645169E+04  0.10553077134E+04  0.17200000000E+03 0. -1.
         -6    1    1    2    0  501 -0.45359945220E+02  0.95196132089E+01 -0.67322995416E+02  0.19043249034E+03  0.17200000000E+03 0.  1.
</event>
<event>
 4    1  0.3205520E-002  0.1796869E+03  0.7818608E-02  0.1168106E+00
          4   -1    0    0  502    0  0.00000000000E+00  0.00000000000E+00  0.51686919623E+03  0.51686919623E+03  0.00000000000E+00 0. -1.
         -4   -1    0    0    0  501 -0.00000000000E+00 -0.00000000000E+00 -0.66504627255E+02  0.66504627255E+02  0.00000000000E+00 0.  1.
          6    1    1    2  502    0  0.49691140352E+02  0.15302411404E+02  0.15331302310E+03  0.23620384475E+03  0.17200000000E+03 0.  1.
         -6    1    1    2    0  501 -0.49691140352E+02 -0.15302411404E+02  0.29705154587E+03  0.34716997873E+03  0.17200000000E+03 0.  1.
</event>
<event>
 4    1  0.3205520E-002  0.3585264E+03  0.7818608E-02  0.1059169E+00
          2   -1    0    0  502    0  0.00000000000E+00  0.00000000000E+00  0.94358439220E+03  0.94358439220E+03  0.00000000000E+00 0. -1.
         -2   -1    0    0    0  501 -0.00000000000E+00 -0.00000000000E+00 -0.25821891519E+03  0.25821891519E+03  0.00000000000E+00 0.  1.
          6    1    1    2  502    0 -0.19298788809E+03  0.24842079180E+03  0.75570718560E+03  0.83644160891E+03  0.17200000000E+03 0. -1.
         -6    1    1    2    0  501  0.19298788809E+03 -0.24842079180E+03 -0.70341708598E+02  0.36536169848E+03  0.17200000000E+03 0.  1.
</event>
<event>
 4    1  0.3205520E-002  0.1867163E+03  0.7818608E-02  0.1161457E+00
          1   -1    0    0  502    0  0.00000000000E+00  0.00000000000E+00  0.10606236808E+04  0.10606236808E+04  0.00000000000E+00 0. -1.
         -1   -1    0    0    0  501 -0.00000000000E+00 -0.00000000000E+00 -0.35609717629E+02  0.35609717629E+02  0.00000000000E+00 0.  1.
          6    1    1    2  502    0 -0.62051270025E+02  0.37797062059E+02  0.66453405088E+03  0.69026696487E+03  0.17200000000E+03 0. -1.
         -6    1    1    2    0  501  0.62051270025E+02 -0.37797062059E+02  0.36047991230E+03  0.40596643357E+03  0.17200000000E+03 0.  1.
</event>
<event>
 4    1  0.3205520E-002  0.1748668E+03  0.7818608E-02  0.1172866E+00
          3   -1    0    0  502    0  0.00000000000E+00  0.00000000000E+00  0.18699812100E+03  0.18699812100E+03  0.00000000000E+00 0. -1.
         -3   -1    0    0    0  501 -0.00000000000E+00 -0.00000000000E+00 -0.37335109656E+03  0.37335109656E+03  0.00000000000E+00 0.  1.
          6    1    1    2  502    0  0.30079009461E+02  0.94680372781E+01  0.11686372530E+03  0.21032242113E+03  0.17200000000E+03 0. -1.
         -6    1    1    2    0  501 -0.30079009461E+02 -0.94680372781E+01 -0.30321670085E+03  0.35002679643E+03  0.17200000000E+03 0.  1.
</event>
<event>
 4    1  0.3205520E-002  0.1936620E+03  0.7818608E-02  0.1155199E+00
          2   -1    0    0  502    0  0.00000000000E+00  0.00000000000E+00  0.14161579930E+04  0.14161579930E+04  0.00000000000E+00 0. -1.
         -2   -1    0    0    0  501 -0.00000000000E+00 -0.00000000000E+00 -0.28675561383E+02  0.28675561383E+02  0.00000000000E+00 0.  1.
          6    1    1    2  502    0 -0.51186005571E+02 -0.72807839308E+02  0.89347265580E+03  0.91422009128E+03  0.17200000000E+03 0. -1.
         -6    1    1    2    0  501  0.51186005571E+02  0.72807839308E+02  0.49400977586E+03  0.53061346315E+03  0.17200000000E+03 0.  1.
</event>
<event>
 4    1  0.3205520E-002  0.1796700E+03  0.7818608E-02  0.1168123E+00
          2   -1    0    0  502    0  0.00000000000E+00  0.00000000000E+00  0.18634757698E+04  0.18634757698E+04  0.00000000000E+00 0. -1.
         -2   -1    0    0    0  501 -0.00000000000E+00 -0.00000000000E+00 -0.22410836371E+02  0.22410836371E+02  0.00000000000E+00 0.  1.
          6    1    1    2  502    0  0.49819647988E+02  0.14673753230E+02  0.47125394360E+03  0.50434273636E+03  0.17200000000E+03 0.  1.
         -6    1    1    2    0  501 -0.49819647988E+02 -0.14673753230E+02  0.13698109898E+04  0.13815438698E+04  0.17200000000E+03 0. -1.
</event>
<event>
 4    1  0.3205520E-002  0.3007209E+03  0.7818608E-02  0.1084881E+00
          2   -1    0    0  502    0  0.00000000000E+00  0.00000000000E+00  0.13037748584E+04  0.13037748584E+04  0.00000000000E+00 0. -1.
         -2   -1    0    0    0  501 -0.00000000000E+00 -0.00000000000E+00 -0.98641568991E+02  0.98641568991E+02  0.00000000000E+00 0.  1.
          6    1    1    2  502    0  0.63909416989E+02 -0.23825330048E+03  0.98459521098E+03  0.10294953998E+04  0.17200000000E+03 0. -1.
         -6    1    1    2    0  501 -0.63909416989E+02  0.23825330048E+03  0.22053807844E+03  0.37292102758E+03  0.17200000000E+03 0.  1.
</event>
<event>
 4    1  0.3205520E-002  0.1760217E+03  0.7818608E-02  0.1171710E+00
         -2   -1    0    0    0  501 -0.00000000000E+00  0.00000000000E+00  0.72190296989E+02  0.72190296989E+02  0.00000000000E+00 0.  1.
          2   -1    0    0  502    0  0.00000000000E+00 -0.00000000000E+00 -0.18409007369E+04  0.18409007369E+04  0.00000000000E+00 0. -1.
          6    1    1    2  502    0  0.37411262084E+02  0.17596459176E+00 -0.17220054600E+04  0.17309784625E+04  0.17200000000E+03 0. -1.
         -6    1    1    2    0  501 -0.37411262084E+02 -0.17596459176E+00 -0.46704979903E+02  0.18211257135E+03  0.17200000000E+03 0.  1.
</event>
<event>
 4    1  0.3205520E-002  0.1857333E+03  0.7818608E-02  0.1162367E+00
          2   -1    0    0  502    0  0.00000000000E+00  0.00000000000E+00  0.47273947609E+03  0.47273947609E+03  0.00000000000E+00 0. -1.
         -2   -1    0    0    0  501 -0.00000000000E+00 -0.00000000000E+00 -0.72979032246E+02  0.72979032246E+02  0.00000000000E+00 0.  1.
          6    1    1    2  502    0  0.61852957873E+01 -0.69818215378E+02  0.20251972070E+03  0.27479279167E+03  0.17200000000E+03 0.  1.
         -6    1    1    2    0  501 -0.61852957873E+01  0.69818215378E+02  0.19724072314E+03  0.27092571666E+03  0.17200000000E+03 0. -1.
</event>
<event>
 4    1  0.3205520E-002  0.2207240E+03  0.7818608E-02  0.1133344E+00
         -1   -1    0    0    0  501 -0.00000000000E+00  0.00000000000E+00  0.37947450068E+02  0.37947450068E+02  0.00000000000E+00 0.  1.
          1   -1    0    0  502    0  0.00000000000E+00 -0.00000000000E+00 -0.12966487577E+04  0.12966487577E+04  0.00000000000E+00 0. -1.
          6    1    1    2  502    0 -0.12083836242E+03 -0.67328812254E+02 -0.69563073759E+03  0.72980901740E+03  0.17200000000E+03 0. -1.
         -6    1    1    2    0  501  0.12083836242E+03  0.67328812254E+02 -0.56307057005E+03  0.60478719038E+03  0.17200000000E+03 0.  1.
</event>
<event>
 4    1  0.3205520E-002  0.3142410E+03  0.7818608E-02  0.1078331E+00
         -2   -1    0    0    0  501 -0.00000000000E+00  0.00000000000E+00  0.18529639703E+03  0.18529639703E+03  0.00000000000E+00 0.  1.
          2   -1    0    0  502    0  0.00000000000E+00 -0.00000000000E+00 -0.54360725418E+03  0.54360725418E+03  0.00000000000E+00 0. -1.
          6    1    1    2  502    0  0.26298887101E+03  0.48244093654E+00 -0.23026658978E+03  0.38957679781E+03  0.17200000000E+03 0. -1.
         -6    1    1    2    0  501 -0.26298887101E+03 -0.48244093654E+00 -0.12804426737E+03  0.33932685339E+03  0.17200000000E+03 0.  1.
</event>
<event>
 4    1  0.3205520E-002  0.2609393E+03  0.7818608E-02  0.1106580E+00
         -3   -1    0    0    0  501 -0.00000000000E+00  0.00000000000E+00  0.12683441335E+03  0.12683441335E+03  0.00000000000E+00 0.  1.
          3   -1    0    0  502    0  0.00000000000E+00 -0.00000000000E+00 -0.69106478057E+03  0.69106478057E+03  0.00000000000E+00 0. -1.
          6    1    1    2  502    0 -0.78141062339E+02  0.17999807336E+03 -0.88921675152E+02  0.27567443906E+03  0.17200000000E+03 0. -1.
         -6    1    1    2    0  501  0.78141062339E+02 -0.17999807336E+03 -0.47530869206E+03  0.54222475486E+03  0.17200000000E+03 0.  1.
</event>
<event>
 4    1  0.3205520E-002  0.2812120E+03  0.7818608E-02  0.1095029E+00
          2   -1    0    0  502    0  0.00000000000E+00  0.00000000000E+00  0.10949576646E+04  0.10949576646E+04  0.00000000000E+00 0. -1.
         -2   -1    0    0    0  501 -0.00000000000E+00 -0.00000000000E+00 -0.27903917906E+03  0.27903917906E+03  0.00000000000E+00 0.  1.
          6    1    1    2  502    0  0.21856746655E+03 -0.41526572408E+02  0.99940687449E+03  0.10382168822E+04  0.17200000000E+03 0. -1.
         -6    1    1    2    0  501 -0.21856746655E+03  0.41526572408E+02 -0.18348838896E+03  0.33577996148E+03  0.17200000000E+03 0.  1.
</event>
<event>
 4    1  0.3205520E-002  0.3092576E+03  0.7818608E-02  0.1080702E+00
         -2   -1    0    0    0  501 -0.00000000000E+00  0.00000000000E+00  0.24252803682E+03  0.24252803682E+03  0.00000000000E+00 0.  1.
          2   -1    0    0  502    0  0.00000000000E+00 -0.00000000000E+00 -0.12972938768E+04  0.12972938768E+04  0.00000000000E+00 0. -1.
          6    1    1    2  502    0  0.29923818745E+02 -0.25526614747E+03 -0.11697043019E+04  0.12098960265E+04  0.17200000000E+03 0. -1.
         -6    1    1    2    0  501 -0.29923818745E+02  0.25526614747E+03  0.11493846194E+03  0.32992588714E+03  0.17200000000E+03 0.  1.
</event>
<event>
 4    1  0.3205520E-002  0.1875692E+03  0.7818608E-02  0.1160672E+00
          2   -1    0    0  502    0  0.00000000000E+00  0.00000000000E+00  0.30154678081E+03  0.30154678081E+03  0.00000000000E+00 0. -1.
         -2   -1    0    0    0  501 -0.00000000000E+00 -0.00000000000E+00 -0.11667767377E+03  0.11667767377E+03  0.00000000000E+00 0.  1.
          6    1    1    2  502    0  0.69446029376E+02 -0.27846648553E+02  0.93840336972E+02  0.20973363029E+03  0.17200000000E+03 0.  1.
         -6    1    1    2    0  501 -0.69446029376E+02  0.27846648553E+02  0.91028770076E+02  0.20849082429E+03  0.17200000000E+03 0.  1.
</event>
<event>
 4    1  0.3205520E-002  0.2618541E+03  0.7818608E-02  0.1106034E+00
         -2   -1    0    0    0  501 -0.00000000000E+00  0.00000000000E+00  0.10344075553E+03  0.10344075553E+03  0.00000000000E+00 0.  1.
          2   -1    0    0  502    0  0.00000000000E+00 -0.00000000000E+00 -0.90175519237E+03  0.90175519237E+03  0.00000000000E+00 0. -1.
          6    1    1    2  502    0  0.17241484528E+03  0.96211764599E+02 -0.14047135147E+03  0.29715279421E+03  0.17200000000E+03 0.  1.
         -6    1    1    2    0  501 -0.17241484528E+03 -0.96211764599E+02 -0.65784308537E+03  0.70804315369E+03  0.17200000000E+03 0. -1.
</event>
<event>
 4    1  0.3205520E-002  0.1821755E+03  0.7818608E-02  0.1165714E+00
          2   -1    0    0  502    0  0.00000000000E+00  0.00000000000E+00  0.55861848824E+03  0.55861848824E+03  0.00000000000E+00 0. -1.
         -2   -1    0    0    0  501 -0.00000000000E+00 -0.00000000000E+00 -0.16087332891E+03  0.16087332891E+03  0.00000000000E+00 0.  1.
          6    1    1    2  502    0 -0.39063443680E+02  0.45584459058E+02  0.48457042864E+03  0.51768368320E+03  0.17200000000E+03 0. -1.
         -6    1    1    2    0  501  0.39063443680E+02 -0.45584459058E+02 -0.86825269299E+02  0.20180813395E+03  0.17200000000E+03 0.  1.
</event>
<event>
 4    1  0.3205520E-002  0.3625345E+03  0.7818608E-02  0.1057585E+00
          1   -1    0    0  502    0  0.00000000000E+00  0.00000000000E+00  0.93248886736E+03  0.93248886736E+03  0.00000000000E+00 0. -1.
         -1   -1    0    0    0  501 -0.00000000000E+00 -0.00000000000E+00 -0.15668518140E+03  0.15668518140E+03  0.00000000000E+00 0.  1.
          6    1    1    2  502    0 -0.30045151149E+03  0.10759262284E+03  0.21530456916E+03  0.42164836148E+03  0.17200000000E+03 0. -1.
         -6    1    1    2    0  501  0.30045151149E+03 -0.10759262284E+03  0.56049911680E+03  0.66752568728E+03  0.17200000000E+03 0.  1.
</event>
<event>
 4    1  0.3205520E-002  0.1822072E+03  0.7818608E-02  0.1165684E+00
          2   -1    0    0  502    0  0.00000000000E+00  0.00000000000E+00  0.15663609773E+04  0.15663609773E+04  0.00000000000E+00 0. -1.
         -2   -1    0    0    0  501 -0.00000000000E+00 -0.00000000000E+00 -0.27342707487E+02  0.27342707487E+02  0.00000000000E+00 0.  1.
          6    1    1    2  502    0  0.68090783509E+01  0.59741799520E+02  0.39167270329E+03  0.43198026883E+03  0.17200000000E+03 0.  1.
         -6    1    1    2    0  501 -0.68090783509E+01 -0.59741799520E+02  0.11473455666E+04  0.11617234160E+04  0.17200000000E+03 0. -1.
</event>
<event>
 4    1  0.3205520E-002  0.2015326E+03  0.7818608E-02  0.1148452E+00
         -2   -1    0    0    0  501 -0.00000000000E+00  0.00000000000E+00  0.53668910703E+02  0.53668910703E+02  0.00000000000E+00 0.  1.
          2   -1    0    0  502    0  0.00000000000E+00 -0.00000000000E+00 -0.81510431011E+03  0.81510431011E+03  0.00000000000E+00 0. -1.
          6    1    1    2  502    0 -0.10025670574E+03 -0.31304976151E+02 -0.49691740394E+03  0.53622972215E+03  0.17200000000E+03 0. -1.
         -6    1    1    2    0  501  0.10025670574E+03  0.31304976151E+02 -0.26451799546E+03  0.33254349866E+03  0.17200000000E+03 0.  1.
</event>
<event>
 4    1  0.3205520E-002  0.3073079E+03  0.7818608E-02  0.1081643E+00
          2   -1    0    0  502    0  0.00000000000E+00  0.00000000000E+00  0.11789252271E+03  0.11789252271E+03  0.00000000000E+00 0. -1.
         -2   -1    0    0    0  501 -0.00000000000E+00 -0.00000000000E+00 -0.11440174629E+04  0.11440174629E+04  0.00000000000E+00 0.  1.
          6    1    1    2  502    0  0.22461880927E+03  0.12000224545E+03 -0.16759538762E+03  0.35003765847E+03  0.17200000000E+03 0. -1.
         -6    1    1    2    0  501 -0.22461880927E+03 -0.12000224545E+03 -0.85852955256E+03  0.91187232714E+03  0.17200000000E+03 0.  1.
</event>
<event>
 4    1  0.3205520E-002  0.2520976E+03  0.7818608E-02  0.1111986E+00
          3   -1    0    0  502    0  0.00000000000E+00  0.00000000000E+00  0.82142986010E+03  0.82142986010E+03  0.00000000000E+00 0. -1.
         -3   -1    0    0    0  501 -0.00000000000E+00 -0.00000000000E+00 -0.11759991588E+03  0.11759991588E+03  0.00000000000E+00 0.  1.
          6    1    1    2  502    0 -0.18065878169E+03 -0.36491192583E+02  0.62653098070E+03  0.67534751966E+03  0.17200000000E+03 0. -1.
         -6    1    1    2    0  501  0.18065878169E+03  0.36491192583E+02  0.77298963512E+02  0.26368225632E+03  0.17200000000E+03 0.  1.
</event>
<event>
 4    1  0.3205520E-002  0.2835276E+03  0.7818608E-02  0.1093778E+00
         -3   -1    0    0    0  501 -0.00000000000E+00  0.00000000000E+00  0.40325017624E+03  0.40325017624E+03  0.00000000000E+00 0.  1.
          3   -1    0    0  502    0  0.00000000000E+00 -0.00000000000E+00 -0.19983619953E+03  0.19983619953E+03  0.00000000000E+00 0. -1.
          6    1    1    2  502    0  0.22174949211E+03  0.40386140589E+02  0.86831556689E+02  0.29652587887E+03  0.17200000000E+03 0. -1.
         -6    1    1    2    0  501 -0.22174949211E+03 -0.40386140589E+02  0.11658242002E+03  0.30656049690E+03  0.17200000000E+03 0.  1.
</event>
<event>
 4    1  0.3205520E-002  0.7439344E+03  0.7818608E-02  0.9644915E-01
          2   -1    0    0  502    0  0.00000000000E+00  0.00000000000E+00  0.12289062520E+04  0.12289062520E+04  0.00000000000E+00 0. -1.
         -2   -1    0    0    0  501 -0.00000000000E+00 -0.00000000000E+00 -0.55751793584E+03  0.55751793584E+03  0.00000000000E+00 0.  1.
          6    1    1    2  502    0  0.40914092593E+03  0.59704114196E+03  0.72730688276E+03  0.10403911400E+04  0.17200000000E+03 0. -1.
         -6    1    1    2    0  501 -0.40914092593E+03 -0.59704114196E+03 -0.55918566546E+02  0.74603304789E+03  0.17200000000E+03 0.  1.
</event>
<event>
 4    1  0.3205520E-002  0.3436597E+03  0.7818608E-02  0.1065248E+00
         -1   -1    0    0    0  501 -0.00000000000E+00  0.00000000000E+00  0.21410670943E+03  0.21410670943E+03  0.00000000000E+00 0.  1.
          1   -1    0    0  502    0  0.00000000000E+00 -0.00000000000E+00 -0.92210179579E+03  0.92210179579E+03  0.00000000000E+00 0. -1.
          6    1    1    2  502    0 -0.12840436971E+03 -0.26838457491E+03 -0.71410477680E+03  0.79249453907E+03  0.17200000000E+03 0. -1.
         -6    1    1    2    0  501  0.12840436971E+03  0.26838457491E+03  0.61096904444E+01  0.34371396615E+03  0.17200000000E+03 0.  1.
</event>
<event>
 4    1  0.3205520E-002  0.2756787E+03  0.7818608E-02  0.1098073E+00
          1   -1    0    0  502    0  0.00000000000E+00  0.00000000000E+00  0.88691320923E+03  0.88691320923E+03  0.00000000000E+00 0. -1.
         -1   -1    0    0    0  501 -0.00000000000E+00 -0.00000000000E+00 -0.16517952385E+03  0.16517952385E+03  0.00000000000E+00 0.  1.
          6    1    1    2  502    0 -0.21541654693E+03  0.32299772559E+01 -0.40581031116E+01  0.27570852298E+03  0.17200000000E+03 0.  1.
         -6    1    1    2    0  501  0.21541654693E+03 -0.32299772559E+01  0.72579178849E+03  0.77638421010E+03  0.17200000000E+03 0. -1.
</event>
<event>
 4    1  0.3205520E-002  0.2247185E+03  0.7818608E-02  0.1130413E+00
         -2   -1    0    0    0  501 -0.00000000000E+00  0.00000000000E+00  0.69242387024E+02  0.69242387024E+02  0.00000000000E+00 0.  1.
          2   -1    0    0  502    0  0.00000000000E+00 -0.00000000000E+00 -0.85934238132E+03  0.85934238132E+03  0.00000000000E+00 0. -1.
          6    1    1    2  502    0  0.71749497973E+00  0.14461634999E+03 -0.57566448097E+03  0.61797087159E+03  0.17200000000E+03 0. -1.
         -6    1    1    2    0  501 -0.71749497973E+00 -0.14461634999E+03 -0.21443551333E+03  0.31061389676E+03  0.17200000000E+03 0. -1.
</event>
<event>
 4    1  0.3205520E-002  0.3159814E+03  0.7818608E-02  0.1077514E+00
         -2   -1    0    0    0  501 -0.00000000000E+00  0.00000000000E+00  0.44706342718E+02  0.44706342718E+02  0.00000000000E+00 0.  1.
          2   -1    0    0  502    0  0.00000000000E+00 -0.00000000000E+00 -0.26302733877E+04  0.26302733877E+04  0.00000000000E+00 0. -1.
          6    1    1    2  502    0 -0.15456726252E+03 -0.21533517073E+03 -0.18123620360E+04  0.18397011779E+04  0.17200000000E+03 0. -1.
         -6    1    1    2    0  501  0.15456726252E+03  0.21533517073E+03 -0.77320500897E+03  0.83527855251E+03  0.17200000000E+03 0.  1.
</event>
<event>
 4    1  0.3205520E-002  0.3594453E+03  0.7818608E-02  0.1058804E+00
         -1   -1    0    0    0  501 -0.00000000000E+00  0.00000000000E+00  0.11363224980E+03  0.11363224980E+03  0.00000000000E+00 0.  1.
          1   -1    0    0  502    0  0.00000000000E+00 -0.00000000000E+00 -0.15874610674E+04  0.15874610674E+04  0.00000000000E+00 0. -1.
          6    1    1    2  502    0  0.81463578355E+02 -0.30492720444E+03 -0.28383868581E+03  0.45800143468E+03  0.17200000000E+03 0. -1.
         -6    1    1    2    0  501 -0.81463578355E+02  0.30492720444E+03 -0.11899901318E+04  0.12430918826E+04  0.17200000000E+03 0.  1.
</event>
<event>
 4    1  0.3205520E-002  0.2564951E+03  0.7818608E-02  0.1109268E+00
         -2   -1    0    0    0  501 -0.00000000000E+00  0.00000000000E+00  0.14687247109E+03  0.14687247109E+03  0.00000000000E+00 0.  1.
          2   -1    0    0  502    0  0.00000000000E+00 -0.00000000000E+00 -0.45264459360E+03  0.45264459360E+03  0.00000000000E+00 0. -1.
          6    1    1    2  502    0 -0.19020771579E+03  0.51716030114E+01 -0.18345348966E+03  0.31534885998E+03  0.17200000000E+03 0. -1.
         -6    1    1    2    0  501  0.19020771579E+03 -0.51716030114E+01 -0.12231863285E+03  0.28416820471E+03  0.17200000000E+03 0.  1.
</event>
<event>
 4    1  0.3205520E-002  0.2328636E+03  0.7818608E-02  0.1124640E+00
          1   -1    0    0  502    0  0.00000000000E+00  0.00000000000E+00  0.21908989677E+03  0.21908989677E+03  0.00000000000E+00 0. -1.
         -1   -1    0    0    0  501 -0.00000000000E+00 -0.00000000000E+00 -0.25134675441E+03  0.25134675441E+03  0.00000000000E+00 0.  1.
          6    1    1    2  502    0  0.11494422375E+03  0.10690783329E+03 -0.45215416493E+02  0.23721275952E+03  0.17200000000E+03 0. -1.
         -6    1    1    2    0  501 -0.11494422375E+03 -0.10690783329E+03  0.12958558855E+02  0.23322389165E+03  0.17200000000E+03 0.  1.
</event>
<event>
 4    1  0.3205520E-002  0.4287944E+03  0.7818608E-02  0.1034241E+00
          1   -1    0    0  502    0  0.00000000000E+00  0.00000000000E+00  0.96124223158E+03  0.96124223158E+03  0.00000000000E+00 0. -1.
         -1   -1    0    0    0  501 -0.00000000000E+00 -0.00000000000E+00 -0.29015402430E+03  0.29015402430E+03  0.00000000000E+00 0.  1.
          6    1    1    2  502    0 -0.38357611626E+03 -0.84557884282E+02  0.70079865831E+03  0.82157375339E+03  0.17200000000E+03 0. -1.
         -6    1    1    2    0  501  0.38357611626E+03  0.84557884282E+02 -0.29710451033E+02  0.42982250250E+03  0.17200000000E+03 0.  1.
</event>
<event>
 4    1  0.3205520E-002  0.1967283E+03  0.7818608E-02  0.1152529E+00
          2   -1    0    0  502    0  0.00000000000E+00  0.00000000000E+00  0.12304428347E+03  0.12304428347E+03  0.00000000000E+00 0. -1.
         -2   -1    0    0    0  501 -0.00000000000E+00 -0.00000000000E+00 -0.40422627649E+03  0.40422627649E+03  0.00000000000E+00 0.  1.
          6    1    1    2  502    0 -0.84583282132E+02  0.44313741226E+02 -0.16408511325E+02  0.19741144476E+03  0.17200000000E+03 0. -1.
         -6    1    1    2    0  501  0.84583282132E+02 -0.44313741226E+02 -0.26477348169E+03  0.32985911520E+03  0.17200000000E+03 0.  1.
</event>
<event>
 4    1  0.3205520E-002  0.1808368E+03  0.7818608E-02  0.1166996E+00
          2   -1    0    0  502    0  0.00000000000E+00  0.00000000000E+00  0.16435544468E+04  0.16435544468E+04  0.00000000000E+00 0. -1.
         -2   -1    0    0    0  501 -0.00000000000E+00 -0.00000000000E+00 -0.82941941136E+02  0.82941941136E+02  0.00000000000E+00 0.  1.
          6    1    1    2  502    0 -0.11931882846E+02 -0.54548987914E+02  0.15329221184E+04  0.15435518077E+04  0.17200000000E+03 0. -1.
         -6    1    1    2    0  501  0.11931882846E+02  0.54548987914E+02  0.27690387303E+02  0.18294458030E+03  0.17200000000E+03 0.  1.
</event>
<event>
 4    1  0.3205520E-002  0.4109606E+03  0.7818608E-02  0.1040049E+00
          4   -1    0    0  502    0  0.00000000000E+00  0.00000000000E+00  0.16140732943E+04  0.16140732943E+04  0.00000000000E+00 0. -1.
         -4   -1    0    0    0  501 -0.00000000000E+00 -0.00000000000E+00 -0.11900290505E+03  0.11900290505E+03  0.00000000000E+00 0.  1.
          6    1    1    2  502    0 -0.48670638414E+02 -0.37004840507E+03  0.10486310138E+04  0.11262840034E+04  0.17200000000E+03 0. -1.
         -6    1    1    2    0  501  0.48670638414E+02  0.37004840507E+03  0.44643937541E+03  0.60679219594E+03  0.17200000000E+03 0.  1.
</event>
<event>
 4    1  0.3205520E-002  0.2011456E+03  0.7818608E-02  0.1148776E+00
         -1   -1    0    0    0  501 -0.00000000000E+00  0.00000000000E+00  0.60404697096E+02  0.60404697096E+02  0.00000000000E+00 0.  1.
          1   -1    0    0  502    0  0.00000000000E+00 -0.00000000000E+00 -0.74527505817E+03  0.74527505817E+03  0.00000000000E+00 0. -1.
          6    1    1    2  502    0  0.61099244789E+02  0.84512837060E+02 -0.47062497298E+03  0.51180797427E+03  0.17200000000E+03 0. -1.
         -6    1    1    2    0  501 -0.61099244789E+02 -0.84512837060E+02 -0.21424538810E+03  0.29387178099E+03  0.17200000000E+03 0.  1.
</event>
<event>
 4    1  0.3205520E-002  0.3105017E+03  0.7818608E-02  0.1080106E+00
         -1   -1    0    0    0  501 -0.00000000000E+00  0.00000000000E+00  0.26164046926E+03  0.26164046926E+03  0.00000000000E+00 0.  1.
          1   -1    0    0  502    0  0.00000000000E+00 -0.00000000000E+00 -0.48614716132E+03  0.48614716132E+03  0.00000000000E+00 0. -1.
          6    1    1    2  502    0  0.13365587584E+03  0.22127679291E+03  0.71687300577E+02  0.31866970564E+03  0.17200000000E+03 0.  1.
         -6    1    1    2    0  501 -0.13365587584E+03 -0.22127679291E+03 -0.29619399264E+03  0.42911792494E+03  0.17200000000E+03 0. -1.
</event>
<event>
 4    1  0.3205520E-002  0.2648639E+03  0.7818608E-02  0.1104256E+00
          2   -1    0    0  502    0  0.00000000000E+00  0.00000000000E+00  0.46107733850E+04  0.46107733850E+04  0.00000000000E+00 0. -1.
         -2   -1    0    0    0  501 -0.00000000000E+00 -0.00000000000E+00 -0.45621160983E+02  0.45621160983E+02  0.00000000000E+00 0.  1.
          6    1    1    2  502    0 -0.19957318849E+03  0.27192423930E+02  0.41832930889E+04  0.41916695902E+04  0.17200000000E+03 0. -1.
         -6    1    1    2    0  501  0.19957318849E+03 -0.27192423930E+02  0.38185913510E+03  0.46472495580E+03  0.17200000000E+03 0.  1.
</event>
<event>
 4    1  0.3205520E-002  0.6127816E+03  0.7818608E-02  0.9879238E-01
         -2   -1    0    0    0  501 -0.00000000000E+00  0.00000000000E+00  0.26025900923E+03  0.26025900923E+03  0.00000000000E+00 0.  1.
          2   -1    0    0  502    0  0.00000000000E+00 -0.00000000000E+00 -0.17473433367E+04  0.17473433367E+04  0.00000000000E+00 0. -1.
          6    1    1    2  502    0 -0.43366161595E+03  0.39730950244E+03 -0.11626100559E+04  0.13142158802E+04  0.17200000000E+03 0. -1.
         -6    1    1    2    0  501  0.43366161595E+03 -0.39730950244E+03 -0.32447427164E+03  0.69338646571E+03  0.17200000000E+03 0.  1.
</event>
<event>
 4    1  0.3205520E-002  0.2835017E+03  0.7818608E-02  0.1093792E+00
         -2   -1    0    0    0  501 -0.00000000000E+00  0.00000000000E+00  0.14233169570E+03  0.14233169570E+03  0.00000000000E+00 0.  1.
          2   -1    0    0  502    0  0.00000000000E+00 -0.00000000000E+00 -0.10934022357E+04  0.10934022357E+04  0.00000000000E+00 0. -1.
          6    1    1    2  502    0  0.12704547381E+03  0.18614143674E+03 -0.90518541420E+03  0.94854299901E+03  0.17200000000E+03 0. -1.
         -6    1    1    2    0  501 -0.12704547381E+03 -0.18614143674E+03 -0.45885125810E+02  0.28719093241E+03  0.17200000000E+03 0.  1.
</event>
<event>
 4    1  0.3205520E-002  0.2513144E+03  0.7818608E-02  0.1112477E+00
          1   -1    0    0  502    0  0.00000000000E+00  0.00000000000E+00  0.17043573644E+03  0.17043573644E+03  0.00000000000E+00 0. -1.
         -1   -1    0    0    0  501 -0.00000000000E+00 -0.00000000000E+00 -0.10652507155E+04  0.10652507155E+04  0.00000000000E+00 0.  1.
          6    1    1    2  502    0 -0.17399534000E+03 -0.57450349931E+02  0.51527526563E+02  0.25654240788E+03  0.17200000000E+03 0. -1.
         -6    1    1    2    0  501  0.17399534000E+03  0.57450349931E+02 -0.94634250564E+03  0.97914404407E+03  0.17200000000E+03 0.  1.
</event>
<event>
 4    1  0.3205520E-002  0.4081094E+03  0.7818608E-02  0.1041007E+00
         -2   -1    0    0    0  501 -0.00000000000E+00  0.00000000000E+00  0.25205413757E+03  0.25205413757E+03  0.00000000000E+00 0.  1.
          2   -1    0    0  502    0  0.00000000000E+00 -0.00000000000E+00 -0.73277655713E+03  0.73277655713E+03  0.00000000000E+00 0. -1.
          6    1    1    2  502    0 -0.81803470354E+01 -0.37000316872E+03 -0.39470548782E+03  0.56775495159E+03  0.17200000000E+03 0. -1.
         -6    1    1    2    0  501  0.81803470354E+01  0.37000316872E+03 -0.86016931744E+02  0.41707574311E+03  0.17200000000E+03 0.  1.
</event>
<event>
 4    1  0.3205520E-002  0.2840558E+03  0.7818608E-02  0.1093494E+00
          1   -1    0    0  502    0  0.00000000000E+00  0.00000000000E+00  0.24913320205E+03  0.24913320205E+03  0.00000000000E+00 0. -1.
         -1   -1    0    0    0  501 -0.00000000000E+00 -0.00000000000E+00 -0.35486799699E+03  0.35486799699E+03  0.00000000000E+00 0.  1.
          6    1    1    2  502    0 -0.18530210057E+03  0.12948684485E+03  0.36383940112E+02  0.28637650491E+03  0.17200000000E+03 0. -1.
         -6    1    1    2    0  501  0.18530210057E+03 -0.12948684485E+03 -0.14211873506E+03  0.31762469413E+03  0.17200000000E+03 0.  1.
</event>
<event>
 4    1  0.3205520E-002  0.4816396E+03  0.7818608E-02  0.1018686E+00
         -2   -1    0    0    0  501 -0.00000000000E+00  0.00000000000E+00  0.10116899315E+03  0.10116899315E+03  0.00000000000E+00 0.  1.
          2   -1    0    0  502    0  0.00000000000E+00 -0.00000000000E+00 -0.23450708992E+04  0.23450708992E+04  0.00000000000E+00 0. -1.
          6    1    1    2  502    0 -0.88324751403E+02 -0.44112520585E+03 -0.93962652298E+03  0.10558762767E+04  0.17200000000E+03 0.  1.
         -6    1    1    2    0  501  0.88324751403E+02  0.44112520585E+03 -0.13042753831E+04  0.13903636157E+04  0.17200000000E+03 0.  1.
</event>
<event>
 4    1  0.3205520E-002  0.2173055E+03  0.7818608E-02  0.1135908E+00
          1   -1    0    0  502    0  0.00000000000E+00  0.00000000000E+00  0.47257526759E+03  0.47257526759E+03  0.00000000000E+00 0. -1.
         -1   -1    0    0    0  501 -0.00000000000E+00 -0.00000000000E+00 -0.11134041455E+03  0.11134041455E+03  0.00000000000E+00 0.  1.
          6    1    1    2  502    0  0.58658752220E+02  0.11915037160E+03  0.27410558614E+03  0.34979355714E+03  0.17200000000E+03 0.  1.
         -6    1    1    2    0  501 -0.58658752220E+02 -0.11915037160E+03  0.87129266894E+02  0.23412212500E+03  0.17200000000E+03 0.  1.
</event>
<event>
 4    1  0.3205520E-002  0.2270651E+03  0.7818608E-02  0.1128723E+00
          1   -1    0    0  502    0  0.00000000000E+00  0.00000000000E+00  0.51087029931E+03  0.51087029931E+03  0.00000000000E+00 0. -1.
         -1   -1    0    0    0  501 -0.00000000000E+00 -0.00000000000E+00 -0.15549547043E+03  0.15549547043E+03  0.00000000000E+00 0.  1.
          6    1    1    2  502    0 -0.11886642537E+03  0.88573939108E+02 -0.19695959852E+02  0.22791774965E+03  0.17200000000E+03 0. -1.
         -6    1    1    2    0  501  0.11886642537E+03 -0.88573939108E+02  0.37507078872E+03  0.43844802009E+03  0.17200000000E+03 0. -1.
</event>
<event>
 4    1  0.3205520E-002  0.6252079E+03  0.7818608E-02  0.9854445E-01
         -2   -1    0    0    0  501 -0.00000000000E+00  0.00000000000E+00  0.37629211662E+03  0.37629211662E+03  0.00000000000E+00 0.  1.
          2   -1    0    0  502    0  0.00000000000E+00 -0.00000000000E+00 -0.18251508582E+04  0.18251508582E+04  0.00000000000E+00 0. -1.
          6    1    1    2  502    0 -0.36109007602E+03  0.48053604825E+03 -0.14469356253E+04  0.15762321023E+04  0.17200000000E+03 0. -1.
         -6    1    1    2    0  501  0.36109007602E+03 -0.48053604825E+03 -0.19231162643E+01  0.62521087246E+03  0.17200000000E+03 0.  1.
</event>
<event>
 4    1  0.3205520E-002  0.1998919E+03  0.7818608E-02  0.1149830E+00
         -2   -1    0    0    0  501 -0.00000000000E+00  0.00000000000E+00  0.15648383911E+04  0.15648383911E+04  0.00000000000E+00 0.  1.
          2   -1    0    0  502    0  0.00000000000E+00 -0.00000000000E+00 -0.25538153171E+02  0.25538153171E+02  0.00000000000E+00 0. -1.
          6    1    1    2  502    0  0.79364501890E+02  0.63828264165E+02  0.77964301671E+03  0.80486023940E+03  0.17200000000E+03 0. -1.
         -6    1    1    2    0  501 -0.79364501890E+02 -0.63828264165E+02  0.75965722126E+03  0.78551630491E+03  0.17200000000E+03 0.  1.
</event>
<event>
 4    1  0.3205520E-002  0.2407829E+03  0.7818608E-02  0.1119272E+00
         -2   -1    0    0    0  501 -0.00000000000E+00  0.00000000000E+00  0.11920094193E+03  0.11920094193E+03  0.00000000000E+00 0.  1.
          2   -1    0    0  502    0  0.00000000000E+00 -0.00000000000E+00 -0.53109095899E+03  0.53109095899E+03  0.00000000000E+00 0. -1.
          6    1    1    2  502    0 -0.64987184828E+02 -0.15546408118E+03 -0.30029087213E+03  0.38490391348E+03  0.17200000000E+03 0. -1.
         -6    1    1    2    0  501  0.64987184828E+02  0.15546408118E+03 -0.11159914493E+03  0.26538798744E+03  0.17200000000E+03 0.  1.
</event>
<event>
 4    1  0.3205520E-002  0.2497569E+03  0.7818608E-02  0.1113459E+00
          2   -1    0    0  502    0  0.00000000000E+00  0.00000000000E+00  0.65351851151E+03  0.65351851151E+03  0.00000000000E+00 0. -1.
         -2   -1    0    0    0  501 -0.00000000000E+00 -0.00000000000E+00 -0.15659013815E+03  0.15659013815E+03  0.00000000000E+00 0.  1.
          6    1    1    2  502    0 -0.26512577035E+02  0.17914130693E+03  0.50156485099E+03  0.56030868666E+03  0.17200000000E+03 0. -1.
         -6    1    1    2    0  501  0.26512577035E+02 -0.17914130693E+03 -0.46364776321E+01  0.24979996300E+03  0.17200000000E+03 0.  1.
</event>
<event>
 4    1  0.3205520E-002  0.2334349E+03  0.7818608E-02  0.1124245E+00
         -2   -1    0    0    0  501 -0.00000000000E+00  0.00000000000E+00  0.46627722291E+02  0.46627722291E+02  0.00000000000E+00 0.  1.
          2   -1    0    0  502    0  0.00000000000E+00 -0.00000000000E+00 -0.11727660191E+04  0.11727660191E+04  0.00000000000E+00 0. -1.
          6    1    1    2  502    0  0.14293533151E+03 -0.66913019554E+02 -0.52698437908E+03  0.57637175241E+03  0.17200000000E+03 0.  1.
         -6    1    1    2    0  501 -0.14293533151E+03  0.66913019554E+02 -0.59915391767E+03  0.64302198893E+03  0.17200000000E+03 0.  1.
</event>
<event>
 4    1  0.3205520E-002  0.4237214E+03  0.7818608E-02  0.1035862E+00
          1   -1    0    0  502    0  0.00000000000E+00  0.00000000000E+00  0.22758956174E+03  0.22758956174E+03  0.00000000000E+00 0. -1.
         -1   -1    0    0    0  501 -0.00000000000E+00 -0.00000000000E+00 -0.79960718422E+03  0.79960718422E+03  0.00000000000E+00 0.  1.
          6    1    1    2  502    0 -0.17128553500E+03 -0.34729973354E+03 -0.22650862299E+03  0.48046435425E+03  0.17200000000E+03 0. -1.
         -6    1    1    2    0  501  0.17128553500E+03  0.34729973354E+03 -0.34550899949E+03  0.54673239171E+03  0.17200000000E+03 0.  1.
</event>
<event>
 4    1  0.3205520E-002  0.1743360E+03  0.7818608E-02  0.1173400E+00
         -2   -1    0    0    0  501 -0.00000000000E+00  0.00000000000E+00  0.82545315599E+02  0.82545315599E+02  0.00000000000E+00 0.  1.
          2   -1    0    0  502    0  0.00000000000E+00 -0.00000000000E+00 -0.37860797370E+03  0.37860797370E+03  0.00000000000E+00 0. -1.
          6    1    1    2  502    0 -0.69643453326E+01  0.27577615379E+02 -0.10979787638E+03  0.20603058179E+03  0.17200000000E+03 0.  1.
         -6    1    1    2    0  501  0.69643453326E+01 -0.27577615379E+02 -0.18626478171E+03  0.25512270750E+03  0.17200000000E+03 0. -1.
</event>
<event>
 4    1  0.3205520E-002  0.1967204E+03  0.7818608E-02  0.1152536E+00
         -1   -1    0    0    0  501 -0.00000000000E+00  0.00000000000E+00  0.50117108282E+02  0.50117108282E+02  0.00000000000E+00 0.  1.
          1   -1    0    0  502    0  0.00000000000E+00 -0.00000000000E+00 -0.77218503716E+03  0.77218503716E+03  0.00000000000E+00 0. -1.
          6    1    1    2  502    0 -0.11435877800E+02 -0.94784777922E+02 -0.35922674937E+03  0.40956414747E+03  0.17200000000E+03 0. -1.
         -6    1    1    2    0  501  0.11435877800E+02  0.94784777922E+02 -0.36284117951E+03  0.41273799798E+03  0.17200000000E+03 0.  1.
</event>
<event>
 4    1  0.3205520E-002  0.2645657E+03  0.7818608E-02  0.1104431E+00
         -2   -1    0    0    0  501 -0.00000000000E+00  0.00000000000E+00  0.12031068916E+03  0.12031068916E+03  0.00000000000E+00 0.  1.
          2   -1    0    0  502    0  0.00000000000E+00 -0.00000000000E+00 -0.94388832213E+03  0.94388832213E+03  0.00000000000E+00 0. -1.
          6    1    1    2  502    0  0.17664930410E+03  0.95948187173E+02 -0.82218248909E+02  0.27704669591E+03  0.17200000000E+03 0.  1.
         -6    1    1    2    0  501 -0.17664930410E+03 -0.95948187173E+02 -0.74135938406E+03  0.78715231537E+03  0.17200000000E+03 0. -1.
</event>
<event>
 4    1  0.3205520E-002  0.2554562E+03  0.7818608E-02  0.1109904E+00
          2   -1    0    0  502    0  0.00000000000E+00  0.00000000000E+00  0.70529712888E+03  0.70529712888E+03  0.00000000000E+00 0. -1.
         -2   -1    0    0    0  501 -0.00000000000E+00 -0.00000000000E+00 -0.97752464655E+02  0.97752464655E+02  0.00000000000E+00 0.  1.
          6    1    1    2  502    0 -0.18337321892E+03 -0.45256494435E+02  0.39662152059E+03  0.47176956059E+03  0.17200000000E+03 0. -1.
         -6    1    1    2    0  501  0.18337321892E+03  0.45256494435E+02  0.21092314364E+03  0.33128003295E+03  0.17200000000E+03 0. -1.
</event>
<event>
 4    1  0.3205520E-002  0.5131014E+03  0.7818608E-02  0.1010415E+00
         -1   -1    0    0    0  501 -0.00000000000E+00  0.00000000000E+00  0.64385500851E+03  0.64385500851E+03  0.00000000000E+00 0.  1.
          1   -1    0    0  502    0  0.00000000000E+00 -0.00000000000E+00 -0.43932029253E+03  0.43932029253E+03  0.00000000000E+00 0. -1.
          6    1    1    2  502    0  0.46247931872E+03 -0.14071922104E+03 -0.40244821374E+02  0.51467724359E+03  0.17200000000E+03 0. -1.
         -6    1    1    2    0  501 -0.46247931872E+03  0.14071922104E+03  0.24477953736E+03  0.56849805745E+03  0.17200000000E+03 0.  1.
</event>
<event>
 4    1  0.3205520E-002  0.2409305E+03  0.7818608E-02  0.1119174E+00
          2   -1    0    0  502    0  0.00000000000E+00  0.00000000000E+00  0.17185814925E+04  0.17185814925E+04  0.00000000000E+00 0. -1.
         -2   -1    0    0    0  501 -0.00000000000E+00 -0.00000000000E+00 -0.60564412977E+02  0.60564412977E+02  0.00000000000E+00 0.  1.
          6    1    1    2  502    0 -0.16453306335E+02 -0.16790712653E+03  0.14206287164E+04  0.14409141072E+04  0.17200000000E+03 0. -1.
         -6    1    1    2    0  501  0.16453306335E+02  0.16790712653E+03  0.23738836312E+03  0.33823179829E+03  0.17200000000E+03 0.  1.
</event>
<event>
 4    1  0.3205520E-002  0.2097399E+03  0.7818608E-02  0.1141772E+00
         -1   -1    0    0    0  501 -0.00000000000E+00  0.00000000000E+00  0.21805770393E+03  0.21805770393E+03  0.00000000000E+00 0.  1.
          1   -1    0    0  502    0  0.00000000000E+00 -0.00000000000E+00 -0.31216082010E+03  0.31216082010E+03  0.00000000000E+00 0. -1.
          6    1    1    2  502    0  0.10899990334E+03 -0.50257712350E+02 -0.20472643208E+03  0.29309337858E+03  0.17200000000E+03 0. -1.
         -6    1    1    2    0  501 -0.10899990334E+03  0.50257712350E+02  0.11062331590E+03  0.23712514544E+03  0.17200000000E+03 0.  1.
</event>
<event>
 4    1  0.3205520E-002  0.4622265E+03  0.7818608E-02  0.1024137E+00
          2   -1    0    0  502    0  0.00000000000E+00  0.00000000000E+00  0.12069965075E+04  0.12069965075E+04  0.00000000000E+00 0. -1.
         -2   -1    0    0    0  501 -0.00000000000E+00 -0.00000000000E+00 -0.17870946483E+03  0.17870946483E+03  0.00000000000E+00 0.  1.
          6    1    1    2  502    0 -0.70660384666E+02  0.42317429945E+03  0.44662647299E+03  0.64275079467E+03  0.17200000000E+03 0.  1.
         -6    1    1    2    0  501  0.70660384666E+02 -0.42317429945E+03  0.58166056965E+03  0.74295517762E+03  0.17200000000E+03 0. -1.
</event>
<event>
 4    1  0.3205520E-002  0.3244975E+03  0.7818608E-02  0.1073598E+00
         -2   -1    0    0    0  501 -0.00000000000E+00  0.00000000000E+00  0.92889304216E+03  0.92889304216E+03  0.00000000000E+00 0.  1.
          2   -1    0    0  502    0  0.00000000000E+00 -0.00000000000E+00 -0.11745842907E+03  0.11745842907E+03  0.00000000000E+00 0. -1.
          6    1    1    2  502    0 -0.25753667012E+03 -0.96899282814E+02  0.30798130247E+03  0.44738248752E+03  0.17200000000E+03 0. -1.
         -6    1    1    2    0  501  0.25753667012E+03  0.96899282814E+02  0.50345331063E+03  0.59896898372E+03  0.17200000000E+03 0.  1.
</event>
<event>
 4    1  0.3205520E-002  0.2541209E+03  0.7818608E-02  0.1110728E+00
         -1   -1    0    0    0  501 -0.00000000000E+00  0.00000000000E+00  0.71920224666E+02  0.71920224666E+02  0.00000000000E+00 0.  1.
          1   -1    0    0  502    0  0.00000000000E+00 -0.00000000000E+00 -0.10885890918E+04  0.10885890918E+04  0.00000000000E+00 0. -1.
          6    1    1    2  502    0 -0.13473076458E+03  0.12977299262E+03 -0.26548013752E+03  0.36750117273E+03  0.17200000000E+03 0.  1.
         -6    1    1    2    0  501  0.13473076458E+03 -0.12977299262E+03 -0.75118872963E+03  0.79300814376E+03  0.17200000000E+03 0. -1.
</event>
<event>
 4    1  0.3205520E-002  0.2608574E+03  0.7818608E-02  0.1106629E+00
         -2   -1    0    0    0  501 -0.00000000000E+00  0.00000000000E+00  0.72659953050E+02  0.72659953050E+02  0.00000000000E+00 0.  1.
          2   -1    0    0  502    0  0.00000000000E+00 -0.00000000000E+00 -0.11794507066E+04  0.11794507066E+04  0.00000000000E+00 0. -1.
          6    1    1    2  502    0 -0.87842297368E+02 -0.17534631564E+03 -0.26926014161E+03  0.37489681711E+03  0.17200000000E+03 0.  1.
         -6    1    1    2    0  501  0.87842297368E+02  0.17534631564E+03 -0.83753061189E+03  0.87721384250E+03  0.17200000000E+03 0.  1.
</event>
<event>
 4    1  0.3205520E-002  0.6913292E+03  0.7818608E-02  0.9732176E-01
         -2   -1    0    0    0  501 -0.00000000000E+00  0.00000000000E+00  0.24512284320E+03  0.24512284320E+03  0.00000000000E+00 0.  1.
          2   -1    0    0  502    0  0.00000000000E+00 -0.00000000000E+00 -0.21891384335E+04  0.21891384335E+04  0.00000000000E+00 0. -1.
          6    1    1    2  502    0 -0.55087579080E+03 -0.38064150779E+03 -0.13744682216E+04  0.15385379380E+04  0.17200000000E+03 0. -1.
         -6    1    1    2    0  501  0.55087579080E+03  0.38064150779E+03 -0.56954736861E+03  0.89572333867E+03  0.17200000000E+03 0.  1.
</event>
<event>
 4    1  0.3205520E-002  0.2849776E+03  0.7818608E-02  0.1093001E+00
         -2   -1    0    0    0  501 -0.00000000000E+00  0.00000000000E+00  0.15433778743E+03  0.15433778743E+03  0.00000000000E+00 0.  1.
          2   -1    0    0  502    0  0.00000000000E+00 -0.00000000000E+00 -0.74213386298E+03  0.74213386298E+03  0.00000000000E+00 0. -1.
          6    1    1    2  502    0 -0.19817500947E+03  0.11115261302E+03 -0.53568217859E+03  0.60676818820E+03  0.17200000000E+03 0. -1.
         -6    1    1    2    0  501  0.19817500947E+03 -0.11115261302E+03 -0.52113896962E+02  0.28970346221E+03  0.17200000000E+03 0.  1.
</event>
<event>
 4    1  0.3205520E-002  0.3588416E+03  0.7818608E-02  0.1059043E+00
         -1   -1    0    0    0  501 -0.00000000000E+00  0.00000000000E+00  0.24808806197E+03  0.24808806197E+03  0.00000000000E+00 0.  1.
          1   -1    0    0  502    0  0.00000000000E+00 -0.00000000000E+00 -0.65361346377E+03  0.65361346377E+03  0.00000000000E+00 0. -1.
          6    1    1    2  502    0 -0.18219225297E+03 -0.25688383828E+03 -0.40733838328E+03  0.54285530476E+03  0.17200000000E+03 0. -1.
         -6    1    1    2    0  501  0.18219225297E+03  0.25688383828E+03  0.18129814740E+01  0.35884622098E+03  0.17200000000E+03 0.  1.
</event>
<event>
 4    1  0.3205520E-002  0.2941662E+03  0.7818608E-02  0.1088194E+00
          2   -1    0    0  502    0  0.00000000000E+00  0.00000000000E+00  0.82768423089E+03  0.82768423089E+03  0.00000000000E+00 0. -1.
         -2   -1    0    0    0  501 -0.00000000000E+00 -0.00000000000E+00 -0.10744011096E+03  0.10744011096E+03  0.00000000000E+00 0.  1.
          6    1    1    2  502    0  0.63229671929E+02  0.23011248945E+03  0.43681779772E+03  0.52663415918E+03  0.17200000000E+03 0. -1.
         -6    1    1    2    0  501 -0.63229671929E+02 -0.23011248945E+03  0.28342632221E+03  0.40849018267E+03  0.17200000000E+03 0.  1.
</event>
<event>
 4    1  0.3205520E-002  0.2157926E+03  0.7818608E-02  0.1137059E+00
          2   -1    0    0  502    0  0.00000000000E+00  0.00000000000E+00  0.26341011069E+04  0.26341011069E+04  0.00000000000E+00 0. -1.
         -2   -1    0    0    0  501 -0.00000000000E+00 -0.00000000000E+00 -0.17758790381E+02  0.17758790381E+02  0.00000000000E+00 0.  1.
          6    1    1    2  502    0 -0.11264802936E+03  0.65519840109E+02  0.13974374619E+04  0.14140006676E+04  0.17200000000E+03 0. -1.
         -6    1    1    2    0  501  0.11264802936E+03 -0.65519840109E+02  0.12189048546E+04  0.12378592297E+04  0.17200000000E+03 0.  1.
</event>
<event>
 4    1  0.3205520E-002  0.3721932E+03  0.7818608E-02  0.1053858E+00
          1   -1    0    0  502    0  0.00000000000E+00  0.00000000000E+00  0.68427211332E+03  0.68427211332E+03  0.00000000000E+00 0. -1.
         -1   -1    0    0    0  501 -0.00000000000E+00 -0.00000000000E+00 -0.34681479432E+03  0.34681479432E+03  0.00000000000E+00 0.  1.
          6    1    1    2  502    0 -0.31791647781E+03 -0.88729199137E+02  0.50135298070E+03  0.62440577264E+03  0.17200000000E+03 0. -1.
         -6    1    1    2    0  501  0.31791647781E+03  0.88729199137E+02 -0.16389566170E+03  0.40668113500E+03  0.17200000000E+03 0.  1.
</event>
<event>
 4    1  0.3205520E-002  0.2688016E+03  0.7818608E-02  0.1101967E+00
          1   -1    0    0  502    0  0.00000000000E+00  0.00000000000E+00  0.98679019392E+02  0.98679019392E+02  0.00000000000E+00 0. -1.
         -1   -1    0    0    0  501 -0.00000000000E+00 -0.00000000000E+00 -0.73421640736E+03  0.73421640736E+03  0.00000000000E+00 0.  1.
          6    1    1    2  502    0  0.12769660611E+02  0.20617280552E+03 -0.29602760781E+03  0.39985826808E+03  0.17200000000E+03 0. -1.
         -6    1    1    2    0  501 -0.12769660611E+02 -0.20617280552E+03 -0.33950978016E+03  0.43303715867E+03  0.17200000000E+03 0.  1.
</event>
<event>
 4    1  0.3205520E-002  0.3192837E+03  0.7818608E-02  0.1075979E+00
         -2   -1    0    0    0  501 -0.00000000000E+00  0.00000000000E+00  0.40590823489E+03  0.40590823489E+03  0.00000000000E+00 0.  1.
          2   -1    0    0  502    0  0.00000000000E+00 -0.00000000000E+00 -0.39960987596E+03  0.39960987596E+03  0.00000000000E+00 0. -1.
          6    1    1    2  502    0  0.12857555032E+03 -0.23627617880E+03 -0.24234322185E+03  0.40083954643E+03  0.17200000000E+03 0. -1.
         -6    1    1    2    0  501 -0.12857555032E+03  0.23627617880E+03  0.24864158078E+03  0.40467856442E+03  0.17200000000E+03 0.  1.
</event>
<event>
 4    1  0.3205520E-002  0.1815434E+03  0.7818608E-02  0.1166318E+00
          2   -1    0    0  502    0  0.00000000000E+00  0.00000000000E+00  0.17254644643E+04  0.17254644643E+04  0.00000000000E+00 0. -1.
         -2   -1    0    0    0  501 -0.00000000000E+00 -0.00000000000E+00 -0.89705535686E+02  0.89705535686E+02  0.00000000000E+00 0.  1.
          6    1    1    2  502    0  0.57963646844E+02  0.37694129394E+01  0.16230616791E+04  0.16331831517E+04  0.17200000000E+03 0. -1.
         -6    1    1    2    0  501 -0.57963646844E+02 -0.37694129394E+01  0.12697249588E+02  0.18198684836E+03  0.17200000000E+03 0.  1.
</event>
<event>
 4    1  0.3205520E-002  0.2024854E+03  0.7818608E-02  0.1147659E+00
         -2   -1    0    0    0  501 -0.00000000000E+00  0.00000000000E+00  0.13291717732E+03  0.13291717732E+03  0.00000000000E+00 0.  1.
          2   -1    0    0  502    0  0.00000000000E+00 -0.00000000000E+00 -0.34776098155E+03  0.34776098155E+03  0.00000000000E+00 0. -1.
          6    1    1    2  502    0  0.10495180354E+03  0.20036431117E+02 -0.18821165300E+03  0.27644884873E+03  0.17200000000E+03 0. -1.
         -6    1    1    2    0  501 -0.10495180354E+03 -0.20036431117E+02 -0.26632151223E+02  0.20422931013E+03  0.17200000000E+03 0.  1.
</event>
<event>
 4    1  0.3205520E-002  0.2841181E+03  0.7818608E-02  0.1093461E+00
         -1   -1    0    0    0  501 -0.00000000000E+00  0.00000000000E+00  0.52036285047E+02  0.52036285047E+02  0.00000000000E+00 0.  1.
          1   -1    0    0  502    0  0.00000000000E+00 -0.00000000000E+00 -0.19474731455E+04  0.19474731455E+04  0.00000000000E+00 0. -1.
          6    1    1    2  502    0 -0.30022206668E+02 -0.22413782568E+03 -0.13986478523E+04  0.14272136885E+04  0.17200000000E+03 0. -1.
         -6    1    1    2    0  501  0.30022206668E+02  0.22413782568E+03 -0.49678900820E+03  0.57229574213E+03  0.17200000000E+03 0.  1.
</event>
<event>
 4    1  0.3205520E-002  0.1892292E+03  0.7818608E-02  0.1159158E+00
          1   -1    0    0  502    0  0.00000000000E+00  0.00000000000E+00  0.91646805299E+03  0.91646805299E+03  0.00000000000E+00 0. -1.
         -1   -1    0    0    0  501 -0.00000000000E+00 -0.00000000000E+00 -0.50741127184E+02  0.50741127184E+02  0.00000000000E+00 0.  1.
          6    1    1    2  502    0 -0.77686503193E+02  0.13730082633E+02  0.20094231931E+03  0.27601725242E+03  0.17200000000E+03 0.  1.
         -6    1    1    2    0  501  0.77686503193E+02 -0.13730082633E+02  0.66478460650E+03  0.69119192775E+03  0.17200000000E+03 0. -1.
</event>
<event>
 4    1  0.3205520E-002  0.1925002E+03  0.7818608E-02  0.1156225E+00
         -4   -1    0    0    0  501 -0.00000000000E+00  0.00000000000E+00  0.12964173440E+04  0.12964173440E+04  0.00000000000E+00 0.  1.
          4   -1    0    0  502    0  0.00000000000E+00 -0.00000000000E+00 -0.29834950873E+02  0.29834950873E+02  0.00000000000E+00 0. -1.
          6    1    1    2  502    0  0.62223886281E+02 -0.60004368753E+02  0.49748649434E+03  0.53343148421E+03  0.17200000000E+03 0. -1.
         -6    1    1    2    0  501 -0.62223886281E+02  0.60004368753E+02  0.76909589883E+03  0.79282081071E+03  0.17200000000E+03 0.  1.
</event>
<event>
 4    1  0.3205520E-002  0.2989579E+03  0.7818608E-02  0.1085763E+00
          2   -1    0    0  502    0  0.00000000000E+00  0.00000000000E+00  0.95767369344E+03  0.95767369344E+03  0.00000000000E+00 0. -1.
         -2   -1    0    0    0  501 -0.00000000000E+00 -0.00000000000E+00 -0.10185177100E+03  0.10185177100E+03  0.00000000000E+00 0.  1.
          6    1    1    2  502    0  0.15594066929E+03 -0.18834629527E+03  0.58118369210E+03  0.65356736703E+03  0.17200000000E+03 0. -1.
         -6    1    1    2    0  501 -0.15594066929E+03  0.18834629527E+03  0.27463823034E+03  0.40595809740E+03  0.17200000000E+03 0.  1.
</event>
<event>
 4    1  0.3205520E-002  0.4958685E+03  0.7818608E-02  0.1014863E+00
         -1   -1    0    0    0  501 -0.00000000000E+00  0.00000000000E+00  0.28458734520E+04  0.28458734520E+04  0.00000000000E+00 0.  1.
          1   -1    0    0  502    0  0.00000000000E+00 -0.00000000000E+00 -0.10596087508E+03  0.10596087508E+03  0.00000000000E+00 0. -1.
          6    1    1    2  502    0 -0.25013658024E+03 -0.39208833454E+03  0.73583089443E+03  0.88731768610E+03  0.17200000000E+03 0. -1.
         -6    1    1    2    0  501  0.25013658024E+03  0.39208833454E+03  0.20040816825E+04  0.20645166410E+04  0.17200000000E+03 0.  1.
</event>
<event>
 4    1  0.3205520E-002  0.1866969E+03  0.7818608E-02  0.1161475E+00
          2   -1    0    0  502    0  0.00000000000E+00  0.00000000000E+00  0.22886466828E+04  0.22886466828E+04  0.00000000000E+00 0. -1.
         -2   -1    0    0    0  501 -0.00000000000E+00 -0.00000000000E+00 -0.15781375990E+02  0.15781375990E+02  0.00000000000E+00 0.  1.
          6    1    1    2  502    0  0.40341630985E+02  0.60367807820E+02  0.92103139494E+03  0.93976302858E+03  0.17200000000E+03 0.  1.
         -6    1    1    2    0  501 -0.40341630985E+02 -0.60367807820E+02  0.13518339119E+04  0.13646650302E+04  0.17200000000E+03 0.  1.
</event>
<event>
 4    1  0.3205520E-002  0.2597308E+03  0.7818608E-02  0.1107305E+00
         -2   -1    0    0    0  501 -0.00000000000E+00  0.00000000000E+00  0.10230601534E+03  0.10230601534E+03  0.00000000000E+00 0.  1.
          2   -1    0    0  502    0  0.00000000000E+00 -0.00000000000E+00 -0.16396880541E+04  0.16396880541E+04  0.00000000000E+00 0. -1.
          6    1    1    2  502    0 -0.17738271017E+03 -0.80071527108E+02 -0.14421544559E+04  0.14653564584E+04  0.17200000000E+03 0. -1.
         -6    1    1    2    0  501  0.17738271017E+03  0.80071527108E+02 -0.95227582815E+02  0.27663761106E+03  0.17200000000E+03 0.  1.
</event>
<event>
 4    1  0.3205520E-002  0.2468033E+03  0.7818608E-02  0.1115342E+00
         -1   -1    0    0    0  501 -0.00000000000E+00  0.00000000000E+00  0.32322984264E+02  0.32322984264E+02  0.00000000000E+00 0.  1.
          1   -1    0    0  502    0  0.00000000000E+00 -0.00000000000E+00 -0.22005934426E+04  0.22005934426E+04  0.00000000000E+00 0. -1.
          6    1    1    2  502    0  0.17606743671E+03  0.18114215831E+02 -0.66098240656E+03  0.70555624076E+03  0.17200000000E+03 0.  1.
         -6    1    1    2    0  501 -0.17606743671E+03 -0.18114215831E+02 -0.15072880518E+04  0.15273601861E+04  0.17200000000E+03 0. -1.
</event>
<event>
 4    1  0.3205520E-002  0.2026023E+03  0.7818608E-02  0.1147562E+00
          2   -1    0    0  502    0  0.00000000000E+00  0.00000000000E+00  0.80094464861E+03  0.80094464861E+03  0.00000000000E+00 0. -1.
         -2   -1    0    0    0  501 -0.00000000000E+00 -0.00000000000E+00 -0.61852487952E+02  0.61852487952E+02  0.00000000000E+00 0.  1.
          6    1    1    2  502    0 -0.95418465002E+02 -0.48569528227E+02  0.54816303907E+03  0.58440602319E+03  0.17200000000E+03 0. -1.
         -6    1    1    2    0  501  0.95418465002E+02  0.48569528227E+02  0.19092912159E+03  0.27839111337E+03  0.17200000000E+03 0.  1.
</event>
<event>
 4    1  0.3205520E-002  0.3118164E+03  0.7818608E-02  0.1079478E+00
          2   -1    0    0  502    0  0.00000000000E+00  0.00000000000E+00  0.21902761588E+03  0.21902761588E+03  0.00000000000E+00 0. -1.
         -2   -1    0    0    0  501 -0.00000000000E+00 -0.00000000000E+00 -0.57330111440E+03  0.57330111440E+03  0.00000000000E+00 0.  1.
          6    1    1    2  502    0 -0.25956431356E+03  0.16487599238E+02  0.11067383418E+02  0.31201275739E+03  0.17200000000E+03 0. -1.
         -6    1    1    2    0  501  0.25956431356E+03 -0.16487599238E+02 -0.36534088193E+03  0.48031597289E+03  0.17200000000E+03 0.  1.
</event>
<event>
 4    1  0.3205520E-002  0.1775727E+03  0.7818608E-02  0.1170173E+00
         -2   -1    0    0    0  501 -0.00000000000E+00  0.00000000000E+00  0.26575130477E+03  0.26575130477E+03  0.00000000000E+00 0.  1.
          2   -1    0    0  502    0  0.00000000000E+00 -0.00000000000E+00 -0.33501514323E+03  0.33501514323E+03  0.00000000000E+00 0. -1.
          6    1    1    2  502    0  0.13416724931E+02 -0.42048332752E+02 -0.27603040472E+03  0.32821464794E+03  0.17200000000E+03 0. -1.
         -6    1    1    2    0  501 -0.13416724931E+02  0.42048332752E+02  0.20676656626E+03  0.27255180006E+03  0.17200000000E+03 0.  1.
</event>
<event>
 4    1  0.3205520E-002  0.1868203E+03  0.7818608E-02  0.1161361E+00
         -2   -1    0    0    0  501 -0.00000000000E+00  0.00000000000E+00  0.10241797899E+03  0.10241797899E+03  0.00000000000E+00 0.  1.
          2   -1    0    0  502    0  0.00000000000E+00 -0.00000000000E+00 -0.34090219806E+03  0.34090219806E+03  0.00000000000E+00 0. -1.
          6    1    1    2  502    0 -0.15519418567E+02 -0.71252759844E+02 -0.12347063815E+03  0.22393482673E+03  0.17200000000E+03 0.  1.
         -6    1    1    2    0  501  0.15519418567E+02  0.71252759844E+02 -0.11501358093E+03  0.21938535032E+03  0.17200000000E+03 0.  1.
</event>
<event>
 4    1  0.3205520E-002  0.2314188E+03  0.7818608E-02  0.1125645E+00
          2   -1    0    0  502    0  0.00000000000E+00  0.00000000000E+00  0.69407859357E+03  0.69407859357E+03  0.00000000000E+00 0. -1.
         -2   -1    0    0    0  501 -0.00000000000E+00 -0.00000000000E+00 -0.77229566034E+02  0.77229566034E+02  0.00000000000E+00 0.  1.
          6    1    1    2  502    0 -0.14106222465E+03  0.63812983880E+02  0.32005362510E+03  0.39495439114E+03  0.17200000000E+03 0.  1.
         -6    1    1    2    0  501  0.14106222465E+03 -0.63812983880E+02  0.29679540244E+03  0.37635376847E+03  0.17200000000E+03 0.  1.
</event>
<event>
 4    1  0.3205520E-002  0.3157495E+03  0.7818608E-02  0.1077622E+00
         -2   -1    0    0    0  501 -0.00000000000E+00  0.00000000000E+00  0.55122238035E+02  0.55122238035E+02  0.00000000000E+00 0.  1.
          2   -1    0    0  502    0  0.00000000000E+00 -0.00000000000E+00 -0.18458832353E+04  0.18458832353E+04  0.00000000000E+00 0. -1.
          6    1    1    2  502    0  0.26465142847E+03  0.85646460631E+01 -0.76041528899E+03  0.82336452649E+03  0.17200000000E+03 0. -1.
         -6    1    1    2    0  501 -0.26465142847E+03 -0.85646460631E+01 -0.10303457082E+04  0.10776409468E+04  0.17200000000E+03 0.  1.
</event>
<event>
 4    1  0.3205520E-002  0.2319348E+03  0.7818608E-02  0.1125285E+00
         -2   -1    0    0    0  501 -0.00000000000E+00  0.00000000000E+00  0.82350696240E+03  0.82350696240E+03  0.00000000000E+00 0.  1.
          2   -1    0    0  502    0  0.00000000000E+00 -0.00000000000E+00 -0.68217393548E+02  0.68217393548E+02  0.00000000000E+00 0. -1.
          6    1    1    2  502    0  0.15003562911E+03  0.41219789803E+02  0.28580123775E+03  0.36807079288E+03  0.17200000000E+03 0. -1.
         -6    1    1    2    0  501 -0.15003562911E+03 -0.41219789803E+02  0.46948833110E+03  0.52365356307E+03  0.17200000000E+03 0.  1.
</event>
<event>
 4    1  0.3205520E-002  0.2314437E+03  0.7818608E-02  0.1125628E+00
         -2   -1    0    0    0  501 -0.00000000000E+00  0.00000000000E+00  0.49127214954E+02  0.49127214954E+02  0.00000000000E+00 0.  1.
          2   -1    0    0  502    0  0.00000000000E+00 -0.00000000000E+00 -0.23498559641E+04  0.23498559641E+04  0.00000000000E+00 0. -1.
          6    1    1    2  502    0  0.11609220621E+03 -0.10249291937E+03 -0.20285281264E+04  0.20416886536E+04  0.17200000000E+03 0. -1.
         -6    1    1    2    0  501 -0.11609220621E+03  0.10249291937E+03 -0.27220062278E+03  0.35729452543E+03  0.17200000000E+03 0.  1.
</event>
<event>
 4    1  0.3205520E-002  0.2749155E+03  0.7818608E-02  0.1098499E+00
          1   -1    0    0  502    0  0.00000000000E+00  0.00000000000E+00  0.59950257239E+02  0.59950257239E+02  0.00000000000E+00 0. -1.
         -1   -1    0    0    0  501 -0.00000000000E+00 -0.00000000000E+00 -0.12652396079E+04  0.12652396079E+04  0.00000000000E+00 0.  1.
          6    1    1    2  502    0  0.21121383979E+03 -0.37192119345E+02 -0.56290099841E+03  0.62644718363E+03  0.17200000000E+03 0. -1.
         -6    1    1    2    0  501 -0.21121383979E+03  0.37192119345E+02 -0.64238835224E+03  0.69874268150E+03  0.17200000000E+03 0.  1.
</event>
<event>
 4    1  0.3205520E-002  0.5585568E+03  0.7818608E-02  0.9995326E-01
          2   -1    0    0  502    0  0.00000000000E+00  0.00000000000E+00  0.58216184790E+03  0.58216184790E+03  0.00000000000E+00 0. -1.
         -2   -1    0    0    0  501 -0.00000000000E+00 -0.00000000000E+00 -0.76433139303E+03  0.76433139303E+03  0.00000000000E+00 0.  1.
          6    1    1    2  502    0  0.99911135293E+01 -0.53132082660E+03  0.27696189099E+03  0.62345291096E+03  0.17200000000E+03 0. -1.
         -6    1    1    2    0  501 -0.99911135293E+01  0.53132082660E+03 -0.45913143611E+03  0.72304032996E+03  0.17200000000E+03 0.  1.
</event>
<event>
 4    1  0.3205520E-002  0.1799569E+03  0.7818608E-02  0.1167845E+00
          2   -1    0    0  502    0  0.00000000000E+00  0.00000000000E+00  0.10738100248E+04  0.10738100248E+04  0.00000000000E+00 0. -1.
         -2   -1    0    0    0  501 -0.00000000000E+00 -0.00000000000E+00 -0.30488578758E+02  0.30488578758E+02  0.00000000000E+00 0.  1.
          6    1    1    2  502    0 -0.52502981679E+02 -0.66265860094E+01  0.46420781936E+03  0.49786883241E+03  0.17200000000E+03 0.  1.
         -6    1    1    2    0  501  0.52502981679E+02  0.66265860094E+01  0.57911362665E+03  0.60642977112E+03  0.17200000000E+03 0. -1.
</event>
<event>
 4    1  0.3205520E-002  0.1893898E+03  0.7818608E-02  0.1159013E+00
          2   -1    0    0  502    0  0.00000000000E+00  0.00000000000E+00  0.60184455111E+03  0.60184455111E+03  0.00000000000E+00 0. -1.
         -2   -1    0    0    0  501 -0.00000000000E+00 -0.00000000000E+00 -0.80782510761E+02  0.80782510761E+02  0.00000000000E+00 0.  1.
          6    1    1    2  502    0 -0.42309034947E+02 -0.67040503250E+02  0.43531767715E+03  0.47473146467E+03  0.17200000000E+03 0. -1.
         -6    1    1    2    0  501  0.42309034947E+02  0.67040503250E+02  0.85744363205E+02  0.20789559720E+03  0.17200000000E+03 0.  1.
</event>
<event>
 4    1  0.3205520E-002  0.2186422E+03  0.7818608E-02  0.1134899E+00
          2   -1    0    0  502    0  0.00000000000E+00  0.00000000000E+00  0.10970554035E+04  0.10970554035E+04  0.00000000000E+00 0. -1.
         -2   -1    0    0    0  501 -0.00000000000E+00 -0.00000000000E+00 -0.62485602723E+02  0.62485602723E+02  0.00000000000E+00 0.  1.
          6    1    1    2  502    0  0.13355599779E+03 -0.19575810175E+02  0.83623036928E+03  0.86434116377E+03  0.17200000000E+03 0. -1.
         -6    1    1    2    0  501 -0.13355599779E+03  0.19575810175E+02  0.19833943147E+03  0.29519984242E+03  0.17200000000E+03 0.  1.
</event>
<event>
 4    1  0.3205520E-002  0.3259950E+03  0.7818608E-02  0.1072923E+00
         -4   -1    0    0    0  501 -0.00000000000E+00  0.00000000000E+00  0.55893745163E+03  0.55893745163E+03  0.00000000000E+00 0.  1.
          4   -1    0    0  502    0  0.00000000000E+00 -0.00000000000E+00 -0.19016492945E+03  0.19016492945E+03  0.00000000000E+00 0. -1.
          6    1    1    2  502    0 -0.23417954639E+03 -0.14781301649E+03  0.18919956500E+03  0.37692071207E+03  0.17200000000E+03 0.  1.
         -6    1    1    2    0  501  0.23417954639E+03  0.14781301649E+03  0.17957295718E+03  0.37218166900E+03  0.17200000000E+03 0.  1.
</event>
<event>
 4    1  0.3205520E-002  0.2250710E+03  0.7818608E-02  0.1130158E+00
         -2   -1    0    0    0  501 -0.00000000000E+00  0.00000000000E+00  0.34917648192E+02  0.34917648192E+02  0.00000000000E+00 0.  1.
          2   -1    0    0  502    0  0.00000000000E+00 -0.00000000000E+00 -0.14536063396E+04  0.14536063396E+04  0.00000000000E+00 0. -1.
          6    1    1    2  502    0 -0.87328131234E+02  0.11596018196E+03 -0.67638358388E+03  0.71284761264E+03  0.17200000000E+03 0. -1.
         -6    1    1    2    0  501  0.87328131234E+02 -0.11596018196E+03 -0.74230510750E+03  0.77567637512E+03  0.17200000000E+03 0.  1.
</event>
<event>
 4    1  0.3205520E-002  0.2877862E+03  0.7818608E-02  0.1091511E+00
          2   -1    0    0  502    0  0.00000000000E+00  0.00000000000E+00  0.22161181719E+04  0.22161181719E+04  0.00000000000E+00 0. -1.
         -2   -1    0    0    0  501 -0.00000000000E+00 -0.00000000000E+00 -0.37582494053E+02  0.37582494053E+02  0.00000000000E+00 0.  1.
          6    1    1    2  502    0  0.23703862684E+02  0.22951040164E+03  0.11735883406E+04  0.12083585936E+04  0.17200000000E+03 0. -1.
         -6    1    1    2    0  501 -0.23703862684E+02 -0.22951040164E+03  0.10049473373E+04  0.10453420724E+04  0.17200000000E+03 0.  1.
</event>
<event>
 4    1  0.3205520E-002  0.2555956E+03  0.7818608E-02  0.1109819E+00
          1   -1    0    0  502    0  0.00000000000E+00  0.00000000000E+00  0.75104923786E+02  0.75104923786E+02  0.00000000000E+00 0. -1.
         -1   -1    0    0    0  501 -0.00000000000E+00 -0.00000000000E+00 -0.19414536747E+04  0.19414536747E+04  0.00000000000E+00 0.  1.
          6    1    1    2  502    0  0.10410704428E+03  0.15781891081E+03 -0.18407928926E+03  0.31498296781E+03  0.17200000000E+03 0. -1.
         -6    1    1    2    0  501 -0.10410704428E+03 -0.15781891081E+03 -0.16822694617E+04  0.17015756307E+04  0.17200000000E+03 0.  1.
</event>
<event>
 4    1  0.3205520E-002  0.2225593E+03  0.7818608E-02  0.1131989E+00
          2   -1    0    0  502    0  0.00000000000E+00  0.00000000000E+00  0.36323008312E+03  0.36323008312E+03  0.00000000000E+00 0. -1.
         -2   -1    0    0    0  501 -0.00000000000E+00 -0.00000000000E+00 -0.14017671507E+03  0.14017671507E+03  0.00000000000E+00 0.  1.
          6    1    1    2  502    0 -0.13759074038E+03  0.31896957956E+02  0.15302137374E+03  0.27008918636E+03  0.17200000000E+03 0. -1.
         -6    1    1    2    0  501  0.13759074038E+03 -0.31896957956E+02  0.70031994307E+02  0.23331761184E+03  0.17200000000E+03 0.  1.
</event>
<event>
 4    1  0.3205520E-002  0.2047251E+03  0.7818608E-02  0.1145813E+00
         -2   -1    0    0    0  501 -0.00000000000E+00  0.00000000000E+00  0.33466391218E+02  0.33466391218E+02  0.00000000000E+00 0.  1.
          2   -1    0    0  502    0  0.00000000000E+00 -0.00000000000E+00 -0.30045207955E+04  0.30045207955E+04  0.00000000000E+00 0. -1.
          6    1    1    2  502    0 -0.81812875095E+02  0.75066810227E+02 -0.26455160734E+04  0.26534256476E+04  0.17200000000E+03 0. -1.
         -6    1    1    2    0  501  0.81812875095E+02 -0.75066810227E+02 -0.32553833092E+03  0.38456153920E+03  0.17200000000E+03 0.  1.
</event>
<event>
 4    1  0.3205520E-002  0.2585565E+03  0.7818608E-02  0.1108014E+00
          2   -1    0    0  502    0  0.00000000000E+00  0.00000000000E+00  0.11218451418E+04  0.11218451418E+04  0.00000000000E+00 0. -1.
         -2   -1    0    0    0  501 -0.00000000000E+00 -0.00000000000E+00 -0.65810824080E+02  0.65810824080E+02  0.00000000000E+00 0.  1.
          6    1    1    2  502    0 -0.82799497841E+02 -0.17438958501E+03  0.71058032991E+03  0.75615864041E+03  0.17200000000E+03 0.  1.
         -6    1    1    2    0  501  0.82799497841E+02  0.17438958501E+03  0.34545398782E+03  0.43149732549E+03  0.17200000000E+03 0.  1.
</event>
<event>
 4    1  0.3205520E-002  0.4748753E+03  0.7818608E-02  0.1020553E+00
          2   -1    0    0  502    0  0.00000000000E+00  0.00000000000E+00  0.33651986444E+03  0.33651986444E+03  0.00000000000E+00 0. -1.
         -2   -1    0    0    0  501 -0.00000000000E+00 -0.00000000000E+00 -0.87053584914E+03  0.87053584914E+03  0.00000000000E+00 0.  1.
          6    1    1    2  502    0  0.42289782800E+03  0.13069032931E+03  0.22577609375E+02  0.47541169900E+03  0.17200000000E+03 0. -1.
         -6    1    1    2    0  501 -0.42289782800E+03 -0.13069032931E+03 -0.55659359408E+03  0.73164401458E+03  0.17200000000E+03 0.  1.
</event>
<event>
 4    1  0.3205520E-002  0.2185824E+03  0.7818608E-02  0.1134944E+00
          1   -1    0    0  502    0  0.00000000000E+00  0.00000000000E+00  0.38533515800E+04  0.38533515800E+04  0.00000000000E+00 0. -1.
         -1   -1    0    0    0  501 -0.00000000000E+00 -0.00000000000E+00 -0.15487746890E+02  0.15487746890E+02  0.00000000000E+00 0.  1.
          6    1    1    2  502    0  0.89186182531E+02 -0.10119341327E+03  0.27827797173E+04  0.27913511490E+04  0.17200000000E+03 0. -1.
         -6    1    1    2    0  501 -0.89186182531E+02  0.10119341327E+03  0.10550841158E+04  0.10774881779E+04  0.17200000000E+03 0.  1.
</event>
<event>
 4    1  0.3205520E-002  0.1867719E+03  0.7818608E-02  0.1161406E+00
          2   -1    0    0  502    0  0.00000000000E+00  0.00000000000E+00  0.77075811694E+03  0.77075811694E+03  0.00000000000E+00 0. -1.
         -2   -1    0    0    0  501 -0.00000000000E+00 -0.00000000000E+00 -0.75789436038E+02  0.75789436038E+02  0.00000000000E+00 0.  1.
          6    1    1    2  502    0 -0.56616292623E+02 -0.45763874253E+02  0.78836364140E+02  0.20272865877E+03  0.17200000000E+03 0.  1.
         -6    1    1    2    0  501  0.56616292623E+02  0.45763874253E+02  0.61613231676E+03  0.64381889420E+03  0.17200000000E+03 0. -1.
</event>
<event>
 4    1  0.3205520E-002  0.2133407E+03  0.7818608E-02  0.1138948E+00
         -2   -1    0    0    0  501 -0.00000000000E+00  0.00000000000E+00  0.41258448342E+02  0.41258448342E+02  0.00000000000E+00 0.  1.
          2   -1    0    0  502    0  0.00000000000E+00 -0.00000000000E+00 -0.11167220206E+04  0.11167220206E+04  0.00000000000E+00 0. -1.
          6    1    1    2  502    0  0.69392894552E+02  0.10542706895E+03 -0.60156216091E+03  0.63827210037E+03  0.17200000000E+03 0.  1.
         -6    1    1    2    0  501 -0.69392894552E+02 -0.10542706895E+03 -0.47390141140E+03  0.51970836861E+03  0.17200000000E+03 0. -1.
</event>
<event>
 4    1  0.3205520E-002  0.2043296E+03  0.7818608E-02  0.1146137E+00
         -2   -1    0    0    0  501 -0.00000000000E+00  0.00000000000E+00  0.41493190679E+02  0.41493190679E+02  0.00000000000E+00 0.  1.
          2   -1    0    0  502    0  0.00000000000E+00 -0.00000000000E+00 -0.13731511547E+04  0.13731511547E+04  0.00000000000E+00 0. -1.
          6    1    1    2  502    0  0.79886305380E+02  0.76057648731E+02 -0.10314744899E+04  0.10515180507E+04  0.17200000000E+03 0. -1.
         -6    1    1    2    0  501 -0.79886305380E+02 -0.76057648731E+02 -0.30018347408E+03  0.36312629460E+03  0.17200000000E+03 0. -1.
</event>
<event>
 4    1  0.3205520E-002  0.3225578E+03  0.7818608E-02  0.1074478E+00
          1   -1    0    0  502    0  0.00000000000E+00  0.00000000000E+00  0.34798718737E+04  0.34798718737E+04  0.00000000000E+00 0. -1.
         -1   -1    0    0    0  501 -0.00000000000E+00 -0.00000000000E+00 -0.30028483299E+02  0.30028483299E+02  0.00000000000E+00 0.  1.
          6    1    1    2  502    0 -0.27213014316E+03  0.20117635332E+02  0.16095336224E+04  0.16415364801E+04  0.17200000000E+03 0.  1.
         -6    1    1    2    0  501  0.27213014316E+03 -0.20117635332E+02  0.18403097681E+04  0.18683638769E+04  0.17200000000E+03 0. -1.
</event>
<event>
 4    1  0.3205520E-002  0.4201205E+03  0.7818608E-02  0.1037027E+00
          2   -1    0    0  502    0  0.00000000000E+00  0.00000000000E+00  0.48285161531E+03  0.48285161531E+03  0.00000000000E+00 0. -1.
         -2   -1    0    0    0  501 -0.00000000000E+00 -0.00000000000E+00 -0.41106931138E+03  0.41106931138E+03  0.00000000000E+00 0.  1.
          6    1    1    2  502    0  0.36284453603E+01  0.38328065882E+03  0.18464238793E+03  0.45890526306E+03  0.17200000000E+03 0. -1.
         -6    1    1    2    0  501 -0.36284453603E+01 -0.38328065882E+03 -0.11286008400E+03  0.43501566363E+03  0.17200000000E+03 0.  1.
</event>
<event>
 4    1  0.3205520E-002  0.7779199E+03  0.7818608E-02  0.9592539E-01
          1   -1    0    0  502    0  0.00000000000E+00  0.00000000000E+00  0.72536614859E+03  0.72536614859E+03  0.00000000000E+00 0. -1.
         -1   -1    0    0    0  501 -0.00000000000E+00 -0.00000000000E+00 -0.93180626352E+03  0.93180626352E+03  0.00000000000E+00 0.  1.
          6    1    1    2  502    0 -0.74938887501E+03 -0.11828641134E+03 -0.37128063271E+03  0.86197950633E+03  0.17200000000E+03 0. -1.
         -6    1    1    2    0  501  0.74938887501E+03  0.11828641134E+03  0.16484051779E+03  0.79519290578E+03  0.17200000000E+03 0.  1.
</event>
<event>
 4    1  0.3205520E-002  0.1953250E+03  0.7818608E-02  0.1153744E+00
          2   -1    0    0  502    0  0.00000000000E+00  0.00000000000E+00  0.67236553703E+03  0.67236553703E+03  0.00000000000E+00 0. -1.
         -2   -1    0    0    0  501 -0.00000000000E+00 -0.00000000000E+00 -0.62926259720E+02  0.62926259720E+02  0.00000000000E+00 0.  1.
          6    1    1    2  502    0  0.21408728672E+02 -0.90052908123E+02  0.41996721313E+03  0.46316770184E+03  0.17200000000E+03 0. -1.
         -6    1    1    2    0  501 -0.21408728672E+02  0.90052908123E+02  0.18947206418E+03  0.27212409491E+03  0.17200000000E+03 0.  1.
</event>
<event>
 4    1  0.3205520E-002  0.2060864E+03  0.7818608E-02  0.1144703E+00
          2   -1    0    0  502    0  0.00000000000E+00  0.00000000000E+00  0.20744358360E+04  0.20744358360E+04  0.00000000000E+00 0. -1.
         -2   -1    0    0    0  501 -0.00000000000E+00 -0.00000000000E+00 -0.27686865657E+02  0.27686865657E+02  0.00000000000E+00 0.  1.
          6    1    1    2  502    0  0.35930192467E+02 -0.10768758913E+03  0.48689767891E+03  0.52871631837E+03  0.17200000000E+03 0.  1.
         -6    1    1    2    0  501 -0.35930192467E+02  0.10768758913E+03  0.15598512915E+04  0.15734063833E+04  0.17200000000E+03 0. -1.
</event>
<event>
 4    1  0.3205520E-002  0.1980399E+03  0.7818608E-02  0.1151403E+00
         -2   -1    0    0    0  501 -0.00000000000E+00  0.00000000000E+00  0.27706761368E+03  0.27706761368E+03  0.00000000000E+00 0.  1.
          2   -1    0    0  502    0  0.00000000000E+00 -0.00000000000E+00 -0.14924717851E+03  0.14924717851E+03  0.00000000000E+00 0. -1.
          6    1    1    2  502    0 -0.95554934628E+02  0.22473714665E+02  0.15512797700E+02  0.19864657126E+03  0.17200000000E+03 0. -1.
         -6    1    1    2    0  501  0.95554934628E+02 -0.22473714665E+02  0.11230763748E+03  0.22766822092E+03  0.17200000000E+03 0.  1.
</event>
<event>
 4    1  0.3205520E-002  0.2567759E+03  0.7818608E-02  0.1109096E+00
          1   -1    0    0  502    0  0.00000000000E+00  0.00000000000E+00  0.11061821214E+04  0.11061821214E+04  0.00000000000E+00 0. -1.
         -1   -1    0    0    0  501 -0.00000000000E+00 -0.00000000000E+00 -0.14084280418E+03  0.14084280418E+03  0.00000000000E+00 0.  1.
          6    1    1    2  502    0 -0.18226541994E+03  0.55939247544E+02  0.95621017451E+03  0.99008675406E+03  0.17200000000E+03 0. -1.
         -6    1    1    2    0  501  0.18226541994E+03 -0.55939247544E+02  0.91291426767E+01  0.25693817149E+03  0.17200000000E+03 0.  1.
</event>
<event>
 4    1  0.3205520E-002  0.3308108E+03  0.7818608E-02  0.1070779E+00
          2   -1    0    0  502    0  0.00000000000E+00  0.00000000000E+00  0.18503202523E+04  0.18503202523E+04  0.00000000000E+00 0. -1.
         -2   -1    0    0    0  501 -0.00000000000E+00 -0.00000000000E+00 -0.24593531146E+03  0.24593531146E+03  0.00000000000E+00 0.  1.
          6    1    1    2  502    0 -0.15224917382E+03  0.23805872053E+03  0.17156363222E+04  0.17472388948E+04  0.17200000000E+03 0. -1.
         -6    1    1    2    0  501  0.15224917382E+03 -0.23805872053E+03 -0.11125138140E+03  0.34901666896E+03  0.17200000000E+03 0.  1.
</event>
<event>
 4    1  0.3205520E-002  0.2083635E+03  0.7818608E-02  0.1142869E+00
         -2   -1    0    0    0  501 -0.00000000000E+00  0.00000000000E+00  0.21580460199E+03  0.21580460199E+03  0.00000000000E+00 0.  1.
          2   -1    0    0  502    0  0.00000000000E+00 -0.00000000000E+00 -0.48163118953E+03  0.48163118953E+03  0.00000000000E+00 0. -1.
          6    1    1    2  502    0  0.73679860219E+02  0.91665765936E+02 -0.39901424161E+03  0.45014186592E+03  0.17200000000E+03 0. -1.
         -6    1    1    2    0  501 -0.73679860219E+02 -0.91665765936E+02  0.13318765407E+03  0.24729392561E+03  0.17200000000E+03 0.  1.
</event>
<event>
 4    1  0.3205520E-002  0.2733321E+03  0.7818608E-02  0.1099388E+00
          1   -1    0    0  502    0  0.00000000000E+00  0.00000000000E+00  0.18051985616E+04  0.18051985616E+04  0.00000000000E+00 0. -1.
         -1   -1    0    0    0  501 -0.00000000000E+00 -0.00000000000E+00 -0.97716006793E+02  0.97716006793E+02  0.00000000000E+00 0.  1.
          6    1    1    2  502    0  0.20512105029E+03  0.55243056024E+02  0.15761372053E+04  0.15996621301E+04  0.17200000000E+03 0. -1.
         -6    1    1    2    0  501 -0.20512105029E+03 -0.55243056024E+02  0.13134534953E+03  0.30325243833E+03  0.17200000000E+03 0.  1.
</event>
<event>
 4    1  0.3205520E-002  0.1875635E+03  0.7818608E-02  0.1160677E+00
         -1   -1    0    0    0  501 -0.00000000000E+00  0.00000000000E+00  0.46737355182E+02  0.46737355182E+02  0.00000000000E+00 0.  1.
          1   -1    0    0  502    0  0.00000000000E+00 -0.00000000000E+00 -0.82147971017E+03  0.82147971017E+03  0.00000000000E+00 0. -1.
          6    1    1    2  502    0 -0.52741149102E+02 -0.53051425419E+02 -0.51296576879E+03  0.54618125425E+03  0.17200000000E+03 0. -1.
         -6    1    1    2    0  501  0.52741149102E+02  0.53051425419E+02 -0.26177658619E+03  0.32203581109E+03  0.17200000000E+03 0.  1.
</event>
<event>
 4    1  0.3205520E-002  0.2187943E+03  0.7818608E-02  0.1134785E+00
          2   -1    0    0  502    0  0.00000000000E+00  0.00000000000E+00  0.14553224443E+03  0.14553224443E+03  0.00000000000E+00 0. -1.
         -2   -1    0    0    0  501 -0.00000000000E+00 -0.00000000000E+00 -0.33239393936E+03  0.33239393936E+03  0.00000000000E+00 0.  1.
          6    1    1    2  502    0  0.29860467953E+01 -0.13519622930E+03 -0.69061076190E+02  0.22943489084E+03  0.17200000000E+03 0. -1.
         -6    1    1    2    0  501 -0.29860467953E+01  0.13519622930E+03 -0.11780061874E+03  0.24849129294E+03  0.17200000000E+03 0.  1.
</event>
<event>
 4    1  0.3205520E-002  0.1909097E+03  0.7818608E-02  0.1157643E+00
          2   -1    0    0  502    0  0.00000000000E+00  0.00000000000E+00  0.25699337428E+03  0.25699337428E+03  0.00000000000E+00 0. -1.
         -2   -1    0    0    0  501 -0.00000000000E+00 -0.00000000000E+00 -0.26333522327E+03  0.26333522327E+03  0.00000000000E+00 0.  1.
          6    1    1    2  502    0 -0.44097756444E+02 -0.70127827985E+02 -0.17990100963E+03  0.26231831360E+03  0.17200000000E+03 0.  1.
         -6    1    1    2    0  501  0.44097756444E+02  0.70127827985E+02  0.17355916065E+03  0.25801028395E+03  0.17200000000E+03 0. -1.
</event>
<event>
 4    1  0.3205520E-002  0.3225446E+03  0.7818608E-02  0.1074484E+00
          2   -1    0    0  502    0  0.00000000000E+00  0.00000000000E+00  0.21308230541E+04  0.21308230541E+04  0.00000000000E+00 0. -1.
         -2   -1    0    0    0  501 -0.00000000000E+00 -0.00000000000E+00 -0.48966946049E+02  0.48966946049E+02  0.00000000000E+00 0.  1.
          6    1    1    2  502    0  0.10419702282E+03  0.25217853080E+03  0.98201461743E+03  0.10336284341E+04  0.17200000000E+03 0. -1.
         -6    1    1    2    0  501 -0.10419702282E+03 -0.25217853080E+03  0.10998414906E+04  0.11461615660E+04  0.17200000000E+03 0.  1.
</event>
<event>
 4    1  0.3205520E-002  0.2393735E+03  0.7818608E-02  0.1120211E+00
         -1   -1    0    0    0  501 -0.00000000000E+00  0.00000000000E+00  0.19942745917E+03  0.19942745917E+03  0.00000000000E+00 0.  1.
          1   -1    0    0  502    0  0.00000000000E+00 -0.00000000000E+00 -0.31358262384E+03  0.31358262384E+03  0.00000000000E+00 0. -1.
          6    1    1    2  502    0  0.13570546198E+02 -0.16592622263E+03 -0.13130797762E+03  0.27302281236E+03  0.17200000000E+03 0. -1.
         -6    1    1    2    0  501 -0.13570546198E+02  0.16592622263E+03  0.17152812952E+02  0.23998727065E+03  0.17200000000E+03 0.  1.
</event>
<event>
 4    1  0.3205520E-002  0.4738888E+03  0.7818608E-02  0.1020828E+00
          1   -1    0    0  502    0  0.00000000000E+00  0.00000000000E+00  0.24320069132E+04  0.24320069132E+04  0.00000000000E+00 0. -1.
         -1   -1    0    0    0  501 -0.00000000000E+00 -0.00000000000E+00 -0.92368196858E+02  0.92368196858E+02  0.00000000000E+00 0.  1.
          6    1    1    2  502    0 -0.34929000788E+03  0.27015388653E+03  0.11920141839E+04  0.12827581403E+04  0.17200000000E+03 0. -1.
         -6    1    1    2    0  501  0.34929000788E+03 -0.27015388653E+03  0.11476245325E+04  0.12416169697E+04  0.17200000000E+03 0.  1.
</event>
<event>
 4    1  0.3205520E-002  0.2166305E+03  0.7818608E-02  0.1136420E+00
          2   -1    0    0  502    0  0.00000000000E+00  0.00000000000E+00  0.48773031358E+03  0.48773031358E+03  0.00000000000E+00 0. -1.
         -2   -1    0    0    0  501 -0.00000000000E+00 -0.00000000000E+00 -0.10580120554E+03  0.10580120554E+03  0.00000000000E+00 0.  1.
          6    1    1    2  502    0 -0.12365372561E+03 -0.45326728587E+02  0.10165272630E+03  0.23929486611E+03  0.17200000000E+03 0. -1.
         -6    1    1    2    0  501  0.12365372561E+03  0.45326728587E+02  0.28027638173E+03  0.35423665301E+03  0.17200000000E+03 0.  1.
</event>
<event>
 4    1  0.3205520E-002  0.2221605E+03  0.7818608E-02  0.1132282E+00
         -1   -1    0    0    0  501 -0.00000000000E+00  0.00000000000E+00  0.18386998114E+03  0.18386998114E+03  0.00000000000E+00 0.  1.
          1   -1    0    0  502    0  0.00000000000E+00 -0.00000000000E+00 -0.29726192850E+03  0.29726192850E+03  0.00000000000E+00 0. -1.
          6    1    1    2  502    0  0.27068225161E+02  0.13798050791E+03 -0.13162302187E+03  0.25822457138E+03  0.17200000000E+03 0. -1.
         -6    1    1    2    0  501 -0.27068225161E+02 -0.13798050791E+03  0.18231074511E+02  0.22290733827E+03  0.17200000000E+03 0.  1.
</event>
<event>
 4    1  0.3205520E-002  0.1758340E+03  0.7818608E-02  0.1171897E+00
         -1   -1    0    0    0  501 -0.00000000000E+00  0.00000000000E+00  0.63272563700E+03  0.63272563700E+03  0.00000000000E+00 0.  1.
          1   -1    0    0  502    0  0.00000000000E+00 -0.00000000000E+00 -0.62111625140E+02  0.62111625140E+02  0.00000000000E+00 0. -1.
          6    1    1    2  502    0 -0.12308031371E+02  0.34381895797E+02  0.12485942847E+03  0.21565592798E+03  0.17200000000E+03 0. -1.
         -6    1    1    2    0  501  0.12308031371E+02 -0.34381895797E+02  0.44575458339E+03  0.47918133416E+03  0.17200000000E+03 0.  1.
</event>
<event>
 4    1  0.3205520E-002  0.5863279E+03  0.7818608E-02  0.9934184E-01
          2   -1    0    0  502    0  0.00000000000E+00  0.00000000000E+00  0.10848415749E+04  0.10848415749E+04  0.00000000000E+00 0. -1.
         -2   -1    0    0    0  501 -0.00000000000E+00 -0.00000000000E+00 -0.31887757128E+03  0.31887757128E+03  0.00000000000E+00 0.  1.
          6    1    1    2  502    0  0.66234986734E+02 -0.55660518350E+03  0.43832973002E+03  0.73206103297E+03  0.17200000000E+03 0. -1.
         -6    1    1    2    0  501 -0.66234986734E+02  0.55660518350E+03  0.32763427355E+03  0.67165811316E+03  0.17200000000E+03 0.  1.
</event>
<event>
 4    1  0.3205520E-002  0.5420792E+03  0.7818608E-02  0.1003344E+00
          2   -1    0    0  502    0  0.00000000000E+00  0.00000000000E+00  0.31589759630E+03  0.31589759630E+03  0.00000000000E+00 0. -1.
         -2   -1    0    0    0  501 -0.00000000000E+00 -0.00000000000E+00 -0.15691628315E+04  0.15691628315E+04  0.00000000000E+00 0.  1.
          6    1    1    2  502    0  0.49432523593E+03 -0.14109710857E+03 -0.25186064063E+02  0.54266395748E+03  0.17200000000E+03 0. -1.
         -6    1    1    2    0  501 -0.49432523593E+03  0.14109710857E+03 -0.12280791711E+04  0.13423964703E+04  0.17200000000E+03 0.  1.
</event>
<event>
 4    1  0.3205520E-002  0.2086284E+03  0.7818608E-02  0.1142657E+00
         -2   -1    0    0    0  501 -0.00000000000E+00  0.00000000000E+00  0.18335833038E+03  0.18335833038E+03  0.00000000000E+00 0.  1.
          2   -1    0    0  502    0  0.00000000000E+00 -0.00000000000E+00 -0.26944170722E+03  0.26944170722E+03  0.00000000000E+00 0. -1.
          6    1    1    2  502    0 -0.55845800711E+02 -0.10403384553E+03  0.35054565693E+02  0.21155287058E+03  0.17200000000E+03 0.  1.
         -6    1    1    2    0  501  0.55845800711E+02  0.10403384553E+03 -0.12113794253E+03  0.24124716702E+03  0.17200000000E+03 0. -1.
</event>
<event>
 4    1  0.3205520E-002  0.1943342E+03  0.7818608E-02  0.1154609E+00
         -1   -1    0    0    0  501 -0.00000000000E+00  0.00000000000E+00  0.20672456058E+03  0.20672456058E+03  0.00000000000E+00 0.  1.
          1   -1    0    0  502    0  0.00000000000E+00 -0.00000000000E+00 -0.22365486616E+03  0.22365486616E+03  0.00000000000E+00 0. -1.
          6    1    1    2  502    0 -0.84826869581E+02  0.31403392501E+02  0.83634300608E+02  0.21156669658E+03  0.17200000000E+03 0.  1.
         -6    1    1    2    0  501  0.84826869581E+02 -0.31403392501E+02 -0.10056460618E+03  0.21881273016E+03  0.17200000000E+03 0. -1.
</event>
<event>
 4    1  0.3205520E-002  0.1871631E+03  0.7818608E-02  0.1161045E+00
         -1   -1    0    0    0  501 -0.00000000000E+00  0.00000000000E+00  0.21124908238E+02  0.21124908238E+02  0.00000000000E+00 0.  1.
          1   -1    0    0  502    0  0.00000000000E+00 -0.00000000000E+00 -0.17370830347E+04  0.17370830347E+04  0.00000000000E+00 0. -1.
          6    1    1    2  502    0  0.16600307772E+02 -0.71905752601E+02 -0.10452767979E+04  0.10619009331E+04  0.17200000000E+03 0. -1.
         -6    1    1    2    0  501 -0.16600307772E+02  0.71905752601E+02 -0.67068132853E+03  0.69630700981E+03  0.17200000000E+03 0.  1.
</event>
<event>
 4    1  0.3205520E-002  0.9591664E+03  0.7818608E-02  0.9354500E-01
          2   -1    0    0  502    0  0.00000000000E+00  0.00000000000E+00  0.20638230154E+04  0.20638230154E+04  0.00000000000E+00 0. -1.
         -2   -1    0    0    0  501 -0.00000000000E+00 -0.00000000000E+00 -0.79748237992E+03  0.79748237992E+03  0.00000000000E+00 0.  1.
          6    1    1    2  502    0  0.56969197927E+03 -0.75224141861E+03  0.15832599755E+04  0.18511380967E+04  0.17200000000E+03 0. -1.
         -6    1    1    2    0  501 -0.56969197927E+03  0.75224141861E+03 -0.31691934000E+03  0.10101672986E+04  0.17200000000E+03 0.  1.
</event>
<event>
 4    1  0.3205520E-002  0.2768060E+03  0.7818608E-02  0.1097446E+00
         -2   -1    0    0    0  501 -0.00000000000E+00  0.00000000000E+00  0.22900035851E+03  0.22900035851E+03  0.00000000000E+00 0.  1.
          2   -1    0    0  502    0  0.00000000000E+00 -0.00000000000E+00 -0.51900214662E+03  0.51900214662E+03  0.00000000000E+00 0. -1.
          6    1    1    2  502    0  0.21636195281E+03  0.15003016991E+02 -0.36793751533E+03  0.46043414331E+03  0.17200000000E+03 0. -1.
         -6    1    1    2    0  501 -0.21636195281E+03 -0.15003016991E+02  0.77935727217E+02  0.28756836182E+03  0.17200000000E+03 0.  1.
</event>
<event>
 4    1  0.3205520E-002  0.2484092E+03  0.7818608E-02  0.1114314E+00
         -2   -1    0    0    0  501 -0.00000000000E+00  0.00000000000E+00  0.64645280281E+03  0.64645280281E+03  0.00000000000E+00 0.  1.
          2   -1    0    0  502    0  0.00000000000E+00 -0.00000000000E+00 -0.16435860501E+04  0.16435860501E+04  0.00000000000E+00 0. -1.
          6    1    1    2  502    0  0.57769937972E+02 -0.16966367190E+03 -0.16098389458E+04  0.16288918192E+04  0.17200000000E+03 0. -1.
         -6    1    1    2    0  501 -0.57769937972E+02  0.16966367190E+03  0.61270569846E+03  0.66114703374E+03  0.17200000000E+03 0.  1.
</event>
<event>
 4    1  0.3205520E-002  0.2448591E+03  0.7818608E-02  0.1116598E+00
          3   -1    0    0  502    0  0.00000000000E+00  0.00000000000E+00  0.70259964522E+02  0.70259964522E+02  0.00000000000E+00 0. -1.
         -3   -1    0    0    0  501 -0.00000000000E+00 -0.00000000000E+00 -0.87124081207E+03  0.87124081207E+03  0.00000000000E+00 0.  1.
          6    1    1    2  502    0  0.53649636581E+02 -0.16581216498E+03 -0.46795919323E+03  0.52814937669E+03  0.17200000000E+03 0. -1.
         -6    1    1    2    0  501 -0.53649636581E+02  0.16581216498E+03 -0.33302165432E+03  0.41335139991E+03  0.17200000000E+03 0. -1.
</event>
<event>
 4    1  0.3205520E-002  0.1963807E+03  0.7818608E-02  0.1152829E+00
          2   -1    0    0  502    0  0.00000000000E+00  0.00000000000E+00  0.27711392235E+04  0.27711392235E+04  0.00000000000E+00 0. -1.
         -2   -1    0    0    0  501 -0.00000000000E+00 -0.00000000000E+00 -0.15436008177E+02  0.15436008177E+02  0.00000000000E+00 0.  1.
          6    1    1    2  502    0 -0.78190046822E+02 -0.53550930359E+02  0.18149529781E+04  0.18255464108E+04  0.17200000000E+03 0. -1.
         -6    1    1    2    0  501  0.78190046822E+02  0.53550930359E+02  0.94075023722E+03  0.96102882079E+03  0.17200000000E+03 0.  1.
</event>
<event>
 4    1  0.3205520E-002  0.1817183E+03  0.7818608E-02  0.1166150E+00
          2   -1    0    0  502    0  0.00000000000E+00  0.00000000000E+00  0.39292809984E+02  0.39292809984E+02  0.00000000000E+00 0. -1.
         -2   -1    0    0    0  501 -0.00000000000E+00 -0.00000000000E+00 -0.11882990159E+04  0.11882990159E+04  0.00000000000E+00 0.  1.
          6    1    1    2  502    0  0.12951724266E+02  0.57182145204E+02 -0.24238707873E+03  0.30294065562E+03  0.17200000000E+03 0. -1.
         -6    1    1    2    0  501 -0.12951724266E+02 -0.57182145204E+02 -0.90661912716E+03  0.92465117024E+03  0.17200000000E+03 0.  1.
</event>
<event>
 4    1  0.3205520E-002  0.1887071E+03  0.7818608E-02  0.1159633E+00
          2   -1    0    0  502    0  0.00000000000E+00  0.00000000000E+00  0.43561903176E+03  0.43561903176E+03  0.00000000000E+00 0. -1.
         -2   -1    0    0    0  501 -0.00000000000E+00 -0.00000000000E+00 -0.87652816804E+02  0.87652816804E+02  0.00000000000E+00 0.  1.
          6    1    1    2  502    0 -0.10146705976E+02 -0.76963833047E+02  0.10606773698E+03  0.21647344426E+03  0.17200000000E+03 0. -1.
         -6    1    1    2    0  501  0.10146705976E+02  0.76963833047E+02  0.24189847797E+03  0.30679840430E+03  0.17200000000E+03 0. -1.
</event>
<event>
 4    1  0.3205520E-002  0.6453770E+03  0.7818608E-02  0.9815493E-01
          2   -1    0    0  502    0  0.00000000000E+00  0.00000000000E+00  0.87289214183E+03  0.87289214183E+03  0.00000000000E+00 0. -1.
         -2   -1    0    0    0  501 -0.00000000000E+00 -0.00000000000E+00 -0.12395496268E+04  0.12395496268E+04  0.00000000000E+00 0.  1.
          6    1    1    2  502    0 -0.35784180201E+03  0.50879923582E+03  0.64501493416E+03  0.91244489309E+03  0.17200000000E+03 0. -1.
         -6    1    1    2    0  501  0.35784180201E+03 -0.50879923582E+03 -0.10116724191E+04  0.11999968755E+04  0.17200000000E+03 0.  1.
</event>
<event>
 4    1  0.3205520E-002  0.2202485E+03  0.7818608E-02  0.1133698E+00
         -2   -1    0    0    0  501 -0.00000000000E+00  0.00000000000E+00  0.48335601995E+02  0.48335601995E+02  0.00000000000E+00 0.  1.
          2   -1    0    0  502    0  0.00000000000E+00 -0.00000000000E+00 -0.10043390306E+04  0.10043390306E+04  0.00000000000E+00 0. -1.
          6    1    1    2  502    0 -0.10950811167E+03 -0.83266929524E+02 -0.46368378533E+03  0.51333425840E+03  0.17200000000E+03 0. -1.
         -6    1    1    2    0  501  0.10950811167E+03  0.83266929524E+02 -0.49231964325E+03  0.53934037416E+03  0.17200000000E+03 0. -1.
</event>
<event>
 4    1  0.3205520E-002  0.4252367E+03  0.7818608E-02  0.1035375E+00
         -1   -1    0    0    0  501 -0.00000000000E+00  0.00000000000E+00  0.13858635072E+04  0.13858635072E+04  0.00000000000E+00 0.  1.
          1   -1    0    0  502    0  0.00000000000E+00 -0.00000000000E+00 -0.13056328481E+03  0.13056328481E+03  0.00000000000E+00 0. -1.
          6    1    1    2  502    0  0.71784057428E+02 -0.38221632735E+03  0.64689906903E+03  0.77414771026E+03  0.17200000000E+03 0. -1.
         -6    1    1    2    0  501 -0.71784057428E+02  0.38221632735E+03  0.60840115336E+03  0.74227908175E+03  0.17200000000E+03 0.  1.
</event>
<event>
 4    1  0.3205520E-002  0.1918775E+03  0.7818608E-02  0.1156779E+00
         -1   -1    0    0    0  501 -0.00000000000E+00  0.00000000000E+00  0.26413578303E+03  0.26413578303E+03  0.00000000000E+00 0.  1.
          1   -1    0    0  502    0  0.00000000000E+00 -0.00000000000E+00 -0.14606010638E+03  0.14606010638E+03  0.00000000000E+00 0. -1.
          6    1    1    2  502    0 -0.71037038341E+02  0.46762468027E+02  0.15197642946E+02  0.19247846005E+03  0.17200000000E+03 0. -1.
         -6    1    1    2    0  501  0.71037038341E+02 -0.46762468027E+02  0.10287803370E+03  0.21771742937E+03  0.17200000000E+03 0. -1.
</event>
<event>
 4    1  0.3205520E-002  0.1734679E+03  0.7818608E-02  0.1174279E+00
          1   -1    0    0  502    0  0.00000000000E+00  0.00000000000E+00  0.42230380123E+02  0.42230380123E+02  0.00000000000E+00 0. -1.
         -1   -1    0    0    0  501 -0.00000000000E+00 -0.00000000000E+00 -0.76170305710E+03  0.76170305710E+03  0.00000000000E+00 0.  1.
          6    1    1    2  502    0  0.11762212337E+01 -0.22488140460E+02 -0.25762147069E+03  0.31057997701E+03  0.17200000000E+03 0. -1.
         -6    1    1    2    0  501 -0.11762212337E+01  0.22488140460E+02 -0.46185120628E+03  0.49335346021E+03  0.17200000000E+03 0.  1.
</event>
<event>
 4    1  0.3205520E-002  0.1795444E+03  0.7818608E-02  0.1168245E+00
          1   -1    0    0  502    0  0.00000000000E+00  0.00000000000E+00  0.63567472933E+03  0.63567472933E+03  0.00000000000E+00 0. -1.
         -1   -1    0    0    0  501 -0.00000000000E+00 -0.00000000000E+00 -0.68394328838E+02  0.68394328838E+02  0.00000000000E+00 0.  1.
          6    1    1    2  502    0 -0.43413545250E+02 -0.27703062357E+02  0.46263799403E+03  0.49625609225E+03  0.17200000000E+03 0. -1.
         -6    1    1    2    0  501  0.43413545250E+02  0.27703062357E+02  0.10464240647E+03  0.20781296593E+03  0.17200000000E+03 0.  1.
</event>
<event>
 4    1  0.3205520E-002  0.3602027E+03  0.7818608E-02  0.1058504E+00
         -3   -1    0    0    0  501 -0.00000000000E+00  0.00000000000E+00  0.35482462965E+03  0.35482462965E+03  0.00000000000E+00 0.  1.
          3   -1    0    0  502    0  0.00000000000E+00 -0.00000000000E+00 -0.44804418941E+03  0.44804418941E+03  0.00000000000E+00 0. -1.
          6    1    1    2  502    0 -0.16704059225E+01 -0.31647941110E+03 -0.21874506911E+03  0.42142070804E+03  0.17200000000E+03 0. -1.
         -6    1    1    2    0  501  0.16704059225E+01  0.31647941110E+03  0.12552550934E+03  0.38144811102E+03  0.17200000000E+03 0.  1.
</event>
<event>
 4    1  0.3205520E-002  0.1855964E+03  0.7818608E-02  0.1162494E+00
         -2   -1    0    0    0  501 -0.00000000000E+00  0.00000000000E+00  0.48038533673E+03  0.48038533673E+03  0.00000000000E+00 0.  1.
          2   -1    0    0  502    0  0.00000000000E+00 -0.00000000000E+00 -0.77922620964E+02  0.77922620964E+02  0.00000000000E+00 0. -1.
          6    1    1    2  502    0 -0.51506454626E+02 -0.47001290114E+02  0.28008536416E+03  0.33599679665E+03  0.17200000000E+03 0.  1.
         -6    1    1    2    0  501  0.51506454626E+02  0.47001290114E+02  0.12237735161E+03  0.22231116105E+03  0.17200000000E+03 0. -1.
</event>
<event>
 4    1  0.3205520E-002  0.2988040E+03  0.7818608E-02  0.1085840E+00
          2   -1    0    0  502    0  0.00000000000E+00  0.00000000000E+00  0.48839358360E+03  0.48839358360E+03  0.00000000000E+00 0. -1.
         -2   -1    0    0    0  501 -0.00000000000E+00 -0.00000000000E+00 -0.28464016660E+03  0.28464016660E+03  0.00000000000E+00 0.  1.
          6    1    1    2  502    0  0.15435311593E+03 -0.18940685437E+03  0.33305972787E+03  0.44745125233E+03  0.17200000000E+03 0. -1.
         -6    1    1    2    0  501 -0.15435311593E+03  0.18940685437E+03 -0.12930631087E+03  0.32558249786E+03  0.17200000000E+03 0.  1.
</event>
<event>
 4    1  0.3205520E-002  0.1763967E+03  0.7818608E-02  0.1171337E+00
          1   -1    0    0  502    0  0.00000000000E+00  0.00000000000E+00  0.15682240806E+04  0.15682240806E+04  0.00000000000E+00 0. -1.
         -1   -1    0    0    0  501 -0.00000000000E+00 -0.00000000000E+00 -0.19854001107E+02  0.19854001107E+02  0.00000000000E+00 0.  1.
          6    1    1    2  502    0  0.27900318280E+02 -0.27447655237E+02  0.75420118467E+03  0.77455485828E+03  0.17200000000E+03 0.  1.
         -6    1    1    2    0  501 -0.27900318280E+02  0.27447655237E+02  0.79416889481E+03  0.81352322341E+03  0.17200000000E+03 0.  1.
</event>
<event>
 4    1  0.3205520E-002  0.1752889E+03  0.7818608E-02  0.1172442E+00
          1   -1    0    0  502    0  0.00000000000E+00  0.00000000000E+00  0.17470699360E+03  0.17470699360E+03  0.00000000000E+00 0. -1.
         -1   -1    0    0    0  501 -0.00000000000E+00 -0.00000000000E+00 -0.24339307975E+03  0.24339307975E+03  0.00000000000E+00 0.  1.
          6    1    1    2  502    0 -0.21956646667E+02  0.25692223312E+02 -0.14444972711E+03  0.22713852235E+03  0.17200000000E+03 0.  1.
         -6    1    1    2    0  501  0.21956646667E+02 -0.25692223312E+02  0.75763640960E+02  0.19096155101E+03  0.17200000000E+03 0.  1.
</event>
<event>
 4    1  0.3205520E-002  0.1989112E+03  0.7818608E-02  0.1150661E+00
         -2   -1    0    0    0  501 -0.00000000000E+00  0.00000000000E+00  0.19386894089E+02  0.19386894089E+02  0.00000000000E+00 0.  1.
          2   -1    0    0  502    0  0.00000000000E+00 -0.00000000000E+00 -0.21179200430E+04  0.21179200430E+04  0.00000000000E+00 0. -1.
          6    1    1    2  502    0 -0.59009559381E+02  0.80619734288E+02 -0.12531282317E+04  0.12688167854E+04  0.17200000000E+03 0. -1.
         -6    1    1    2    0  501  0.59009559381E+02 -0.80619734288E+02 -0.84540491720E+03  0.86849015175E+03  0.17200000000E+03 0. -1.
</event>
<event>
 4    1  0.3205520E-002  0.2053553E+03  0.7818608E-02  0.1145298E+00
          1   -1    0    0  502    0  0.00000000000E+00  0.00000000000E+00  0.45673480280E+03  0.45673480280E+03  0.00000000000E+00 0. -1.
         -1   -1    0    0    0  501 -0.00000000000E+00 -0.00000000000E+00 -0.92448918011E+02  0.92448918011E+02  0.00000000000E+00 0.  1.
          6    1    1    2  502    0 -0.18236133336E+02 -0.11069892189E+03  0.17233859302E+03  0.26808841548E+03  0.17200000000E+03 0.  1.
         -6    1    1    2    0  501  0.18236133336E+02  0.11069892189E+03  0.19194729176E+03  0.28109530533E+03  0.17200000000E+03 0.  1.
</event>
<event>
 4    1  0.3205520E-002  0.2093248E+03  0.7818608E-02  0.1142102E+00
          2   -1    0    0  502    0  0.00000000000E+00  0.00000000000E+00  0.16669523971E+04  0.16669523971E+04  0.00000000000E+00 0. -1.
         -2   -1    0    0    0  501 -0.00000000000E+00 -0.00000000000E+00 -0.28873905124E+02  0.28873905124E+02  0.00000000000E+00 0.  1.
          6    1    1    2  502    0 -0.11884278954E+03  0.10452172448E+02  0.56517256200E+03  0.60269136494E+03  0.17200000000E+03 0. -1.
         -6    1    1    2    0  501  0.11884278954E+03 -0.10452172448E+02  0.10729059300E+04  0.10931349373E+04  0.17200000000E+03 0.  1.
</event>
<event>
 4    1  0.3205520E-002  0.1999410E+03  0.7818608E-02  0.1149789E+00
          2   -1    0    0  502    0  0.00000000000E+00  0.00000000000E+00  0.16972872593E+04  0.16972872593E+04  0.00000000000E+00 0. -1.
         -2   -1    0    0    0  501 -0.00000000000E+00 -0.00000000000E+00 -0.70963877766E+03  0.70963877766E+03  0.00000000000E+00 0.  1.
          6    1    1    2  502    0 -0.91438291156E+02 -0.45071317583E+02  0.16771471017E+04  0.16890230269E+04  0.17200000000E+03 0. -1.
         -6    1    1    2    0  501  0.91438291156E+02  0.45071317583E+02 -0.68949862006E+03  0.71790301004E+03  0.17200000000E+03 0.  1.
</event>
<event>
 4    1  0.3205520E-002  0.3758577E+03  0.7818608E-02  0.1052475E+00
          1   -1    0    0  502    0  0.00000000000E+00  0.00000000000E+00  0.49949117517E+03  0.49949117517E+03  0.00000000000E+00 0. -1.
         -1   -1    0    0    0  501 -0.00000000000E+00 -0.00000000000E+00 -0.31190272853E+03  0.31190272853E+03  0.00000000000E+00 0.  1.
          6    1    1    2  502    0  0.33356027561E+03  0.20555740772E+02 -0.30075837652E+02  0.37705908285E+03  0.17200000000E+03 0. -1.
         -6    1    1    2    0  501 -0.33356027561E+03 -0.20555740772E+02  0.21766428429E+03  0.43433482085E+03  0.17200000000E+03 0.  1.
</event>
<event>
 4    1  0.3205520E-002  0.6596080E+03  0.7818608E-02  0.9788916E-01
          1   -1    0    0  502    0  0.00000000000E+00  0.00000000000E+00  0.12680473210E+04  0.12680473210E+04  0.00000000000E+00 0. -1.
         -1   -1    0    0    0  501 -0.00000000000E+00 -0.00000000000E+00 -0.68281132752E+03  0.68281132752E+03  0.00000000000E+00 0.  1.
          6    1    1    2  502    0 -0.63504006700E+03  0.47146511909E+02  0.98062455313E+03  0.11818236732E+04  0.17200000000E+03 0. -1.
         -6    1    1    2    0  501  0.63504006700E+03 -0.47146511909E+02 -0.39538855962E+03  0.76903497538E+03  0.17200000000E+03 0.  1.
</event>
<event>
 4    1  0.3205520E-002  0.1857162E+03  0.7818608E-02  0.1162383E+00
         -2   -1    0    0    0  501 -0.00000000000E+00  0.00000000000E+00  0.19398497116E+02  0.19398497116E+02  0.00000000000E+00 0.  1.
          2   -1    0    0  502    0  0.00000000000E+00 -0.00000000000E+00 -0.19877007354E+04  0.19877007354E+04  0.00000000000E+00 0. -1.
          6    1    1    2  502    0 -0.31844631140E+02  0.62389305563E+02 -0.65819097940E+03  0.68389024803E+03  0.17200000000E+03 0.  1.
         -6    1    1    2    0  501  0.31844631140E+02 -0.62389305563E+02 -0.13101112589E+04  0.13232089845E+04  0.17200000000E+03 0.  1.
</event>
<event>
 4    1  0.3205520E-002  0.1994819E+03  0.7818608E-02  0.1150177E+00
         -2   -1    0    0    0  501 -0.00000000000E+00  0.00000000000E+00  0.10483617962E+03  0.10483617962E+03  0.00000000000E+00 0.  1.
          2   -1    0    0  502    0  0.00000000000E+00 -0.00000000000E+00 -0.57944910432E+03  0.57944910432E+03  0.00000000000E+00 0. -1.
          6    1    1    2  502    0  0.79573334856E+02  0.62266358972E+02 -0.43825260063E+03  0.48151672560E+03  0.17200000000E+03 0. -1.
         -6    1    1    2    0  501 -0.79573334856E+02 -0.62266358972E+02 -0.36360324071E+02  0.20276855833E+03  0.17200000000E+03 0.  1.
</event>
<event>
 4    1  0.3205520E-002  0.2304986E+03  0.7818608E-02  0.1126289E+00
         -2   -1    0    0    0  501 -0.00000000000E+00  0.00000000000E+00  0.10180288348E+03  0.10180288348E+03  0.00000000000E+00 0.  1.
          2   -1    0    0  502    0  0.00000000000E+00 -0.00000000000E+00 -0.10336162430E+04  0.10336162430E+04  0.00000000000E+00 0. -1.
          6    1    1    2  502    0 -0.15115998679E+03 -0.26386878226E+02 -0.66452808978E+02  0.23988660815E+03  0.17200000000E+03 0.  1.
         -6    1    1    2    0  501  0.15115998679E+03  0.26386878226E+02 -0.86536055050E+03  0.89553251829E+03  0.17200000000E+03 0. -1.
</event>
<event>
 4    1  0.3205520E-002  0.1897391E+03  0.7818608E-02  0.1158697E+00
          1   -1    0    0  502    0  0.00000000000E+00  0.00000000000E+00  0.92439530957E+03  0.92439530957E+03  0.00000000000E+00 0. -1.
         -1   -1    0    0    0  501 -0.00000000000E+00 -0.00000000000E+00 -0.39084059162E+02  0.39084059162E+02  0.00000000000E+00 0.  1.
          6    1    1    2  502    0  0.22031080659E+02 -0.77016670661E+02  0.47135035564E+03  0.50810638043E+03  0.17200000000E+03 0. -1.
         -6    1    1    2    0  501 -0.22031080659E+02  0.77016670661E+02  0.41396089477E+03  0.45537298830E+03  0.17200000000E+03 0.  1.
</event>
<event>
 4    1  0.3205520E-002  0.2300898E+03  0.7818608E-02  0.1126577E+00
         -1   -1    0    0    0  501 -0.00000000000E+00  0.00000000000E+00  0.13892689596E+03  0.13892689596E+03  0.00000000000E+00 0.  1.
          1   -1    0    0  502    0  0.00000000000E+00 -0.00000000000E+00 -0.60926157048E+03  0.60926157048E+03  0.00000000000E+00 0. -1.
          6    1    1    2  502    0 -0.14115872455E+03 -0.58579307793E+02 -0.46410953457E+03  0.51801446012E+03  0.17200000000E+03 0. -1.
         -6    1    1    2    0  501  0.14115872455E+03  0.58579307793E+02 -0.62251399476E+01  0.23017400632E+03  0.17200000000E+03 0.  1.
</event>
<event>
 4    1  0.3205520E-002  0.1777439E+03  0.7818608E-02  0.1170005E+00
         -2   -1    0    0    0  501 -0.00000000000E+00  0.00000000000E+00  0.28790521380E+02  0.28790521380E+02  0.00000000000E+00 0.  1.
          2   -1    0    0  502    0  0.00000000000E+00 -0.00000000000E+00 -0.12013873479E+04  0.12013873479E+04  0.00000000000E+00 0. -1.
          6    1    1    2  502    0 -0.36271025085E+02  0.26330874303E+02 -0.76731497509E+03  0.78763263848E+03  0.17200000000E+03 0. -1.
         -6    1    1    2    0  501  0.36271025085E+02 -0.26330874303E+02 -0.40528185139E+03  0.44254523076E+03  0.17200000000E+03 0.  1.
</event>
<event>
 4    1  0.3205520E-002  0.3904111E+03  0.7818608E-02  0.1047151E+00
         -1   -1    0    0    0  501 -0.00000000000E+00  0.00000000000E+00  0.18225379774E+03  0.18225379774E+03  0.00000000000E+00 0.  1.
          1   -1    0    0  502    0  0.00000000000E+00 -0.00000000000E+00 -0.39349930761E+04  0.39349930761E+04  0.00000000000E+00 0. -1.
          6    1    1    2  502    0  0.15286308835E+03 -0.31538820812E+03 -0.37031798924E+04  0.37237027488E+04  0.17200000000E+03 0. -1.
         -6    1    1    2    0  501 -0.15286308835E+03  0.31538820812E+03 -0.49559385882E+02  0.39354412501E+03  0.17200000000E+03 0.  1.
</event>
<event>
 4    1  0.3205520E-002  0.2271117E+03  0.7818608E-02  0.1128689E+00
         -2   -1    0    0    0  501 -0.00000000000E+00  0.00000000000E+00  0.11444818576E+04  0.11444818576E+04  0.00000000000E+00 0.  1.
          2   -1    0    0  502    0  0.00000000000E+00 -0.00000000000E+00 -0.51798768097E+02  0.51798768097E+02  0.00000000000E+00 0. -1.
          6    1    1    2  502    0  0.33660773266E+02 -0.14443922005E+03  0.76195172180E+03  0.79507871453E+03  0.17200000000E+03 0. -1.
         -6    1    1    2    0  501 -0.33660773266E+02  0.14443922005E+03  0.33073136772E+03  0.40120191118E+03  0.17200000000E+03 0. -1.
</event>
<event>
 4    1  0.3205520E-002  0.1942971E+03  0.7818608E-02  0.1154642E+00
          2   -1    0    0  502    0  0.00000000000E+00  0.00000000000E+00  0.65204497114E+03  0.65204497114E+03  0.00000000000E+00 0. -1.
         -2   -1    0    0    0  501 -0.00000000000E+00 -0.00000000000E+00 -0.11664966071E+03  0.11664966071E+03  0.00000000000E+00 0.  1.
          6    1    1    2  502    0 -0.80049846898E+02 -0.41945071403E+02  0.54046748928E+03  0.57433132769E+03  0.17200000000E+03 0. -1.
         -6    1    1    2    0  501  0.80049846898E+02  0.41945071403E+02 -0.50721788492E+01  0.19436330415E+03  0.17200000000E+03 0.  1.
</event>
