<event>
 4    1 -0.6901648E-004  0.2381167E+03  0.7818608E-02  0.1121054E+00
         -5   -1    0    0    0  501 -0.00000000000E+00  0.00000000000E+00  0.49854423792E+02  0.50075478745E+02  0.47000000000E+01 0.  1.
          5   -1    0    0  501    0  0.00000000000E+00 -0.00000000000E+00 -0.11353741616E+04  0.11353838896E+04  0.47000000000E+01 0. -1.
          6    1    1    2  502    0  0.14458324252E+03  0.78811401467E+02 -0.55862535169E+03  0.60725763442E+03  0.17200000000E+03 0. -1.
         -6    1    1    2    0  502 -0.14458324252E+03 -0.78811401467E+02 -0.52689438611E+03  0.57820173394E+03  0.17200000000E+03 0.  1.
</event>
<event>
 4    1 -0.6901648E-004  0.2425624E+03  0.7818608E-02  0.1118098E+00
         -5   -1    0    0    0  501 -0.00000000000E+00  0.00000000000E+00  0.68898444999E+03  0.68900048065E+03  0.47000000000E+01 0.  1.
          5   -1    0    0  501    0  0.00000000000E+00 -0.00000000000E+00 -0.37788168228E+03  0.37791090987E+03  0.47000000000E+01 0. -1.
          6    1    1    2  502    0 -0.11344729418E+03 -0.12799306399E+03 -0.31377894892E+03  0.39660275059E+03  0.17200000000E+03 0. -1.
         -6    1    1    2    0  502  0.11344729418E+03  0.12799306399E+03  0.62488171663E+03  0.67030863993E+03  0.17200000000E+03 0.  1.
</event>
<event>
 4    1 -0.6901648E-004  0.2016591E+03  0.7818608E-02  0.1148347E+00
          5   -1    0    0  501    0  0.00000000000E+00  0.00000000000E+00  0.13374510702E+03  0.13382766400E+03  0.47000000000E+01 0. -1.
         -5   -1    0    0    0  501 -0.00000000000E+00 -0.00000000000E+00 -0.86628460905E+03  0.86629735881E+03  0.47000000000E+01 0.  1.
          6    1    1    2  502    0 -0.51866521780E+02 -0.91609197798E+02  0.36630607734E+02  0.20495897791E+03  0.17200000000E+03 0. -1.
         -6    1    1    2    0  502  0.51866521780E+02  0.91609197798E+02 -0.76917010977E+03  0.79516604490E+03  0.17200000000E+03 0.  1.
</event>
<event>
 4    1 -0.6901648E-004  0.2531696E+03  0.7818608E-02  0.1111318E+00
         -5   -1    0    0    0  501 -0.00000000000E+00  0.00000000000E+00  0.78279886734E+03  0.78281297684E+03  0.47000000000E+01 0.  1.
          5   -1    0    0  501    0  0.00000000000E+00 -0.00000000000E+00 -0.93339215307E+02  0.93457472222E+02  0.47000000000E+01 0. -1.
          6    1    1    2  502    0 -0.58786492718E+02  0.17622434449E+03  0.19077355979E+03  0.31700066630E+03  0.17200000000E+03 0. -1.
         -6    1    1    2    0  502  0.58786492718E+02 -0.17622434449E+03  0.49868609224E+03  0.55926978277E+03  0.17200000000E+03 0.  1.
</event>
<event>
 4    1 -0.6901648E-004  0.2036197E+03  0.7818608E-02  0.1146720E+00
         -5   -1    0    0    0  501 -0.00000000000E+00  0.00000000000E+00  0.76467941920E+02  0.76612245376E+02  0.47000000000E+01 0.  1.
          5   -1    0    0  501    0  0.00000000000E+00 -0.00000000000E+00 -0.94761347316E+03  0.94762512868E+03  0.47000000000E+01 0. -1.
          6    1    1    2  502    0  0.10774972104E+03  0.16339991967E+02 -0.77078744679E+03  0.79722913008E+03  0.17200000000E+03 0. -1.
         -6    1    1    2    0  502 -0.10774972104E+03 -0.16339991967E+02 -0.10035808445E+03  0.22700824398E+03  0.17200000000E+03 0.  1.
</event>
<event>
 4    1 -0.6901648E-004  0.2077291E+03  0.7818608E-02  0.1143377E+00
          5   -1    0    0  501    0  0.00000000000E+00  0.00000000000E+00  0.65240019366E+02  0.65409098197E+02  0.47000000000E+01 0. -1.
         -5   -1    0    0    0  501 -0.00000000000E+00 -0.00000000000E+00 -0.15696292818E+04  0.15696363185E+04  0.47000000000E+01 0.  1.
          6    1    1    2  502    0 -0.67879744349E+02  0.94655833861E+02 -0.13001621738E+03  0.24506244787E+03  0.17200000000E+03 0. -1.
         -6    1    1    2    0  502  0.67879744349E+02 -0.94655833861E+02 -0.13743730451E+04  0.13899829688E+04  0.17200000000E+03 0.  1.
</event>
<event>
 4    1 -0.6901648E-004  0.1894190E+03  0.7818608E-02  0.1158986E+00
         -5   -1    0    0    0  501 -0.00000000000E+00  0.00000000000E+00  0.11508923138E+04  0.11509019106E+04  0.47000000000E+01 0.  1.
          5   -1    0    0  501    0  0.00000000000E+00 -0.00000000000E+00 -0.94060048017E+02  0.94177399799E+02  0.47000000000E+01 0. -1.
          6    1    1    2  502    0  0.72061223918E+02  0.33207673929E+02  0.19302024508E+02  0.19039994157E+03  0.17200000000E+03 0. -1.
         -6    1    1    2    0  502 -0.72061223918E+02 -0.33207673929E+02  0.10375302413E+04  0.10546793689E+04  0.17200000000E+03 0.  1.
</event>
<event>
 4    1 -0.6901648E-004  0.1902176E+03  0.7818608E-02  0.1158265E+00
          5   -1    0    0  501    0  0.00000000000E+00  0.00000000000E+00  0.20026099510E+03  0.20031614053E+03  0.47000000000E+01 0. -1.
         -5   -1    0    0    0  501 -0.00000000000E+00 -0.00000000000E+00 -0.38971306707E+03  0.38974140740E+03  0.47000000000E+01 0.  1.
          6    1    1    2  502    0  0.74522806510E+02  0.32327666786E+02  0.12137697622E+03  0.22564373930E+03  0.17200000000E+03 0. -1.
         -6    1    1    2    0  502 -0.74522806510E+02 -0.32327666786E+02 -0.31082904818E+03  0.36441380863E+03  0.17200000000E+03 0.  1.
</event>
<event>
 4    1 -0.6901648E-004  0.2335832E+03  0.7818608E-02  0.1124143E+00
         -5   -1    0    0    0  501 -0.00000000000E+00  0.00000000000E+00  0.74022308246E+03  0.74023800349E+03  0.47000000000E+01 0.  1.
          5   -1    0    0  501    0  0.00000000000E+00 -0.00000000000E+00 -0.26404655537E+03  0.26408838181E+03  0.47000000000E+01 0. -1.
          6    1    1    2  502    0  0.82076294540E+02  0.13505765626E+03 -0.18827438109E+03  0.30001388504E+03  0.17200000000E+03 0. -1.
         -6    1    1    2    0  502 -0.82076294540E+02 -0.13505765626E+03  0.66445090818E+03  0.70431250026E+03  0.17200000000E+03 0.  1.
</event>
<event>
 4    1 -0.6901648E-004  0.2143649E+03  0.7818608E-02  0.1138155E+00
         -5   -1    0    0    0  501 -0.00000000000E+00  0.00000000000E+00  0.36857146662E+03  0.36860143245E+03  0.47000000000E+01 0.  1.
          5   -1    0    0  501    0  0.00000000000E+00 -0.00000000000E+00 -0.36784038137E+03  0.36787040676E+03  0.47000000000E+01 0. -1.
          6    1    1    2  502    0  0.12108991152E+03 -0.41298076978E+02 -0.29904278954E+03  0.36793870116E+03  0.17200000000E+03 0. -1.
         -6    1    1    2    0  502 -0.12108991152E+03  0.41298076978E+02  0.29977387479E+03  0.36853313805E+03  0.17200000000E+03 0.  1.
</event>
<event>
 4    1 -0.6901648E-004  0.2232082E+03  0.7818608E-02  0.1131514E+00
          5   -1    0    0  501    0  0.00000000000E+00  0.00000000000E+00  0.59218009409E+03  0.59219874521E+03  0.47000000000E+01 0. -1.
         -5   -1    0    0    0  501 -0.00000000000E+00 -0.00000000000E+00 -0.85827669131E+02  0.85956260903E+02  0.47000000000E+01 0.  1.
          6    1    1    2  502    0  0.13557928960E+03  0.43083114865E+02  0.30196884521E+03  0.37550909713E+03  0.17200000000E+03 0. -1.
         -6    1    1    2    0  502 -0.13557928960E+03 -0.43083114865E+02  0.20438357975E+03  0.30264590899E+03  0.17200000000E+03 0.  1.
</event>
<event>
 4    1 -0.6901648E-004  0.2379905E+03  0.7818608E-02  0.1121139E+00
         -5   -1    0    0    0  501 -0.00000000000E+00  0.00000000000E+00  0.15009486588E+04  0.15009560175E+04  0.47000000000E+01 0.  1.
          5   -1    0    0  501    0  0.00000000000E+00 -0.00000000000E+00 -0.50348203086E+02  0.50567099521E+02  0.47000000000E+01 0. -1.
          6    1    1    2  502    0 -0.15855950607E+03 -0.43753660788E+02  0.33568550116E+03  0.41149028602E+03  0.17200000000E+03 0. -1.
         -6    1    1    2    0  502  0.15855950607E+03  0.43753660788E+02  0.11149149546E+04  0.11400328310E+04  0.17200000000E+03 0.  1.
</event>
<event>
 4    1 -0.6901648E-004  0.2654339E+03  0.7818608E-02  0.1103922E+00
         -5   -1    0    0    0  501 -0.00000000000E+00  0.00000000000E+00  0.10877485109E+03  0.10887634376E+03  0.47000000000E+01 0.  1.
          5   -1    0    0  501    0  0.00000000000E+00 -0.00000000000E+00 -0.18730377993E+04  0.18730436961E+04  0.47000000000E+01 0. -1.
          6    1    1    2  502    0 -0.45892344612E+02  0.19688835085E+03 -0.16837504507E+04  0.17045441356E+04  0.17200000000E+03 0. -1.
         -6    1    1    2    0  502  0.45892344612E+02 -0.19688835085E+03 -0.80512497440E+02  0.27737590421E+03  0.17200000000E+03 0.  1.
</event>
<event>
 4    1 -0.6901648E-004  0.2288760E+03  0.7818608E-02  0.1127433E+00
          5   -1    0    0  501    0  0.00000000000E+00  0.00000000000E+00  0.23665618286E+03  0.23670284934E+03  0.47000000000E+01 0. -1.
         -5   -1    0    0    0  501 -0.00000000000E+00 -0.00000000000E+00 -0.77532956162E+03  0.77534380704E+03  0.47000000000E+01 0.  1.
          6    1    1    2  502    0  0.14756978602E+03  0.31990625783E+02  0.15841147506E+03  0.27834948772E+03  0.17200000000E+03 0. -1.
         -6    1    1    2    0  502 -0.14756978602E+03 -0.31990625783E+02 -0.69708485382E+03  0.73369716867E+03  0.17200000000E+03 0.  1.
</event>
<event>
 4    1 -0.6901648E-004  0.2090185E+03  0.7818608E-02  0.1142346E+00
          5   -1    0    0  501    0  0.00000000000E+00  0.00000000000E+00  0.63786049098E+02  0.63958971689E+02  0.47000000000E+01 0. -1.
         -5   -1    0    0    0  501 -0.00000000000E+00 -0.00000000000E+00 -0.19475066643E+04  0.19475123357E+04  0.47000000000E+01 0.  1.
          6    1    1    2  502    0 -0.73040467370E+02  0.93647255761E+02 -0.13175037278E+03  0.24707666647E+03  0.17200000000E+03 0. -1.
         -6    1    1    2    0  502  0.73040467370E+02 -0.93647255761E+02 -0.17519702425E+04  0.17643946409E+04  0.17200000000E+03 0.  1.
</event>
<event>
 4    1 -0.6901648E-004  0.1761138E+03  0.7818608E-02  0.1171618E+00
         -5   -1    0    0    0  501 -0.00000000000E+00  0.00000000000E+00  0.57555611547E+03  0.57557530529E+03  0.47000000000E+01 0.  1.
          5   -1    0    0  501    0  0.00000000000E+00 -0.00000000000E+00 -0.75812458035E+02  0.75958006776E+02  0.47000000000E+01 0. -1.
          6    1    1    2  502    0  0.37713869286E+02  0.31209665909E+01  0.74424556830E+02  0.19119385719E+03  0.17200000000E+03 0. -1.
         -6    1    1    2    0  502 -0.37713869286E+02 -0.31209665909E+01  0.42531910060E+03  0.46033945487E+03  0.17200000000E+03 0.  1.
</event>
<event>
 4    1 -0.6901648E-004  0.1764730E+03  0.7818608E-02  0.1171261E+00
         -5   -1    0    0    0  501 -0.00000000000E+00  0.00000000000E+00  0.60150338070E+03  0.60152174275E+03  0.47000000000E+01 0.  1.
          5   -1    0    0  501    0  0.00000000000E+00 -0.00000000000E+00 -0.10590628300E+03  0.10601052202E+03  0.47000000000E+01 0. -1.
          6    1    1    2  502    0 -0.10377392175E+02  0.38092538654E+02 -0.52020271913E+01  0.17654968948E+03  0.17200000000E+03 0. -1.
         -6    1    1    2    0  502  0.10377392175E+02 -0.38092538654E+02  0.50079912489E+03  0.53098257529E+03  0.17200000000E+03 0.  1.
</event>
<event>
 4    1 -0.6901648E-004  0.2475106E+03  0.7818608E-02  0.1114888E+00
          5   -1    0    0  501    0  0.00000000000E+00  0.00000000000E+00  0.47620613212E+03  0.47622932530E+03  0.47000000000E+01 0. -1.
         -5   -1    0    0    0  501 -0.00000000000E+00 -0.00000000000E+00 -0.15701124618E+03  0.15708157571E+03  0.47000000000E+01 0.  1.
          6    1    1    2  502    0 -0.77826860232E+02 -0.16006394287E+03  0.29431148709E+03  0.38455264583E+03  0.17200000000E+03 0. -1.
         -6    1    1    2    0  502  0.77826860232E+02  0.16006394287E+03  0.24883398855E+02  0.24875825518E+03  0.17200000000E+03 0.  1.
</event>
<event>
 4    1 -0.6901648E-004  0.1839080E+03  0.7818608E-02  0.1164074E+00
          5   -1    0    0  501    0  0.00000000000E+00  0.00000000000E+00  0.82720268469E+03  0.82721603681E+03  0.47000000000E+01 0. -1.
         -5   -1    0    0    0  501 -0.00000000000E+00 -0.00000000000E+00 -0.10095265207E+03  0.10106200058E+03  0.47000000000E+01 0.  1.
          6    1    1    2  502    0 -0.26594962979E+02  0.59421150783E+02  0.72122275667E+03  0.74430130321E+03  0.17200000000E+03 0. -1.
         -6    1    1    2    0  502  0.26594962979E+02 -0.59421150783E+02  0.50272759443E+01  0.18397673418E+03  0.17200000000E+03 0.  1.
</event>
<event>
 4    1 -0.6901648E-004  0.1779516E+03  0.7818608E-02  0.1169800E+00
         -5   -1    0    0    0  501 -0.00000000000E+00  0.00000000000E+00  0.56241878291E+03  0.56243842095E+03  0.47000000000E+01 0.  1.
          5   -1    0    0  501    0  0.00000000000E+00 -0.00000000000E+00 -0.12099318766E+03  0.12108443938E+03  0.47000000000E+01 0. -1.
          6    1    1    2  502    0 -0.29417198152E+02  0.34891351330E+02 -0.29242020038E+02  0.18033822024E+03  0.17200000000E+03 0. -1.
         -6    1    1    2    0  502  0.29417198152E+02 -0.34891351330E+02  0.47066761528E+03  0.50318464009E+03  0.17200000000E+03 0.  1.
</event>
<event>
 4    1 -0.6901648E-004  0.2210685E+03  0.7818608E-02  0.1133089E+00
          5   -1    0    0  501    0  0.00000000000E+00  0.00000000000E+00  0.16619640117E+03  0.16626284540E+03  0.47000000000E+01 0. -1.
         -5   -1    0    0    0  501 -0.00000000000E+00 -0.00000000000E+00 -0.29780328360E+03  0.29784036953E+03  0.47000000000E+01 0.  1.
          6    1    1    2  502    0  0.29874002703E+02  0.13562749172E+03 -0.39286962996E+02  0.22453226496E+03  0.17200000000E+03 0. -1.
         -6    1    1    2    0  502 -0.29874002703E+02 -0.13562749172E+03 -0.92319919433E+02  0.23957094997E+03  0.17200000000E+03 0.  1.
</event>
<event>
 4    1 -0.6901648E-004  0.1724629E+03  0.7818608E-02  0.1175304E+00
         -5   -1    0    0    0  501 -0.00000000000E+00  0.00000000000E+00  0.14509550273E+03  0.14517160505E+03  0.47000000000E+01 0.  1.
          5   -1    0    0  501    0  0.00000000000E+00 -0.00000000000E+00 -0.48727175401E+03  0.48729442050E+03  0.47000000000E+01 0. -1.
          6    1    1    2  502    0 -0.24768706240E+01  0.12381602012E+02 -0.41181853531E+03  0.44647278191E+03  0.17200000000E+03 0. -1.
         -6    1    1    2    0  502  0.24768706240E+01 -0.12381602012E+02  0.69642284035E+02  0.18599324365E+03  0.17200000000E+03 0.  1.
</event>
<event>
 4    1 -0.6901648E-004  0.1891383E+03  0.7818608E-02  0.1159241E+00
         -5   -1    0    0    0  501 -0.00000000000E+00  0.00000000000E+00  0.32581959237E+03  0.32585348974E+03  0.47000000000E+01 0.  1.
          5   -1    0    0  501    0  0.00000000000E+00 -0.00000000000E+00 -0.77547515264E+03  0.77548939539E+03  0.47000000000E+01 0. -1.
          6    1    1    2  502    0 -0.19836278276E+02 -0.76130383777E+02 -0.73503338099E+03  0.75897785504E+03  0.17200000000E+03 0. -1.
         -6    1    1    2    0  502  0.19836278276E+02  0.76130383777E+02  0.28537782072E+03  0.34236503009E+03  0.17200000000E+03 0.  1.
</event>
<event>
 4    1 -0.6901648E-004  0.1895805E+03  0.7818608E-02  0.1158840E+00
         -5   -1    0    0    0  501 -0.00000000000E+00  0.00000000000E+00  0.85242618878E+03  0.85243914581E+03  0.47000000000E+01 0.  1.
          5   -1    0    0  501    0  0.00000000000E+00 -0.00000000000E+00 -0.30641090965E+03  0.30644695390E+03  0.47000000000E+01 0. -1.
          6    1    1    2  502    0  0.45381692459E+02 -0.65553453380E+02 -0.26509891358E+03  0.32591131806E+03  0.17200000000E+03 0. -1.
         -6    1    1    2    0  502 -0.45381692459E+02  0.65553453380E+02  0.81111419270E+03  0.83297478165E+03  0.17200000000E+03 0.  1.
</event>
<event>
 4    1 -0.6901648E-004  0.1908189E+03  0.7818608E-02  0.1157725E+00
          5   -1    0    0  501    0  0.00000000000E+00  0.00000000000E+00  0.12082657733E+04  0.12082749144E+04  0.47000000000E+01 0. -1.
         -5   -1    0    0    0  501 -0.00000000000E+00 -0.00000000000E+00 -0.13603571969E+03  0.13611688738E+03  0.47000000000E+01 0.  1.
          6    1    1    2  502    0  0.29029230282E+02  0.77363767519E+02  0.11292320083E+04  0.11452409254E+04  0.17200000000E+03 0. -1.
         -6    1    1    2    0  502 -0.29029230282E+02 -0.77363767519E+02 -0.57001954689E+02  0.19915087641E+03  0.17200000000E+03 0.  1.
</event>
<event>
 4    1 -0.6901648E-004  0.1752748E+03  0.7818608E-02  0.1172456E+00
          5   -1    0    0  501    0  0.00000000000E+00  0.00000000000E+00  0.57905409603E+03  0.57907316992E+03  0.47000000000E+01 0. -1.
         -5   -1    0    0    0  501 -0.00000000000E+00 -0.00000000000E+00 -0.11433241268E+03  0.11442897618E+03  0.47000000000E+01 0.  1.
          6    1    1    2  502    0  0.13734421560E+02  0.30799479159E+02  0.48628264346E+03  0.51690623094E+03  0.17200000000E+03 0. -1.
         -6    1    1    2    0  502 -0.13734421560E+02 -0.30799479159E+02 -0.21560960118E+02  0.17659591517E+03  0.17200000000E+03 0.  1.
</event>
<event>
 4    1 -0.6901648E-004  0.1803163E+03  0.7818608E-02  0.1167497E+00
         -5   -1    0    0    0  501 -0.00000000000E+00  0.00000000000E+00  0.62121263729E+03  0.62123041677E+03  0.47000000000E+01 0.  1.
          5   -1    0    0  501    0  0.00000000000E+00 -0.00000000000E+00 -0.64425083451E+02  0.64596295387E+02  0.47000000000E+01 0. -1.
          6    1    1    2  502    0 -0.22272145744E+02 -0.49334637955E+02  0.12935280433E+03  0.22191462991E+03  0.17200000000E+03 0.  1.
         -6    1    1    2    0  502  0.22272145744E+02  0.49334637955E+02  0.42743474950E+03  0.46391208225E+03  0.17200000000E+03 0.  1.
</event>
<event>
 4    1 -0.6901648E-004  0.1720195E+03  0.7818608E-02  0.1175758E+00
          5   -1    0    0  501    0  0.00000000000E+00  0.00000000000E+00  0.69398601289E+02  0.69557572276E+02  0.47000000000E+01 0. -1.
         -5   -1    0    0    0  501 -0.00000000000E+00 -0.00000000000E+00 -0.42580419175E+03  0.42583013012E+03  0.47000000000E+01 0.  1.
          6    1    1    2  502    0  0.25452871485E+01  0.46199020400E+00 -0.18152236468E+03  0.25008210811E+03  0.17200000000E+03 0. -1.
         -6    1    1    2    0  502 -0.25452871485E+01 -0.46199020400E+00 -0.17488322579E+03  0.24530559428E+03  0.17200000000E+03 0. -1.
</event>
<event>
 4    1 -0.6901648E-004  0.1778840E+03  0.7818608E-02  0.1169867E+00
         -5   -1    0    0    0  501 -0.00000000000E+00  0.00000000000E+00  0.21344118207E+03  0.21349292307E+03  0.47000000000E+01 0.  1.
          5   -1    0    0  501    0  0.00000000000E+00 -0.00000000000E+00 -0.25037998891E+03  0.25042409798E+03  0.47000000000E+01 0. -1.
          6    1    1    2  502    0 -0.45218733860E+02 -0.37384384454E+01 -0.16665897099E+03  0.24375791767E+03  0.17200000000E+03 0. -1.
         -6    1    1    2    0  502  0.45218733860E+02  0.37384384454E+01  0.12972016415E+03  0.22015910338E+03  0.17200000000E+03 0.  1.
</event>
<event>
 4    1 -0.6901648E-004  0.2445561E+03  0.7818608E-02  0.1116794E+00
         -5   -1    0    0    0  501 -0.00000000000E+00  0.00000000000E+00  0.61308843117E+03  0.61310644625E+03  0.47000000000E+01 0.  1.
          5   -1    0    0  501    0  0.00000000000E+00 -0.00000000000E+00 -0.39352241010E+03  0.39355047612E+03  0.47000000000E+01 0. -1.
          6    1    1    2  502    0 -0.56633119684E+02  0.16436660293E+03 -0.32673096664E+03  0.40811862854E+03  0.17200000000E+03 0. -1.
         -6    1    1    2    0  502  0.56633119684E+02 -0.16436660293E+03  0.54629698770E+03  0.59853829383E+03  0.17200000000E+03 0.  1.
</event>
<event>
 4    1 -0.6901648E-004  0.2213762E+03  0.7818608E-02  0.1132861E+00
          5   -1    0    0  501    0  0.00000000000E+00  0.00000000000E+00  0.64165446222E+03  0.64167167530E+03  0.47000000000E+01 0. -1.
         -5   -1    0    0    0  501 -0.00000000000E+00 -0.00000000000E+00 -0.22983353611E+03  0.22988158761E+03  0.47000000000E+01 0.  1.
          6    1    1    2  502    0 -0.66772487088E+02 -0.12233101542E+03  0.56200983899E+03  0.60403849338E+03  0.17200000000E+03 0. -1.
         -6    1    1    2    0  502  0.66772487088E+02  0.12233101542E+03 -0.15018891288E+03  0.26751476953E+03  0.17200000000E+03 0.  1.
</event>
<event>
 4    1 -0.6901648E-004  0.1939654E+03  0.7818608E-02  0.1154933E+00
          5   -1    0    0  501    0  0.00000000000E+00  0.00000000000E+00  0.11293650617E+03  0.11303426218E+03  0.47000000000E+01 0. -1.
         -5   -1    0    0    0  501 -0.00000000000E+00 -0.00000000000E+00 -0.95812134792E+03  0.95813287561E+03  0.47000000000E+01 0.  1.
          6    1    1    2  502    0 -0.71148773604E+02 -0.54556495840E+02  0.10037433689E+02  0.19422489361E+03  0.17200000000E+03 0. -1.
         -6    1    1    2    0  502  0.71148773604E+02  0.54556495840E+02 -0.85522227543E+03  0.87694224418E+03  0.17200000000E+03 0.  1.
</event>
<event>
 4    1 -0.6901648E-004  0.1803548E+03  0.7818608E-02  0.1167460E+00
          5   -1    0    0  501    0  0.00000000000E+00  0.00000000000E+00  0.24760433678E+03  0.24764894022E+03  0.47000000000E+01 0. -1.
         -5   -1    0    0    0  501 -0.00000000000E+00 -0.00000000000E+00 -0.19254135133E+03  0.19259870709E+03  0.47000000000E+01 0.  1.
          6    1    1    2  502    0 -0.32764963643E+02  0.43247088372E+02  0.15166737941E+03  0.23564984080E+03  0.17200000000E+03 0. -1.
         -6    1    1    2    0  502  0.32764963643E+02 -0.43247088372E+02 -0.96604393960E+02  0.20459780651E+03  0.17200000000E+03 0.  1.
</event>
<event>
 4    1 -0.6901648E-004  0.1899002E+03  0.7818608E-02  0.1158551E+00
         -5   -1    0    0    0  501 -0.00000000000E+00  0.00000000000E+00  0.30554440424E+03  0.30558055070E+03  0.47000000000E+01 0.  1.
          5   -1    0    0  501    0  0.00000000000E+00 -0.00000000000E+00 -0.18180154184E+03  0.18186228475E+03  0.47000000000E+01 0. -1.
          6    1    1    2  502    0 -0.15233634081E+02  0.79031828573E+02 -0.82537374554E+02  0.20706161337E+03  0.17200000000E+03 0. -1.
         -6    1    1    2    0  502  0.15233634081E+02 -0.79031828573E+02  0.20628023696E+03  0.28038122208E+03  0.17200000000E+03 0.  1.
</event>
<event>
 4    1 -0.6901648E-004  0.2019153E+03  0.7818608E-02  0.1148133E+00
          5   -1    0    0  501    0  0.00000000000E+00  0.00000000000E+00  0.95560503279E+03  0.95561659085E+03  0.47000000000E+01 0. -1.
         -5   -1    0    0    0  501 -0.00000000000E+00 -0.00000000000E+00 -0.91743998468E+02  0.91864308928E+02  0.47000000000E+01 0.  1.
          6    1    1    2  502    0  0.16916507005E+02  0.10440134215E+03  0.81513330049E+03  0.83976907898E+03  0.17200000000E+03 0.  1.
         -6    1    1    2    0  502 -0.16916507005E+02 -0.10440134215E+03  0.48727733840E+02  0.20771182079E+03  0.17200000000E+03 0.  1.
</event>
<event>
 4    1 -0.6901648E-004  0.1885324E+03  0.7818608E-02  0.1159792E+00
          5   -1    0    0  501    0  0.00000000000E+00  0.00000000000E+00  0.12745592072E+03  0.12754254869E+03  0.47000000000E+01 0. -1.
         -5   -1    0    0    0  501 -0.00000000000E+00 -0.00000000000E+00 -0.15727958120E+04  0.15728028345E+04  0.47000000000E+01 0.  1.
          6    1    1    2  502    0 -0.71888966146E+02  0.28150585324E+02  0.48487635786E+02  0.19466774189E+03  0.17200000000E+03 0. -1.
         -6    1    1    2    0  502  0.71888966146E+02 -0.28150585324E+02 -0.14938275271E+04  0.15056776413E+04  0.17200000000E+03 0.  1.
</event>
<event>
 4    1 -0.6901648E-004  0.2342224E+03  0.7818608E-02  0.1123703E+00
          5   -1    0    0  501    0  0.00000000000E+00  0.00000000000E+00  0.56085116873E+03  0.56087086166E+03  0.47000000000E+01 0. -1.
         -5   -1    0    0    0  501 -0.00000000000E+00 -0.00000000000E+00 -0.46615536046E+03  0.46617905367E+03  0.47000000000E+01 0.  1.
          6    1    1    2  502    0 -0.13485929041E+03  0.84196851757E+02  0.50383160628E+03  0.55561355774E+03  0.17200000000E+03 0. -1.
         -6    1    1    2    0  502  0.13485929041E+03 -0.84196851757E+02 -0.40913579801E+03  0.47143635760E+03  0.17200000000E+03 0.  1.
</event>
<event>
 4    1 -0.6901648E-004  0.2100136E+03  0.7818608E-02  0.1141555E+00
         -5   -1    0    0    0  501 -0.00000000000E+00  0.00000000000E+00  0.64169924521E+02  0.64341815431E+02  0.47000000000E+01 0.  1.
          5   -1    0    0  501    0  0.00000000000E+00 -0.00000000000E+00 -0.10044952274E+04  0.10045062229E+04  0.47000000000E+01 0. -1.
          6    1    1    2  502    0 -0.20348708128E+02  0.11877558555E+03 -0.77095599745E+03  0.79904872170E+03  0.17200000000E+03 0. -1.
         -6    1    1    2    0  502  0.20348708128E+02 -0.11877558555E+03 -0.16936930546E+03  0.26979931667E+03  0.17200000000E+03 0.  1.
</event>
<event>
 4    1 -0.6901648E-004  0.1782345E+03  0.7818608E-02  0.1169523E+00
         -5   -1    0    0    0  501 -0.00000000000E+00  0.00000000000E+00  0.16497008649E+03  0.16503702444E+03  0.47000000000E+01 0.  1.
          5   -1    0    0  501    0  0.00000000000E+00 -0.00000000000E+00 -0.68023731085E+03  0.68025354764E+03  0.47000000000E+01 0. -1.
          6    1    1    2  502    0  0.42123431199E+02 -0.20227415961E+02 -0.61551286445E+03  0.64079920265E+03  0.17200000000E+03 0. -1.
         -6    1    1    2    0  502 -0.42123431199E+02  0.20227415961E+02  0.10024564009E+03  0.20449136942E+03  0.17200000000E+03 0.  1.
</event>
<event>
 4    1 -0.6901648E-004  0.2440449E+03  0.7818608E-02  0.1117127E+00
         -5   -1    0    0    0  501 -0.00000000000E+00  0.00000000000E+00  0.10716336337E+04  0.10716439403E+04  0.47000000000E+01 0.  1.
          5   -1    0    0  501    0  0.00000000000E+00 -0.00000000000E+00 -0.25659439641E+03  0.25663743739E+03  0.47000000000E+01 0. -1.
          6    1    1    2  502    0 -0.11062926899E+03 -0.13317318332E+03 -0.18032333001E+03  0.30343769584E+03  0.17200000000E+03 0. -1.
         -6    1    1    2    0  502  0.11062926899E+03  0.13317318332E+03  0.99536256729E+03  0.10248436819E+04  0.17200000000E+03 0.  1.
</event>
<event>
 4    1 -0.6901648E-004  0.2943174E+03  0.7818608E-02  0.1088116E+00
          5   -1    0    0  501    0  0.00000000000E+00  0.00000000000E+00  0.80048401668E+03  0.80049781446E+03  0.47000000000E+01 0. -1.
         -5   -1    0    0    0  501 -0.00000000000E+00 -0.00000000000E+00 -0.18379828402E+03  0.18385836725E+03  0.47000000000E+01 0.  1.
          6    1    1    2  502    0 -0.22925498737E+03  0.66939180029E+02  0.62402299135E+03  0.68994738697E+03  0.17200000000E+03 0. -1.
         -6    1    1    2    0  502  0.22925498737E+03 -0.66939180029E+02 -0.73372586854E+01  0.29440879474E+03  0.17200000000E+03 0.  1.
</event>
<event>
 4    1 -0.6901648E-004  0.2805963E+03  0.7818608E-02  0.1095364E+00
          5   -1    0    0  501    0  0.00000000000E+00  0.00000000000E+00  0.65816024944E+03  0.65817703085E+03  0.47000000000E+01 0. -1.
         -5   -1    0    0    0  501 -0.00000000000E+00 -0.00000000000E+00 -0.19211910843E+03  0.19217659021E+03  0.47000000000E+01 0.  1.
          6    1    1    2  502    0 -0.18164662828E+03 -0.12710144393E+03  0.49424671588E+03  0.56834328603E+03  0.17200000000E+03 0. -1.
         -6    1    1    2    0  502  0.18164662828E+03  0.12710144393E+03 -0.28205574872E+02  0.28201033504E+03  0.17200000000E+03 0.  1.
</event>
<event>
 4    1 -0.6901648E-004  0.1933117E+03  0.7818608E-02  0.1155508E+00
         -5   -1    0    0    0  501 -0.00000000000E+00  0.00000000000E+00  0.37871129382E+03  0.37874045740E+03  0.47000000000E+01 0.  1.
          5   -1    0    0  501    0  0.00000000000E+00 -0.00000000000E+00 -0.42623919584E+03  0.42626510774E+03  0.47000000000E+01 0. -1.
          6    1    1    2  502    0 -0.36947381211E+02 -0.80126787243E+02 -0.37662137534E+03  0.42333564860E+03  0.17200000000E+03 0. -1.
         -6    1    1    2    0  502  0.36947381211E+02  0.80126787243E+02  0.32909347331E+03  0.38166991654E+03  0.17200000000E+03 0.  1.
</event>
<event>
 4    1 -0.6901648E-004  0.2017804E+03  0.7818608E-02  0.1148246E+00
         -5   -1    0    0    0  501 -0.00000000000E+00  0.00000000000E+00  0.29690188771E+03  0.29693908622E+03  0.47000000000E+01 0.  1.
          5   -1    0    0  501    0  0.00000000000E+00 -0.00000000000E+00 -0.26981608655E+03  0.26985701873E+03  0.47000000000E+01 0. -1.
          6    1    1    2  502    0  0.61459395175E+02  0.85755911171E+02 -0.18521808698E+03  0.27389975046E+03  0.17200000000E+03 0. -1.
         -6    1    1    2    0  502 -0.61459395175E+02 -0.85755911171E+02  0.21230388814E+03  0.29289635449E+03  0.17200000000E+03 0.  1.
</event>
<event>
 4    1 -0.6901648E-004  0.1783453E+03  0.7818608E-02  0.1169414E+00
         -5   -1    0    0    0  501 -0.00000000000E+00  0.00000000000E+00  0.88666140941E+03  0.88667386616E+03  0.47000000000E+01 0.  1.
          5   -1    0    0  501    0  0.00000000000E+00 -0.00000000000E+00 -0.36037992103E+02  0.36343181958E+02  0.47000000000E+01 0. -1.
          6    1    1    2  502    0  0.41414149093E+02  0.22537163504E+02  0.38121866998E+03  0.42087376947E+03  0.17200000000E+03 0.  1.
         -6    1    1    2    0  502 -0.41414149093E+02 -0.22537163504E+02  0.46940474732E+03  0.50214327865E+03  0.17200000000E+03 0.  1.
</event>
<event>
 4    1 -0.6901648E-004  0.2004170E+03  0.7818608E-02  0.1149388E+00
         -5   -1    0    0    0  501 -0.00000000000E+00  0.00000000000E+00  0.18024718411E+04  0.18024779688E+04  0.47000000000E+01 0.  1.
          5   -1    0    0  501    0  0.00000000000E+00 -0.00000000000E+00 -0.51027494181E+02  0.51243488975E+02  0.47000000000E+01 0. -1.
          6    1    1    2  502    0  0.92857148682E+02  0.44277988467E+02  0.17948882024E+03  0.26904131079E+03  0.17200000000E+03 0. -1.
         -6    1    1    2    0  502 -0.92857148682E+02 -0.44277988467E+02  0.15719555267E+04  0.15846801470E+04  0.17200000000E+03 0.  1.
</event>
<event>
 4    1 -0.6901648E-004  0.1992263E+03  0.7818608E-02  0.1150393E+00
          5   -1    0    0  501    0  0.00000000000E+00  0.00000000000E+00  0.25596533519E+03  0.25600848193E+03  0.47000000000E+01 0. -1.
         -5   -1    0    0    0  501 -0.00000000000E+00 -0.00000000000E+00 -0.20243134793E+03  0.20248590229E+03  0.47000000000E+01 0.  1.
          6    1    1    2  502    0 -0.83926670107E+02 -0.55348143252E+02  0.13773809278E+03  0.24220422193E+03  0.17200000000E+03 0. -1.
         -6    1    1    2    0  502  0.83926670107E+02  0.55348143252E+02 -0.84204105524E+02  0.21629016229E+03  0.17200000000E+03 0.  1.
</event>
<event>
 4    1 -0.6901648E-004  0.2922671E+03  0.7818608E-02  0.1089171E+00
          5   -1    0    0  501    0  0.00000000000E+00  0.00000000000E+00  0.94964415016E+03  0.94965578076E+03  0.47000000000E+01 0. -1.
         -5   -1    0    0    0  501 -0.00000000000E+00 -0.00000000000E+00 -0.17390901633E+03  0.17397251496E+03  0.47000000000E+01 0.  1.
          6    1    1    2  502    0  0.17473257609E+03 -0.15907408124E+03  0.77828208889E+03  0.83135013463E+03  0.17200000000E+03 0. -1.
         -6    1    1    2    0  502 -0.17473257609E+03  0.15907408124E+03 -0.25469550592E+01  0.29227816109E+03  0.17200000000E+03 0.  1.
</event>
<event>
 4    1 -0.6901648E-004  0.1999863E+03  0.7818608E-02  0.1149751E+00
         -5   -1    0    0    0  501 -0.00000000000E+00  0.00000000000E+00  0.34086418912E+03  0.34089659052E+03  0.47000000000E+01 0.  1.
          5   -1    0    0  501    0  0.00000000000E+00 -0.00000000000E+00 -0.78832603954E+03  0.78834005012E+03  0.47000000000E+01 0. -1.
          6    1    1    2  502    0 -0.37193760352E+02 -0.95011299072E+02 -0.74464348636E+03  0.77103076757E+03  0.17200000000E+03 0. -1.
         -6    1    1    2    0  502  0.37193760352E+02  0.95011299072E+02  0.29718163594E+03  0.35820587307E+03  0.17200000000E+03 0.  1.
</event>
<event>
 4    1 -0.6901648E-004  0.2252795E+03  0.7818608E-02  0.1130007E+00
         -5   -1    0    0    0  501 -0.00000000000E+00  0.00000000000E+00  0.95223429401E+03  0.95224589298E+03  0.47000000000E+01 0.  1.
          5   -1    0    0  501    0  0.00000000000E+00 -0.00000000000E+00 -0.97077612685E+02  0.97191321035E+02  0.47000000000E+01 0. -1.
          6    1    1    2  502    0  0.14183707516E+03 -0.32389956337E+02  0.75047155717E+02  0.23745092281E+03  0.17200000000E+03 0. -1.
         -6    1    1    2    0  502 -0.14183707516E+03  0.32389956337E+02  0.78010952561E+03  0.81198629121E+03  0.17200000000E+03 0.  1.
</event>
<event>
 4    1 -0.6901648E-004  0.3666761E+03  0.7818608E-02  0.1055971E+00
          5   -1    0    0  501    0  0.00000000000E+00  0.00000000000E+00  0.59385141439E+03  0.59387001303E+03  0.47000000000E+01 0. -1.
         -5   -1    0    0    0  501 -0.00000000000E+00 -0.00000000000E+00 -0.62358617278E+03  0.62360388460E+03  0.47000000000E+01 0.  1.
          6    1    1    2  502    0  0.30718658986E+03 -0.10248774647E+03  0.47096086799E+03  0.59687140855E+03  0.17200000000E+03 0. -1.
         -6    1    1    2    0  502 -0.30718658986E+03  0.10248774647E+03 -0.50069562638E+03  0.62060248907E+03  0.17200000000E+03 0.  1.
</event>
<event>
 4    1 -0.6901648E-004  0.1811978E+03  0.7818608E-02  0.1166649E+00
          5   -1    0    0  501    0  0.00000000000E+00  0.00000000000E+00  0.73069514426E+03  0.73071025984E+03  0.47000000000E+01 0. -1.
         -5   -1    0    0    0  501 -0.00000000000E+00 -0.00000000000E+00 -0.12540520095E+03  0.12549324454E+03  0.47000000000E+01 0.  1.
          6    1    1    2  502    0 -0.25143942056E+02  0.51151000850E+02  0.64562544412E+03  0.67057054573E+03  0.17200000000E+03 0. -1.
         -6    1    1    2    0  502  0.25143942056E+02 -0.51151000850E+02 -0.40335500812E+02  0.18563295865E+03  0.17200000000E+03 0.  1.
</event>
<event>
 4    1 -0.6901648E-004  0.1725670E+03  0.7818608E-02  0.1175197E+00
          5   -1    0    0  501    0  0.00000000000E+00  0.00000000000E+00  0.23268013837E+02  0.23737954165E+02  0.47000000000E+01 0. -1.
         -5   -1    0    0    0  501 -0.00000000000E+00 -0.00000000000E+00 -0.15610654906E+04  0.15610725659E+04  0.47000000000E+01 0.  1.
          6    1    1    2  502    0 -0.58870087080E+01  0.12677740530E+02 -0.42478042026E+03  0.45849513347E+03  0.17200000000E+03 0. -1.
         -6    1    1    2    0  502  0.58870087080E+01 -0.12677740530E+02 -0.11130170565E+04  0.11263153866E+04  0.17200000000E+03 0.  1.
</event>
<event>
 4    1 -0.6901648E-004  0.1731830E+03  0.7818608E-02  0.1174569E+00
          5   -1    0    0  501    0  0.00000000000E+00  0.00000000000E+00  0.18872010347E+02  0.19448464581E+02  0.47000000000E+01 0. -1.
         -5   -1    0    0    0  501 -0.00000000000E+00 -0.00000000000E+00 -0.16452445013E+04  0.16452512146E+04  0.47000000000E+01 0.  1.
          6    1    1    2  502    0 -0.70607226548E+01  0.18933695836E+02 -0.99724755792E+03  0.10121734191E+04  0.17200000000E+03 0.  1.
         -6    1    1    2    0  502  0.70607226548E+01 -0.18933695836E+02 -0.62912493306E+03  0.65252626004E+03  0.17200000000E+03 0. -1.
</event>
<event>
 4    1 -0.6901648E-004  0.1849218E+03  0.7818608E-02  0.1163123E+00
         -5   -1    0    0    0  501 -0.00000000000E+00  0.00000000000E+00  0.16116786529E+04  0.16116855060E+04  0.47000000000E+01 0.  1.
          5   -1    0    0  501    0  0.00000000000E+00 -0.00000000000E+00 -0.51889494255E+02  0.52101915647E+02  0.47000000000E+01 0. -1.
          6    1    1    2  502    0 -0.67432590071E+02 -0.80582198445E+01  0.13982896975E+03  0.23183664484E+03  0.17200000000E+03 0. -1.
         -6    1    1    2    0  502  0.67432590071E+02  0.80582198445E+01  0.14199601889E+04  0.14319507768E+04  0.17200000000E+03 0.  1.
</event>
<event>
 4    1 -0.6901648E-004  0.2311243E+03  0.7818608E-02  0.1125851E+00
         -5   -1    0    0    0  501 -0.00000000000E+00  0.00000000000E+00  0.38191649883E+03  0.38194541767E+03  0.47000000000E+01 0.  1.
          5   -1    0    0  501    0  0.00000000000E+00 -0.00000000000E+00 -0.94099766486E+03  0.94100940233E+03  0.47000000000E+01 0. -1.
          6    1    1    2  502    0  0.12213376426E+03  0.94434009087E+02 -0.88988447607E+03  0.91940895101E+03  0.17200000000E+03 0. -1.
         -6    1    1    2    0  502 -0.12213376426E+03 -0.94434009087E+02  0.33080331005E+03  0.40354586899E+03  0.17200000000E+03 0.  1.
</event>
<event>
 4    1 -0.6901648E-004  0.1876751E+03  0.7818608E-02  0.1160575E+00
          5   -1    0    0  501    0  0.00000000000E+00  0.00000000000E+00  0.94262299366E+02  0.94379399669E+02  0.47000000000E+01 0. -1.
         -5   -1    0    0    0  501 -0.00000000000E+00 -0.00000000000E+00 -0.42764223544E+03  0.42766806233E+03  0.47000000000E+01 0.  1.
          6    1    1    2  502    0 -0.11632379275E+01 -0.75077120108E+02 -0.73652997678E+02  0.20161024566E+03  0.17200000000E+03 0. -1.
         -6    1    1    2    0  502  0.11632379275E+01  0.75077120108E+02 -0.25972693840E+03  0.32043721634E+03  0.17200000000E+03 0.  1.
</event>
<event>
 4    1 -0.6901648E-004  0.2416456E+03  0.7818608E-02  0.1118701E+00
         -5   -1    0    0    0  501 -0.00000000000E+00  0.00000000000E+00  0.34164081597E+03  0.34167314371E+03  0.47000000000E+01 0.  1.
          5   -1    0    0  501    0  0.00000000000E+00 -0.00000000000E+00 -0.17828588511E+03  0.17834782541E+03  0.47000000000E+01 0. -1.
          6    1    1    2  502    0  0.13930062668E+03  0.96973929961E+02  0.28574737967E+02  0.24332924883E+03  0.17200000000E+03 0. -1.
         -6    1    1    2    0  502 -0.13930062668E+03 -0.96973929961E+02  0.13478019289E+03  0.27669172030E+03  0.17200000000E+03 0.  1.
</event>
<event>
 4    1 -0.6901648E-004  0.1820823E+03  0.7818608E-02  0.1165803E+00
          5   -1    0    0  501    0  0.00000000000E+00  0.00000000000E+00  0.68498993460E+02  0.68660047371E+02  0.47000000000E+01 0. -1.
         -5   -1    0    0    0  501 -0.00000000000E+00 -0.00000000000E+00 -0.48622783049E+03  0.48625054565E+03  0.47000000000E+01 0.  1.
          6    1    1    2  502    0 -0.37688226700E+02 -0.46363219734E+02 -0.18721218617E+03  0.26115580259E+03  0.17200000000E+03 0.  1.
         -6    1    1    2    0  502  0.37688226700E+02  0.46363219734E+02 -0.23051665086E+03  0.29375479043E+03  0.17200000000E+03 0.  1.
</event>
<event>
 4    1 -0.6901648E-004  0.3013040E+03  0.7818608E-02  0.1084591E+00
          5   -1    0    0  501    0  0.00000000000E+00  0.00000000000E+00  0.19834774128E+04  0.19834829813E+04  0.47000000000E+01 0. -1.
         -5   -1    0    0    0  501 -0.00000000000E+00 -0.00000000000E+00 -0.77930006721E+03  0.77931424005E+03  0.47000000000E+01 0.  1.
          6    1    1    2  502    0  0.20217463415E+03  0.14256753688E+03  0.19423077909E+04  0.19655390202E+04  0.17200000000E+03 0. -1.
         -6    1    1    2    0  502 -0.20217463415E+03 -0.14256753688E+03 -0.73813044523E+03  0.79725820124E+03  0.17200000000E+03 0.  1.
</event>
<event>
 4    1 -0.6901648E-004  0.1794843E+03  0.7818608E-02  0.1168303E+00
         -5   -1    0    0    0  501 -0.00000000000E+00  0.00000000000E+00  0.49234292270E+03  0.49236535574E+03  0.47000000000E+01 0.  1.
          5   -1    0    0  501    0  0.00000000000E+00 -0.00000000000E+00 -0.80759549530E+02  0.80896197935E+02  0.47000000000E+01 0. -1.
          6    1    1    2  502    0  0.93236958797E+00 -0.51281029349E+02  0.80612569101E+02  0.19675619325E+03  0.17200000000E+03 0. -1.
         -6    1    1    2    0  502 -0.93236958797E+00  0.51281029349E+02  0.33097080407E+03  0.37650536043E+03  0.17200000000E+03 0.  1.
</event>
<event>
 4    1 -0.6901648E-004  0.3252071E+03  0.7818608E-02  0.1073277E+00
          5   -1    0    0  501    0  0.00000000000E+00  0.00000000000E+00  0.88243630027E+03  0.88244881667E+03  0.47000000000E+01 0. -1.
         -5   -1    0    0    0  501 -0.00000000000E+00 -0.00000000000E+00 -0.33809113100E+03  0.33812379812E+03  0.47000000000E+01 0.  1.
          6    1    1    2  502    0 -0.26167124190E+03  0.87771442297E+02  0.76251157244E+03  0.82896535695E+03  0.17200000000E+03 0. -1.
         -6    1    1    2    0  502  0.26167124190E+03 -0.87771442297E+02 -0.21816640317E+03  0.39160725784E+03  0.17200000000E+03 0.  1.
</event>
<event>
 4    1 -0.6901648E-004  0.1945068E+03  0.7818608E-02  0.1154458E+00
         -5   -1    0    0    0  501 -0.00000000000E+00  0.00000000000E+00  0.71877339507E+03  0.71878876136E+03  0.47000000000E+01 0.  1.
          5   -1    0    0  501    0  0.00000000000E+00 -0.00000000000E+00 -0.14542912275E+03  0.14550505058E+03  0.47000000000E+01 0. -1.
          6    1    1    2  502    0 -0.81595787723E+02 -0.39887553390E+02 -0.58560301183E+02  0.20313098819E+03  0.17200000000E+03 0. -1.
         -6    1    1    2    0  502  0.81595787723E+02  0.39887553390E+02  0.63190457350E+03  0.66116282375E+03  0.17200000000E+03 0.  1.
</event>
<event>
 4    1 -0.6901648E-004  0.1982817E+03  0.7818608E-02  0.1151197E+00
         -5   -1    0    0    0  501 -0.00000000000E+00  0.00000000000E+00  0.20643593330E+03  0.20648942965E+03  0.47000000000E+01 0.  1.
          5   -1    0    0  501    0  0.00000000000E+00 -0.00000000000E+00 -0.25060116241E+03  0.25064523255E+03  0.47000000000E+01 0. -1.
          6    1    1    2  502    0  0.58321581448E+02  0.79562745357E+02 -0.13414042816E+03  0.23939359177E+03  0.17200000000E+03 0.  1.
         -6    1    1    2    0  502 -0.58321581448E+02 -0.79562745357E+02  0.89975199054E+02  0.21774107044E+03  0.17200000000E+03 0.  1.
</event>
<event>
 4    1 -0.6901648E-004  0.1824119E+03  0.7818608E-02  0.1165489E+00
         -5   -1    0    0    0  501 -0.00000000000E+00  0.00000000000E+00  0.83903746052E+03  0.83905062431E+03  0.47000000000E+01 0.  1.
          5   -1    0    0  501    0  0.00000000000E+00 -0.00000000000E+00 -0.39797450704E+02  0.40074020044E+02  0.47000000000E+01 0. -1.
          6    1    1    2  502    0  0.29034558680E+02 -0.53358062638E+02  0.36205530942E+03  0.40541106982E+03  0.17200000000E+03 0. -1.
         -6    1    1    2    0  502 -0.29034558680E+02  0.53358062638E+02  0.43718470039E+03  0.47371357454E+03  0.17200000000E+03 0.  1.
</event>
<event>
 4    1 -0.6901648E-004  0.2731375E+03  0.7818608E-02  0.1099497E+00
          5   -1    0    0  501    0  0.00000000000E+00  0.00000000000E+00  0.97985344019E+02  0.98098000196E+02  0.47000000000E+01 0. -1.
         -5   -1    0    0    0  501 -0.00000000000E+00 -0.00000000000E+00 -0.11217044955E+04  0.11217143421E+04  0.47000000000E+01 0.  1.
          6    1    1    2  502    0  0.19916772692E+03  0.73159599921E+02 -0.16593455806E+03  0.31959096994E+03  0.17200000000E+03 0. -1.
         -6    1    1    2    0  502 -0.19916772692E+03 -0.73159599921E+02 -0.85778459346E+03  0.90022137238E+03  0.17200000000E+03 0.  1.
</event>
<event>
 4    1 -0.6901648E-004  0.1992080E+03  0.7818608E-02  0.1150409E+00
         -5   -1    0    0    0  501 -0.00000000000E+00  0.00000000000E+00  0.18259466928E+03  0.18265514843E+03  0.47000000000E+01 0.  1.
          5   -1    0    0  501    0  0.00000000000E+00 -0.00000000000E+00 -0.49378272697E+03  0.49380509460E+03  0.47000000000E+01 0. -1.
          6    1    1    2  502    0  0.74514540449E+02 -0.67434575303E+02 -0.40870180219E+03  0.45466581332E+03  0.17200000000E+03 0. -1.
         -6    1    1    2    0  502 -0.74514540449E+02  0.67434575303E+02  0.97513744503E+02  0.22179442971E+03  0.17200000000E+03 0.  1.
</event>
<event>
 4    1 -0.6901648E-004  0.2177775E+03  0.7818608E-02  0.1135551E+00
         -5   -1    0    0    0  501 -0.00000000000E+00  0.00000000000E+00  0.14332475870E+03  0.14340180075E+03  0.47000000000E+01 0.  1.
          5   -1    0    0  501    0  0.00000000000E+00 -0.00000000000E+00 -0.64350119678E+03  0.64351836047E+03  0.47000000000E+01 0. -1.
          6    1    1    2  502    0 -0.13011800372E+03  0.30205098138E+02 -0.52437783625E+03  0.56780204120E+03  0.17200000000E+03 0. -1.
         -6    1    1    2    0  502  0.13011800372E+03 -0.30205098138E+02  0.24201398168E+02  0.21911812001E+03  0.17200000000E+03 0.  1.
</event>
<event>
 4    1 -0.6901648E-004  0.2434932E+03  0.7818608E-02  0.1117487E+00
         -5   -1    0    0    0  501 -0.00000000000E+00  0.00000000000E+00  0.48377007355E+03  0.48379290411E+03  0.47000000000E+01 0.  1.
          5   -1    0    0  501    0  0.00000000000E+00 -0.00000000000E+00 -0.15845881130E+03  0.15852849863E+03  0.47000000000E+01 0. -1.
          6    1    1    2  502    0 -0.11779110049E+02 -0.17194827270E+03  0.96825427543E+01  0.24368567367E+03  0.17200000000E+03 0. -1.
         -6    1    1    2    0  502  0.11779110049E+02  0.17194827270E+03  0.31562871950E+03  0.39863572907E+03  0.17200000000E+03 0.  1.
</event>
<event>
 4    1 -0.6901648E-004  0.1940692E+03  0.7818608E-02  0.1154842E+00
          5   -1    0    0  501    0  0.00000000000E+00  0.00000000000E+00  0.14326548601E+03  0.14334255991E+03  0.47000000000E+01 0. -1.
         -5   -1    0    0    0  501 -0.00000000000E+00 -0.00000000000E+00 -0.70696162154E+03  0.70697724456E+03  0.47000000000E+01 0.  1.
          6    1    1    2  502    0 -0.88425980305E+02 -0.16114992519E+02  0.55153267839E+02  0.20175413237E+03  0.17200000000E+03 0. -1.
         -6    1    1    2    0  502  0.88425980305E+02  0.16114992519E+02 -0.61884940337E+03  0.64856567210E+03  0.17200000000E+03 0.  1.
</event>
<event>
 4    1 -0.6901648E-004  0.1980456E+03  0.7818608E-02  0.1151398E+00
         -5   -1    0    0    0  501 -0.00000000000E+00  0.00000000000E+00  0.37896598415E+03  0.37899512812E+03  0.47000000000E+01 0.  1.
          5   -1    0    0  501    0  0.00000000000E+00 -0.00000000000E+00 -0.32024090832E+03  0.32027539613E+03  0.47000000000E+01 0. -1.
          6    1    1    2  502    0  0.18066337948E+02 -0.96496979181E+02 -0.25829032564E+03  0.32547803593E+03  0.17200000000E+03 0. -1.
         -6    1    1    2    0  502 -0.18066337948E+02  0.96496979181E+02  0.31701540146E+03  0.37379248831E+03  0.17200000000E+03 0.  1.
</event>
<event>
 4    1 -0.6901648E-004  0.1732481E+03  0.7818608E-02  0.1174502E+00
         -5   -1    0    0    0  501 -0.00000000000E+00  0.00000000000E+00  0.10455057568E+04  0.10455163210E+04  0.47000000000E+01 0.  1.
          5   -1    0    0  501    0  0.00000000000E+00 -0.00000000000E+00 -0.81723434049E+02  0.81858473433E+02  0.47000000000E+01 0. -1.
          6    1    1    2  502    0 -0.10309307079E+02 -0.18017459869E+02  0.27764593977E+02  0.17545877964E+03  0.17200000000E+03 0. -1.
         -6    1    1    2    0  502  0.10309307079E+02  0.18017459869E+02  0.93601772881E+03  0.95191601485E+03  0.17200000000E+03 0.  1.
</event>
<event>
 4    1 -0.6901648E-004  0.3638590E+03  0.7818608E-02  0.1057066E+00
         -5   -1    0    0    0  501 -0.00000000000E+00  0.00000000000E+00  0.36929236195E+03  0.36932226929E+03  0.47000000000E+01 0.  1.
          5   -1    0    0  501    0  0.00000000000E+00 -0.00000000000E+00 -0.80103524407E+03  0.80104903236E+03  0.47000000000E+01 0. -1.
          6    1    1    2  502    0  0.28935040845E+03 -0.13815111477E+03 -0.65083636010E+03  0.74564157409E+03  0.17200000000E+03 0. -1.
         -6    1    1    2    0  502 -0.28935040845E+03  0.13815111477E+03  0.21909347797E+03  0.42472972756E+03  0.17200000000E+03 0.  1.
</event>
<event>
 4    1 -0.6901648E-004  0.1916368E+03  0.7818608E-02  0.1156993E+00
          5   -1    0    0  501    0  0.00000000000E+00  0.00000000000E+00  0.11546960341E+04  0.11547055993E+04  0.47000000000E+01 0. -1.
         -5   -1    0    0    0  501 -0.00000000000E+00 -0.00000000000E+00 -0.52272670579E+02  0.52483541130E+02  0.47000000000E+01 0.  1.
          6    1    1    2  502    0 -0.25939721974E+02 -0.80422483469E+02  0.92955603979E+03  0.94910435471E+03  0.17200000000E+03 0. -1.
         -6    1    1    2    0  502  0.25939721974E+02  0.80422483469E+02  0.17286732369E+03  0.25808478573E+03  0.17200000000E+03 0.  1.
</event>
<event>
 4    1 -0.6901648E-004  0.1821465E+03  0.7818608E-02  0.1165742E+00
          5   -1    0    0  501    0  0.00000000000E+00  0.00000000000E+00  0.11019245241E+03  0.11029264059E+03  0.47000000000E+01 0. -1.
         -5   -1    0    0    0  501 -0.00000000000E+00 -0.00000000000E+00 -0.35384337215E+03  0.35387458515E+03  0.47000000000E+01 0.  1.
          6    1    1    2  502    0  0.55146707689E+02 -0.23498627962E+02 -0.32010441545E+02  0.18493786322E+03  0.17200000000E+03 0. -1.
         -6    1    1    2    0  502 -0.55146707689E+02  0.23498627962E+02 -0.21164047819E+03  0.27922936252E+03  0.17200000000E+03 0.  1.
</event>
<event>
 4    1 -0.6901648E-004  0.2488287E+03  0.7818608E-02  0.1114047E+00
         -5   -1    0    0    0  501 -0.00000000000E+00  0.00000000000E+00  0.32211891389E+03  0.32215320065E+03  0.47000000000E+01 0.  1.
          5   -1    0    0  501    0  0.00000000000E+00 -0.00000000000E+00 -0.29516396873E+03  0.29520138623E+03  0.47000000000E+01 0. -1.
          6    1    1    2  502    0  0.43803258305E+02  0.17439317942E+03 -0.16886206025E+03  0.30071598204E+03  0.17200000000E+03 0. -1.
         -6    1    1    2    0  502 -0.43803258305E+02 -0.17439317942E+03  0.19581700541E+03  0.31663860484E+03  0.17200000000E+03 0.  1.
</event>
<event>
 4    1 -0.6901648E-004  0.1816409E+03  0.7818608E-02  0.1166224E+00
          5   -1    0    0  501    0  0.00000000000E+00  0.00000000000E+00  0.30375098129E+03  0.30378734113E+03  0.47000000000E+01 0. -1.
         -5   -1    0    0    0  501 -0.00000000000E+00 -0.00000000000E+00 -0.54705245236E+03  0.54707264201E+03  0.47000000000E+01 0.  1.
          6    1    1    2  502    0 -0.56839499375E+01 -0.58112748198E+02  0.25921579137E+03  0.31652207709E+03  0.17200000000E+03 0. -1.
         -6    1    1    2    0  502  0.56839499375E+01  0.58112748198E+02 -0.50251726244E+03  0.53433790605E+03  0.17200000000E+03 0.  1.
</event>
<event>
 4    1 -0.6901648E-004  0.3852871E+03  0.7818608E-02  0.1048997E+00
         -5   -1    0    0    0  501 -0.00000000000E+00  0.00000000000E+00  0.26148956779E+03  0.26153180316E+03  0.47000000000E+01 0.  1.
          5   -1    0    0  501    0  0.00000000000E+00 -0.00000000000E+00 -0.96180248446E+03  0.96181396804E+03  0.47000000000E+01 0. -1.
          6    1    1    2  502    0  0.22188682829E+03 -0.26387195602E+03 -0.74174032250E+03  0.83583783103E+03  0.17200000000E+03 0. -1.
         -6    1    1    2    0  502 -0.22188682829E+03  0.26387195602E+03  0.41427405832E+02  0.38750794018E+03  0.17200000000E+03 0. -1.
</event>
<event>
 4    1 -0.6901648E-004  0.1764563E+03  0.7818608E-02  0.1171277E+00
         -5   -1    0    0    0  501 -0.00000000000E+00  0.00000000000E+00  0.90623108126E+02  0.90744904686E+02  0.47000000000E+01 0.  1.
          5   -1    0    0  501    0  0.00000000000E+00 -0.00000000000E+00 -0.84818586439E+03  0.84819888621E+03  0.47000000000E+01 0. -1.
          6    1    1    2  502    0 -0.25285645122E+02 -0.30223699865E+02 -0.74099037532E+03  0.76171095056E+03  0.17200000000E+03 0. -1.
         -6    1    1    2    0  502  0.25285645122E+02  0.30223699865E+02 -0.16572380950E+02  0.17723284033E+03  0.17200000000E+03 0.  1.
</event>
<event>
 4    1 -0.6901648E-004  0.1809640E+03  0.7818608E-02  0.1166873E+00
         -5   -1    0    0    0  501 -0.00000000000E+00  0.00000000000E+00  0.93095758222E+03  0.93096944627E+03  0.47000000000E+01 0.  1.
          5   -1    0    0  501    0  0.00000000000E+00 -0.00000000000E+00 -0.19686759134E+03  0.19692368704E+03  0.47000000000E+01 0. -1.
          6    1    1    2  502    0  0.53737888337E+02  0.16619468724E+02 -0.14405228082E+03  0.23129856678E+03  0.17200000000E+03 0. -1.
         -6    1    1    2    0  502 -0.53737888337E+02 -0.16619468724E+02  0.87814227170E+03  0.89659456653E+03  0.17200000000E+03 0.  1.
</event>
<event>
 4    1 -0.6901648E-004  0.2955836E+03  0.7818608E-02  0.1087469E+00
         -5   -1    0    0    0  501 -0.00000000000E+00  0.00000000000E+00  0.45394549555E+03  0.45396982601E+03  0.47000000000E+01 0.  1.
          5   -1    0    0  501    0  0.00000000000E+00 -0.00000000000E+00 -0.20044207104E+03  0.20049716667E+03  0.47000000000E+01 0. -1.
          6    1    1    2  502    0 -0.53187961972E+02 -0.23442843561E+03  0.61255745908E+02  0.30186407061E+03  0.17200000000E+03 0. -1.
         -6    1    1    2    0  502  0.53187961972E+02  0.23442843561E+03  0.19224767860E+03  0.35260292207E+03  0.17200000000E+03 0.  1.
</event>
<event>
 4    1 -0.6901648E-004  0.1796505E+03  0.7818608E-02  0.1168142E+00
          5   -1    0    0  501    0  0.00000000000E+00  0.00000000000E+00  0.43447087876E+03  0.43449629974E+03  0.47000000000E+01 0. -1.
         -5   -1    0    0    0  501 -0.00000000000E+00 -0.00000000000E+00 -0.21912183402E+03  0.21917223398E+03  0.47000000000E+01 0.  1.
          6    1    1    2  502    0  0.82218052570E+01  0.51212465500E+02  0.37341301658E+03  0.41438097888E+03  0.17200000000E+03 0. -1.
         -6    1    1    2    0  502 -0.82218052570E+01 -0.51212465500E+02 -0.15806397185E+03  0.23928755484E+03  0.17200000000E+03 0.  1.
</event>
<event>
 4    1 -0.6901648E-004  0.3394666E+03  0.7818608E-02  0.1067023E+00
          5   -1    0    0  501    0  0.00000000000E+00  0.00000000000E+00  0.22505971160E+03  0.22510878211E+03  0.47000000000E+01 0. -1.
         -5   -1    0    0    0  501 -0.00000000000E+00 -0.00000000000E+00 -0.73016561145E+03  0.73018073800E+03  0.47000000000E+01 0.  1.
          6    1    1    2  502    0  0.15932408087E+03 -0.24549825742E+03  0.85739745749E+01  0.33957483738E+03  0.17200000000E+03 0. -1.
         -6    1    1    2    0  502 -0.15932408087E+03  0.24549825742E+03 -0.51367987443E+03  0.61571468274E+03  0.17200000000E+03 0.  1.
</event>
<event>
 4    1 -0.6901648E-004  0.1762533E+03  0.7818608E-02  0.1171479E+00
          5   -1    0    0  501    0  0.00000000000E+00  0.00000000000E+00  0.17673338286E+03  0.17679586709E+03  0.47000000000E+01 0. -1.
         -5   -1    0    0    0  501 -0.00000000000E+00 -0.00000000000E+00 -0.44436041771E+03  0.44438527297E+03  0.47000000000E+01 0.  1.
          6    1    1    2  502    0  0.21011451449E+02 -0.32244845355E+02  0.10768324515E+03  0.20654513412E+03  0.17200000000E+03 0. -1.
         -6    1    1    2    0  502 -0.21011451449E+02  0.32244845355E+02 -0.37531028000E+03  0.41463600593E+03  0.17200000000E+03 0.  1.
</event>
<event>
 4    1 -0.6901648E-004  0.2711383E+03  0.7818608E-02  0.1100630E+00
          5   -1    0    0  501    0  0.00000000000E+00  0.00000000000E+00  0.19617138567E+04  0.19617194870E+04  0.47000000000E+01 0. -1.
         -5   -1    0    0    0  501 -0.00000000000E+00 -0.00000000000E+00 -0.55224535726E+02  0.55424176549E+02  0.47000000000E+01 0.  1.
          6    1    1    2  502    0  0.28829117464E+02 -0.20760750787E+03  0.15261755072E+04  0.15500734415E+04  0.17200000000E+03 0. -1.
         -6    1    1    2    0  502 -0.28829117464E+02  0.20760750787E+03  0.38031381381E+03  0.46707022203E+03  0.17200000000E+03 0.  1.
</event>
<event>
 4    1 -0.6901648E-004  0.2225561E+03  0.7818608E-02  0.1131992E+00
          5   -1    0    0  501    0  0.00000000000E+00  0.00000000000E+00  0.49898339540E+03  0.49900552992E+03  0.47000000000E+01 0. -1.
         -5   -1    0    0    0  501 -0.00000000000E+00 -0.00000000000E+00 -0.11307582939E+03  0.11317346505E+03  0.47000000000E+01 0.  1.
          6    1    1    2  502    0 -0.13302014645E+03  0.47464210096E+02  0.30017881182E+03  0.37368239143E+03  0.17200000000E+03 0. -1.
         -6    1    1    2    0  502  0.13302014645E+03 -0.47464210096E+02  0.85728754194E+02  0.23849660353E+03  0.17200000000E+03 0.  1.
</event>
<event>
 4    1 -0.6901648E-004  0.2634134E+03  0.7818608E-02  0.1105110E+00
          5   -1    0    0  501    0  0.00000000000E+00  0.00000000000E+00  0.40247013464E+03  0.40249757674E+03  0.47000000000E+01 0. -1.
         -5   -1    0    0    0  501 -0.00000000000E+00 -0.00000000000E+00 -0.91068979241E+03  0.91070192050E+03  0.47000000000E+01 0.  1.
          6    1    1    2  502    0  0.19071556802E+03  0.58567900180E+02  0.33708678375E+03  0.42780150373E+03  0.17200000000E+03 0. -1.
         -6    1    1    2    0  502 -0.19071556802E+03 -0.58567900180E+02 -0.84530644152E+03  0.88539799350E+03  0.17200000000E+03 0.  1.
</event>
<event>
 4    1 -0.6901648E-004  0.1926501E+03  0.7818608E-02  0.1156093E+00
         -5   -1    0    0    0  501 -0.00000000000E+00  0.00000000000E+00  0.36949240288E+03  0.36952229403E+03  0.47000000000E+01 0.  1.
          5   -1    0    0  501    0  0.00000000000E+00 -0.00000000000E+00 -0.11177040655E+03  0.11186918155E+03  0.47000000000E+01 0. -1.
          6    1    1    2  502    0  0.22092875939E+02 -0.83916422066E+02  0.51992284999E+02  0.19954262392E+03  0.17200000000E+03 0. -1.
         -6    1    1    2    0  502 -0.22092875939E+02  0.83916422066E+02  0.20572971133E+03  0.28184885166E+03  0.17200000000E+03 0.  1.
</event>
<event>
 4    1 -0.6901648E-004  0.1737766E+03  0.7818608E-02  0.1173966E+00
          5   -1    0    0  501    0  0.00000000000E+00  0.00000000000E+00  0.10579339246E+04  0.10579443647E+04  0.47000000000E+01 0. -1.
         -5   -1    0    0    0  501 -0.00000000000E+00 -0.00000000000E+00 -0.87596564915E+02  0.87722563716E+02  0.47000000000E+01 0.  1.
          6    1    1    2  502    0  0.24699879008E+02 -0.20537855833E+01  0.95559373213E+03  0.97126602069E+03  0.17200000000E+03 0. -1.
         -6    1    1    2    0  502 -0.24699879008E+02  0.20537855833E+01  0.14743627531E+02  0.17440090771E+03  0.17200000000E+03 0.  1.
</event>
<event>
 4    1 -0.6901648E-004  0.3202137E+03  0.7818608E-02  0.1075551E+00
         -5   -1    0    0    0  501 -0.00000000000E+00  0.00000000000E+00  0.11076373715E+03  0.11086340906E+03  0.47000000000E+01 0.  1.
          5   -1    0    0  501    0  0.00000000000E+00 -0.00000000000E+00 -0.13641020957E+04  0.13641101926E+04  0.47000000000E+01 0. -1.
          6    1    1    2  502    0 -0.49426296007E+01 -0.27005253482E+03 -0.10449765322E+04  0.10929376716E+04  0.17200000000E+03 0. -1.
         -6    1    1    2    0  502  0.49426296007E+01  0.27005253482E+03 -0.20836182631E+03  0.38203593000E+03  0.17200000000E+03 0.  1.
</event>
<event>
 4    1 -0.6901648E-004  0.2224564E+03  0.7818608E-02  0.1132065E+00
          5   -1    0    0  501    0  0.00000000000E+00  0.00000000000E+00  0.15612391436E+03  0.15619464343E+03  0.47000000000E+01 0. -1.
         -5   -1    0    0    0  501 -0.00000000000E+00 -0.00000000000E+00 -0.42857272082E+03  0.42859849163E+03  0.47000000000E+01 0.  1.
          6    1    1    2  502    0  0.33306509367E+02 -0.13708943306E+03  0.13073674278E+02  0.22284020549E+03  0.17200000000E+03 0. -1.
         -6    1    1    2    0  502 -0.33306509367E+02  0.13708943306E+03 -0.28552248073E+03  0.36195292957E+03  0.17200000000E+03 0.  1.
</event>
<event>
 4    1 -0.6901648E-004  0.1829339E+03  0.7818608E-02  0.1164993E+00
         -5   -1    0    0    0  501 -0.00000000000E+00  0.00000000000E+00  0.56558403121E+03  0.56560355936E+03  0.47000000000E+01 0.  1.
          5   -1    0    0  501    0  0.00000000000E+00 -0.00000000000E+00 -0.26926759985E+03  0.26930861540E+03  0.47000000000E+01 0. -1.
          6    1    1    2  502    0 -0.50191175519E+02  0.36900608598E+02 -0.22059931606E+03  0.28658134493E+03  0.17200000000E+03 0. -1.
         -6    1    1    2    0  502  0.50191175519E+02 -0.36900608598E+02  0.51691574742E+03  0.54833082983E+03  0.17200000000E+03 0.  1.
</event>
<event>
 4    1 -0.6901648E-004  0.1893282E+03  0.7818608E-02  0.1159069E+00
          5   -1    0    0  501    0  0.00000000000E+00  0.00000000000E+00  0.71124925228E+02  0.71280046217E+02  0.47000000000E+01 0. -1.
         -5   -1    0    0    0  501 -0.00000000000E+00 -0.00000000000E+00 -0.51247387667E+03  0.51249542854E+03  0.47000000000E+01 0.  1.
          6    1    1    2  502    0 -0.76007868909E+02 -0.21998953801E+02 -0.18154180498E+03  0.26230245340E+03  0.17200000000E+03 0. -1.
         -6    1    1    2    0  502  0.76007868909E+02  0.21998953801E+02 -0.25980714647E+03  0.32147302136E+03  0.17200000000E+03 0.  1.
</event>
<event>
 4    1 -0.6901648E-004  0.1912704E+03  0.7818608E-02  0.1157320E+00
         -5   -1    0    0    0  501 -0.00000000000E+00  0.00000000000E+00  0.13660934041E+03  0.13669016749E+03  0.47000000000E+01 0.  1.
          5   -1    0    0  501    0  0.00000000000E+00 -0.00000000000E+00 -0.82556118540E+03  0.82557456407E+03  0.47000000000E+01 0. -1.
          6    1    1    2  502    0  0.80001848260E+02  0.24496513093E+02 -0.73998353030E+03  0.76430360460E+03  0.17200000000E+03 0. -1.
         -6    1    1    2    0  502 -0.80001848260E+02 -0.24496513093E+02  0.51031685320E+02  0.19796112696E+03  0.17200000000E+03 0.  1.
</event>
<event>
 4    1 -0.6901648E-004  0.1916535E+03  0.7818608E-02  0.1156978E+00
         -5   -1    0    0    0  501 -0.00000000000E+00  0.00000000000E+00  0.21169511347E+03  0.21174728114E+03  0.47000000000E+01 0.  1.
          5   -1    0    0  501    0  0.00000000000E+00 -0.00000000000E+00 -0.24728256208E+03  0.24732722355E+03  0.47000000000E+01 0. -1.
          6    1    1    2  502    0  0.81477965883E+02 -0.22548125458E+02 -0.14322979982E+03  0.23926105501E+03  0.17200000000E+03 0. -1.
         -6    1    1    2    0  502 -0.81477965883E+02  0.22548125458E+02  0.10764235121E+03  0.21981344968E+03  0.17200000000E+03 0.  1.
</event>
<event>
 4    1 -0.6901648E-004  0.2239146E+03  0.7818608E-02  0.1130998E+00
         -5   -1    0    0    0  501 -0.00000000000E+00  0.00000000000E+00  0.41315129215E+03  0.41317802483E+03  0.47000000000E+01 0.  1.
          5   -1    0    0  501    0  0.00000000000E+00 -0.00000000000E+00 -0.38264554143E+03  0.38267440518E+03  0.47000000000E+01 0. -1.
          6    1    1    2  502    0 -0.14001087709E+03 -0.30833288835E+02 -0.31358410777E+03  0.38532159302E+03  0.17200000000E+03 0. -1.
         -6    1    1    2    0  502  0.14001087709E+03  0.30833288835E+02  0.34408985849E+03  0.41053083699E+03  0.17200000000E+03 0.  1.
</event>
<event>
 4    1 -0.6901648E-004  0.1726269E+03  0.7818608E-02  0.1175136E+00
          5   -1    0    0  501    0  0.00000000000E+00  0.00000000000E+00  0.98671248584E+02  0.98783122532E+02  0.47000000000E+01 0. -1.
         -5   -1    0    0    0  501 -0.00000000000E+00 -0.00000000000E+00 -0.91136626661E+03  0.91137838569E+03  0.47000000000E+01 0.  1.
          6    1    1    2  502    0  0.93450912233E+01  0.11345708806E+02  0.67224369025E+01  0.17275776971E+03  0.17200000000E+03 0. -1.
         -6    1    1    2    0  502 -0.93450912233E+01 -0.11345708806E+02 -0.81941745492E+03  0.83740373851E+03  0.17200000000E+03 0.  1.
</event>
<event>
 4    1 -0.6901648E-004  0.1833884E+03  0.7818608E-02  0.1164563E+00
          5   -1    0    0  501    0  0.00000000000E+00  0.00000000000E+00  0.35172796724E+03  0.35175936795E+03  0.47000000000E+01 0. -1.
         -5   -1    0    0    0  501 -0.00000000000E+00 -0.00000000000E+00 -0.21559307131E+03  0.21564429600E+03  0.47000000000E+01 0.  1.
          6    1    1    2  502    0  0.63583973958E+02  0.20927106454E+01  0.27973041014E+03  0.33448528150E+03  0.17200000000E+03 0. -1.
         -6    1    1    2    0  502 -0.63583973958E+02 -0.20927106454E+01 -0.14359551420E+03  0.23291838245E+03  0.17200000000E+03 0.  1.
</event>
<event>
 4    1 -0.6901648E-004  0.2263334E+03  0.7818608E-02  0.1129247E+00
          5   -1    0    0  501    0  0.00000000000E+00  0.00000000000E+00  0.15369011287E+03  0.15376196147E+03  0.47000000000E+01 0. -1.
         -5   -1    0    0    0  501 -0.00000000000E+00 -0.00000000000E+00 -0.81102908391E+03  0.81104270229E+03  0.47000000000E+01 0.  1.
          6    1    1    2  502    0 -0.14700635582E+03 -0.56530040985E+01  0.41607282540E+02  0.23012603301E+03  0.17200000000E+03 0. -1.
         -6    1    1    2    0  502  0.14700635582E+03  0.56530040985E+01 -0.69894625357E+03  0.73467863075E+03  0.17200000000E+03 0.  1.
</event>
<event>
 4    1 -0.6901648E-004  0.1818543E+03  0.7818608E-02  0.1166020E+00
         -5   -1    0    0    0  501 -0.00000000000E+00  0.00000000000E+00  0.17761231136E+03  0.17767448648E+03  0.47000000000E+01 0.  1.
          5   -1    0    0  501    0  0.00000000000E+00 -0.00000000000E+00 -0.29201122455E+03  0.29204904599E+03  0.47000000000E+01 0. -1.
          6    1    1    2  502    0  0.33758755263E+01 -0.58954155314E+02 -0.19863422150E+03  0.26930752480E+03  0.17200000000E+03 0. -1.
         -6    1    1    2    0  502 -0.33758755263E+01  0.58954155314E+02  0.84235308309E+02  0.20041600767E+03  0.17200000000E+03 0.  1.
</event>
<event>
 4    1 -0.6901648E-004  0.2084485E+03  0.7818608E-02  0.1142801E+00
          5   -1    0    0  501    0  0.00000000000E+00  0.00000000000E+00  0.10447914845E+04  0.10448020559E+04  0.47000000000E+01 0. -1.
         -5   -1    0    0    0  501 -0.00000000000E+00 -0.00000000000E+00 -0.27201432095E+03  0.27205492240E+03  0.47000000000E+01 0.  1.
          6    1    1    2  502    0 -0.10168792382E+03 -0.59382872749E+02  0.99240367936E+03  0.10140590822E+04  0.17200000000E+03 0. -1.
         -6    1    1    2    0  502  0.10168792382E+03  0.59382872749E+02 -0.21962651583E+03  0.30279789610E+03  0.17200000000E+03 0.  1.
</event>
<event>
 4    1 -0.6901648E-004  0.1937417E+03  0.7818608E-02  0.1155129E+00
         -5   -1    0    0    0  501 -0.00000000000E+00  0.00000000000E+00  0.49113459758E+03  0.49115708581E+03  0.47000000000E+01 0.  1.
          5   -1    0    0  501    0  0.00000000000E+00 -0.00000000000E+00 -0.14160176763E+03  0.14167974660E+03  0.47000000000E+01 0. -1.
          6    1    1    2  502    0  0.32022941810E+02  0.83224813379E+02 -0.39959359806E+02  0.19781958649E+03  0.17200000000E+03 0. -1.
         -6    1    1    2    0  502 -0.32022941810E+02 -0.83224813379E+02  0.38949218975E+03  0.43501724591E+03  0.17200000000E+03 0.  1.
</event>
<event>
 4    1 -0.6901648E-004  0.1749700E+03  0.7818608E-02  0.1172762E+00
          5   -1    0    0  501    0  0.00000000000E+00  0.00000000000E+00  0.12821109699E+04  0.12821195846E+04  0.47000000000E+01 0. -1.
         -5   -1    0    0    0  501 -0.00000000000E+00 -0.00000000000E+00 -0.88442119925E+02  0.88566915814E+02  0.47000000000E+01 0.  1.
          6    1    1    2  502    0  0.31292640680E+02 -0.71603033172E+01  0.11824845111E+04  0.11953594097E+04  0.17200000000E+03 0. -1.
         -6    1    1    2    0  502 -0.31292640680E+02  0.71603033172E+01  0.11184338885E+02  0.17532709072E+03  0.17200000000E+03 0.  1.
</event>
<event>
 4    1 -0.6901648E-004  0.1742634E+03  0.7818608E-02  0.1173473E+00
         -5   -1    0    0    0  501 -0.00000000000E+00  0.00000000000E+00  0.72244590255E+03  0.72246119073E+03  0.47000000000E+01 0.  1.
          5   -1    0    0  501    0  0.00000000000E+00 -0.00000000000E+00 -0.12852904074E+03  0.12861494592E+03  0.47000000000E+01 0. -1.
          6    1    1    2  502    0  0.27144030197E+02 -0.68498278549E+01 -0.52166458525E+02  0.18190397992E+03  0.17200000000E+03 0. -1.
         -6    1    1    2    0  502 -0.27144030197E+02  0.68498278549E+01  0.64608332034E+03  0.66917215673E+03  0.17200000000E+03 0.  1.
</event>
<event>
 4    1 -0.6901648E-004  0.3482473E+03  0.7818608E-02  0.1063337E+00
         -5   -1    0    0    0  501 -0.00000000000E+00  0.00000000000E+00  0.82621251866E+03  0.82622588679E+03  0.47000000000E+01 0.  1.
          5   -1    0    0  501    0  0.00000000000E+00 -0.00000000000E+00 -0.20126389675E+03  0.20131876747E+03  0.47000000000E+01 0. -1.
          6    1    1    2  502    0  0.30280536189E+03 -0.10332595763E+01  0.45098227037E+02  0.35115524330E+03  0.17200000000E+03 0. -1.
         -6    1    1    2    0  502 -0.30280536189E+03  0.10332595763E+01  0.57985039488E+03  0.67638941095E+03  0.17200000000E+03 0.  1.
</event>
<event>
 4    1 -0.6901648E-004  0.2274404E+03  0.7818608E-02  0.1128454E+00
         -5   -1    0    0    0  501 -0.00000000000E+00  0.00000000000E+00  0.34400998520E+03  0.34404209033E+03  0.47000000000E+01 0.  1.
          5   -1    0    0  501    0  0.00000000000E+00 -0.00000000000E+00 -0.21823395844E+03  0.21828456339E+03  0.47000000000E+01 0. -1.
          6    1    1    2  502    0 -0.11129940300E+03  0.98780439503E+02 -0.93954131558E+02  0.24608232601E+03  0.17200000000E+03 0. -1.
         -6    1    1    2    0  502  0.11129940300E+03 -0.98780439503E+02  0.21973015832E+03  0.31624432772E+03  0.17200000000E+03 0.  1.
</event>
<event>
 4    1 -0.6901648E-004  0.1944569E+03  0.7818608E-02  0.1154502E+00
         -5   -1    0    0    0  501 -0.00000000000E+00  0.00000000000E+00  0.22406216782E+03  0.22411145676E+03  0.47000000000E+01 0.  1.
          5   -1    0    0  501    0  0.00000000000E+00 -0.00000000000E+00 -0.99741686665E+03  0.99742794019E+03  0.47000000000E+01 0. -1.
          6    1    1    2  502    0 -0.66642425228E+02 -0.61548966301E+02 -0.94339232577E+03  0.96322508710E+03  0.17200000000E+03 0. -1.
         -6    1    1    2    0  502  0.66642425228E+02  0.61548966301E+02  0.17003762695E+03  0.25831430985E+03  0.17200000000E+03 0.  1.
</event>
<event>
 4    1 -0.6901648E-004  0.2277755E+03  0.7818608E-02  0.1128215E+00
         -5   -1    0    0    0  501 -0.00000000000E+00  0.00000000000E+00  0.62780013613E+02  0.62955699577E+02  0.47000000000E+01 0.  1.
          5   -1    0    0  501    0  0.00000000000E+00 -0.00000000000E+00 -0.25306749619E+04  0.25306793263E+04  0.47000000000E+01 0. -1.
          6    1    1    2  502    0 -0.14830115514E+03  0.17448309401E+02 -0.22985424710E+04  0.23098006769E+04  0.17200000000E+03 0. -1.
         -6    1    1    2    0  502  0.14830115514E+03 -0.17448309401E+02 -0.16935247732E+03  0.28383434903E+03  0.17200000000E+03 0.  1.
</event>
<event>
 4    1 -0.6901648E-004  0.2370941E+03  0.7818608E-02  0.1121744E+00
          5   -1    0    0  501    0  0.00000000000E+00  0.00000000000E+00  0.77925928675E+02  0.78067537170E+02  0.47000000000E+01 0. -1.
         -5   -1    0    0    0  501 -0.00000000000E+00 -0.00000000000E+00 -0.72059001893E+03  0.72060534649E+03  0.47000000000E+01 0.  1.
          6    1    1    2  502    0 -0.14837600684E+03 -0.67927621426E+02 -0.32353411903E+03  0.40110837356E+03  0.17200000000E+03 0.  1.
         -6    1    1    2    0  502  0.14837600684E+03  0.67927621426E+02 -0.31912997122E+03  0.39756451010E+03  0.17200000000E+03 0.  1.
</event>
<event>
 4    1 -0.6901648E-004  0.1959527E+03  0.7818608E-02  0.1153199E+00
         -5   -1    0    0    0  501 -0.00000000000E+00  0.00000000000E+00  0.29135191574E+04  0.29135229484E+04  0.47000000000E+01 0.  1.
          5   -1    0    0  501    0  0.00000000000E+00 -0.00000000000E+00 -0.77672934545E+02  0.77815003443E+02  0.47000000000E+01 0. -1.
          6    1    1    2  502    0  0.93712955827E+02  0.55983651733E+01  0.54902025841E+02  0.20349862954E+03  0.17200000000E+03 0. -1.
         -6    1    1    2    0  502 -0.93712955827E+02 -0.55983651733E+01  0.27809441970E+04  0.27878393223E+04  0.17200000000E+03 0.  1.
</event>
<event>
 4    1 -0.6901648E-004  0.2642614E+03  0.7818608E-02  0.1104610E+00
         -5   -1    0    0    0  501 -0.00000000000E+00  0.00000000000E+00  0.20826331362E+04  0.20826384396E+04  0.47000000000E+01 0.  1.
          5   -1    0    0  501    0  0.00000000000E+00 -0.00000000000E+00 -0.18605514559E+03  0.18611450025E+03  0.47000000000E+01 0. -1.
          6    1    1    2  502    0 -0.16111084696E+03  0.11955488356E+03 -0.78813561872E+02  0.27576376253E+03  0.17200000000E+03 0. -1.
         -6    1    1    2    0  502  0.16111084696E+03 -0.11955488356E+03  0.19753915525E+04  0.19929891773E+04  0.17200000000E+03 0.  1.
</event>
<event>
 4    1 -0.6901648E-004  0.2940067E+03  0.7818608E-02  0.1088276E+00
         -5   -1    0    0    0  501 -0.00000000000E+00  0.00000000000E+00  0.16747755638E+03  0.16754349254E+03  0.47000000000E+01 0.  1.
          5   -1    0    0  501    0  0.00000000000E+00 -0.00000000000E+00 -0.18206690800E+04  0.18206751465E+04  0.47000000000E+01 0. -1.
          6    1    1    2  502    0 -0.20067842884E+03 -0.12877924875E+03 -0.16681218961E+04  0.16938331048E+04  0.17200000000E+03 0. -1.
         -6    1    1    2    0  502  0.20067842884E+03  0.12877924875E+03  0.14930372472E+02  0.29438553418E+03  0.17200000000E+03 0.  1.
</event>
<event>
 4    1 -0.6901648E-004  0.1762321E+03  0.7818608E-02  0.1171500E+00
         -5   -1    0    0    0  501 -0.00000000000E+00  0.00000000000E+00  0.19789046556E+03  0.19794627139E+03  0.47000000000E+01 0.  1.
          5   -1    0    0  501    0  0.00000000000E+00 -0.00000000000E+00 -0.44820584875E+03  0.44823049077E+03  0.47000000000E+01 0. -1.
          6    1    1    2  502    0  0.28693596192E+02  0.25503238188E+02 -0.38562822132E+03  0.42398922475E+03  0.17200000000E+03 0. -1.
         -6    1    1    2    0  502 -0.28693596192E+02 -0.25503238188E+02  0.13531283813E+03  0.22218753742E+03  0.17200000000E+03 0.  1.
</event>
<event>
 4    1 -0.6901648E-004  0.1720339E+03  0.7818608E-02  0.1175743E+00
         -5   -1    0    0    0  501 -0.00000000000E+00  0.00000000000E+00  0.35244074317E+03  0.35247208038E+03  0.47000000000E+01 0.  1.
          5   -1    0    0  501    0  0.00000000000E+00 -0.00000000000E+00 -0.90994501145E+02  0.91115801256E+02  0.47000000000E+01 0. -1.
          6    1    1    2  502    0  0.31755249283E+01  0.12595113826E+01  0.68727097570E+02  0.18525410729E+03  0.17200000000E+03 0. -1.
         -6    1    1    2    0  502 -0.31755249283E+01 -0.12595113826E+01  0.19271914445E+03  0.25833377434E+03  0.17200000000E+03 0.  1.
</event>
<event>
 4    1 -0.6901648E-004  0.2068202E+03  0.7818608E-02  0.1144109E+00
          5   -1    0    0  501    0  0.00000000000E+00  0.00000000000E+00  0.10430072995E+04  0.10430178890E+04  0.47000000000E+01 0. -1.
         -5   -1    0    0    0  501 -0.00000000000E+00 -0.00000000000E+00 -0.84709021789E+03  0.84710325654E+03  0.47000000000E+01 0.  1.
          6    1    1    2  502    0  0.19127387524E+02  0.11324642932E+03  0.10198589229E+04  0.10406184860E+04  0.17200000000E+03 0. -1.
         -6    1    1    2    0  502 -0.19127387524E+02 -0.11324642932E+03 -0.82394184133E+03  0.84950265956E+03  0.17200000000E+03 0.  1.
</event>
<event>
 4    1 -0.6901648E-004  0.1757459E+03  0.7818608E-02  0.1171985E+00
          5   -1    0    0  501    0  0.00000000000E+00  0.00000000000E+00  0.85018306877E+02  0.85148120967E+02  0.47000000000E+01 0. -1.
         -5   -1    0    0    0  501 -0.00000000000E+00 -0.00000000000E+00 -0.87787135817E+03  0.87788393965E+03  0.47000000000E+01 0.  1.
          6    1    1    2  502    0  0.31503925236E+02 -0.17610479434E+02 -0.27651609410E+02  0.17790794753E+03  0.17200000000E+03 0. -1.
         -6    1    1    2    0  502 -0.31503925236E+02  0.17610479434E+02 -0.76520144188E+03  0.78512411309E+03  0.17200000000E+03 0.  1.
</event>
<event>
 4    1 -0.6901648E-004  0.1746715E+03  0.7818608E-02  0.1173062E+00
         -5   -1    0    0    0  501 -0.00000000000E+00  0.00000000000E+00  0.61597341874E+03  0.61599134945E+03  0.47000000000E+01 0.  1.
          5   -1    0    0  501    0  0.00000000000E+00 -0.00000000000E+00 -0.91755334613E+02  0.91875630229E+02  0.47000000000E+01 0. -1.
          6    1    1    2  502    0  0.18455110993E+02 -0.24198251417E+02  0.21891615316E+02  0.17603803372E+03  0.17200000000E+03 0. -1.
         -6    1    1    2    0  502 -0.18455110993E+02  0.24198251417E+02  0.50232646881E+03  0.53182894596E+03  0.17200000000E+03 0.  1.
</event>
<event>
 4    1 -0.6901648E-004  0.2254241E+03  0.7818608E-02  0.1129903E+00
          5   -1    0    0  501    0  0.00000000000E+00  0.00000000000E+00  0.41651532499E+03  0.41654184178E+03  0.47000000000E+01 0. -1.
         -5   -1    0    0    0  501 -0.00000000000E+00 -0.00000000000E+00 -0.18413176851E+03  0.18419174296E+03  0.47000000000E+01 0.  1.
          6    1    1    2  502    0 -0.10283179006E+03 -0.10323580323E+03  0.29072543745E+03  0.36788216604E+03  0.17200000000E+03 0. -1.
         -6    1    1    2    0  502  0.10283179006E+03  0.10323580323E+03 -0.58341880965E+02  0.23285141870E+03  0.17200000000E+03 0.  1.
</event>
<event>
 4    1 -0.6901648E-004  0.2000200E+03  0.7818608E-02  0.1149722E+00
         -5   -1    0    0    0  501 -0.00000000000E+00  0.00000000000E+00  0.48203167473E+02  0.48431759770E+02  0.47000000000E+01 0.  1.
          5   -1    0    0  501    0  0.00000000000E+00 -0.00000000000E+00 -0.19347889178E+04  0.19347946265E+04  0.47000000000E+01 0. -1.
          6    1    1    2  502    0 -0.94586632752E+02  0.38436472698E+02 -0.16933126769E+04  0.17050852809E+04  0.17200000000E+03 0. -1.
         -6    1    1    2    0  502  0.94586632752E+02 -0.38436472698E+02 -0.19327307347E+03  0.27814110530E+03  0.17200000000E+03 0.  1.
</event>
<event>
 4    1 -0.6901648E-004  0.3222813E+03  0.7818608E-02  0.1074604E+00
          5   -1    0    0  501    0  0.00000000000E+00  0.00000000000E+00  0.10377743190E+03  0.10388380707E+03  0.47000000000E+01 0. -1.
         -5   -1    0    0    0  501 -0.00000000000E+00 -0.00000000000E+00 -0.18747396838E+04  0.18747455753E+04  0.47000000000E+01 0.  1.
          6    1    1    2  502    0 -0.23374666773E+03  0.14015607163E+03 -0.20981038943E+03  0.38455900536E+03  0.17200000000E+03 0. -1.
         -6    1    1    2    0  502  0.23374666773E+03 -0.14015607163E+03 -0.15611518625E+04  0.15940703770E+04  0.17200000000E+03 0.  1.
</event>
<event>
 4    1 -0.6901648E-004  0.2092864E+03  0.7818608E-02  0.1142132E+00
         -5   -1    0    0    0  501 -0.00000000000E+00  0.00000000000E+00  0.85985553463E+03  0.85986837972E+03  0.47000000000E+01 0.  1.
          5   -1    0    0  501    0  0.00000000000E+00 -0.00000000000E+00 -0.80303576962E+02  0.80440999949E+02  0.47000000000E+01 0. -1.
          6    1    1    2  502    0 -0.10385847345E+03  0.58567863171E+02  0.10522194996E+03  0.23424866244E+03  0.17200000000E+03 0. -1.
         -6    1    1    2    0  502  0.10385847345E+03 -0.58567863171E+02  0.67433000772E+03  0.70606071723E+03  0.17200000000E+03 0.  1.
</event>
<event>
 4    1 -0.6901648E-004  0.1822443E+03  0.7818608E-02  0.1165649E+00
          5   -1    0    0  501    0  0.00000000000E+00  0.00000000000E+00  0.48602936482E+02  0.48829657327E+02  0.47000000000E+01 0. -1.
         -5   -1    0    0    0  501 -0.00000000000E+00 -0.00000000000E+00 -0.25657282958E+04  0.25657326007E+04  0.47000000000E+01 0.  1.
          6    1    1    2  502    0  0.54688834411E+02 -0.25260854416E+02 -0.13833295225E+03  0.22879900580E+03  0.17200000000E+03 0. -1.
         -6    1    1    2    0  502 -0.54688834411E+02  0.25260854416E+02 -0.23787924071E+04  0.23857632522E+04  0.17200000000E+03 0.  1.
</event>
<event>
 4    1 -0.6901648E-004  0.2436494E+03  0.7818608E-02  0.1117385E+00
         -5   -1    0    0    0  501 -0.00000000000E+00  0.00000000000E+00  0.35052728173E+03  0.35055878998E+03  0.47000000000E+01 0.  1.
          5   -1    0    0  501    0  0.00000000000E+00 -0.00000000000E+00 -0.61833493151E+03  0.61835279374E+03  0.47000000000E+01 0. -1.
          6    1    1    2  502    0 -0.60635029866E+02  0.16156856353E+03 -0.54672574509E+03  0.59855997855E+03  0.17200000000E+03 0. -1.
         -6    1    1    2    0  502  0.60635029866E+02 -0.16156856353E+03  0.27891809531E+03  0.37035160518E+03  0.17200000000E+03 0.  1.
</event>
<event>
 4    1 -0.6901648E-004  0.1821893E+03  0.7818608E-02  0.1165701E+00
         -5   -1    0    0    0  501 -0.00000000000E+00  0.00000000000E+00  0.14882062276E+03  0.14889482113E+03  0.47000000000E+01 0.  1.
          5   -1    0    0  501    0  0.00000000000E+00 -0.00000000000E+00 -0.40353405462E+03  0.40356142436E+03  0.47000000000E+01 0. -1.
          6    1    1    2  502    0 -0.29846648041E+02  0.52135577365E+02 -0.31214932093E+03  0.36142791728E+03  0.17200000000E+03 0. -1.
         -6    1    1    2    0  502  0.29846648041E+02 -0.52135577365E+02  0.57435889077E+02  0.19102832821E+03  0.17200000000E+03 0.  1.
</event>
<event>
 4    1 -0.6901648E-004  0.2387129E+03  0.7818608E-02  0.1120653E+00
          5   -1    0    0  501    0  0.00000000000E+00  0.00000000000E+00  0.36110603597E+03  0.36113662126E+03  0.47000000000E+01 0. -1.
         -5   -1    0    0    0  501 -0.00000000000E+00 -0.00000000000E+00 -0.35343938773E+03  0.35347063641E+03  0.47000000000E+01 0.  1.
          6    1    1    2  502    0 -0.10669248020E+03  0.12655647002E+03  0.26968196175E+03  0.36015578009E+03  0.17200000000E+03 0. -1.
         -6    1    1    2    0  502  0.10669248020E+03 -0.12655647002E+03 -0.26201531352E+03  0.35445147757E+03  0.17200000000E+03 0.  1.
</event>
<event>
 4    1 -0.6901648E-004  0.1742735E+03  0.7818608E-02  0.1173463E+00
          5   -1    0    0  501    0  0.00000000000E+00  0.00000000000E+00  0.40417850275E+03  0.40420582886E+03  0.47000000000E+01 0. -1.
         -5   -1    0    0    0  501 -0.00000000000E+00 -0.00000000000E+00 -0.87752874058E+02  0.87878648746E+02  0.47000000000E+01 0.  1.
          6    1    1    2  502    0  0.26447301704E+02 -0.93694266094E+01  0.25177494892E+03  0.30620560221E+03  0.17200000000E+03 0. -1.
         -6    1    1    2    0  502 -0.26447301704E+02  0.93694266094E+01  0.64650679769E+02  0.18587887539E+03  0.17200000000E+03 0.  1.
</event>
<event>
 4    1 -0.6901648E-004  0.1824151E+03  0.7818608E-02  0.1165486E+00
          5   -1    0    0  501    0  0.00000000000E+00  0.00000000000E+00  0.20100525404E+03  0.20106019535E+03  0.47000000000E+01 0. -1.
         -5   -1    0    0    0  501 -0.00000000000E+00 -0.00000000000E+00 -0.24775041860E+03  0.24779499574E+03  0.47000000000E+01 0.  1.
          6    1    1    2  502    0 -0.35777768576E+02 -0.49104037113E+02  0.10596278475E+03  0.21095821135E+03  0.17200000000E+03 0. -1.
         -6    1    1    2    0  502  0.35777768576E+02  0.49104037113E+02 -0.15270794931E+03  0.23789697973E+03  0.17200000000E+03 0.  1.
</event>
<event>
 4    1 -0.6901648E-004  0.1753354E+03  0.7818608E-02  0.1172395E+00
          5   -1    0    0  501    0  0.00000000000E+00  0.00000000000E+00  0.58038627727E+03  0.58040530739E+03  0.47000000000E+01 0. -1.
         -5   -1    0    0    0  501 -0.00000000000E+00 -0.00000000000E+00 -0.82834575148E+02  0.82967806045E+02  0.47000000000E+01 0.  1.
          6    1    1    2  502    0 -0.24617216310E+02 -0.23505460186E+02  0.44812335126E+03  0.48120375304E+03  0.17200000000E+03 0. -1.
         -6    1    1    2    0  502  0.24617216310E+02  0.23505460186E+02  0.49428350867E+02  0.18216936040E+03  0.17200000000E+03 0.  1.
</event>
<event>
 4    1 -0.6901648E-004  0.2085066E+03  0.7818608E-02  0.1142754E+00
         -5   -1    0    0    0  501 -0.00000000000E+00  0.00000000000E+00  0.22884730894E+03  0.22889556747E+03  0.47000000000E+01 0.  1.
          5   -1    0    0  501    0  0.00000000000E+00 -0.00000000000E+00 -0.15402435252E+04  0.15402506962E+04  0.47000000000E+01 0. -1.
          6    1    1    2  502    0 -0.99483087208E+02 -0.63199054533E+02 -0.14839330594E+04  0.14985100366E+04  0.17200000000E+03 0. -1.
         -6    1    1    2    0  502  0.99483087208E+02  0.63199054533E+02  0.17253684310E+03  0.27063622699E+03  0.17200000000E+03 0.  1.
</event>
<event>
 4    1 -0.6901648E-004  0.1993632E+03  0.7818608E-02  0.1150277E+00
         -5   -1    0    0    0  501 -0.00000000000E+00  0.00000000000E+00  0.55692235197E+02  0.55890205414E+02  0.47000000000E+01 0.  1.
          5   -1    0    0  501    0  0.00000000000E+00 -0.00000000000E+00 -0.10535192945E+04  0.10535297783E+04  0.47000000000E+01 0. -1.
          6    1    1    2  502    0  0.93603551967E+02  0.37417223331E+02 -0.81462127329E+03  0.83866172707E+03  0.17200000000E+03 0. -1.
         -6    1    1    2    0  502 -0.93603551967E+02 -0.37417223331E+02 -0.18320578599E+03  0.27075825668E+03  0.17200000000E+03 0.  1.
</event>
<event>
 4    1 -0.6901648E-004  0.1725896E+03  0.7818608E-02  0.1175174E+00
          5   -1    0    0  501    0  0.00000000000E+00  0.00000000000E+00  0.22035189936E+03  0.22040201803E+03  0.47000000000E+01 0. -1.
         -5   -1    0    0    0  501 -0.00000000000E+00 -0.00000000000E+00 -0.15386969694E+03  0.15394146172E+03  0.47000000000E+01 0.  1.
          6    1    1    2  502    0  0.26472920558E+01  0.14005757737E+02  0.98632134929E+02  0.19878497792E+03  0.17200000000E+03 0. -1.
         -6    1    1    2    0  502 -0.26472920558E+01 -0.14005757737E+02 -0.32149932514E+02  0.17555850183E+03  0.17200000000E+03 0.  1.
</event>
<event>
 4    1 -0.6901648E-004  0.1860686E+03  0.7818608E-02  0.1162056E+00
          5   -1    0    0  501    0  0.00000000000E+00  0.00000000000E+00  0.36560573536E+02  0.36861436994E+02  0.47000000000E+01 0. -1.
         -5   -1    0    0    0  501 -0.00000000000E+00 -0.00000000000E+00 -0.10000808877E+04  0.10000919318E+04  0.47000000000E+01 0.  1.
          6    1    1    2  502    0 -0.69801270361E+02  0.12857771057E+02 -0.35767003099E+03  0.40317414437E+03  0.17200000000E+03 0.  1.
         -6    1    1    2    0  502  0.69801270361E+02 -0.12857771057E+02 -0.60585028318E+03  0.63377922438E+03  0.17200000000E+03 0. -1.
</event>
<event>
 4    1 -0.6901648E-004  0.1757856E+03  0.7818608E-02  0.1171945E+00
         -5   -1    0    0    0  501 -0.00000000000E+00  0.00000000000E+00  0.82723190715E+02  0.82856600715E+02  0.47000000000E+01 0.  1.
          5   -1    0    0  501    0  0.00000000000E+00 -0.00000000000E+00 -0.53302898897E+03  0.53304970976E+03  0.47000000000E+01 0. -1.
          6    1    1    2  502    0  0.12191214073E+02  0.34175286378E+02 -0.39381525853E+03  0.43126677794E+03  0.17200000000E+03 0. -1.
         -6    1    1    2    0  502 -0.12191214073E+02 -0.34175286378E+02 -0.56490539720E+02  0.18463953254E+03  0.17200000000E+03 0.  1.
</event>
<event>
 4    1 -0.6901648E-004  0.2800180E+03  0.7818608E-02  0.1095679E+00
          5   -1    0    0  501    0  0.00000000000E+00  0.00000000000E+00  0.89841429029E+03  0.89842658409E+03  0.47000000000E+01 0. -1.
         -5   -1    0    0    0  501 -0.00000000000E+00 -0.00000000000E+00 -0.95672611268E+02  0.95787987487E+02  0.47000000000E+01 0.  1.
          6    1    1    2  502    0 -0.21052845959E+03  0.67110845137E+02  0.54920151872E+03  0.61646768447E+03  0.17200000000E+03 0.  1.
         -6    1    1    2    0  502  0.21052845959E+03 -0.67110845137E+02  0.25354016030E+03  0.37774688711E+03  0.17200000000E+03 0.  1.
</event>
<event>
 4    1 -0.6901648E-004  0.1746042E+03  0.7818608E-02  0.1173130E+00
          5   -1    0    0  501    0  0.00000000000E+00  0.00000000000E+00  0.24010394547E+03  0.24014994197E+03  0.47000000000E+01 0. -1.
         -5   -1    0    0    0  501 -0.00000000000E+00 -0.00000000000E+00 -0.13963548226E+03  0.13971455867E+03  0.47000000000E+01 0.  1.
          6    1    1    2  502    0 -0.28712976863E+02 -0.88419464622E+01  0.10763313319E+03  0.20511339892E+03  0.17200000000E+03 0. -1.
         -6    1    1    2    0  502  0.28712976863E+02  0.88419464622E+01 -0.71646699765E+01  0.17475110172E+03  0.17200000000E+03 0.  1.
</event>
<event>
 4    1 -0.6901648E-004  0.1740578E+03  0.7818608E-02  0.1173681E+00
          5   -1    0    0  501    0  0.00000000000E+00  0.00000000000E+00  0.44763938050E+02  0.45010000553E+02  0.47000000000E+01 0. -1.
         -5   -1    0    0    0  501 -0.00000000000E+00 -0.00000000000E+00 -0.12683862084E+04  0.12683949163E+04  0.47000000000E+01 0.  1.
          6    1    1    2  502    0  0.57226542415E+00  0.26679171412E+02 -0.16256790536E+03  0.23816890966E+03  0.17200000000E+03 0. -1.
         -6    1    1    2    0  502 -0.57226542415E+00 -0.26679171412E+02 -0.10610543650E+04  0.10752360072E+04  0.17200000000E+03 0.  1.
</event>
<event>
 4    1 -0.6901648E-004  0.2102217E+03  0.7818608E-02  0.1141391E+00
          5   -1    0    0  501    0  0.00000000000E+00  0.00000000000E+00  0.24899166379E+04  0.24899210738E+04  0.47000000000E+01 0. -1.
         -5   -1    0    0    0  501 -0.00000000000E+00 -0.00000000000E+00 -0.46610424374E+02  0.46846789221E+02  0.47000000000E+01 0.  1.
          6    1    1    2  502    0 -0.11983984951E+03 -0.15734969771E+02  0.22205470035E+04  0.22304757729E+04  0.17200000000E+03 0. -1.
         -6    1    1    2    0  502  0.11983984951E+03  0.15734969771E+02  0.22275921004E+03  0.30629209011E+03  0.17200000000E+03 0.  1.
</event>
<event>
 4    1 -0.6901648E-004  0.4178703E+03  0.7818608E-02  0.1037762E+00
         -5   -1    0    0    0  501 -0.00000000000E+00  0.00000000000E+00  0.44386882033E+03  0.44389370311E+03  0.47000000000E+01 0.  1.
          5   -1    0    0  501    0  0.00000000000E+00 -0.00000000000E+00 -0.13089298375E+04  0.13089382757E+04  0.47000000000E+01 0. -1.
          6    1    1    2  502    0 -0.25787644510E+03 -0.28023435672E+03 -0.11655142681E+04  0.12381595474E+04  0.17200000000E+03 0. -1.
         -6    1    1    2    0  502  0.25787644510E+03  0.28023435672E+03  0.30045325094E+03  0.51467243139E+03  0.17200000000E+03 0.  1.
</event>
<event>
 4    1 -0.6901648E-004  0.1789239E+03  0.7818608E-02  0.1168849E+00
          5   -1    0    0  501    0  0.00000000000E+00  0.00000000000E+00  0.68727800457E+02  0.68888319443E+02  0.47000000000E+01 0. -1.
         -5   -1    0    0    0  501 -0.00000000000E+00 -0.00000000000E+00 -0.94864323722E+03  0.94865488010E+03  0.47000000000E+01 0.  1.
          6    1    1    2  502    0 -0.45670204661E+02  0.18547045094E+02 -0.76751699669E+02  0.19469099588E+03  0.17200000000E+03 0. -1.
         -6    1    1    2    0  502  0.45670204661E+02 -0.18547045094E+02 -0.80316373710E+03  0.82285220366E+03  0.17200000000E+03 0.  1.
</event>
<event>
 4    1 -0.6901648E-004  0.3759812E+03  0.7818608E-02  0.1052429E+00
         -5   -1    0    0    0  501 -0.00000000000E+00  0.00000000000E+00  0.17073111661E+04  0.17073176353E+04  0.47000000000E+01 0.  1.
          5   -1    0    0  501    0  0.00000000000E+00 -0.00000000000E+00 -0.26487142691E+03  0.26491312311E+03  0.47000000000E+01 0. -1.
          6    1    1    2  502    0  0.22619994083E+03 -0.24619392582E+03 -0.96385793408E+02  0.38813925789E+03  0.17200000000E+03 0. -1.
         -6    1    1    2    0  502 -0.22619994083E+03  0.24619392582E+03  0.15388255326E+04  0.15840915005E+04  0.17200000000E+03 0.  1.
</event>
<event>
 4    1 -0.6901648E-004  0.2159556E+03  0.7818608E-02  0.1136935E+00
          5   -1    0    0  501    0  0.00000000000E+00  0.00000000000E+00  0.63236671202E+03  0.63238417791E+03  0.47000000000E+01 0. -1.
         -5   -1    0    0    0  501 -0.00000000000E+00 -0.00000000000E+00 -0.17545576076E+03  0.17551869981E+03  0.47000000000E+01 0.  1.
          6    1    1    2  502    0  0.11591986889E+03  0.60128287565E+02  0.53604031744E+03  0.57790660914E+03  0.17200000000E+03 0. -1.
         -6    1    1    2    0  502 -0.11591986889E+03 -0.60128287565E+02 -0.79129366180E+02  0.22999626858E+03  0.17200000000E+03 0.  1.
</event>
<event>
 4    1 -0.6901648E-004  0.2337832E+03  0.7818608E-02  0.1124005E+00
         -5   -1    0    0    0  501 -0.00000000000E+00  0.00000000000E+00  0.13584970516E+03  0.13593098393E+03  0.47000000000E+01 0.  1.
          5   -1    0    0  501    0  0.00000000000E+00 -0.00000000000E+00 -0.96976630371E+03  0.96977769298E+03  0.47000000000E+01 0. -1.
          6    1    1    2  502    0 -0.15604024953E+03 -0.26870264131E+02 -0.83991972265E+03  0.87184844501E+03  0.17200000000E+03 0. -1.
         -6    1    1    2    0  502  0.15604024953E+03  0.26870264131E+02  0.60031241047E+01  0.23386023190E+03  0.17200000000E+03 0.  1.
</event>
<event>
 4    1 -0.6901648E-004  0.2584609E+03  0.7818608E-02  0.1108072E+00
          5   -1    0    0  501    0  0.00000000000E+00  0.00000000000E+00  0.72351720984E+02  0.72504217321E+02  0.47000000000E+01 0. -1.
         -5   -1    0    0    0  501 -0.00000000000E+00 -0.00000000000E+00 -0.22650232353E+04  0.22650281116E+04  0.47000000000E+01 0.  1.
          6    1    1    2  502    0 -0.56940883347E+02  0.18432511224E+03 -0.19644255975E+03  0.32464086385E+03  0.17200000000E+03 0. -1.
         -6    1    1    2    0  502  0.56940883347E+02 -0.18432511224E+03 -0.19962289546E+04  0.20128914651E+04  0.17200000000E+03 0.  1.
</event>
<event>
 4    1 -0.6901648E-004  0.1819217E+03  0.7818608E-02  0.1165956E+00
         -5   -1    0    0    0  501 -0.00000000000E+00  0.00000000000E+00  0.27716408655E+02  0.28112084745E+02  0.47000000000E+01 0.  1.
          5   -1    0    0  501    0  0.00000000000E+00 -0.00000000000E+00 -0.16959850158E+04  0.16959915282E+04  0.47000000000E+01 0. -1.
          6    1    1    2  502    0 -0.45634003999E+02  0.37802612610E+02 -0.13071595244E+04  0.13197581302E+04  0.17200000000E+03 0. -1.
         -6    1    1    2    0  502  0.45634003999E+02 -0.37802612610E+02 -0.36110908269E+03  0.40434548278E+03  0.17200000000E+03 0.  1.
</event>
<event>
 4    1 -0.6901648E-004  0.1731000E+03  0.7818608E-02  0.1174653E+00
         -5   -1    0    0    0  501 -0.00000000000E+00  0.00000000000E+00  0.13623515814E+04  0.13623596887E+04  0.47000000000E+01 0.  1.
          5   -1    0    0  501    0  0.00000000000E+00 -0.00000000000E+00 -0.95729839313E+02  0.95845146642E+02  0.47000000000E+01 0. -1.
          6    1    1    2  502    0  0.12259717855E+02  0.15142992738E+02 -0.66430883698E+01  0.17322742720E+03  0.17200000000E+03 0. -1.
         -6    1    1    2    0  502 -0.12259717855E+02 -0.15142992738E+02  0.12732648305E+04  0.12849774081E+04  0.17200000000E+03 0.  1.
</event>
<event>
 4    1 -0.6901648E-004  0.1928909E+03  0.7818608E-02  0.1155879E+00
         -5   -1    0    0    0  501 -0.00000000000E+00  0.00000000000E+00  0.58769193401E+03  0.58771072757E+03  0.47000000000E+01 0.  1.
          5   -1    0    0  501    0  0.00000000000E+00 -0.00000000000E+00 -0.26928176082E+03  0.26932277421E+03  0.47000000000E+01 0. -1.
          6    1    1    2  502    0  0.26369685691E+01 -0.87269366717E+02 -0.21557695005E+03  0.28927550426E+03  0.17200000000E+03 0. -1.
         -6    1    1    2    0  502 -0.26369685691E+01  0.87269366717E+02  0.53398712324E+03  0.56775799753E+03  0.17200000000E+03 0.  1.
</event>
<event>
 4    1 -0.6901648E-004  0.2949746E+03  0.7818608E-02  0.1087780E+00
          5   -1    0    0  501    0  0.00000000000E+00  0.00000000000E+00  0.12554688655E+03  0.12563483085E+03  0.47000000000E+01 0. -1.
         -5   -1    0    0    0  501 -0.00000000000E+00 -0.00000000000E+00 -0.14129628481E+04  0.14129706650E+04  0.47000000000E+01 0.  1.
          6    1    1    2  502    0  0.19295354601E+03  0.14210887462E+03 -0.94471630962E+02  0.30973358265E+03  0.17200000000E+03 0. -1.
         -6    1    1    2    0  502 -0.19295354601E+03 -0.14210887462E+03 -0.11929443306E+04  0.12288719132E+04  0.17200000000E+03 0. -1.
</event>
<event>
 4    1 -0.6901648E-004  0.2122154E+03  0.7818608E-02  0.1139824E+00
         -5   -1    0    0    0  501 -0.00000000000E+00  0.00000000000E+00  0.13686227338E+03  0.13694295117E+03  0.47000000000E+01 0.  1.
          5   -1    0    0  501    0  0.00000000000E+00 -0.00000000000E+00 -0.11456136252E+04  0.11456232663E+04  0.47000000000E+01 0. -1.
          6    1    1    2  502    0  0.11611108377E+03  0.44379979521E+02 -0.10458232566E+04  0.10671371282E+04  0.17200000000E+03 0. -1.
         -6    1    1    2    0  502 -0.11611108377E+03 -0.44379979521E+02  0.37071904804E+02  0.21542908922E+03  0.17200000000E+03 0.  1.
</event>
<event>
 4    1 -0.6901648E-004  0.2320034E+03  0.7818608E-02  0.1125238E+00
         -5   -1    0    0    0  501 -0.00000000000E+00  0.00000000000E+00  0.62175941418E+03  0.62177717804E+03  0.47000000000E+01 0.  1.
          5   -1    0    0  501    0  0.00000000000E+00 -0.00000000000E+00 -0.51398346864E+03  0.51400495721E+03  0.47000000000E+01 0. -1.
          6    1    1    2  502    0 -0.15569682238E+03 -0.25372030517E+00 -0.46397844864E+03  0.51875000306E+03  0.17200000000E+03 0. -1.
         -6    1    1    2    0  502  0.15569682238E+03  0.25372030517E+00  0.57175439419E+03  0.61703213218E+03  0.17200000000E+03 0.  1.
</event>
<event>
 4    1 -0.6901648E-004  0.1811924E+03  0.7818608E-02  0.1166654E+00
         -5   -1    0    0    0  501 -0.00000000000E+00  0.00000000000E+00  0.94953493056E+02  0.95069741998E+02  0.47000000000E+01 0.  1.
          5   -1    0    0  501    0  0.00000000000E+00 -0.00000000000E+00 -0.81448659500E+03  0.81450015558E+03  0.47000000000E+01 0. -1.
          6    1    1    2  502    0 -0.36041296252E+02  0.44133073062E+02 -0.70486902758E+03  0.72778502953E+03  0.17200000000E+03 0. -1.
         -6    1    1    2    0  502  0.36041296252E+02 -0.44133073062E+02 -0.14664074369E+02  0.18178486805E+03  0.17200000000E+03 0.  1.
</event>
<event>
 4    1 -0.6901648E-004  0.1781903E+03  0.7818608E-02  0.1169566E+00
         -5   -1    0    0    0  501 -0.00000000000E+00  0.00000000000E+00  0.11623277543E+03  0.11632776145E+03  0.47000000000E+01 0.  1.
          5   -1    0    0  501    0  0.00000000000E+00 -0.00000000000E+00 -0.91461370799E+03  0.91462578405E+03  0.47000000000E+01 0. -1.
          6    1    1    2  502    0  0.44895597788E+02  0.12334957721E+02 -0.83092437749E+03  0.84981591359E+03  0.17200000000E+03 0. -1.
         -6    1    1    2    0  502 -0.44895597788E+02 -0.12334957721E+02  0.32543444928E+02  0.18113763190E+03  0.17200000000E+03 0.  1.
</event>
<event>
 4    1 -0.6901648E-004  0.1744748E+03  0.7818608E-02  0.1173260E+00
         -5   -1    0    0    0  501 -0.00000000000E+00  0.00000000000E+00  0.19413337353E+03  0.19419025907E+03  0.47000000000E+01 0.  1.
          5   -1    0    0  501    0  0.00000000000E+00 -0.00000000000E+00 -0.35141944256E+03  0.35145087083E+03  0.47000000000E+01 0. -1.
          6    1    1    2  502    0  0.12995194442E+02 -0.26240625255E+02 -0.28169697437E+03  0.33135272877E+03  0.17200000000E+03 0. -1.
         -6    1    1    2    0  502 -0.12995194442E+02  0.26240625255E+02  0.12441090534E+03  0.21428840113E+03  0.17200000000E+03 0.  1.
</event>
<event>
 4    1 -0.6901648E-004  0.1896861E+03  0.7818608E-02  0.1158745E+00
          5   -1    0    0  501    0  0.00000000000E+00  0.00000000000E+00  0.34033609974E+02  0.34356609377E+02  0.47000000000E+01 0. -1.
         -5   -1    0    0    0  501 -0.00000000000E+00 -0.00000000000E+00 -0.19511848921E+04  0.19511905528E+04  0.47000000000E+01 0.  1.
          6    1    1    2  502    0 -0.79901987554E+02  0.35350305355E+01 -0.28464612787E+03  0.34205882852E+03  0.17200000000E+03 0. -1.
         -6    1    1    2    0  502  0.79901987554E+02 -0.35350305355E+01 -0.16325051543E+04  0.16434883337E+04  0.17200000000E+03 0.  1.
</event>
<event>
 4    1 -0.6901648E-004  0.1962498E+03  0.7818608E-02  0.1152942E+00
         -5   -1    0    0    0  501 -0.00000000000E+00  0.00000000000E+00  0.37031932978E+03  0.37034915418E+03  0.47000000000E+01 0.  1.
          5   -1    0    0  501    0  0.00000000000E+00 -0.00000000000E+00 -0.21665098893E+03  0.21670196355E+03  0.47000000000E+01 0. -1.
          6    1    1    2  502    0 -0.45786072279E+02 -0.82665731100E+02 -0.13484994873E+03  0.23811446026E+03  0.17200000000E+03 0. -1.
         -6    1    1    2    0  502  0.45786072279E+02  0.82665731100E+02  0.28851828957E+03  0.34893665747E+03  0.17200000000E+03 0.  1.
</event>
<event>
 4    1 -0.6901648E-004  0.2421457E+03  0.7818608E-02  0.1118372E+00
         -5   -1    0    0    0  501 -0.00000000000E+00  0.00000000000E+00  0.41643168300E+03  0.41645820511E+03  0.47000000000E+01 0.  1.
          5   -1    0    0  501    0  0.00000000000E+00 -0.00000000000E+00 -0.20999096889E+03  0.21004355980E+03  0.47000000000E+01 0. -1.
          6    1    1    2  502    0 -0.16810012677E+03 -0.28157963737E+02 -0.76639710426E+02  0.25398458370E+03  0.17200000000E+03 0. -1.
         -6    1    1    2    0  502  0.16810012677E+03  0.28157963737E+02  0.28308042454E+03  0.37251718122E+03  0.17200000000E+03 0.  1.
</event>
<event>
 4    1 -0.6901648E-004  0.2053513E+03  0.7818608E-02  0.1145301E+00
         -5   -1    0    0    0  501 -0.00000000000E+00  0.00000000000E+00  0.81685687156E+02  0.81820788838E+02  0.47000000000E+01 0.  1.
          5   -1    0    0  501    0  0.00000000000E+00 -0.00000000000E+00 -0.12195267085E+04  0.12195357653E+04  0.47000000000E+01 0. -1.
          6    1    1    2  502    0  0.59971563394E+02  0.94808049289E+02 -0.10632172421E+04  0.10828665931E+04  0.17200000000E+03 0. -1.
         -6    1    1    2    0  502 -0.59971563394E+02 -0.94808049289E+02 -0.74623779289E+02  0.21848996101E+03  0.17200000000E+03 0.  1.
</event>
<event>
 4    1 -0.6901648E-004  0.2343995E+03  0.7818608E-02  0.1123581E+00
         -5   -1    0    0    0  501 -0.00000000000E+00  0.00000000000E+00  0.11082469885E+03  0.11092431598E+03  0.47000000000E+01 0.  1.
          5   -1    0    0  501    0  0.00000000000E+00 -0.00000000000E+00 -0.11406490005E+04  0.11406586835E+04  0.47000000000E+01 0. -1.
          6    1    1    2  502    0  0.65866561771E+02 -0.14498529576E+03 -0.98554723442E+03  0.10130382477E+04  0.17200000000E+03 0. -1.
         -6    1    1    2    0  502 -0.65866561771E+02  0.14498529576E+03 -0.44277067205E+02  0.23854475183E+03  0.17200000000E+03 0.  1.
</event>
<event>
 4    1 -0.6901648E-004  0.3315704E+03  0.7818608E-02  0.1070444E+00
         -5   -1    0    0    0  501 -0.00000000000E+00  0.00000000000E+00  0.55584892077E+03  0.55586879092E+03  0.47000000000E+01 0.  1.
          5   -1    0    0  501    0  0.00000000000E+00 -0.00000000000E+00 -0.69891222273E+03  0.69892802568E+03  0.47000000000E+01 0. -1.
          6    1    1    2  502    0  0.20227217675E+03  0.19859729584E+03 -0.60279611126E+03  0.68796952778E+03  0.17200000000E+03 0. -1.
         -6    1    1    2    0  502 -0.20227217675E+03 -0.19859729584E+03  0.45973280930E+03  0.56682728882E+03  0.17200000000E+03 0.  1.
</event>
<event>
 4    1 -0.6901648E-004  0.1793113E+03  0.7818608E-02  0.1168471E+00
          5   -1    0    0  501    0  0.00000000000E+00  0.00000000000E+00  0.31723354117E+03  0.31726835588E+03  0.47000000000E+01 0. -1.
         -5   -1    0    0    0  501 -0.00000000000E+00 -0.00000000000E+00 -0.29778605819E+03  0.29782314627E+03  0.47000000000E+01 0.  1.
          6    1    1    2  502    0 -0.27004031558E+02  0.42887458213E+02  0.25952298848E+03  0.31544370868E+03  0.17200000000E+03 0. -1.
         -6    1    1    2    0  502  0.27004031558E+02 -0.42887458213E+02 -0.24007550550E+03  0.29964779347E+03  0.17200000000E+03 0.  1.
</event>
<event>
 4    1 -0.6901648E-004  0.1752623E+03  0.7818608E-02  0.1172469E+00
         -5   -1    0    0    0  501 -0.00000000000E+00  0.00000000000E+00  0.70056141108E+02  0.70213623372E+02  0.47000000000E+01 0.  1.
          5   -1    0    0  501    0  0.00000000000E+00 -0.00000000000E+00 -0.86619844067E+03  0.86621119170E+03  0.47000000000E+01 0. -1.
          6    1    1    2  502    0 -0.16287412108E+02 -0.29455009196E+02 -0.72731272898E+03  0.74813146111E+03  0.17200000000E+03 0. -1.
         -6    1    1    2    0  502  0.16287412108E+02  0.29455009196E+02 -0.68829570583E+02  0.18829335396E+03  0.17200000000E+03 0.  1.
</event>
<event>
 4    1 -0.6901648E-004  0.2481198E+03  0.7818608E-02  0.1114499E+00
         -5   -1    0    0    0  501 -0.00000000000E+00  0.00000000000E+00  0.42641725518E+03  0.42644315625E+03  0.47000000000E+01 0.  1.
          5   -1    0    0  501    0  0.00000000000E+00 -0.00000000000E+00 -0.14464521240E+03  0.14472155151E+03  0.47000000000E+01 0. -1.
          6    1    1    2  502    0 -0.12852750542E+03  0.12433867876E+03  0.15472862990E+03  0.29241131236E+03  0.17200000000E+03 0.  1.
         -6    1    1    2    0  502  0.12852750542E+03 -0.12433867876E+03  0.12704341288E+03  0.27875339539E+03  0.17200000000E+03 0.  1.
</event>
<event>
 4    1 -0.6901648E-004  0.1759567E+03  0.7818608E-02  0.1171774E+00
          5   -1    0    0  501    0  0.00000000000E+00  0.00000000000E+00  0.21624167858E+04  0.21624218936E+04  0.47000000000E+01 0. -1.
         -5   -1    0    0    0  501 -0.00000000000E+00 -0.00000000000E+00 -0.11450922961E+03  0.11460564413E+03  0.47000000000E+01 0.  1.
          6    1    1    2  502    0 -0.36792939425E+02  0.48016140733E+01  0.20889500332E+04  0.20963475421E+04  0.17200000000E+03 0. -1.
         -6    1    1    2    0  502  0.36792939425E+02 -0.48016140733E+01 -0.41042476999E+02  0.18067999559E+03  0.17200000000E+03 0.  1.
</event>
<event>
 4    1 -0.6901648E-004  0.1725249E+03  0.7818608E-02  0.1175240E+00
         -5   -1    0    0    0  501 -0.00000000000E+00  0.00000000000E+00  0.20477173371E+03  0.20482566471E+03  0.47000000000E+01 0.  1.
          5   -1    0    0  501    0  0.00000000000E+00 -0.00000000000E+00 -0.17199577803E+03  0.17205998274E+03  0.47000000000E+01 0. -1.
          6    1    1    2  502    0  0.13405247685E+02  0.10675476818E+01 -0.57902209018E+02  0.18198215883E+03  0.17200000000E+03 0. -1.
         -6    1    1    2    0  502 -0.13405247685E+02 -0.10675476818E+01  0.90678164696E+02  0.19490348862E+03  0.17200000000E+03 0.  1.
</event>
<event>
 4    1 -0.6901648E-004  0.4647842E+03  0.7818608E-02  0.1023403E+00
         -5   -1    0    0    0  501 -0.00000000000E+00  0.00000000000E+00  0.44115856502E+03  0.44118360066E+03  0.47000000000E+01 0.  1.
          5   -1    0    0  501    0  0.00000000000E+00 -0.00000000000E+00 -0.49696223308E+03  0.49698445761E+03  0.47000000000E+01 0. -1.
          6    1    1    2  502    0 -0.41869386038E+03 -0.10552645203E+03  0.29093133721E+02  0.46569388146E+03  0.17200000000E+03 0. -1.
         -6    1    1    2    0  502  0.41869386038E+03  0.10552645203E+03 -0.84896801781E+02  0.47247417681E+03  0.17200000000E+03 0.  1.
</event>
<event>
 4    1 -0.6901648E-004  0.1934639E+03  0.7818608E-02  0.1155374E+00
         -5   -1    0    0    0  501 -0.00000000000E+00  0.00000000000E+00  0.12194114541E+03  0.12203168827E+03  0.47000000000E+01 0.  1.
          5   -1    0    0  501    0  0.00000000000E+00 -0.00000000000E+00 -0.48246699751E+03  0.48248988972E+03  0.47000000000E+01 0. -1.
          6    1    1    2  502    0  0.88566576652E+02  0.50519033953E+00 -0.36267108441E+03  0.41104575072E+03  0.17200000000E+03 0. -1.
         -6    1    1    2    0  502 -0.88566576652E+02 -0.50519033953E+00  0.21452323111E+01  0.19347582727E+03  0.17200000000E+03 0.  1.
</event>
<event>
 4    1 -0.6901648E-004  0.2140634E+03  0.7818608E-02  0.1138388E+00
         -5   -1    0    0    0  501 -0.00000000000E+00  0.00000000000E+00  0.15776603743E+04  0.15776673751E+04  0.47000000000E+01 0.  1.
          5   -1    0    0  501    0  0.00000000000E+00 -0.00000000000E+00 -0.61439677124E+02  0.61619184716E+02  0.47000000000E+01 0. -1.
          6    1    1    2  502    0  0.79481567149E+02 -0.99608224418E+02  0.16252541770E+03  0.26877058858E+03  0.17200000000E+03 0. -1.
         -6    1    1    2    0  502 -0.79481567149E+02  0.99608224418E+02  0.13536952794E+04  0.13705159712E+04  0.17200000000E+03 0.  1.
</event>
<event>
 4    1 -0.6901648E-004  0.2023837E+03  0.7818608E-02  0.1147743E+00
          5   -1    0    0  501    0  0.00000000000E+00  0.00000000000E+00  0.10602733639E+03  0.10613145651E+03  0.47000000000E+01 0. -1.
         -5   -1    0    0    0  501 -0.00000000000E+00 -0.00000000000E+00 -0.39033783000E+03  0.39036612498E+03  0.47000000000E+01 0.  1.
          6    1    1    2  502    0 -0.31621579985E+01 -0.10660755578E+03 -0.11598858587E+03  0.23326491859E+03  0.17200000000E+03 0. -1.
         -6    1    1    2    0  502  0.31621579985E+01  0.10660755578E+03 -0.16832190775E+03  0.26323266291E+03  0.17200000000E+03 0.  1.
</event>
<event>
 4    1 -0.6901648E-004  0.8244257E+03  0.7818608E-02  0.9525320E-01
         -5   -1    0    0    0  501 -0.00000000000E+00  0.00000000000E+00  0.10847098128E+04  0.10847199952E+04  0.47000000000E+01 0.  1.
          5   -1    0    0  501    0  0.00000000000E+00 -0.00000000000E+00 -0.11172852601E+04  0.11172951456E+04  0.47000000000E+01 0. -1.
          6    1    1    2  502    0 -0.12500948809E+03 -0.79653392249E+03 -0.74593916814E+03  0.11118016479E+04  0.17200000000E+03 0. -1.
         -6    1    1    2    0  502  0.12500948809E+03  0.79653392249E+03  0.71336372082E+03  0.10902134928E+04  0.17200000000E+03 0.  1.
</event>
<event>
 4    1 -0.6901648E-004  0.1799374E+03  0.7818608E-02  0.1167864E+00
         -5   -1    0    0    0  501 -0.00000000000E+00  0.00000000000E+00  0.13569454294E+03  0.13577591459E+03  0.47000000000E+01 0.  1.
          5   -1    0    0  501    0  0.00000000000E+00 -0.00000000000E+00 -0.29853950490E+03  0.29857649939E+03  0.47000000000E+01 0. -1.
          6    1    1    2  502    0  0.26834971215E+02 -0.45533965173E+02 -0.17885313727E+03  0.25370436018E+03  0.17200000000E+03 0. -1.
         -6    1    1    2    0  502 -0.26834971215E+02  0.45533965173E+02  0.16008175302E+02  0.18064805380E+03  0.17200000000E+03 0.  1.
</event>
<event>
 4    1 -0.6901648E-004  0.1817511E+03  0.7818608E-02  0.1166119E+00
         -5   -1    0    0    0  501 -0.00000000000E+00  0.00000000000E+00  0.95060182390E+03  0.95061344278E+03  0.47000000000E+01 0.  1.
          5   -1    0    0  501    0  0.00000000000E+00 -0.00000000000E+00 -0.87623502696E+02  0.87749462817E+02  0.47000000000E+01 0. -1.
          6    1    1    2  502    0 -0.58411893652E+02 -0.61252360514E+01  0.28076144414E+02  0.18390687242E+03  0.17200000000E+03 0. -1.
         -6    1    1    2    0  502  0.58411893652E+02  0.61252360514E+01  0.83490217679E+03  0.85445603318E+03  0.17200000000E+03 0.  1.
</event>
<event>
 4    1 -0.6901648E-004  0.2322562E+03  0.7818608E-02  0.1125062E+00
         -5   -1    0    0    0  501 -0.00000000000E+00  0.00000000000E+00  0.16681549908E+03  0.16688169682E+03  0.47000000000E+01 0.  1.
          5   -1    0    0  501    0  0.00000000000E+00 -0.00000000000E+00 -0.18805933346E+04  0.18805992077E+04  0.47000000000E+01 0. -1.
          6    1    1    2  502    0 -0.27485798098E+02 -0.15363420251E+03 -0.17884870974E+04  0.18035046535E+04  0.17200000000E+03 0. -1.
         -6    1    1    2    0  502  0.27485798098E+02  0.15363420251E+03  0.74709261946E+02  0.24397625109E+03  0.17200000000E+03 0.  1.
</event>
<event>
 4    1 -0.6901648E-004  0.1763148E+03  0.7818608E-02  0.1171418E+00
          5   -1    0    0  501    0  0.00000000000E+00  0.00000000000E+00  0.10175691215E+03  0.10186539732E+03  0.47000000000E+01 0. -1.
         -5   -1    0    0    0  501 -0.00000000000E+00 -0.00000000000E+00 -0.11472641169E+04  0.11472737442E+04  0.47000000000E+01 0.  1.
          6    1    1    2  502    0  0.33012728238E+02 -0.20323870273E+02  0.12295533313E+02  0.17674297742E+03  0.17200000000E+03 0. -1.
         -6    1    1    2    0  502 -0.33012728238E+02  0.20323870273E+02 -0.10578027381E+04  0.10723961641E+04  0.17200000000E+03 0.  1.
</event>
<event>
 4    1 -0.6901648E-004  0.1753405E+03  0.7818608E-02  0.1172390E+00
         -5   -1    0    0    0  501 -0.00000000000E+00  0.00000000000E+00  0.14955981197E+03  0.14963364380E+03  0.47000000000E+01 0.  1.
          5   -1    0    0  501    0  0.00000000000E+00 -0.00000000000E+00 -0.51133131917E+03  0.51135291919E+03  0.47000000000E+01 0. -1.
          6    1    1    2  502    0  0.28929858150E+02 -0.17982145126E+02 -0.43648895066E+03  0.47039015539E+03  0.17200000000E+03 0. -1.
         -6    1    1    2    0  502 -0.28929858150E+02  0.17982145126E+02  0.74717443455E+02  0.19059640761E+03  0.17200000000E+03 0.  1.
</event>
<event>
 4    1 -0.6901648E-004  0.2435681E+03  0.7818608E-02  0.1117438E+00
         -5   -1    0    0    0  501 -0.00000000000E+00  0.00000000000E+00  0.21286419490E+03  0.21291607612E+03  0.47000000000E+01 0.  1.
          5   -1    0    0  501    0  0.00000000000E+00 -0.00000000000E+00 -0.62973160931E+03  0.62974914828E+03  0.47000000000E+01 0. -1.
          6    1    1    2  502    0 -0.91773618846E+02  0.14601034245E+03 -0.52303287142E+03  0.57696516516E+03  0.17200000000E+03 0.  1.
         -6    1    1    2    0  502  0.91773618846E+02 -0.14601034245E+03  0.10616545702E+03  0.26570005924E+03  0.17200000000E+03 0.  1.
</event>
<event>
 4    1 -0.6901648E-004  0.2129080E+03  0.7818608E-02  0.1139284E+00
          5   -1    0    0  501    0  0.00000000000E+00  0.00000000000E+00  0.19733783911E+03  0.19739380118E+03  0.47000000000E+01 0. -1.
         -5   -1    0    0    0  501 -0.00000000000E+00 -0.00000000000E+00 -0.82822388734E+03  0.82823722300E+03  0.47000000000E+01 0.  1.
          6    1    1    2  502    0 -0.10440759370E+03 -0.69605034708E+02  0.12051405876E+03  0.24464963690E+03  0.17200000000E+03 0. -1.
         -6    1    1    2    0  502  0.10440759370E+03  0.69605034708E+02 -0.75140010700E+03  0.78098138728E+03  0.17200000000E+03 0.  1.
</event>
<event>
 4    1 -0.6901648E-004  0.2286459E+03  0.7818608E-02  0.1127596E+00
         -5   -1    0    0    0  501 -0.00000000000E+00  0.00000000000E+00  0.13355265895E+03  0.13363533482E+03  0.47000000000E+01 0.  1.
          5   -1    0    0  501    0  0.00000000000E+00 -0.00000000000E+00 -0.51382375048E+03  0.51384524573E+03  0.47000000000E+01 0. -1.
          6    1    1    2  502    0  0.14443751466E+03 -0.42810699246E+02 -0.34825228197E+03  0.41660365278E+03  0.17200000000E+03 0. -1.
         -6    1    1    2    0  502 -0.14443751466E+03  0.42810699246E+02 -0.32018809551E+02  0.23087692777E+03  0.17200000000E+03 0. -1.
</event>
<event>
 4    1 -0.6901648E-004  0.1820038E+03  0.7818608E-02  0.1165878E+00
         -5   -1    0    0    0  501 -0.00000000000E+00  0.00000000000E+00  0.13553292205E+04  0.13553373698E+04  0.47000000000E+01 0.  1.
          5   -1    0    0  501    0  0.00000000000E+00 -0.00000000000E+00 -0.34809513431E+02  0.35125378650E+02  0.47000000000E+01 0. -1.
          6    1    1    2  502    0 -0.55267479044E+02 -0.22065592909E+02  0.27870186297E+03  0.33286650936E+03  0.17200000000E+03 0. -1.
         -6    1    1    2    0  502  0.55267479044E+02  0.22065592909E+02  0.10418178441E+04  0.10575962391E+04  0.17200000000E+03 0.  1.
</event>
<event>
 4    1 -0.6901648E-004  0.2095480E+03  0.7818608E-02  0.1141924E+00
         -5   -1    0    0    0  501 -0.00000000000E+00  0.00000000000E+00  0.22894710735E+03  0.22899534485E+03  0.47000000000E+01 0.  1.
          5   -1    0    0  501    0  0.00000000000E+00 -0.00000000000E+00 -0.19203138841E+03  0.19208889644E+03  0.47000000000E+01 0. -1.
          6    1    1    2  502    0  0.28163511171E+02  0.11633217236E+03  0.27262981726E+02  0.21131405031E+03  0.17200000000E+03 0. -1.
         -6    1    1    2    0  502 -0.28163511171E+02 -0.11633217236E+03  0.96527372111E+01  0.20977019098E+03  0.17200000000E+03 0. -1.
</event>
<event>
 4    1 -0.6901648E-004  0.1802824E+03  0.7818608E-02  0.1167530E+00
         -5   -1    0    0    0  501 -0.00000000000E+00  0.00000000000E+00  0.13327356397E+03  0.13335641287E+03  0.47000000000E+01 0.  1.
          5   -1    0    0  501    0  0.00000000000E+00 -0.00000000000E+00 -0.87072419249E+03  0.87073687724E+03  0.47000000000E+01 0. -1.
          6    1    1    2  502    0  0.38548896385E+02 -0.37838054195E+02 -0.79473661352E+03  0.81492823035E+03  0.17200000000E+03 0. -1.
         -6    1    1    2    0  502 -0.38548896385E+02  0.37838054195E+02  0.57285984998E+02  0.18916505976E+03  0.17200000000E+03 0.  1.
</event>
<event>
 4    1 -0.6901648E-004  0.1786067E+03  0.7818608E-02  0.1169158E+00
          5   -1    0    0  501    0  0.00000000000E+00  0.00000000000E+00  0.20381203358E+03  0.20386621847E+03  0.47000000000E+01 0. -1.
         -5   -1    0    0    0  501 -0.00000000000E+00 -0.00000000000E+00 -0.43922232183E+03  0.43924746783E+03  0.47000000000E+01 0.  1.
          6    1    1    2  502    0 -0.18191025075E+02  0.44558106993E+02  0.14029247443E+03  0.22711740725E+03  0.17200000000E+03 0. -1.
         -6    1    1    2    0  502  0.18191025075E+02 -0.44558106993E+02 -0.37570276269E+03  0.41599627905E+03  0.17200000000E+03 0.  1.
</event>
<event>
 4    1 -0.6901648E-004  0.3414371E+03  0.7818608E-02  0.1066185E+00
         -5   -1    0    0    0  501 -0.00000000000E+00  0.00000000000E+00  0.18447183356E+04  0.18447243229E+04  0.47000000000E+01 0.  1.
          5   -1    0    0  501    0  0.00000000000E+00 -0.00000000000E+00 -0.11902012122E+03  0.11911288450E+03  0.47000000000E+01 0. -1.
          6    1    1    2  502    0  0.14673937559E+03 -0.25585708026E+03  0.19020748347E+03  0.39084290531E+03  0.17200000000E+03 0. -1.
         -6    1    1    2    0  502 -0.14673937559E+03  0.25585708026E+03  0.15354907309E+04  0.15729943021E+04  0.17200000000E+03 0.  1.
</event>
<event>
 4    1 -0.6901648E-004  0.2076254E+03  0.7818608E-02  0.1143460E+00
         -5   -1    0    0    0  501 -0.00000000000E+00  0.00000000000E+00  0.31037916861E+03  0.31041475208E+03  0.47000000000E+01 0.  1.
          5   -1    0    0  501    0  0.00000000000E+00 -0.00000000000E+00 -0.79132765304E+03  0.79134161047E+03  0.47000000000E+01 0. -1.
          6    1    1    2  502    0 -0.58757798697E+02  0.10035855787E+03 -0.74068416836E+03  0.76923426621E+03  0.17200000000E+03 0. -1.
         -6    1    1    2    0  502  0.58757798697E+02 -0.10035855787E+03  0.25973568393E+03  0.33252209634E+03  0.17200000000E+03 0.  1.
</event>
<event>
 4    1 -0.6901648E-004  0.1952732E+03  0.7818608E-02  0.1153789E+00
          5   -1    0    0  501    0  0.00000000000E+00  0.00000000000E+00  0.15068588301E+04  0.15068661599E+04  0.47000000000E+01 0. -1.
         -5   -1    0    0    0  501 -0.00000000000E+00 -0.00000000000E+00 -0.10966401710E+03  0.10976468761E+03  0.47000000000E+01 0.  1.
          6    1    1    2  502    0  0.54357142459E+02 -0.74785855011E+02  0.14076002526E+04  0.14210806079E+04  0.17200000000E+03 0. -1.
         -6    1    1    2    0  502 -0.54357142459E+02  0.74785855011E+02 -0.10405439576E+02  0.19555023963E+03  0.17200000000E+03 0.  1.
</event>
<event>
 4    1 -0.6901648E-004  0.1867316E+03  0.7818608E-02  0.1161443E+00
          5   -1    0    0  501    0  0.00000000000E+00  0.00000000000E+00  0.45308211964E+03  0.45310649646E+03  0.47000000000E+01 0. -1.
         -5   -1    0    0    0  501 -0.00000000000E+00 -0.00000000000E+00 -0.18785123938E+03  0.18791002671E+03  0.47000000000E+01 0.  1.
          6    1    1    2  502    0 -0.72692651549E+02  0.69570944295E+00  0.37889599502E+03  0.42241079608E+03  0.17200000000E+03 0. -1.
         -6    1    1    2    0  502  0.72692651549E+02 -0.69570944295E+00 -0.11366511477E+03  0.21860572709E+03  0.17200000000E+03 0.  1.
</event>
<event>
 4    1 -0.6901648E-004  0.3002977E+03  0.7818608E-02  0.1085092E+00
          5   -1    0    0  501    0  0.00000000000E+00  0.00000000000E+00  0.91063916294E+02  0.91185124065E+02  0.47000000000E+01 0. -1.
         -5   -1    0    0    0  501 -0.00000000000E+00 -0.00000000000E+00 -0.10641253515E+04  0.10641357309E+04  0.47000000000E+01 0.  1.
          6    1    1    2  502    0 -0.15559189964E+03 -0.19075072953E+03 -0.33355897437E+03  0.44882097704E+03  0.17200000000E+03 0. -1.
         -6    1    1    2    0  502  0.15559189964E+03  0.19075072953E+03 -0.63950246084E+03  0.70649987790E+03  0.17200000000E+03 0.  1.
</event>
<event>
 4    1 -0.6901648E-004  0.2124905E+03  0.7818608E-02  0.1139609E+00
         -5   -1    0    0    0  501 -0.00000000000E+00  0.00000000000E+00  0.66373878507E+02  0.66540076255E+02  0.47000000000E+01 0.  1.
          5   -1    0    0  501    0  0.00000000000E+00 -0.00000000000E+00 -0.89009219634E+03  0.89010460508E+03  0.47000000000E+01 0. -1.
          6    1    1    2  502    0 -0.12359363352E+03 -0.17112543746E+02 -0.64463717329E+03  0.67875570759E+03  0.17200000000E+03 0. -1.
         -6    1    1    2    0  502  0.12359363352E+03  0.17112543746E+02 -0.17908114455E+03  0.27788897375E+03  0.17200000000E+03 0.  1.
</event>
<event>
 4    1 -0.6901648E-004  0.1813270E+03  0.7818608E-02  0.1166525E+00
          5   -1    0    0  501    0  0.00000000000E+00  0.00000000000E+00  0.11580638898E+03  0.11590172444E+03  0.47000000000E+01 0. -1.
         -5   -1    0    0    0  501 -0.00000000000E+00 -0.00000000000E+00 -0.41119512733E+03  0.41122198718E+03  0.47000000000E+01 0.  1.
          6    1    1    2  502    0  0.45700941741E+02  0.34740678037E+02 -0.95006072847E+00  0.18132951608E+03  0.17200000000E+03 0. -1.
         -6    1    1    2    0  502 -0.45700941741E+02 -0.34740678037E+02 -0.29443867762E+03  0.34579419553E+03  0.17200000000E+03 0.  1.
</event>
<event>
 4    1 -0.6901648E-004  0.2531214E+03  0.7818608E-02  0.1111348E+00
         -5   -1    0    0    0  501 -0.00000000000E+00  0.00000000000E+00  0.34060298346E+03  0.34063540970E+03  0.47000000000E+01 0.  1.
          5   -1    0    0  501    0  0.00000000000E+00 -0.00000000000E+00 -0.30765261511E+03  0.30768851390E+03  0.47000000000E+01 0. -1.
          6    1    1    2  502    0  0.18494026665E+03 -0.16837954517E+02 -0.18562536370E+03  0.31389041813E+03  0.17200000000E+03 0. -1.
         -6    1    1    2    0  502 -0.18494026665E+03  0.16837954517E+02  0.21857573205E+03  0.33443350547E+03  0.17200000000E+03 0.  1.
</event>
<event>
 4    1 -0.6901648E-004  0.1794860E+03  0.7818608E-02  0.1168301E+00
         -5   -1    0    0    0  501 -0.00000000000E+00  0.00000000000E+00  0.98826636400E+03  0.98827754007E+03  0.47000000000E+01 0.  1.
          5   -1    0    0  501    0  0.00000000000E+00 -0.00000000000E+00 -0.78814634973E+02  0.78954649553E+02  0.47000000000E+01 0. -1.
          6    1    1    2  502    0  0.37747157432E+02 -0.34733111723E+02  0.45950854864E+02  0.18527470957E+03  0.17200000000E+03 0. -1.
         -6    1    1    2    0  502 -0.37747157432E+02  0.34733111723E+02  0.86350087416E+03  0.88195748005E+03  0.17200000000E+03 0.  1.
</event>
<event>
 4    1 -0.6901648E-004  0.1848573E+03  0.7818608E-02  0.1163183E+00
         -5   -1    0    0    0  501 -0.00000000000E+00  0.00000000000E+00  0.11692452233E+04  0.11692546695E+04  0.47000000000E+01 0.  1.
          5   -1    0    0  501    0  0.00000000000E+00 -0.00000000000E+00 -0.55074263553E+03  0.55076268990E+03  0.47000000000E+01 0. -1.
          6    1    1    2  502    0  0.37654912103E+02 -0.56305545933E+02 -0.52762853935E+03  0.55907430852E+03  0.17200000000E+03 0. -1.
         -6    1    1    2    0  502 -0.37654912103E+02  0.56305545933E+02  0.11461311271E+04  0.11609430509E+04  0.17200000000E+03 0.  1.
</event>
<event>
 4    1 -0.6901648E-004  0.3582282E+03  0.7818608E-02  0.1059288E+00
         -5   -1    0    0    0  501 -0.00000000000E+00  0.00000000000E+00  0.12185911424E+04  0.12186002061E+04  0.47000000000E+01 0.  1.
          5   -1    0    0  501    0  0.00000000000E+00 -0.00000000000E+00 -0.12645047031E+03  0.12653778661E+03  0.47000000000E+01 0. -1.
          6    1    1    2  502    0 -0.31263148410E+03  0.31702003984E+02  0.27076904988E+03  0.44904714706E+03  0.17200000000E+03 0. -1.
         -6    1    1    2    0  502  0.31263148410E+03 -0.31702003984E+02  0.82137162218E+03  0.89609084564E+03  0.17200000000E+03 0.  1.
</event>
<event>
 4    1 -0.6901648E-004  0.2062537E+03  0.7818608E-02  0.1144567E+00
         -5   -1    0    0    0  501 -0.00000000000E+00  0.00000000000E+00  0.80315773415E+02  0.80453175570E+02  0.47000000000E+01 0.  1.
          5   -1    0    0  501    0  0.00000000000E+00 -0.00000000000E+00 -0.55316954446E+03  0.55318951086E+03  0.47000000000E+01 0. -1.
          6    1    1    2  502    0 -0.24171628438E+02 -0.11123101497E+03 -0.30255110136E+03  0.36616632184E+03  0.17200000000E+03 0. -1.
         -6    1    1    2    0  502  0.24171628438E+02  0.11123101497E+03 -0.17030266968E+03  0.26747636459E+03  0.17200000000E+03 0.  1.
</event>
<event>
 4    1 -0.6901648E-004  0.1863418E+03  0.7818608E-02  0.1161803E+00
          5   -1    0    0  501    0  0.00000000000E+00  0.00000000000E+00  0.35966575119E+03  0.35969645895E+03  0.47000000000E+01 0. -1.
         -5   -1    0    0    0  501 -0.00000000000E+00 -0.00000000000E+00 -0.22297782054E+03  0.22302734912E+03  0.47000000000E+01 0.  1.
          6    1    1    2  502    0  0.51446642200E+02 -0.49925049822E+02  0.28776755761E+03  0.34283149623E+03  0.17200000000E+03 0. -1.
         -6    1    1    2    0  502 -0.51446642200E+02  0.49925049822E+02 -0.15107962696E+03  0.23989231183E+03  0.17200000000E+03 0.  1.
</event>
<event>
 4    1 -0.6901648E-004  0.2677760E+03  0.7818608E-02  0.1102559E+00
          5   -1    0    0  501    0  0.00000000000E+00  0.00000000000E+00  0.13893785358E+03  0.13901732682E+03  0.47000000000E+01 0. -1.
         -5   -1    0    0    0  501 -0.00000000000E+00 -0.00000000000E+00 -0.10815327447E+04  0.10815429570E+04  0.47000000000E+01 0.  1.
          6    1    1    2  502    0  0.42225783743E+01 -0.20518811799E+03 -0.29953580987E+02  0.26944611882E+03  0.17200000000E+03 0. -1.
         -6    1    1    2    0  502 -0.42225783743E+01  0.20518811799E+03 -0.91264131013E+03  0.95111416501E+03  0.17200000000E+03 0.  1.
</event>
<event>
 4    1 -0.6901648E-004  0.2632456E+03  0.7818608E-02  0.1105209E+00
         -5   -1    0    0    0  501 -0.00000000000E+00  0.00000000000E+00  0.14096180359E+04  0.14096258713E+04  0.47000000000E+01 0.  1.
          5   -1    0    0  501    0  0.00000000000E+00 -0.00000000000E+00 -0.19998117760E+03  0.20003640017E+03  0.47000000000E+01 0. -1.
          6    1    1    2  502    0 -0.13058598911E+03 -0.15053745064E+03 -0.94142146319E+02  0.27957283185E+03  0.17200000000E+03 0. -1.
         -6    1    1    2    0  502  0.13058598911E+03  0.15053745064E+03  0.13037790046E+04  0.13300894396E+04  0.17200000000E+03 0.  1.
</event>
<event>
 4    1 -0.6901648E-004  0.2217500E+03  0.7818608E-02  0.1132585E+00
         -5   -1    0    0    0  501 -0.00000000000E+00  0.00000000000E+00  0.21960433757E+03  0.21965462681E+03  0.47000000000E+01 0.  1.
          5   -1    0    0  501    0  0.00000000000E+00 -0.00000000000E+00 -0.31198605461E+03  0.31202145482E+03  0.47000000000E+01 0. -1.
          6    1    1    2  502    0  0.71061692237E+01  0.13978041199E+03 -0.18749196007E+03  0.29038990394E+03  0.17200000000E+03 0. -1.
         -6    1    1    2    0  502 -0.71061692237E+01 -0.13978041199E+03  0.95110243041E+02  0.24128617770E+03  0.17200000000E+03 0.  1.
</event>
<event>
 4    1 -0.6901648E-004  0.1754058E+03  0.7818608E-02  0.1172325E+00
          5   -1    0    0  501    0  0.00000000000E+00  0.00000000000E+00  0.66477147070E+03  0.66478808523E+03  0.47000000000E+01 0. -1.
         -5   -1    0    0    0  501 -0.00000000000E+00 -0.00000000000E+00 -0.16615594003E+03  0.16622240044E+03  0.47000000000E+01 0.  1.
          6    1    1    2  502    0  0.22680499733E+02 -0.25860847979E+02  0.60225233967E+03  0.62727591151E+03  0.17200000000E+03 0. -1.
         -6    1    1    2    0  502 -0.22680499733E+02  0.25860847979E+02 -0.10363680900E+03  0.20373457415E+03  0.17200000000E+03 0.  1.
</event>
<event>
 4    1 -0.6901648E-004  0.1744784E+03  0.7818608E-02  0.1173256E+00
         -5   -1    0    0    0  501 -0.00000000000E+00  0.00000000000E+00  0.13943934532E+03  0.13951853290E+03  0.47000000000E+01 0.  1.
          5   -1    0    0  501    0  0.00000000000E+00 -0.00000000000E+00 -0.85040961243E+03  0.85042260019E+03  0.47000000000E+01 0. -1.
          6    1    1    2  502    0  0.17861303063E+02  0.23231509154E+02 -0.78224409299E+03  0.80146649973E+03  0.17200000000E+03 0. -1.
         -6    1    1    2    0  502 -0.17861303063E+02 -0.23231509154E+02  0.71273825878E+02  0.18847463336E+03  0.17200000000E+03 0.  1.
</event>
<event>
 4    1 -0.6901648E-004  0.1768333E+03  0.7818608E-02  0.1170903E+00
         -5   -1    0    0    0  501 -0.00000000000E+00  0.00000000000E+00  0.70753630645E+02  0.70909563878E+02  0.47000000000E+01 0.  1.
          5   -1    0    0  501    0  0.00000000000E+00 -0.00000000000E+00 -0.62512004333E+03  0.62513771169E+03  0.47000000000E+01 0. -1.
          6    1    1    2  502    0 -0.40097855304E+02 -0.88417186694E+01 -0.46587814411E+03  0.49830960170E+03  0.17200000000E+03 0. -1.
         -6    1    1    2    0  502  0.40097855304E+02  0.88417186694E+01 -0.88488268575E+02  0.19773767386E+03  0.17200000000E+03 0.  1.
</event>
<event>
 4    1 -0.6901648E-004  0.1840546E+03  0.7818608E-02  0.1163936E+00
         -5   -1    0    0    0  501 -0.00000000000E+00  0.00000000000E+00  0.72777519950E+03  0.72779037574E+03  0.47000000000E+01 0.  1.
          5   -1    0    0  501    0  0.00000000000E+00 -0.00000000000E+00 -0.84194193661E+02  0.84325276437E+02  0.47000000000E+01 0. -1.
          6    1    1    2  502    0  0.57443620341E+02  0.31501463298E+02  0.50102746960E+02  0.19075218730E+03  0.17200000000E+03 0. -1.
         -6    1    1    2    0  502 -0.57443620341E+02 -0.31501463298E+02  0.59347825888E+03  0.62136346487E+03  0.17200000000E+03 0.  1.
</event>
<event>
 4    1 -0.6901648E-004  0.1728993E+03  0.7818608E-02  0.1174858E+00
          5   -1    0    0  501    0  0.00000000000E+00  0.00000000000E+00  0.22961967766E+02  0.23438045219E+02  0.47000000000E+01 0. -1.
         -5   -1    0    0    0  501 -0.00000000000E+00 -0.00000000000E+00 -0.16708801393E+04  0.16708867496E+04  0.47000000000E+01 0.  1.
          6    1    1    2  502    0 -0.17607243791E+02  0.37224367796E+00 -0.41851743404E+03  0.45282556928E+03  0.17200000000E+03 0. -1.
         -6    1    1    2    0  502  0.17607243791E+02 -0.37224367796E+00 -0.12294007375E+04  0.12414992255E+04  0.17200000000E+03 0.  1.
</event>
<event>
 4    1 -0.6901648E-004  0.2934297E+03  0.7818608E-02  0.1088572E+00
          5   -1    0    0  501    0  0.00000000000E+00  0.00000000000E+00  0.82816660905E+03  0.82817994563E+03  0.47000000000E+01 0. -1.
         -5   -1    0    0    0  501 -0.00000000000E+00 -0.00000000000E+00 -0.14490723726E+03  0.14498343840E+03  0.47000000000E+01 0.  1.
          6    1    1    2  502    0  0.16902488026E+03 -0.16717520899E+03  0.60038695492E+03  0.66825553217E+03  0.17200000000E+03 0. -1.
         -6    1    1    2    0  502 -0.16902488026E+03  0.16717520899E+03  0.82872416875E+02  0.30490785186E+03  0.17200000000E+03 0.  1.
</event>
<event>
 4    1 -0.6901648E-004  0.1921511E+03  0.7818608E-02  0.1156535E+00
          5   -1    0    0  501    0  0.00000000000E+00  0.00000000000E+00  0.45388192513E+03  0.45390625900E+03  0.47000000000E+01 0. -1.
         -5   -1    0    0    0  501 -0.00000000000E+00 -0.00000000000E+00 -0.12259072931E+03  0.12268079276E+03  0.47000000000E+01 0.  1.
          6    1    1    2  502    0 -0.74067298199E+02 -0.43036022000E+02  0.33296143727E+03  0.38442864430E+03  0.17200000000E+03 0. -1.
         -6    1    1    2    0  502  0.74067298199E+02  0.43036022000E+02 -0.16702414428E+01  0.19215840746E+03  0.17200000000E+03 0.  1.
</event>
<event>
 4    1 -0.6901648E-004  0.2305708E+03  0.7818608E-02  0.1126239E+00
         -5   -1    0    0    0  501 -0.00000000000E+00  0.00000000000E+00  0.22339310897E+03  0.22344254549E+03  0.47000000000E+01 0.  1.
          5   -1    0    0  501    0  0.00000000000E+00 -0.00000000000E+00 -0.53581628733E+03  0.53583690034E+03  0.47000000000E+01 0. -1.
          6    1    1    2  502    0  0.12185335240E+03  0.93437947157E+02 -0.43928018654E+03  0.49611487757E+03  0.17200000000E+03 0. -1.
         -6    1    1    2    0  502 -0.12185335240E+03 -0.93437947157E+02  0.12685700819E+03  0.26316456826E+03  0.17200000000E+03 0.  1.
</event>
<event>
 4    1 -0.6901648E-004  0.2189790E+03  0.7818608E-02  0.1134647E+00
          5   -1    0    0  501    0  0.00000000000E+00  0.00000000000E+00  0.48404244563E+03  0.48406526334E+03  0.47000000000E+01 0. -1.
         -5   -1    0    0    0  501 -0.00000000000E+00 -0.00000000000E+00 -0.10345850307E+03  0.10356520582E+03  0.47000000000E+01 0.  1.
          6    1    1    2  502    0  0.56989061369E+02  0.12296354117E+03  0.25135391082E+03  0.33336252647E+03  0.17200000000E+03 0.  1.
         -6    1    1    2    0  502 -0.56989061369E+02 -0.12296354117E+03  0.12923003174E+03  0.25426794269E+03  0.17200000000E+03 0. -1.
</event>
<event>
 4    1 -0.6901648E-004  0.1723438E+03  0.7818608E-02  0.1175425E+00
         -5   -1    0    0    0  501 -0.00000000000E+00  0.00000000000E+00  0.24433688490E+03  0.24438208470E+03  0.47000000000E+01 0.  1.
          5   -1    0    0  501    0  0.00000000000E+00 -0.00000000000E+00 -0.16546760338E+03  0.16553434015E+03  0.47000000000E+01 0. -1.
          6    1    1    2  502    0 -0.44679154766E+01 -0.99205062911E+01 -0.66223617144E+02  0.18462921270E+03  0.17200000000E+03 0. -1.
         -6    1    1    2    0  502  0.44679154766E+01  0.99205062911E+01  0.14509289867E+03  0.22528721215E+03  0.17200000000E+03 0.  1.
</event>
<event>
 4    1 -0.6901648E-004  0.5506093E+03  0.7818608E-02  0.1001353E+00
         -5   -1    0    0    0  501 -0.00000000000E+00  0.00000000000E+00  0.49071315601E+03  0.49073566355E+03  0.47000000000E+01 0.  1.
          5   -1    0    0  501    0  0.00000000000E+00 -0.00000000000E+00 -0.14929941439E+04  0.14930015418E+04  0.47000000000E+01 0. -1.
          6    1    1    2  502    0 -0.51794698385E+02  0.52048432194E+03 -0.12605559589E+04  0.13755624107E+04  0.17200000000E+03 0. -1.
         -6    1    1    2    0  502  0.51794698385E+02 -0.52048432194E+03  0.25827497102E+03  0.60817479463E+03  0.17200000000E+03 0.  1.
</event>
<event>
 4    1 -0.6901648E-004  0.2436369E+03  0.7818608E-02  0.1117393E+00
         -5   -1    0    0    0  501 -0.00000000000E+00  0.00000000000E+00  0.50355699637E+03  0.50357892986E+03  0.47000000000E+01 0.  1.
          5   -1    0    0  501    0  0.00000000000E+00 -0.00000000000E+00 -0.20438886074E+03  0.20444289275E+03  0.47000000000E+01 0. -1.
          6    1    1    2  502    0  0.14413096084E+03  0.94874602147E+02 -0.80770843498E+02  0.25667655359E+03  0.17200000000E+03 0. -1.
         -6    1    1    2    0  502 -0.14413096084E+03 -0.94874602147E+02  0.37993897912E+03  0.45134526902E+03  0.17200000000E+03 0.  1.
</event>
<event>
 4    1 -0.6901648E-004  0.2017112E+03  0.7818608E-02  0.1148303E+00
         -5   -1    0    0    0  501 -0.00000000000E+00  0.00000000000E+00  0.26780333109E+03  0.26784457087E+03  0.47000000000E+01 0.  1.
          5   -1    0    0  501    0  0.00000000000E+00 -0.00000000000E+00 -0.21828829383E+03  0.21833888619E+03  0.47000000000E+01 0. -1.
          6    1    1    2  502    0  0.64337533223E+02  0.83451205309E+02 -0.10933096880E+03  0.22943557394E+03  0.17200000000E+03 0. -1.
         -6    1    1    2    0  502 -0.64337533223E+02 -0.83451205309E+02  0.15884600606E+03  0.25674788313E+03  0.17200000000E+03 0.  1.
</event>
<event>
 4    1 -0.6901648E-004  0.2284368E+03  0.7818608E-02  0.1127745E+00
          5   -1    0    0  501    0  0.00000000000E+00  0.00000000000E+00  0.10467034403E+03  0.10477581267E+03  0.47000000000E+01 0. -1.
         -5   -1    0    0    0  501 -0.00000000000E+00 -0.00000000000E+00 -0.11258691598E+04  0.11258789700E+04  0.47000000000E+01 0.  1.
          6    1    1    2  502    0 -0.14542453847E+03 -0.38092959688E+02 -0.51178826934E+02  0.23409964180E+03  0.17200000000E+03 0. -1.
         -6    1    1    2    0  502  0.14542453847E+03  0.38092959688E+02 -0.97001998888E+03  0.99655514087E+03  0.17200000000E+03 0.  1.
</event>
<event>
 4    1 -0.6901648E-004  0.1761124E+03  0.7818608E-02  0.1171619E+00
          5   -1    0    0  501    0  0.00000000000E+00  0.00000000000E+00  0.10158868754E+03  0.10169735216E+03  0.47000000000E+01 0. -1.
         -5   -1    0    0    0  501 -0.00000000000E+00 -0.00000000000E+00 -0.58311314489E+03  0.58313208601E+03  0.47000000000E+01 0.  1.
          6    1    1    2  502    0 -0.33608025601E+02  0.17379976752E+02 -0.43205245920E+01  0.17616534821E+03  0.17200000000E+03 0. -1.
         -6    1    1    2    0  502  0.33608025601E+02 -0.17379976752E+02 -0.47720393276E+03  0.50866408996E+03  0.17200000000E+03 0.  1.
</event>
<event>
 4    1 -0.6901648E-004  0.2540762E+03  0.7818608E-02  0.1110756E+00
         -5   -1    0    0    0  501 -0.00000000000E+00  0.00000000000E+00  0.73055198378E+02  0.73206229312E+02  0.47000000000E+01 0.  1.
          5   -1    0    0  501    0  0.00000000000E+00 -0.00000000000E+00 -0.10902524460E+04  0.10902625766E+04  0.47000000000E+01 0. -1.
          6    1    1    2  502    0  0.18180867163E+03 -0.43775831361E+02 -0.76247678873E+03  0.80369494825E+03  0.17200000000E+03 0. -1.
         -6    1    1    2    0  502 -0.18180867163E+03  0.43775831361E+02 -0.25472045885E+03  0.35977385765E+03  0.17200000000E+03 0.  1.
</event>
<event>
 4    1 -0.6901648E-004  0.1730340E+03  0.7818608E-02  0.1174720E+00
         -5   -1    0    0    0  501 -0.00000000000E+00  0.00000000000E+00  0.33960166806E+03  0.33963418990E+03  0.47000000000E+01 0.  1.
          5   -1    0    0  501    0  0.00000000000E+00 -0.00000000000E+00 -0.89815786502E+02  0.89938676358E+02  0.47000000000E+01 0. -1.
          6    1    1    2  502    0 -0.17545657464E+02  0.69950740987E+01  0.94931090938E+02  0.19736436655E+03  0.17200000000E+03 0. -1.
         -6    1    1    2    0  502  0.17545657464E+02 -0.69950740987E+01  0.15485479062E+03  0.23220849970E+03  0.17200000000E+03 0.  1.
</event>
<event>
 4    1 -0.6901648E-004  0.1796300E+03  0.7818608E-02  0.1168162E+00
         -5   -1    0    0    0  501 -0.00000000000E+00  0.00000000000E+00  0.33699162622E+02  0.34025337051E+02  0.47000000000E+01 0.  1.
          5   -1    0    0  501    0  0.00000000000E+00 -0.00000000000E+00 -0.10872397524E+04  0.10872499111E+04  0.47000000000E+01 0. -1.
          6    1    1    2  502    0  0.41637474977E+02  0.30809784662E+02 -0.72406267423E+03  0.74601184868E+03  0.17200000000E+03 0. -1.
         -6    1    1    2    0  502 -0.41637474977E+02 -0.30809784662E+02 -0.32947791553E+03  0.37526339946E+03  0.17200000000E+03 0.  1.
</event>
<event>
 4    1 -0.6901648E-004  0.1856463E+03  0.7818608E-02  0.1162448E+00
          5   -1    0    0  501    0  0.00000000000E+00  0.00000000000E+00  0.66039038488E+02  0.66206076793E+02  0.47000000000E+01 0. -1.
         -5   -1    0    0    0  501 -0.00000000000E+00 -0.00000000000E+00 -0.14266192576E+04  0.14266269996E+04  0.47000000000E+01 0.  1.
          6    1    1    2  502    0 -0.28572039415E+02  0.63750850290E+02 -0.85639632540E+02  0.20444725239E+03  0.17200000000E+03 0. -1.
         -6    1    1    2    0  502  0.28572039415E+02 -0.63750850290E+02 -0.12749405866E+04  0.12883858240E+04  0.17200000000E+03 0.  1.
</event>
<event>
 4    1 -0.6901648E-004  0.5314324E+03  0.7818608E-02  0.1005885E+00
          5   -1    0    0  501    0  0.00000000000E+00  0.00000000000E+00  0.14932029465E+04  0.14932103433E+04  0.47000000000E+01 0. -1.
         -5   -1    0    0    0  501 -0.00000000000E+00 -0.00000000000E+00 -0.98075679497E+03  0.98076805661E+03  0.47000000000E+01 0.  1.
          6    1    1    2  502    0  0.37400693355E+03 -0.33608802237E+03  0.13675563261E+04  0.14671845999E+04  0.17200000000E+03 0. -1.
         -6    1    1    2    0  502 -0.37400693355E+03  0.33608802237E+03 -0.85511017458E+03  0.10067938000E+04  0.17200000000E+03 0.  1.
</event>
<event>
 4    1 -0.6901648E-004  0.4077739E+03  0.7818608E-02  0.1041121E+00
          5   -1    0    0  501    0  0.00000000000E+00  0.00000000000E+00  0.98147093550E+03  0.98148218895E+03  0.47000000000E+01 0. -1.
         -5   -1    0    0    0  501 -0.00000000000E+00 -0.00000000000E+00 -0.31629311112E+03  0.31632802933E+03  0.47000000000E+01 0.  1.
          6    1    1    2  502    0  0.98610793425E+02  0.35633059184E+03  0.77480393526E+03  0.87555737525E+03  0.17200000000E+03 0. -1.
         -6    1    1    2    0  502 -0.98610793425E+02 -0.35633059184E+03 -0.10962611088E+03  0.42225284303E+03  0.17200000000E+03 0.  1.
</event>
<event>
 4    1 -0.6901648E-004  0.1808439E+03  0.7818608E-02  0.1166989E+00
         -5   -1    0    0    0  501 -0.00000000000E+00  0.00000000000E+00  0.13832798108E+03  0.13840780451E+03  0.47000000000E+01 0.  1.
          5   -1    0    0  501    0  0.00000000000E+00 -0.00000000000E+00 -0.12154816512E+04  0.12154907381E+04  0.47000000000E+01 0. -1.
          6    1    1    2  502    0 -0.55860850089E+02  0.27623609408E+00 -0.11461576974E+04  0.11603370106E+04  0.17200000000E+03 0. -1.
         -6    1    1    2    0  502  0.55860850089E+02 -0.27623609408E+00  0.69004027299E+02  0.19356153198E+03  0.17200000000E+03 0.  1.
</event>
<event>
 4    1 -0.6901648E-004  0.1793307E+03  0.7818608E-02  0.1168452E+00
          5   -1    0    0  501    0  0.00000000000E+00  0.00000000000E+00  0.43050059440E+02  0.43305861240E+02  0.47000000000E+01 0. -1.
         -5   -1    0    0    0  501 -0.00000000000E+00 -0.00000000000E+00 -0.92359391177E+03  0.92360587041E+03  0.47000000000E+01 0.  1.
          6    1    1    2  502    0 -0.42063312988E+02 -0.28393222012E+02 -0.22744168853E+03  0.28963635655E+03  0.17200000000E+03 0. -1.
         -6    1    1    2    0  502  0.42063312988E+02  0.28393222012E+02 -0.65310216380E+03  0.67727537509E+03  0.17200000000E+03 0.  1.
</event>
<event>
 4    1 -0.6901648E-004  0.2379844E+03  0.7818608E-02  0.1121143E+00
          5   -1    0    0  501    0  0.00000000000E+00  0.00000000000E+00  0.46221202707E+02  0.46459547777E+02  0.47000000000E+01 0. -1.
         -5   -1    0    0    0  501 -0.00000000000E+00 -0.00000000000E+00 -0.17841361889E+04  0.17841423796E+04  0.47000000000E+01 0.  1.
          6    1    1    2  502    0 -0.23489472360E+02 -0.16279068631E+03 -0.35519466068E+03  0.42755094414E+03  0.17200000000E+03 0. -1.
         -6    1    1    2    0  502  0.23489472360E+02  0.16279068631E+03 -0.13827203255E+04  0.14030509832E+04  0.17200000000E+03 0.  1.
</event>
<event>
 4    1 -0.6901648E-004  0.2604560E+03  0.7818608E-02  0.1106870E+00
          5   -1    0    0  501    0  0.00000000000E+00  0.00000000000E+00  0.12430130533E+04  0.12430219389E+04  0.47000000000E+01 0. -1.
         -5   -1    0    0    0  501 -0.00000000000E+00 -0.00000000000E+00 -0.11518373931E+03  0.11527958970E+03  0.47000000000E+01 0.  1.
          6    1    1    2  502    0  0.17816586685E+03 -0.80686012521E+02  0.10566749122E+04  0.10883010515E+04  0.17200000000E+03 0. -1.
         -6    1    1    2    0  502 -0.17816586685E+03  0.80686012521E+02  0.71154401772E+02  0.27000047707E+03  0.17200000000E+03 0.  1.
</event>
<event>
 4    1 -0.6901648E-004  0.2647626E+03  0.7818608E-02  0.1104315E+00
          5   -1    0    0  501    0  0.00000000000E+00  0.00000000000E+00  0.96813346492E+03  0.96814487340E+03  0.47000000000E+01 0. -1.
         -5   -1    0    0    0  501 -0.00000000000E+00 -0.00000000000E+00 -0.94791283915E+02  0.94907731541E+02  0.47000000000E+01 0.  1.
          6    1    1    2  502    0  0.16757819155E+03  0.11150227648E+03  0.69527530220E+03  0.74398047944E+03  0.17200000000E+03 0. -1.
         -6    1    1    2    0  502 -0.16757819155E+03 -0.11150227648E+03  0.17806687880E+03  0.31907212550E+03  0.17200000000E+03 0.  1.
</event>
<event>
 4    1 -0.6901648E-004  0.2107658E+03  0.7818608E-02  0.1140961E+00
          5   -1    0    0  501    0  0.00000000000E+00  0.00000000000E+00  0.19889387656E+03  0.19894940094E+03  0.47000000000E+01 0. -1.
         -5   -1    0    0    0  501 -0.00000000000E+00 -0.00000000000E+00 -0.47458701648E+03  0.47461028877E+03  0.47000000000E+01 0.  1.
          6    1    1    2  502    0 -0.67745196293E+02 -0.10123631374E+03  0.10722191155E+03  0.23647143835E+03  0.17200000000E+03 0. -1.
         -6    1    1    2    0  502  0.67745196293E+02  0.10123631374E+03 -0.38291505146E+03  0.43708825136E+03  0.17200000000E+03 0.  1.
</event>
<event>
 4    1 -0.6901648E-004  0.1785279E+03  0.7818608E-02  0.1169235E+00
         -5   -1    0    0    0  501 -0.00000000000E+00  0.00000000000E+00  0.13489587060E+04  0.13489668937E+04  0.47000000000E+01 0.  1.
          5   -1    0    0  501    0  0.00000000000E+00 -0.00000000000E+00 -0.21523621445E+03  0.21528752405E+03  0.47000000000E+01 0. -1.
          6    1    1    2  502    0  0.57014628486E+01 -0.47494324030E+02 -0.17109718201E+03  0.24727810899E+03  0.17200000000E+03 0. -1.
         -6    1    1    2    0  502 -0.57014628486E+01  0.47494324030E+02  0.13048196735E+04  0.13169763088E+04  0.17200000000E+03 0.  1.
</event>
<event>
 4    1 -0.6901648E-004  0.2012866E+03  0.7818608E-02  0.1148658E+00
         -5   -1    0    0    0  501 -0.00000000000E+00  0.00000000000E+00  0.18702369475E+03  0.18708274212E+03  0.47000000000E+01 0.  1.
          5   -1    0    0  501    0  0.00000000000E+00 -0.00000000000E+00 -0.30948726302E+03  0.30952294903E+03  0.47000000000E+01 0. -1.
          6    1    1    2  502    0 -0.97271267673E+02 -0.38348113198E+02 -0.19730017771E+03  0.28185747715E+03  0.17200000000E+03 0. -1.
         -6    1    1    2    0  502  0.97271267673E+02  0.38348113198E+02  0.74836609437E+02  0.21474821399E+03  0.17200000000E+03 0.  1.
</event>
<event>
 4    1 -0.6901648E-004  0.2966793E+03  0.7818608E-02  0.1086912E+00
         -5   -1    0    0    0  501 -0.00000000000E+00  0.00000000000E+00  0.33127087234E+03  0.33130421195E+03  0.47000000000E+01 0.  1.
          5   -1    0    0  501    0  0.00000000000E+00 -0.00000000000E+00 -0.28014921987E+03  0.28018864251E+03  0.47000000000E+01 0. -1.
          6    1    1    2  502    0 -0.22923576619E+03  0.76717472745E+02  0.95150780936E+02  0.31156424416E+03  0.17200000000E+03 0.  1.
         -6    1    1    2    0  502  0.22923576619E+03 -0.76717472745E+02 -0.44029128469E+02  0.29992861031E+03  0.17200000000E+03 0. -1.
</event>
<event>
 4    1 -0.6901648E-004  0.4322058E+03  0.7818608E-02  0.1033165E+00
          5   -1    0    0  501    0  0.00000000000E+00  0.00000000000E+00  0.66736108700E+03  0.66737763705E+03  0.47000000000E+01 0. -1.
         -5   -1    0    0    0  501 -0.00000000000E+00 -0.00000000000E+00 -0.31792140073E+03  0.31795614012E+03  0.47000000000E+01 0.  1.
          6    1    1    2  502    0 -0.25742070333E+03 -0.30158315342E+03  0.34514516843E+03  0.55310668430E+03  0.17200000000E+03 0. -1.
         -6    1    1    2    0  502  0.25742070333E+03  0.30158315342E+03  0.42945178362E+01  0.43222709287E+03  0.17200000000E+03 0.  1.
</event>
<event>
 4    1 -0.6901648E-004  0.2192118E+03  0.7818608E-02  0.1134472E+00
          5   -1    0    0  501    0  0.00000000000E+00  0.00000000000E+00  0.40736076325E+03  0.40738787590E+03  0.47000000000E+01 0. -1.
         -5   -1    0    0    0  501 -0.00000000000E+00 -0.00000000000E+00 -0.78486160771E+03  0.78487568013E+03  0.47000000000E+01 0.  1.
          6    1    1    2  502    0 -0.89879962015E+02 -0.10193813848E+03  0.36076305746E+03  0.42214188998E+03  0.17200000000E+03 0. -1.
         -6    1    1    2    0  502  0.89879962015E+02  0.10193813848E+03 -0.73826390192E+03  0.77012166605E+03  0.17200000000E+03 0.  1.
</event>
<event>
 4    1 -0.6901648E-004  0.2269839E+03  0.7818608E-02  0.1128781E+00
          5   -1    0    0  501    0  0.00000000000E+00  0.00000000000E+00  0.29696274611E+02  0.30065906369E+02  0.47000000000E+01 0. -1.
         -5   -1    0    0    0  501 -0.00000000000E+00 -0.00000000000E+00 -0.17238567090E+04  0.17238631161E+04  0.47000000000E+01 0.  1.
          6    1    1    2  502    0  0.51230862495E+02 -0.13897155907E+03 -0.84864545028E+03  0.87847640593E+03  0.17200000000E+03 0. -1.
         -6    1    1    2    0  502 -0.51230862495E+02  0.13897155907E+03 -0.84551498412E+03  0.87545261658E+03  0.17200000000E+03 0.  1.
</event>
<event>
 4    1 -0.6901648E-004  0.1932739E+03  0.7818608E-02  0.1155541E+00
          5   -1    0    0  501    0  0.00000000000E+00  0.00000000000E+00  0.69174520224E+03  0.69176116892E+03  0.47000000000E+01 0. -1.
         -5   -1    0    0    0  501 -0.00000000000E+00 -0.00000000000E+00 -0.89331338307E+02  0.89454893682E+02  0.47000000000E+01 0.  1.
          6    1    1    2  502    0  0.30635211283E+02  0.82657629641E+02  0.54702089911E+03  0.58016089490E+03  0.17200000000E+03 0. -1.
         -6    1    1    2    0  502 -0.30635211283E+02 -0.82657629641E+02  0.55392964827E+02  0.20105516770E+03  0.17200000000E+03 0.  1.
</event>
<event>
 4    1 -0.6901648E-004  0.2089401E+03  0.7818608E-02  0.1142408E+00
          5   -1    0    0  501    0  0.00000000000E+00  0.00000000000E+00  0.11406025347E+04  0.11406122182E+04  0.47000000000E+01 0. -1.
         -5   -1    0    0    0  501 -0.00000000000E+00 -0.00000000000E+00 -0.79855151868E+02  0.79993345222E+02  0.47000000000E+01 0.  1.
          6    1    1    2  502    0  0.11851689270E+03 -0.50718740477E+01  0.97096643946E+03  0.99319273272E+03  0.17200000000E+03 0. -1.
         -6    1    1    2    0  502 -0.11851689270E+03  0.50718740477E+01  0.89780943415E+02  0.22741283069E+03  0.17200000000E+03 0.  1.
</event>
<event>
 4    1 -0.6901648E-004  0.1814752E+03  0.7818608E-02  0.1166383E+00
          5   -1    0    0  501    0  0.00000000000E+00  0.00000000000E+00  0.53451078977E+03  0.53453145313E+03  0.47000000000E+01 0. -1.
         -5   -1    0    0    0  501 -0.00000000000E+00 -0.00000000000E+00 -0.86467800439E+02  0.86595441640E+02  0.47000000000E+01 0.  1.
          6    1    1    2  502    0  0.53873589002E+02 -0.21139273468E+02  0.39072956097E+03  0.43081646009E+03  0.17200000000E+03 0. -1.
         -6    1    1    2    0  502 -0.53873589002E+02  0.21139273468E+02  0.57313428366E+02  0.19031043467E+03  0.17200000000E+03 0.  1.
</event>
<event>
 4    1 -0.6901648E-004  0.1747940E+03  0.7818608E-02  0.1172939E+00
          5   -1    0    0  501    0  0.00000000000E+00  0.00000000000E+00  0.12685083614E+03  0.12693787705E+03  0.47000000000E+01 0. -1.
         -5   -1    0    0    0  501 -0.00000000000E+00 -0.00000000000E+00 -0.32401512691E+03  0.32404921303E+03  0.47000000000E+01 0.  1.
          6    1    1    2  502    0 -0.12765187650E+02 -0.28390116548E+02  0.15763670975E+02  0.17550339614E+03  0.17200000000E+03 0. -1.
         -6    1    1    2    0  502  0.12765187650E+02  0.28390116548E+02 -0.21292796175E+03  0.27548369394E+03  0.17200000000E+03 0.  1.
</event>
<event>
 4    1 -0.6901648E-004  0.1995498E+03  0.7818608E-02  0.1150119E+00
         -5   -1    0    0    0  501 -0.00000000000E+00  0.00000000000E+00  0.10646893045E+04  0.10646996784E+04  0.47000000000E+01 0.  1.
          5   -1    0    0  501    0  0.00000000000E+00 -0.00000000000E+00 -0.46100875731E+02  0.46339839697E+02  0.47000000000E+01 0. -1.
          6    1    1    2  502    0 -0.25743334884E+02 -0.97843792925E+02  0.26651041350E+03  0.33293832403E+03  0.17200000000E+03 0. -1.
         -6    1    1    2    0  502  0.25743334884E+02  0.97843792925E+02  0.75207801528E+03  0.77810119404E+03  0.17200000000E+03 0.  1.
</event>
<event>
 4    1 -0.6901648E-004  0.2734896E+03  0.7818608E-02  0.1099299E+00
          5   -1    0    0  501    0  0.00000000000E+00  0.00000000000E+00  0.27727859814E+03  0.27731842886E+03  0.47000000000E+01 0. -1.
         -5   -1    0    0    0  501 -0.00000000000E+00 -0.00000000000E+00 -0.44598266928E+03  0.44600743413E+03  0.47000000000E+01 0.  1.
          6    1    1    2  502    0 -0.21036090968E+03  0.30997332452E+02  0.14302579533E+03  0.30863072606E+03  0.17200000000E+03 0. -1.
         -6    1    1    2    0  502  0.21036090968E+03 -0.30997332452E+02 -0.31172986647E+03  0.41469513693E+03  0.17200000000E+03 0.  1.
</event>
<event>
 4    1 -0.6901648E-004  0.1775712E+03  0.7818608E-02  0.1170175E+00
          5   -1    0    0  501    0  0.00000000000E+00  0.00000000000E+00  0.26314531746E+04  0.26314573719E+04  0.47000000000E+01 0. -1.
         -5   -1    0    0    0  501 -0.00000000000E+00 -0.00000000000E+00 -0.34989589170E+02  0.35303843279E+02  0.47000000000E+01 0.  1.
          6    1    1    2  502    0  0.40017755005E+02  0.18603979788E+02  0.23807458927E+04  0.23873589035E+04  0.17200000000E+03 0. -1.
         -6    1    1    2    0  502 -0.40017755005E+02 -0.18603979788E+02  0.21571769271E+03  0.27940231160E+03  0.17200000000E+03 0.  1.
</event>
<event>
 4    1 -0.6901648E-004  0.1875970E+03  0.7818608E-02  0.1160647E+00
          5   -1    0    0  501    0  0.00000000000E+00  0.00000000000E+00  0.55844545442E+02  0.56041977620E+02  0.47000000000E+01 0. -1.
         -5   -1    0    0    0  501 -0.00000000000E+00 -0.00000000000E+00 -0.21250317461E+04  0.21250369437E+04  0.47000000000E+01 0.  1.
          6    1    1    2  502    0 -0.31002536756E+02 -0.68172341443E+02 -0.11958225258E+03  0.22246919013E+03  0.17200000000E+03 0. -1.
         -6    1    1    2    0  502  0.31002536756E+02  0.68172341443E+02 -0.19496049481E+04  0.19586097312E+04  0.17200000000E+03 0.  1.
</event>
<event>
 4    1 -0.6901648E-004  0.1822517E+03  0.7818608E-02  0.1165641E+00
         -5   -1    0    0    0  501 -0.00000000000E+00  0.00000000000E+00  0.18672109816E+04  0.18672168968E+04  0.47000000000E+01 0.  1.
          5   -1    0    0  501    0  0.00000000000E+00 -0.00000000000E+00 -0.41155335085E+02  0.41422839183E+02  0.47000000000E+01 0. -1.
          6    1    1    2  502    0  0.60222083341E+02 -0.22321396365E+01  0.19302279137E+03  0.26546841574E+03  0.17200000000E+03 0. -1.
         -6    1    1    2    0  502 -0.60222083341E+02  0.22321396365E+01  0.16330328551E+04  0.16431713203E+04  0.17200000000E+03 0.  1.
</event>
<event>
 4    1 -0.6901648E-004  0.1751759E+03  0.7818608E-02  0.1172555E+00
          5   -1    0    0  501    0  0.00000000000E+00  0.00000000000E+00  0.66940270653E+03  0.66941920611E+03  0.47000000000E+01 0. -1.
         -5   -1    0    0    0  501 -0.00000000000E+00 -0.00000000000E+00 -0.63513523245E+03  0.63515262221E+03  0.47000000000E+01 0.  1.
          6    1    1    2  502    0  0.33117846066E+02 -0.24058720156E+01  0.64544030754E+03  0.66878978053E+03  0.17200000000E+03 0. -1.
         -6    1    1    2    0  502 -0.33117846066E+02  0.24058720156E+01 -0.61117283345E+03  0.63578204780E+03  0.17200000000E+03 0.  1.
</event>
<event>
 4    1 -0.6901648E-004  0.1771957E+03  0.7818608E-02  0.1170545E+00
         -5   -1    0    0    0  501 -0.00000000000E+00  0.00000000000E+00  0.33313555566E+03  0.33316870868E+03  0.47000000000E+01 0.  1.
          5   -1    0    0  501    0  0.00000000000E+00 -0.00000000000E+00 -0.19228384621E+03  0.19234127875E+03  0.47000000000E+01 0. -1.
          6    1    1    2  502    0  0.33954083361E+01  0.42459123457E+02 -0.11722185267E+03  0.21246004025E+03  0.17200000000E+03 0. -1.
         -6    1    1    2    0  502 -0.33954083361E+01 -0.42459123457E+02  0.25807356212E+03  0.31304994717E+03  0.17200000000E+03 0.  1.
</event>
<event>
 4    1 -0.6901648E-004  0.1962527E+03  0.7818608E-02  0.1152940E+00
         -5   -1    0    0    0  501 -0.00000000000E+00  0.00000000000E+00  0.48864667898E+03  0.48866928170E+03  0.47000000000E+01 0.  1.
          5   -1    0    0  501    0  0.00000000000E+00 -0.00000000000E+00 -0.83890159053E+02  0.84021716157E+02  0.47000000000E+01 0. -1.
          6    1    1    2  502    0 -0.24567387938E+02 -0.91255414730E+02  0.13139622271E+03  0.23617805700E+03  0.17200000000E+03 0. -1.
         -6    1    1    2    0  502  0.24567387938E+02  0.91255414730E+02  0.27336029722E+03  0.33651294086E+03  0.17200000000E+03 0.  1.
</event>
<event>
 4    1 -0.6901648E-004  0.1997689E+03  0.7818608E-02  0.1149934E+00
         -5   -1    0    0    0  501 -0.00000000000E+00  0.00000000000E+00  0.18071265951E+03  0.18077376831E+03  0.47000000000E+01 0.  1.
          5   -1    0    0  501    0  0.00000000000E+00 -0.00000000000E+00 -0.47091270032E+03  0.47093615419E+03  0.47000000000E+01 0. -1.
          6    1    1    2  502    0 -0.91103472227E+02  0.44986212536E+02 -0.38259479132E+03  0.43160905495E+03  0.17200000000E+03 0. -1.
         -6    1    1    2    0  502  0.91103472227E+02 -0.44986212536E+02  0.92394750519E+02  0.22010086754E+03  0.17200000000E+03 0.  1.
</event>
<event>
 4    1 -0.6901648E-004  0.2226673E+03  0.7818608E-02  0.1131910E+00
          5   -1    0    0  501    0  0.00000000000E+00  0.00000000000E+00  0.39481228225E+03  0.39484025658E+03  0.47000000000E+01 0. -1.
         -5   -1    0    0    0  501 -0.00000000000E+00 -0.00000000000E+00 -0.31337302831E+03  0.31340827187E+03  0.47000000000E+01 0.  1.
          6    1    1    2  502    0  0.10955685308E+03 -0.89409241732E+02  0.31487093422E+03  0.38564805429E+03  0.17200000000E+03 0. -1.
         -6    1    1    2    0  502 -0.10955685308E+03  0.89409241732E+02 -0.23343168028E+03  0.32260047415E+03  0.17200000000E+03 0.  1.
</event>
<event>
 4    1 -0.6901648E-004  0.1726276E+03  0.7818608E-02  0.1175135E+00
          5   -1    0    0  501    0  0.00000000000E+00  0.00000000000E+00  0.37144384893E+03  0.37147358305E+03  0.47000000000E+01 0. -1.
         -5   -1    0    0    0  501 -0.00000000000E+00 -0.00000000000E+00 -0.40161697329E+03  0.40164447368E+03  0.47000000000E+01 0.  1.
          6    1    1    2  502    0 -0.11480986077E+02  0.91901620682E+01  0.33071995903E+03  0.37306294833E+03  0.17200000000E+03 0. -1.
         -6    1    1    2    0  502  0.11480986077E+02 -0.91901620682E+01 -0.36089308339E+03  0.40005510840E+03  0.17200000000E+03 0.  1.
</event>
<event>
 4    1 -0.6901648E-004  0.1836502E+03  0.7818608E-02  0.1164316E+00
          5   -1    0    0  501    0  0.00000000000E+00  0.00000000000E+00  0.25831196561E+03  0.25835472045E+03  0.47000000000E+01 0. -1.
         -5   -1    0    0    0  501 -0.00000000000E+00 -0.00000000000E+00 -0.62591359350E+03  0.62593123945E+03  0.47000000000E+01 0.  1.
          6    1    1    2  502    0  0.64286653890E+02 -0.32609440828E+01  0.20953992040E+03  0.27862947774E+03  0.17200000000E+03 0. -1.
         -6    1    1    2    0  502 -0.64286653890E+02  0.32609440828E+01 -0.57714154829E+03  0.60565648216E+03  0.17200000000E+03 0.  1.
</event>
<event>
 4    1 -0.6901648E-004  0.2431475E+03  0.7818608E-02  0.1117714E+00
          5   -1    0    0  501    0  0.00000000000E+00  0.00000000000E+00  0.38754229014E+03  0.38757078921E+03  0.47000000000E+01 0. -1.
         -5   -1    0    0    0  501 -0.00000000000E+00 -0.00000000000E+00 -0.19833397704E+03  0.19838965812E+03  0.47000000000E+01 0.  1.
          6    1    1    2  502    0  0.89848282421E+02 -0.14650599094E+03  0.23544041511E+03  0.33845665646E+03  0.17200000000E+03 0. -1.
         -6    1    1    2    0  502 -0.89848282421E+02  0.14650599094E+03 -0.46232102002E+02  0.24750379086E+03  0.17200000000E+03 0.  1.
</event>
<event>
 4    1 -0.6901648E-004  0.1939641E+03  0.7818608E-02  0.1154934E+00
          5   -1    0    0  501    0  0.00000000000E+00  0.00000000000E+00  0.15249825498E+03  0.15257066485E+03  0.47000000000E+01 0. -1.
         -5   -1    0    0    0  501 -0.00000000000E+00 -0.00000000000E+00 -0.54590048270E+03  0.54592071495E+03  0.47000000000E+01 0.  1.
          6    1    1    2  502    0 -0.20952998760E+02 -0.87172530450E+02  0.61894643798E+02  0.20360016000E+03  0.17200000000E+03 0. -1.
         -6    1    1    2    0  502  0.20952998760E+02  0.87172530450E+02 -0.45529687151E+03  0.49489121980E+03  0.17200000000E+03 0.  1.
</event>
<event>
 4    1 -0.6901648E-004  0.2229550E+03  0.7818608E-02  0.1131699E+00
          5   -1    0    0  501    0  0.00000000000E+00  0.00000000000E+00  0.20853523119E+04  0.20853576084E+04  0.47000000000E+01 0. -1.
         -5   -1    0    0    0  501 -0.00000000000E+00 -0.00000000000E+00 -0.11085470116E+03  0.11095429135E+03  0.47000000000E+01 0.  1.
          6    1    1    2  502    0 -0.98382019271E+02  0.10220517822E+03  0.19602646976E+04  0.19729030906E+04  0.17200000000E+03 0. -1.
         -6    1    1    2    0  502  0.98382019271E+02 -0.10220517822E+03  0.14232913118E+02  0.22340880911E+03  0.17200000000E+03 0.  1.
</event>
<event>
 4    1 -0.6901648E-004  0.2129646E+03  0.7818608E-02  0.1139240E+00
         -5   -1    0    0    0  501 -0.00000000000E+00  0.00000000000E+00  0.43762302625E+03  0.43764826414E+03  0.47000000000E+01 0.  1.
          5   -1    0    0  501    0  0.00000000000E+00 -0.00000000000E+00 -0.11755221063E+03  0.11764613136E+03  0.47000000000E+01 0. -1.
          6    1    1    2  502    0  0.81012659114E+02  0.95952543737E+02  0.64280847613E+02  0.22245441995E+03  0.17200000000E+03 0. -1.
         -6    1    1    2    0  502 -0.81012659114E+02 -0.95952543737E+02  0.25578996801E+03  0.33283997554E+03  0.17200000000E+03 0.  1.
</event>
<event>
 4    1 -0.6901648E-004  0.2112711E+03  0.7818608E-02  0.1140563E+00
          5   -1    0    0  501    0  0.00000000000E+00  0.00000000000E+00  0.20630264254E+03  0.20635617344E+03  0.47000000000E+01 0. -1.
         -5   -1    0    0    0  501 -0.00000000000E+00 -0.00000000000E+00 -0.43324300337E+03  0.43326849640E+03  0.47000000000E+01 0.  1.
          6    1    1    2  502    0  0.12037787995E+03  0.23677974014E+02  0.11284004955E+03  0.23951692470E+03  0.17200000000E+03 0. -1.
         -6    1    1    2    0  502 -0.12037787995E+03 -0.23677974014E+02 -0.33978041039E+03  0.40010774514E+03  0.17200000000E+03 0.  1.
</event>
<event>
 4    1 -0.6901648E-004  0.1891476E+03  0.7818608E-02  0.1159232E+00
          5   -1    0    0  501    0  0.00000000000E+00  0.00000000000E+00  0.35784589732E+03  0.35787676123E+03  0.47000000000E+01 0. -1.
         -5   -1    0    0    0  501 -0.00000000000E+00 -0.00000000000E+00 -0.31094667949E+03  0.31098219803E+03  0.47000000000E+01 0.  1.
          6    1    1    2  502    0  0.60180403849E+02 -0.50706228304E+02  0.29893010922E+03  0.35374568943E+03  0.17200000000E+03 0. -1.
         -6    1    1    2    0  502 -0.60180403849E+02  0.50706228304E+02 -0.25203089140E+03  0.31511326982E+03  0.17200000000E+03 0.  1.
</event>
<event>
 4    1 -0.6901648E-004  0.1961043E+03  0.7818608E-02  0.1153068E+00
         -5   -1    0    0    0  501 -0.00000000000E+00  0.00000000000E+00  0.32293833723E+03  0.32297253699E+03  0.47000000000E+01 0.  1.
          5   -1    0    0  501    0  0.00000000000E+00 -0.00000000000E+00 -0.23647834432E+03  0.23652504589E+03  0.47000000000E+01 0. -1.
          6    1    1    2  502    0 -0.90908277275E+02 -0.24669254502E+02 -0.15390367126E+03  0.24928543283E+03  0.17200000000E+03 0. -1.
         -6    1    1    2    0  502  0.90908277275E+02  0.24669254502E+02  0.24036366416E+03  0.31021215006E+03  0.17200000000E+03 0.  1.
</event>
<event>
 4    1 -0.6901648E-004  0.1723295E+03  0.7818608E-02  0.1175440E+00
          5   -1    0    0  501    0  0.00000000000E+00  0.00000000000E+00  0.97098707331E+03  0.97099844826E+03  0.47000000000E+01 0. -1.
         -5   -1    0    0    0  501 -0.00000000000E+00 -0.00000000000E+00 -0.64899131843E+02  0.65069096459E+02  0.47000000000E+01 0.  1.
          6    1    1    2  502    0 -0.10447948568E+02 -0.20700207554E+01  0.82997708085E+03  0.84767883031E+03  0.17200000000E+03 0. -1.
         -6    1    1    2    0  502  0.10447948568E+02  0.20700207554E+01  0.76110860612E+02  0.18838871441E+03  0.17200000000E+03 0.  1.
</event>
<event>
 4    1 -0.6901648E-004  0.2140767E+03  0.7818608E-02  0.1138378E+00
         -5   -1    0    0    0  501 -0.00000000000E+00  0.00000000000E+00  0.57167143856E+03  0.57169075878E+03  0.47000000000E+01 0.  1.
          5   -1    0    0  501    0  0.00000000000E+00 -0.00000000000E+00 -0.34146502763E+03  0.34149737201E+03  0.47000000000E+01 0. -1.
          6    1    1    2  502    0  0.11030644825E+03 -0.63853935424E+02 -0.28432043561E+03  0.35590300322E+03  0.17200000000E+03 0. -1.
         -6    1    1    2    0  502 -0.11030644825E+03  0.63853935424E+02  0.51452684655E+03  0.55728512757E+03  0.17200000000E+03 0.  1.
</event>
<event>
 4    1 -0.6901648E-004  0.1928995E+03  0.7818608E-02  0.1155872E+00
          5   -1    0    0  501    0  0.00000000000E+00  0.00000000000E+00  0.79072126062E+03  0.79073522876E+03  0.47000000000E+01 0. -1.
         -5   -1    0    0    0  501 -0.00000000000E+00 -0.00000000000E+00 -0.13036799176E+03  0.13045268596E+03  0.47000000000E+01 0.  1.
          6    1    1    2  502    0  0.84183566629E+02  0.23224195404E+02  0.69841901282E+03  0.72456839126E+03  0.17200000000E+03 0. -1.
         -6    1    1    2    0  502 -0.84183566629E+02 -0.23224195404E+02 -0.38065743957E+02  0.19661952346E+03  0.17200000000E+03 0.  1.
</event>
<event>
 4    1 -0.6901648E-004  0.1772443E+03  0.7818608E-02  0.1170497E+00
         -5   -1    0    0    0  501 -0.00000000000E+00  0.00000000000E+00  0.24244939874E+03  0.24249495036E+03  0.47000000000E+01 0.  1.
          5   -1    0    0  501    0  0.00000000000E+00 -0.00000000000E+00 -0.76167695487E+03  0.76169145563E+03  0.47000000000E+01 0. -1.
          6    1    1    2  502    0 -0.23574681856E+02 -0.35717770975E+02 -0.71701736237E+03  0.73859963629E+03  0.17200000000E+03 0. -1.
         -6    1    1    2    0  502  0.23574681856E+02  0.35717770975E+02  0.19778980623E+03  0.26558676970E+03  0.17200000000E+03 0.  1.
</event>
<event>
 4    1 -0.6901648E-004  0.1729374E+03  0.7818608E-02  0.1174819E+00
          5   -1    0    0  501    0  0.00000000000E+00  0.00000000000E+00  0.47153651314E+03  0.47155993598E+03  0.47000000000E+01 0. -1.
         -5   -1    0    0    0  501 -0.00000000000E+00 -0.00000000000E+00 -0.25230192072E+03  0.25234569384E+03  0.47000000000E+01 0.  1.
          6    1    1    2  502    0  0.13291172198E+02  0.12111836849E+02  0.42279848476E+03  0.45679963941E+03  0.17200000000E+03 0. -1.
         -6    1    1    2    0  502 -0.13291172198E+02 -0.12111836849E+02 -0.20356389234E+03  0.26710599042E+03  0.17200000000E+03 0.  1.
</event>
<event>
 4    1 -0.6901648E-004  0.2015098E+03  0.7818608E-02  0.1148471E+00
          5   -1    0    0  501    0  0.00000000000E+00  0.00000000000E+00  0.53572517706E+03  0.53574579358E+03  0.47000000000E+01 0. -1.
         -5   -1    0    0    0  501 -0.00000000000E+00 -0.00000000000E+00 -0.14214232523E+03  0.14222000781E+03  0.47000000000E+01 0.  1.
          6    1    1    2  502    0 -0.10497499094E+03  0.15694092842E+01  0.42844053513E+03  0.47346330788E+03  0.17200000000E+03 0. -1.
         -6    1    1    2    0  502  0.10497499094E+03 -0.15694092842E+01 -0.34857683298E+02  0.20450249351E+03  0.17200000000E+03 0.  1.
</event>
<event>
 4    1 -0.6901648E-004  0.2186077E+03  0.7818608E-02  0.1134925E+00
          5   -1    0    0  501    0  0.00000000000E+00  0.00000000000E+00  0.34795705319E+03  0.34798879417E+03  0.47000000000E+01 0. -1.
         -5   -1    0    0    0  501 -0.00000000000E+00 -0.00000000000E+00 -0.14203384120E+03  0.14211158308E+03  0.47000000000E+01 0.  1.
          6    1    1    2  502    0 -0.62236993302E+01 -0.13478342503E+03  0.14784930933E+03  0.26391044762E+03  0.17200000000E+03 0.  1.
         -6    1    1    2    0  502  0.62236993302E+01  0.13478342503E+03  0.58073902661E+02  0.22618992963E+03  0.17200000000E+03 0.  1.
</event>
<event>
 4    1 -0.6901648E-004  0.1854241E+03  0.7818608E-02  0.1162654E+00
         -5   -1    0    0    0  501 -0.00000000000E+00  0.00000000000E+00  0.30958387538E+03  0.30961955025E+03  0.47000000000E+01 0.  1.
          5   -1    0    0  501    0  0.00000000000E+00 -0.00000000000E+00 -0.30422171358E+03  0.30425801717E+03  0.47000000000E+01 0. -1.
          6    1    1    2  502    0  0.69261087965E+02 -0.10018723166E+01 -0.24191387282E+03  0.30480227020E+03  0.17200000000E+03 0. -1.
         -6    1    1    2    0  502 -0.69261087965E+02  0.10018723166E+01  0.24727603463E+03  0.30907529722E+03  0.17200000000E+03 0.  1.
</event>
<event>
 4    1 -0.6901648E-004  0.1930236E+03  0.7818608E-02  0.1155762E+00
          5   -1    0    0  501    0  0.00000000000E+00  0.00000000000E+00  0.12061608052E+03  0.12070761732E+03  0.47000000000E+01 0. -1.
         -5   -1    0    0    0  501 -0.00000000000E+00 -0.00000000000E+00 -0.42731242997E+03  0.42733827678E+03  0.47000000000E+01 0.  1.
          6    1    1    2  502    0  0.82586682706E+02 -0.29215544156E+02 -0.89808811181E+01  0.19323241034E+03  0.17200000000E+03 0. -1.
         -6    1    1    2    0  502 -0.82586682706E+02  0.29215544156E+02 -0.29771546833E+03  0.35481348377E+03  0.17200000000E+03 0. -1.
</event>
<event>
 4    1 -0.6901648E-004  0.2287701E+03  0.7818608E-02  0.1127508E+00
          5   -1    0    0  501    0  0.00000000000E+00  0.00000000000E+00  0.29431258386E+03  0.29435010960E+03  0.47000000000E+01 0. -1.
         -5   -1    0    0    0  501 -0.00000000000E+00 -0.00000000000E+00 -0.24007897305E+03  0.24012497434E+03  0.47000000000E+01 0.  1.
          6    1    1    2  502    0 -0.10386375792E+03 -0.10938053255E+03  0.16326250169E+03  0.28105235379E+03  0.17200000000E+03 0. -1.
         -6    1    1    2    0  502  0.10386375792E+03  0.10938053255E+03 -0.10902889088E+03  0.25342273015E+03  0.17200000000E+03 0.  1.
</event>
<event>
 4    1 -0.6901648E-004  0.2344188E+03  0.7818608E-02  0.1123568E+00
          5   -1    0    0  501    0  0.00000000000E+00  0.00000000000E+00  0.18592288977E+03  0.18598228663E+03  0.47000000000E+01 0. -1.
         -5   -1    0    0    0  501 -0.00000000000E+00 -0.00000000000E+00 -0.10426506284E+04  0.10426612215E+04  0.47000000000E+01 0.  1.
          6    1    1    2  502    0 -0.15724824512E+03 -0.25321441936E+02  0.91669133735E+02  0.25170501802E+03  0.17200000000E+03 0. -1.
         -6    1    1    2    0  502  0.15724824512E+03  0.25321441936E+02 -0.94839687235E+03  0.97693849013E+03  0.17200000000E+03 0.  1.
</event>
<event>
 4    1 -0.6901648E-004  0.1821237E+03  0.7818608E-02  0.1165763E+00
         -5   -1    0    0    0  501 -0.00000000000E+00  0.00000000000E+00  0.57144308843E+02  0.57337265658E+02  0.47000000000E+01 0.  1.
          5   -1    0    0  501    0  0.00000000000E+00 -0.00000000000E+00 -0.89519631739E+03  0.89520865538E+03  0.47000000000E+01 0. -1.
          6    1    1    2  502    0  0.48185431878E+02 -0.35541375785E+02 -0.70193341223E+03  0.72517552389E+03  0.17200000000E+03 0. -1.
         -6    1    1    2    0  502 -0.48185431878E+02  0.35541375785E+02 -0.13611859631E+03  0.22737039715E+03  0.17200000000E+03 0.  1.
</event>
<event>
 4    1 -0.6901648E-004  0.2409178E+03  0.7818608E-02  0.1119183E+00
          5   -1    0    0  501    0  0.00000000000E+00  0.00000000000E+00  0.14969691890E+04  0.14969765672E+04  0.47000000000E+01 0. -1.
         -5   -1    0    0    0  501 -0.00000000000E+00 -0.00000000000E+00 -0.39717177706E+03  0.39719958522E+03  0.47000000000E+01 0.  1.
          6    1    1    2  502    0 -0.48888933660E+01 -0.16862237208E+03  0.14495744051E+04  0.14694581864E+04  0.17200000000E+03 0. -1.
         -6    1    1    2    0  502  0.48888933660E+01  0.16862237208E+03 -0.34977699322E+03  0.42471796599E+03  0.17200000000E+03 0.  1.
</event>
<event>
 4    1 -0.6901648E-004  0.2206591E+03  0.7818608E-02  0.1133393E+00
          5   -1    0    0  501    0  0.00000000000E+00  0.00000000000E+00  0.39069121913E+03  0.39071948851E+03  0.47000000000E+01 0. -1.
         -5   -1    0    0    0  501 -0.00000000000E+00 -0.00000000000E+00 -0.47660459676E+03  0.47662777054E+03  0.47000000000E+01 0.  1.
          6    1    1    2  502    0 -0.32175999670E+02 -0.13442889545E+03  0.32973612591E+03  0.39675727544E+03  0.17200000000E+03 0. -1.
         -6    1    1    2    0  502  0.32175999670E+02  0.13442889545E+03 -0.41564950354E+03  0.47058998362E+03  0.17200000000E+03 0.  1.
</event>
<event>
 4    1 -0.6901648E-004  0.2281670E+03  0.7818608E-02  0.1127937E+00
         -5   -1    0    0    0  501 -0.00000000000E+00  0.00000000000E+00  0.20236021668E+04  0.20236076249E+04  0.47000000000E+01 0.  1.
          5   -1    0    0  501    0  0.00000000000E+00 -0.00000000000E+00 -0.11592506706E+03  0.11602030501E+03  0.47000000000E+01 0. -1.
          6    1    1    2  502    0 -0.12039468520E+03  0.89338186720E+02  0.10108376010E+02  0.22839082971E+03  0.17200000000E+03 0. -1.
         -6    1    1    2    0  502  0.12039468520E+03 -0.89338186720E+02  0.18975687238E+04  0.19112371002E+04  0.17200000000E+03 0.  1.
</event>
<event>
 4    1 -0.6901648E-004  0.2774166E+03  0.7818608E-02  0.1097108E+00
          5   -1    0    0  501    0  0.00000000000E+00  0.00000000000E+00  0.50155162444E+03  0.50157364562E+03  0.47000000000E+01 0. -1.
         -5   -1    0    0    0  501 -0.00000000000E+00 -0.00000000000E+00 -0.31990093757E+03  0.31993546202E+03  0.47000000000E+01 0.  1.
          6    1    1    2  502    0  0.21751149384E+03 -0.80442740586E+01  0.38714119241E+03  0.47627540684E+03  0.17200000000E+03 0. -1.
         -6    1    1    2    0  502 -0.21751149384E+03  0.80442740586E+01 -0.20549050554E+03  0.34523370079E+03  0.17200000000E+03 0.  1.
</event>
<event>
 4    1 -0.6901648E-004  0.2524206E+03  0.7818608E-02  0.1111785E+00
          5   -1    0    0  501    0  0.00000000000E+00  0.00000000000E+00  0.17820676016E+03  0.17826872795E+03  0.47000000000E+01 0. -1.
         -5   -1    0    0    0  501 -0.00000000000E+00 -0.00000000000E+00 -0.12182854445E+04  0.12182945105E+04  0.47000000000E+01 0.  1.
          6    1    1    2  502    0  0.18393766765E+03 -0.17294500171E+02  0.66927921048E+02  0.26114270415E+03  0.17200000000E+03 0. -1.
         -6    1    1    2    0  502 -0.18393766765E+03  0.17294500171E+02 -0.11070066054E+04  0.11354205343E+04  0.17200000000E+03 0.  1.
</event>
<event>
 4    1 -0.6901648E-004  0.2532323E+03  0.7818608E-02  0.1111279E+00
         -5   -1    0    0    0  501 -0.00000000000E+00  0.00000000000E+00  0.35322236838E+03  0.35325363625E+03  0.47000000000E+01 0.  1.
          5   -1    0    0  501    0  0.00000000000E+00 -0.00000000000E+00 -0.20174102106E+03  0.20179576204E+03  0.47000000000E+01 0. -1.
          6    1    1    2  502    0  0.16635875446E+03  0.82869435604E+02 -0.12194989845E+02  0.25352573108E+03  0.17200000000E+03 0. -1.
         -6    1    1    2    0  502 -0.16635875446E+03 -0.82869435604E+02  0.16367633716E+03  0.30152366721E+03  0.17200000000E+03 0.  1.
</event>
<event>
 4    1 -0.6901648E-004  0.2054525E+03  0.7818608E-02  0.1145219E+00
         -5   -1    0    0    0  501 -0.00000000000E+00  0.00000000000E+00  0.39689946649E+02  0.39967259914E+02  0.47000000000E+01 0.  1.
          5   -1    0    0  501    0  0.00000000000E+00 -0.00000000000E+00 -0.18764330400E+04  0.18764389261E+04  0.47000000000E+01 0. -1.
          6    1    1    2  502    0 -0.11187469261E+03  0.10524594185E+02 -0.15505565409E+04  0.15641087880E+04  0.17200000000E+03 0. -1.
         -6    1    1    2    0  502  0.11187469261E+03 -0.10524594185E+02 -0.28618655237E+03  0.35229739807E+03  0.17200000000E+03 0.  1.
</event>
<event>
 4    1 -0.6901648E-004  0.1723000E+03  0.7818608E-02  0.1175470E+00
          5   -1    0    0  501    0  0.00000000000E+00  0.00000000000E+00  0.31528901791E+03  0.31532404732E+03  0.47000000000E+01 0. -1.
         -5   -1    0    0    0  501 -0.00000000000E+00 -0.00000000000E+00 -0.46990463051E+03  0.46992813469E+03  0.47000000000E+01 0.  1.
          6    1    1    2  502    0  0.82157572635E+01 -0.59837873211E+01  0.27379127407E+03  0.32349492443E+03  0.17200000000E+03 0. -1.
         -6    1    1    2    0  502 -0.82157572635E+01  0.59837873211E+01 -0.42840688666E+03  0.46175725757E+03  0.17200000000E+03 0.  1.
</event>
<event>
 4    1 -0.6901648E-004  0.1778654E+03  0.7818608E-02  0.1169885E+00
         -5   -1    0    0    0  501 -0.00000000000E+00  0.00000000000E+00  0.15326880061E+03  0.15334084662E+03  0.47000000000E+01 0.  1.
          5   -1    0    0  501    0  0.00000000000E+00 -0.00000000000E+00 -0.28088187033E+03  0.28092119016E+03  0.47000000000E+01 0. -1.
          6    1    1    2  502    0  0.28350438500E+01  0.45211280832E+02 -0.17569772772E+03  0.25001157756E+03  0.17200000000E+03 0. -1.
         -6    1    1    2    0  502 -0.28350438500E+01 -0.45211280832E+02  0.48084657994E+02  0.18425045922E+03  0.17200000000E+03 0.  1.
</event>
<event>
 4    1 -0.6901648E-004  0.1835660E+03  0.7818608E-02  0.1164396E+00
         -5   -1    0    0    0  501 -0.00000000000E+00  0.00000000000E+00  0.35325153486E+03  0.35328280014E+03  0.47000000000E+01 0.  1.
          5   -1    0    0  501    0  0.00000000000E+00 -0.00000000000E+00 -0.84893073947E+03  0.84894374985E+03  0.47000000000E+01 0. -1.
          6    1    1    2  502    0 -0.28192365509E+02 -0.57599171707E+02 -0.81417818805E+03  0.83461523827E+03  0.17200000000E+03 0. -1.
         -6    1    1    2    0  502  0.28192365509E+02  0.57599171707E+02  0.31849898344E+03  0.36761131172E+03  0.17200000000E+03 0.  1.
</event>
<event>
 4    1 -0.6901648E-004  0.1858441E+03  0.7818608E-02  0.1162264E+00
          5   -1    0    0  501    0  0.00000000000E+00  0.00000000000E+00  0.22233068330E+02  0.22724421387E+02  0.47000000000E+01 0. -1.
         -5   -1    0    0    0  501 -0.00000000000E+00 -0.00000000000E+00 -0.30340517137E+04  0.30340553541E+04  0.47000000000E+01 0.  1.
          6    1    1    2  502    0  0.68652580049E+02  0.15518859937E+02 -0.43203483306E+03  0.47031065131E+03  0.17200000000E+03 0. -1.
         -6    1    1    2    0  502 -0.68652580049E+02 -0.15518859937E+02 -0.25797838123E+04  0.25864691241E+04  0.17200000000E+03 0.  1.
</event>
<event>
 4    1 -0.6901648E-004  0.1736963E+03  0.7818608E-02  0.1174047E+00
         -5   -1    0    0    0  501 -0.00000000000E+00  0.00000000000E+00  0.15499277268E+03  0.15506401770E+03  0.47000000000E+01 0.  1.
          5   -1    0    0  501    0  0.00000000000E+00 -0.00000000000E+00 -0.21492170976E+03  0.21497309442E+03  0.47000000000E+01 0. -1.
          6    1    1    2  502    0 -0.92478309086E+01  0.22380263262E+02 -0.86962814063E+02  0.19424965789E+03  0.17200000000E+03 0. -1.
         -6    1    1    2    0  502  0.92478309086E+01 -0.22380263262E+02  0.27033876984E+02  0.17578745423E+03  0.17200000000E+03 0.  1.
</event>
<event>
 4    1 -0.6901648E-004  0.1958740E+03  0.7818608E-02  0.1153268E+00
          5   -1    0    0  501    0  0.00000000000E+00  0.00000000000E+00  0.26439476445E+03  0.26443653580E+03  0.47000000000E+01 0. -1.
         -5   -1    0    0    0  501 -0.00000000000E+00 -0.00000000000E+00 -0.14510550386E+03  0.14518160094E+03  0.47000000000E+01 0.  1.
          6    1    1    2  502    0 -0.76321091565E+02  0.54384720863E+02  0.64621183493E+02  0.20625834344E+03  0.17200000000E+03 0.  1.
         -6    1    1    2    0  502  0.76321091565E+02 -0.54384720863E+02  0.54668077089E+02  0.20335979331E+03  0.17200000000E+03 0. -1.
</event>
<event>
 4    1 -0.6901648E-004  0.1807426E+03  0.7818608E-02  0.1167086E+00
          5   -1    0    0  501    0  0.00000000000E+00  0.00000000000E+00  0.14034933543E+03  0.14042800987E+03  0.47000000000E+01 0. -1.
         -5   -1    0    0    0  501 -0.00000000000E+00 -0.00000000000E+00 -0.56612559032E+03  0.56614509979E+03  0.47000000000E+01 0.  1.
          6    1    1    2  502    0 -0.11071938800E+02  0.54417750695E+02  0.58253667926E+02  0.18989831291E+03  0.17200000000E+03 0. -1.
         -6    1    1    2    0  502  0.11071938800E+02 -0.54417750695E+02 -0.48402992282E+03  0.51667479675E+03  0.17200000000E+03 0.  1.
</event>
<event>
 4    1 -0.6901648E-004  0.3402141E+03  0.7818608E-02  0.1066705E+00
         -5   -1    0    0    0  501 -0.00000000000E+00  0.00000000000E+00  0.55547061964E+03  0.55549050332E+03  0.47000000000E+01 0.  1.
          5   -1    0    0  501    0  0.00000000000E+00 -0.00000000000E+00 -0.47318132271E+03  0.47320466414E+03  0.47000000000E+01 0. -1.
          6    1    1    2  502    0 -0.17366132680E+02 -0.29301886954E+03 -0.34364408320E+03  0.48356684790E+03  0.17200000000E+03 0. -1.
         -6    1    1    2    0  502  0.17366132680E+02  0.29301886954E+03  0.42593338013E+03  0.54512831955E+03  0.17200000000E+03 0.  1.
</event>
<event>
 4    1 -0.6901648E-004  0.1720203E+03  0.7818608E-02  0.1175757E+00
         -5   -1    0    0    0  501 -0.00000000000E+00  0.00000000000E+00  0.11086853875E+03  0.11096811653E+03  0.47000000000E+01 0.  1.
          5   -1    0    0  501    0  0.00000000000E+00 -0.00000000000E+00 -0.52563157238E+03  0.52565258478E+03  0.47000000000E+01 0. -1.
          6    1    1    2  502    0 -0.18904118771E+01 -0.18466781391E+01 -0.43078032191E+03  0.46385630277E+03  0.17200000000E+03 0. -1.
         -6    1    1    2    0  502  0.18904118771E+01  0.18466781391E+01  0.16017288279E+02  0.17276439853E+03  0.17200000000E+03 0.  1.
</event>
<event>
 4    1 -0.6901648E-004  0.2182225E+03  0.7818608E-02  0.1135215E+00
          5   -1    0    0  501    0  0.00000000000E+00  0.00000000000E+00  0.13481398661E+04  0.13481480588E+04  0.47000000000E+01 0. -1.
         -5   -1    0    0    0  501 -0.00000000000E+00 -0.00000000000E+00 -0.28561286192E+03  0.28565153053E+03  0.47000000000E+01 0.  1.
          6    1    1    2  502    0  0.13419986764E+03 -0.52414681473E+01  0.12959864284E+04  0.13142305354E+04  0.17200000000E+03 0. -1.
         -6    1    1    2    0  502 -0.13419986764E+03  0.52414681473E+01 -0.23345942428E+03  0.31956905396E+03  0.17200000000E+03 0.  1.
</event>
<event>
 4    1 -0.6901648E-004  0.1850122E+03  0.7818608E-02  0.1163038E+00
          5   -1    0    0  501    0  0.00000000000E+00  0.00000000000E+00  0.42266386324E+03  0.42268999430E+03  0.47000000000E+01 0. -1.
         -5   -1    0    0    0  501 -0.00000000000E+00 -0.00000000000E+00 -0.28216486524E+03  0.28220400631E+03  0.47000000000E+01 0.  1.
          6    1    1    2  502    0  0.57588649814E+02  0.36456362073E+02  0.36786205172E+03  0.41176693410E+03  0.17200000000E+03 0. -1.
         -6    1    1    2    0  502 -0.57588649814E+02 -0.36456362073E+02 -0.22736305372E+03  0.29312706651E+03  0.17200000000E+03 0.  1.
</event>
<event>
 4    1 -0.6901648E-004  0.1780171E+03  0.7818608E-02  0.1169736E+00
          5   -1    0    0  501    0  0.00000000000E+00  0.00000000000E+00  0.66190989718E+02  0.66357645527E+02  0.47000000000E+01 0. -1.
         -5   -1    0    0    0  501 -0.00000000000E+00 -0.00000000000E+00 -0.91197232504E+03  0.91198443608E+03  0.47000000000E+01 0.  1.
          6    1    1    2  502    0 -0.45890377443E+02 -0.41704400013E+00 -0.85476469806E+02  0.19747487830E+03  0.17200000000E+03 0. -1.
         -6    1    1    2    0  502  0.45890377443E+02  0.41704400013E+00 -0.76030486552E+03  0.78086720331E+03  0.17200000000E+03 0.  1.
</event>
<event>
 4    1 -0.6901648E-004  0.1872842E+03  0.7818608E-02  0.1160934E+00
         -5   -1    0    0    0  501 -0.00000000000E+00  0.00000000000E+00  0.55993720705E+02  0.56190628742E+02  0.47000000000E+01 0.  1.
          5   -1    0    0  501    0  0.00000000000E+00 -0.00000000000E+00 -0.13724515413E+04  0.13724595890E+04  0.47000000000E+01 0. -1.
          6    1    1    2  502    0 -0.69526951313E+02  0.25639502240E+02 -0.11853051825E+04  0.12000098986E+04  0.17200000000E+03 0. -1.
         -6    1    1    2    0  502  0.69526951313E+02 -0.25639502240E+02 -0.13115263812E+03  0.22864031910E+03  0.17200000000E+03 0.  1.
</event>
<event>
 4    1 -0.6901648E-004  0.1939769E+03  0.7818608E-02  0.1154923E+00
         -5   -1    0    0    0  501 -0.00000000000E+00  0.00000000000E+00  0.32475716219E+03  0.32479117043E+03  0.47000000000E+01 0.  1.
          5   -1    0    0  501    0  0.00000000000E+00 -0.00000000000E+00 -0.21491183850E+03  0.21496322552E+03  0.47000000000E+01 0. -1.
          6    1    1    2  502    0 -0.53400160094E+02 -0.72051746011E+02 -0.12832844956E+03  0.23258379601E+03  0.17200000000E+03 0.  1.
         -6    1    1    2    0  502  0.53400160094E+02  0.72051746011E+02  0.23817377325E+03  0.30717059994E+03  0.17200000000E+03 0.  1.
</event>
<event>
 4    1 -0.6901648E-004  0.1993072E+03  0.7818608E-02  0.1150325E+00
          5   -1    0    0  501    0  0.00000000000E+00  0.00000000000E+00  0.30116005696E+03  0.30119672957E+03  0.47000000000E+01 0. -1.
         -5   -1    0    0    0  501 -0.00000000000E+00 -0.00000000000E+00 -0.27262405511E+03  0.27266456577E+03  0.47000000000E+01 0.  1.
          6    1    1    2  502    0  0.61582157138E+02  0.79667925370E+02  0.22044120132E+03  0.29718287913E+03  0.17200000000E+03 0. -1.
         -6    1    1    2    0  502 -0.61582157138E+02 -0.79667925370E+02 -0.19190519948E+03  0.27667841621E+03  0.17200000000E+03 0.  1.
</event>
<event>
 4    1 -0.6901648E-004  0.1801657E+03  0.7818608E-02  0.1167643E+00
         -5   -1    0    0    0  501 -0.00000000000E+00  0.00000000000E+00  0.11183699020E+03  0.11193570645E+03  0.47000000000E+01 0.  1.
          5   -1    0    0  501    0  0.00000000000E+00 -0.00000000000E+00 -0.35628118723E+03  0.35631218667E+03  0.47000000000E+01 0. -1.
          6    1    1    2  502    0  0.41862948952E+02  0.33513867754E+02 -0.22318896595E+03  0.28683270446E+03  0.17200000000E+03 0. -1.
         -6    1    1    2    0  502 -0.41862948952E+02 -0.33513867754E+02 -0.21255231071E+02  0.18141518865E+03  0.17200000000E+03 0.  1.
</event>
<event>
 4    1 -0.6901648E-004  0.3525678E+03  0.7818608E-02  0.1061566E+00
          5   -1    0    0  501    0  0.00000000000E+00  0.00000000000E+00  0.41448981764E+03  0.41451646400E+03  0.47000000000E+01 0. -1.
         -5   -1    0    0    0  501 -0.00000000000E+00 -0.00000000000E+00 -0.63886877177E+03  0.63888605990E+03  0.47000000000E+01 0.  1.
          6    1    1    2  502    0  0.27361511110E+03  0.14090722715E+03  0.27148009276E+03  0.44497810784E+03  0.17200000000E+03 0. -1.
         -6    1    1    2    0  502 -0.27361511110E+03 -0.14090722715E+03 -0.49585904689E+03  0.60842441607E+03  0.17200000000E+03 0.  1.
</event>
<event>
 4    1 -0.6901648E-004  0.1881956E+03  0.7818608E-02  0.1160099E+00
         -5   -1    0    0    0  501 -0.00000000000E+00  0.00000000000E+00  0.73294322154E+02  0.73444861359E+02  0.47000000000E+01 0.  1.
          5   -1    0    0  501    0  0.00000000000E+00 -0.00000000000E+00 -0.87832117266E+03  0.87833374770E+03  0.47000000000E+01 0. -1.
          6    1    1    2  502    0 -0.13594348407E+02 -0.75158240308E+02 -0.72192516910E+03  0.74605195340E+03  0.17200000000E+03 0. -1.
         -6    1    1    2    0  502  0.13594348407E+02  0.75158240308E+02 -0.83101681410E+02  0.20572665566E+03  0.17200000000E+03 0.  1.
</event>
<event>
 4    1 -0.6901648E-004  0.1794448E+03  0.7818608E-02  0.1168341E+00
          5   -1    0    0  501    0  0.00000000000E+00  0.00000000000E+00  0.28482311842E+03  0.28486189423E+03  0.47000000000E+01 0. -1.
         -5   -1    0    0    0  501 -0.00000000000E+00 -0.00000000000E+00 -0.46586537670E+03  0.46588908467E+03  0.47000000000E+01 0.  1.
          6    1    1    2  502    0  0.95575034623E+01 -0.50250107376E+02  0.23615637161E+03  0.29659779334E+03  0.17200000000E+03 0. -1.
         -6    1    1    2    0  502 -0.95575034623E+01  0.50250107376E+02 -0.41719862990E+03  0.45415318556E+03  0.17200000000E+03 0.  1.
</event>
<event>
 4    1 -0.6901648E-004  0.1905017E+03  0.7818608E-02  0.1158010E+00
          5   -1    0    0  501    0  0.00000000000E+00  0.00000000000E+00  0.85616018764E+03  0.85617308817E+03  0.47000000000E+01 0. -1.
         -5   -1    0    0    0  501 -0.00000000000E+00 -0.00000000000E+00 -0.30897429436E+03  0.30901003961E+03  0.47000000000E+01 0.  1.
          6    1    1    2  502    0  0.77500602428E+02 -0.26467823620E+02  0.81475290180E+03  0.83672766182E+03  0.17200000000E+03 0. -1.
         -6    1    1    2    0  502 -0.77500602428E+02  0.26467823620E+02 -0.26756700852E+03  0.32845546595E+03  0.17200000000E+03 0.  1.
</event>
<event>
 4    1 -0.6901648E-004  0.2098388E+03  0.7818608E-02  0.1141694E+00
         -5   -1    0    0    0  501 -0.00000000000E+00  0.00000000000E+00  0.12847016645E+03  0.12855611097E+03  0.47000000000E+01 0.  1.
          5   -1    0    0  501    0  0.00000000000E+00 -0.00000000000E+00 -0.46676934205E+03  0.46679300410E+03  0.47000000000E+01 0. -1.
          6    1    1    2  502    0  0.11759449855E+03 -0.24896718665E+02 -0.32270768456E+03  0.38493189315E+03  0.17200000000E+03 0. -1.
         -6    1    1    2    0  502 -0.11759449855E+03  0.24896718665E+02 -0.15591491048E+02  0.21041722192E+03  0.17200000000E+03 0.  1.
</event>
<event>
 4    1 -0.6901648E-004  0.2352813E+03  0.7818608E-02  0.1122977E+00
          5   -1    0    0  501    0  0.00000000000E+00  0.00000000000E+00  0.93651644470E+03  0.93652823833E+03  0.47000000000E+01 0. -1.
         -5   -1    0    0    0  501 -0.00000000000E+00 -0.00000000000E+00 -0.18861288117E+03  0.18867143118E+03  0.47000000000E+01 0.  1.
          6    1    1    2  502    0  0.87023753805E+02  0.13490799648E+03  0.84015597231E+03  0.87247885880E+03  0.17200000000E+03 0. -1.
         -6    1    1    2    0  502 -0.87023753805E+02 -0.13490799648E+03 -0.92252408778E+02  0.25272081071E+03  0.17200000000E+03 0.  1.
</event>
<event>
 4    1 -0.6901648E-004  0.1747164E+03  0.7818608E-02  0.1173017E+00
         -5   -1    0    0    0  501 -0.00000000000E+00  0.00000000000E+00  0.23904092376E+04  0.23904138581E+04  0.47000000000E+01 0.  1.
          5   -1    0    0  501    0  0.00000000000E+00 -0.00000000000E+00 -0.23537670681E+02  0.24002331992E+02  0.47000000000E+01 0. -1.
          6    1    1    2  502    0  0.70387225314E+01  0.29871167451E+02  0.36211913529E+03  0.40206479378E+03  0.17200000000E+03 0. -1.
         -6    1    1    2    0  502 -0.70387225314E+01 -0.29871167451E+02  0.20047524316E+04  0.20123513963E+04  0.17200000000E+03 0.  1.
</event>
<event>
 4    1 -0.6901648E-004  0.1757811E+03  0.7818608E-02  0.1171950E+00
         -5   -1    0    0    0  501 -0.00000000000E+00  0.00000000000E+00  0.27164835331E+03  0.27168900945E+03  0.47000000000E+01 0.  1.
          5   -1    0    0  501    0  0.00000000000E+00 -0.00000000000E+00 -0.14987573239E+03  0.14994940867E+03  0.47000000000E+01 0. -1.
          6    1    1    2  502    0  0.23700789142E+02 -0.27445840220E+02 -0.42718283393E+02  0.18089735567E+03  0.17200000000E+03 0.  1.
         -6    1    1    2    0  502 -0.23700789142E+02  0.27445840220E+02  0.16449090431E+03  0.24074106246E+03  0.17200000000E+03 0.  1.
</event>
<event>
 4    1 -0.6901648E-004  0.1751813E+03  0.7818608E-02  0.1172550E+00
          5   -1    0    0  501    0  0.00000000000E+00  0.00000000000E+00  0.79156166421E+02  0.79295577951E+02  0.47000000000E+01 0. -1.
         -5   -1    0    0    0  501 -0.00000000000E+00 -0.00000000000E+00 -0.52901443174E+03  0.52903530978E+03  0.47000000000E+01 0.  1.
          6    1    1    2  502    0  0.18639771123E+02 -0.27514672828E+02 -0.67470051351E+02  0.18772508122E+03  0.17200000000E+03 0. -1.
         -6    1    1    2    0  502 -0.18639771123E+02  0.27514672828E+02 -0.38238821397E+03  0.42060580651E+03  0.17200000000E+03 0.  1.
</event>
<event>
 4    1 -0.6901648E-004  0.1787700E+03  0.7818608E-02  0.1168999E+00
         -5   -1    0    0    0  501 -0.00000000000E+00  0.00000000000E+00  0.30700019769E+03  0.30703617276E+03  0.47000000000E+01 0.  1.
          5   -1    0    0  501    0  0.00000000000E+00 -0.00000000000E+00 -0.18502934737E+03  0.18508903098E+03  0.47000000000E+01 0. -1.
          6    1    1    2  502    0 -0.12439286774E+02 -0.47116450810E+02 -0.10179200606E+03  0.20571900323E+03  0.17200000000E+03 0. -1.
         -6    1    1    2    0  502  0.12439286774E+02  0.47116450810E+02  0.22376285638E+03  0.28640620050E+03  0.17200000000E+03 0.  1.
</event>
<event>
 4    1 -0.6901648E-004  0.2081049E+03  0.7818608E-02  0.1143076E+00
          5   -1    0    0  501    0  0.00000000000E+00  0.00000000000E+00  0.42721372021E+02  0.42979130138E+02  0.47000000000E+01 0. -1.
         -5   -1    0    0    0  501 -0.00000000000E+00 -0.00000000000E+00 -0.27724287986E+04  0.27724327824E+04  0.47000000000E+01 0.  1.
          6    1    1    2  502    0  0.11700457379E+03 -0.57941950312E+01 -0.24266440882E+03  0.31967742850E+03  0.17200000000E+03 0. -1.
         -6    1    1    2    0  502 -0.11700457379E+03  0.57941950312E+01 -0.24870430177E+04  0.24957344841E+04  0.17200000000E+03 0.  1.
</event>
<event>
 4    1 -0.6901648E-004  0.1982621E+03  0.7818608E-02  0.1151214E+00
          5   -1    0    0  501    0  0.00000000000E+00  0.00000000000E+00  0.15598488343E+04  0.15598559151E+04  0.47000000000E+01 0. -1.
         -5   -1    0    0    0  501 -0.00000000000E+00 -0.00000000000E+00 -0.65511364726E+02  0.65679745038E+02  0.47000000000E+01 0.  1.
          6    1    1    2  502    0  0.97584411082E+02 -0.14181959187E+02  0.13850094059E+04  0.13991279068E+04  0.17200000000E+03 0. -1.
         -6    1    1    2    0  502 -0.97584411082E+02  0.14181959187E+02  0.10932806369E+03  0.22640775332E+03  0.17200000000E+03 0.  1.
</event>
<event>
 4    1 -0.6901648E-004  0.1955320E+03  0.7818608E-02  0.1153564E+00
         -5   -1    0    0    0  501 -0.00000000000E+00  0.00000000000E+00  0.34955353528E+03  0.34958513131E+03  0.47000000000E+01 0.  1.
          5   -1    0    0  501    0  0.00000000000E+00 -0.00000000000E+00 -0.44709850547E+03  0.44712320852E+03  0.47000000000E+01 0. -1.
          6    1    1    2  502    0  0.75828081352E+02 -0.53840942830E+02 -0.39499706014E+03  0.44074416906E+03  0.17200000000E+03 0. -1.
         -6    1    1    2    0  502 -0.75828081352E+02  0.53840942830E+02  0.29745208995E+03  0.35596417076E+03  0.17200000000E+03 0.  1.
</event>
<event>
 4    1 -0.6901648E-004  0.2188644E+03  0.7818608E-02  0.1134733E+00
         -5   -1    0    0    0  501 -0.00000000000E+00  0.00000000000E+00  0.22397304602E+03  0.22402235456E+03  0.47000000000E+01 0.  1.
          5   -1    0    0  501    0  0.00000000000E+00 -0.00000000000E+00 -0.80654466612E+03  0.80655836023E+03  0.47000000000E+01 0. -1.
          6    1    1    2  502    0 -0.13504849081E+03  0.89184232123E+01 -0.73301817238E+03  0.76499495043E+03  0.17200000000E+03 0. -1.
         -6    1    1    2    0  502  0.13504849081E+03 -0.89184232123E+01  0.15044655228E+03  0.26558576437E+03  0.17200000000E+03 0.  1.
</event>
<event>
 4    1 -0.6901648E-004  0.2073192E+03  0.7818608E-02  0.1143707E+00
         -5   -1    0    0    0  501 -0.00000000000E+00  0.00000000000E+00  0.84855065334E+03  0.84856366955E+03  0.47000000000E+01 0.  1.
          5   -1    0    0  501    0  0.00000000000E+00 -0.00000000000E+00 -0.23819769639E+03  0.23824406093E+03  0.47000000000E+01 0. -1.
          6    1    1    2  502    0  0.98872441172E+02  0.60178800835E+02 -0.17701133405E+03  0.27260641972E+03  0.17200000000E+03 0. -1.
         -6    1    1    2    0  502 -0.98872441172E+02 -0.60178800835E+02  0.78736429099E+03  0.81420131075E+03  0.17200000000E+03 0.  1.
</event>
<event>
 4    1 -0.6901648E-004  0.3097828E+03  0.7818608E-02  0.1080450E+00
         -5   -1    0    0    0  501 -0.00000000000E+00  0.00000000000E+00  0.71740879448E+03  0.71742419000E+03  0.47000000000E+01 0.  1.
          5   -1    0    0  501    0  0.00000000000E+00 -0.00000000000E+00 -0.48872923780E+03  0.48875183671E+03  0.47000000000E+01 0. -1.
          6    1    1    2  502    0  0.31123891812E+02  0.25575899962E+03 -0.39963662607E+03  0.50564295252E+03  0.17200000000E+03 0. -1.
         -6    1    1    2    0  502 -0.31123891812E+02 -0.25575899962E+03  0.62831618275E+03  0.70053307419E+03  0.17200000000E+03 0.  1.
</event>
<event>
 4    1 -0.6901648E-004  0.1740775E+03  0.7818608E-02  0.1173661E+00
          5   -1    0    0  501    0  0.00000000000E+00  0.00000000000E+00  0.11366842006E+04  0.11366939174E+04  0.47000000000E+01 0. -1.
         -5   -1    0    0    0  501 -0.00000000000E+00 -0.00000000000E+00 -0.45716573068E+02  0.45957535325E+02  0.47000000000E+01 0.  1.
          6    1    1    2  502    0  0.25706854686E+02  0.76243037549E+01  0.92803087973E+03  0.94421622847E+03  0.17200000000E+03 0. -1.
         -6    1    1    2    0  502 -0.25706854686E+02 -0.76243037549E+01  0.16293674780E+03  0.23843522426E+03  0.17200000000E+03 0.  1.
</event>
<event>
 4    1 -0.6901648E-004  0.2163578E+03  0.7818608E-02  0.1136628E+00
          5   -1    0    0  501    0  0.00000000000E+00  0.00000000000E+00  0.35063181758E+03  0.35066331645E+03  0.47000000000E+01 0. -1.
         -5   -1    0    0    0  501 -0.00000000000E+00 -0.00000000000E+00 -0.81776585279E+03  0.81777935899E+03  0.47000000000E+01 0.  1.
          6    1    1    2  502    0  0.12755254465E+03 -0.30936148382E+02  0.30084722758E+03  0.37056679730E+03  0.17200000000E+03 0. -1.
         -6    1    1    2    0  502 -0.12755254465E+03  0.30936148382E+02 -0.76798126278E+03  0.79787587813E+03  0.17200000000E+03 0.  1.
</event>
<event>
 4    1 -0.6901648E-004  0.1728401E+03  0.7818608E-02  0.1174918E+00
         -5   -1    0    0    0  501 -0.00000000000E+00  0.00000000000E+00  0.52440743233E+03  0.52442849378E+03  0.47000000000E+01 0.  1.
          5   -1    0    0  501    0  0.00000000000E+00 -0.00000000000E+00 -0.42178350973E+03  0.42180969533E+03  0.47000000000E+01 0. -1.
          6    1    1    2  502    0 -0.11494264305E+02 -0.12552668227E+02 -0.38870215343E+03  0.42539752194E+03  0.17200000000E+03 0. -1.
         -6    1    1    2    0  502  0.11494264305E+02  0.12552668227E+02  0.49132607603E+03  0.52084066717E+03  0.17200000000E+03 0.  1.
</event>
<event>
 4    1 -0.6901648E-004  0.2002081E+03  0.7818608E-02  0.1149564E+00
         -5   -1    0    0    0  501 -0.00000000000E+00  0.00000000000E+00  0.84894417222E+03  0.84895718239E+03  0.47000000000E+01 0.  1.
          5   -1    0    0  501    0  0.00000000000E+00 -0.00000000000E+00 -0.78264802558E+02  0.78405799017E+02  0.47000000000E+01 0. -1.
          6    1    1    2  502    0 -0.11868894936E+02 -0.10177624217E+03  0.93047610121E+02  0.22077393842E+03  0.17200000000E+03 0. -1.
         -6    1    1    2    0  502  0.11868894936E+02  0.10177624217E+03  0.67763175954E+03  0.70658904299E+03  0.17200000000E+03 0.  1.
</event>
<event>
 4    1 -0.6901648E-004  0.1773914E+03  0.7818608E-02  0.1170352E+00
          5   -1    0    0  501    0  0.00000000000E+00  0.00000000000E+00  0.35291619390E+03  0.35294748889E+03  0.47000000000E+01 0. -1.
         -5   -1    0    0    0  501 -0.00000000000E+00 -0.00000000000E+00 -0.21368659978E+03  0.21373828138E+03  0.47000000000E+01 0.  1.
          6    1    1    2  502    0 -0.18082613708E+02 -0.39455194640E+02  0.28593389120E+03  0.33649053990E+03  0.17200000000E+03 0. -1.
         -6    1    1    2    0  502  0.18082613708E+02  0.39455194640E+02 -0.14670429709E+03  0.23019523037E+03  0.17200000000E+03 0.  1.
</event>
<event>
 4    1 -0.6901648E-004  0.1845900E+03  0.7818608E-02  0.1163433E+00
          5   -1    0    0  501    0  0.00000000000E+00  0.00000000000E+00  0.10108951525E+03  0.10119871587E+03  0.47000000000E+01 0. -1.
         -5   -1    0    0    0  501 -0.00000000000E+00 -0.00000000000E+00 -0.88968365325E+03  0.88969606769E+03  0.47000000000E+01 0.  1.
          6    1    1    2  502    0  0.22337903758E+02  0.63170218673E+02 -0.37420309827E+01  0.18462789948E+03  0.17200000000E+03 0. -1.
         -6    1    1    2    0  502 -0.22337903758E+02 -0.63170218673E+02 -0.78485210701E+03  0.80626688408E+03  0.17200000000E+03 0.  1.
</event>
<event>
 4    1 -0.6901648E-004  0.1755224E+03  0.7818608E-02  0.1172208E+00
         -5   -1    0    0    0  501 -0.00000000000E+00  0.00000000000E+00  0.77862649391E+02  0.78004372764E+02  0.47000000000E+01 0.  1.
          5   -1    0    0  501    0  0.00000000000E+00 -0.00000000000E+00 -0.13397635305E+04  0.13397717744E+04  0.47000000000E+01 0. -1.
          6    1    1    2  502    0  0.95761898401E+01 -0.33651447673E+02 -0.12261507034E+04  0.12386499388E+04  0.17200000000E+03 0. -1.
         -6    1    1    2    0  502 -0.95761898401E+01  0.33651447673E+02 -0.35750177666E+02  0.17912620843E+03  0.17200000000E+03 0.  1.
</event>
<event>
 4    1 -0.6901648E-004  0.1936695E+03  0.7818608E-02  0.1155193E+00
         -5   -1    0    0    0  501 -0.00000000000E+00  0.00000000000E+00  0.58777953276E+03  0.58779832352E+03  0.47000000000E+01 0.  1.
          5   -1    0    0  501    0  0.00000000000E+00 -0.00000000000E+00 -0.28424376565E+03  0.28428262048E+03  0.47000000000E+01 0. -1.
          6    1    1    2  502    0 -0.47730405144E+02 -0.75137768759E+02 -0.23222842896E+03  0.30238703525E+03  0.17200000000E+03 0. -1.
         -6    1    1    2    0  502  0.47730405144E+02  0.75137768759E+02  0.53576419608E+03  0.56969390875E+03  0.17200000000E+03 0.  1.
</event>
<event>
 4    1 -0.6901648E-004  0.1795657E+03  0.7818608E-02  0.1168224E+00
          5   -1    0    0  501    0  0.00000000000E+00  0.00000000000E+00  0.90120705861E+02  0.90243180490E+02  0.47000000000E+01 0. -1.
         -5   -1    0    0    0  501 -0.00000000000E+00 -0.00000000000E+00 -0.38812031076E+04  0.38812059534E+04  0.47000000000E+01 0.  1.
          6    1    1    2  502    0  0.37911183866E+02  0.34965338734E+02 -0.34869135692E+01  0.17959953046E+03  0.17200000000E+03 0. -1.
         -6    1    1    2    0  502 -0.37911183866E+02 -0.34965338734E+02 -0.37875954882E+04  0.37918496034E+04  0.17200000000E+03 0.  1.
</event>
<event>
 4    1 -0.6901648E-004  0.1934321E+03  0.7818608E-02  0.1155402E+00
          5   -1    0    0  501    0  0.00000000000E+00  0.00000000000E+00  0.10099347404E+03  0.10110277839E+03  0.47000000000E+01 0. -1.
         -5   -1    0    0    0  501 -0.00000000000E+00 -0.00000000000E+00 -0.94010808813E+03  0.94011983670E+03  0.47000000000E+01 0.  1.
          6    1    1    2  502    0  0.85860131496E+02 -0.21447581783E+02 -0.14221996471E+02  0.19395418564E+03  0.17200000000E+03 0. -1.
         -6    1    1    2    0  502 -0.85860131496E+02  0.21447581783E+02 -0.82489261762E+03  0.84726842945E+03  0.17200000000E+03 0.  1.
</event>
<event>
 4    1 -0.6901648E-004  0.1938808E+03  0.7818608E-02  0.1155007E+00
         -5   -1    0    0    0  501 -0.00000000000E+00  0.00000000000E+00  0.16370291640E+04  0.16370359110E+04  0.47000000000E+01 0.  1.
          5   -1    0    0  501    0  0.00000000000E+00 -0.00000000000E+00 -0.44666148973E+02  0.44912747234E+02  0.47000000000E+01 0. -1.
          6    1    1    2  502    0 -0.86860113271E+02 -0.21473204249E+02  0.20905818536E+03  0.28512296057E+03  0.17200000000E+03 0. -1.
         -6    1    1    2    0  502  0.86860113271E+02  0.21473204249E+02  0.13833048297E+04  0.13968256977E+04  0.17200000000E+03 0.  1.
</event>
<event>
 4    1 -0.6901648E-004  0.1904567E+03  0.7818608E-02  0.1158050E+00
          5   -1    0    0  501    0  0.00000000000E+00  0.00000000000E+00  0.13490059272E+03  0.13498244300E+03  0.47000000000E+01 0. -1.
         -5   -1    0    0    0  501 -0.00000000000E+00 -0.00000000000E+00 -0.66390564585E+03  0.66392228204E+03  0.47000000000E+01 0.  1.
          6    1    1    2  502    0  0.68668317308E+02 -0.44434259604E+02  0.43661926964E+02  0.19539730063E+03  0.17200000000E+03 0. -1.
         -6    1    1    2    0  502 -0.68668317308E+02  0.44434259604E+02 -0.57266698009E+03  0.60350742440E+03  0.17200000000E+03 0.  1.
</event>
<event>
 4    1 -0.6901648E-004  0.1857908E+03  0.7818608E-02  0.1162314E+00
          5   -1    0    0  501    0  0.00000000000E+00  0.00000000000E+00  0.64109686472E+02  0.64281738460E+02  0.47000000000E+01 0. -1.
         -5   -1    0    0    0  501 -0.00000000000E+00 -0.00000000000E+00 -0.56143621276E+03  0.56145588518E+03  0.47000000000E+01 0.  1.
          6    1    1    2  502    0 -0.42454240740E+02  0.55962859125E+02 -0.18410063444E+03  0.26155543917E+03  0.17200000000E+03 0. -1.
         -6    1    1    2    0  502  0.42454240740E+02 -0.55962859125E+02 -0.31322589185E+03  0.36418218447E+03  0.17200000000E+03 0.  1.
</event>
<event>
 4    1 -0.6901648E-004  0.2343561E+03  0.7818608E-02  0.1123611E+00
          5   -1    0    0  501    0  0.00000000000E+00  0.00000000000E+00  0.13864859559E+04  0.13864939220E+04  0.47000000000E+01 0. -1.
         -5   -1    0    0    0  501 -0.00000000000E+00 -0.00000000000E+00 -0.14564819844E+03  0.14572401212E+03  0.47000000000E+01 0.  1.
          6    1    1    2  502    0 -0.15903445997E+03 -0.68436710754E+01  0.12741345482E+04  0.12955082563E+04  0.17200000000E+03 0. -1.
         -6    1    1    2    0  502  0.15903445997E+03  0.68436710754E+01 -0.33296790777E+02  0.23670967781E+03  0.17200000000E+03 0.  1.
</event>
<event>
 4    1 -0.6901648E-004  0.2080521E+03  0.7818608E-02  0.1143118E+00
         -5   -1    0    0    0  501 -0.00000000000E+00  0.00000000000E+00  0.64277345124E+02  0.64448949535E+02  0.47000000000E+01 0.  1.
          5   -1    0    0  501    0  0.00000000000E+00 -0.00000000000E+00 -0.13035541687E+04  0.13035626417E+04  0.47000000000E+01 0. -1.
          6    1    1    2  502    0 -0.14854776645E+02  0.11610782343E+03 -0.10955780645E+04  0.11151578303E+04  0.17200000000E+03 0. -1.
         -6    1    1    2    0  502  0.14854776645E+02 -0.11610782343E+03 -0.14369875911E+03  0.25285376094E+03  0.17200000000E+03 0.  1.
</event>
<event>
 4    1 -0.6901648E-004  0.2648032E+03  0.7818608E-02  0.1104291E+00
          5   -1    0    0  501    0  0.00000000000E+00  0.00000000000E+00  0.59941387847E+03  0.59943230452E+03  0.47000000000E+01 0. -1.
         -5   -1    0    0    0  501 -0.00000000000E+00 -0.00000000000E+00 -0.17307857559E+03  0.17314237878E+03  0.47000000000E+01 0.  1.
          6    1    1    2  502    0  0.12503518163E+03 -0.15780671677E+03  0.43315350735E+03  0.50768367852E+03  0.17200000000E+03 0. -1.
         -6    1    1    2    0  502 -0.12503518163E+03  0.15780671677E+03 -0.68182044736E+01  0.26489100478E+03  0.17200000000E+03 0.  1.
</event>
<event>
 4    1 -0.6901648E-004  0.1887448E+03  0.7818608E-02  0.1159598E+00
         -5   -1    0    0    0  501 -0.00000000000E+00  0.00000000000E+00  0.98029787240E+03  0.98030913932E+03  0.47000000000E+01 0.  1.
          5   -1    0    0  501    0  0.00000000000E+00 -0.00000000000E+00 -0.82479094653E+02  0.82612898840E+02  0.47000000000E+01 0. -1.
          6    1    1    2  502    0  0.19796096644E+02  0.75157949082E+02  0.51265697344E+02  0.19558316512E+03  0.17200000000E+03 0. -1.
         -6    1    1    2    0  502 -0.19796096644E+02 -0.75157949082E+02  0.84655308041E+03  0.86733887305E+03  0.17200000000E+03 0.  1.
</event>
<event>
 4    1 -0.6901648E-004  0.3061583E+03  0.7818608E-02  0.1082202E+00
         -5   -1    0    0    0  501 -0.00000000000E+00  0.00000000000E+00  0.36977412032E+03  0.36980398870E+03  0.47000000000E+01 0.  1.
          5   -1    0    0  501    0  0.00000000000E+00 -0.00000000000E+00 -0.19731729947E+04  0.19731785923E+04  0.47000000000E+01 0. -1.
          6    1    1    2  502    0 -0.16996566885E+03 -0.18777807631E+03 -0.18953608306E+04  0.19199285437E+04  0.17200000000E+03 0. -1.
         -6    1    1    2    0  502  0.16996566885E+03  0.18777807631E+03  0.29196195628E+03  0.42305403726E+03  0.17200000000E+03 0.  1.
</event>
<event>
 4    1 -0.6901648E-004  0.2447219E+03  0.7818608E-02  0.1116687E+00
         -5   -1    0    0    0  501 -0.00000000000E+00  0.00000000000E+00  0.41708637362E+02  0.41972615246E+02  0.47000000000E+01 0.  1.
          5   -1    0    0  501    0  0.00000000000E+00 -0.00000000000E+00 -0.26341295367E+04  0.26341337297E+04  0.47000000000E+01 0. -1.
          6    1    1    2  502    0  0.44134292443E+02 -0.16839533730E+03 -0.22004278612E+04  0.22139944891E+04  0.17200000000E+03 0. -1.
         -6    1    1    2    0  502 -0.44134292443E+02  0.16839533730E+03 -0.39199303809E+03  0.46211185584E+03  0.17200000000E+03 0.  1.
</event>
<event>
 4    1 -0.6901648E-004  0.1815073E+03  0.7818608E-02  0.1166352E+00
          5   -1    0    0  501    0  0.00000000000E+00  0.00000000000E+00  0.15749818338E+03  0.15756829556E+03  0.47000000000E+01 0. -1.
         -5   -1    0    0    0  501 -0.00000000000E+00 -0.00000000000E+00 -0.30382100929E+03  0.30385736075E+03  0.47000000000E+01 0.  1.
          6    1    1    2  502    0  0.36518242212E+02  0.45025911964E+02  0.55680352487E+02  0.18985577794E+03  0.17200000000E+03 0. -1.
         -6    1    1    2    0  502 -0.36518242212E+02 -0.45025911964E+02 -0.20200317840E+03  0.27156987838E+03  0.17200000000E+03 0.  1.
</event>
<event>
 4    1 -0.6901648E-004  0.3072506E+03  0.7818608E-02  0.1081671E+00
          5   -1    0    0  501    0  0.00000000000E+00  0.00000000000E+00  0.18178737018E+04  0.18178797776E+04  0.47000000000E+01 0. -1.
         -5   -1    0    0    0  501 -0.00000000000E+00 -0.00000000000E+00 -0.55135916345E+02  0.55335876890E+02  0.47000000000E+01 0.  1.
          6    1    1    2  502    0 -0.11314287911E+03  0.22807374854E+03  0.11106903397E+04  0.11524044327E+04  0.17200000000E+03 0. -1.
         -6    1    1    2    0  502  0.11314287911E+03 -0.22807374854E+03  0.65204744580E+03  0.72081122178E+03  0.17200000000E+03 0.  1.
</event>
<event>
 4    1 -0.6901648E-004  0.1993101E+03  0.7818608E-02  0.1150322E+00
         -5   -1    0    0    0  501 -0.00000000000E+00  0.00000000000E+00  0.17673958195E+03  0.17680206398E+03  0.47000000000E+01 0.  1.
          5   -1    0    0  501    0  0.00000000000E+00 -0.00000000000E+00 -0.53917862028E+03  0.53919910475E+03  0.47000000000E+01 0. -1.
          6    1    1    2  502    0 -0.50104050202E+02 -0.87350387788E+02 -0.45463170691E+03  0.49640154615E+03  0.17200000000E+03 0. -1.
         -6    1    1    2    0  502  0.50104050202E+02  0.87350387788E+02  0.92192668587E+02  0.21959962257E+03  0.17200000000E+03 0.  1.
</event>
<event>
 4    1 -0.6901648E-004  0.1859091E+03  0.7818608E-02  0.1162204E+00
          5   -1    0    0  501    0  0.00000000000E+00  0.00000000000E+00  0.12389312867E+03  0.12398224603E+03  0.47000000000E+01 0. -1.
         -5   -1    0    0    0  501 -0.00000000000E+00 -0.00000000000E+00 -0.32713601409E+03  0.32716977506E+03  0.47000000000E+01 0.  1.
          6    1    1    2  502    0  0.69431752048E+02  0.12547311520E+02 -0.14892043721E+02  0.18650462778E+03  0.17200000000E+03 0.  1.
         -6    1    1    2    0  502 -0.69431752048E+02 -0.12547311520E+02 -0.18835084170E+03  0.26464739331E+03  0.17200000000E+03 0.  1.
</event>
<event>
 4    1 -0.6901648E-004  0.1800390E+03  0.7818608E-02  0.1167765E+00
         -5   -1    0    0    0  501 -0.00000000000E+00  0.00000000000E+00  0.79604815510E+03  0.79606202977E+03  0.47000000000E+01 0.  1.
          5   -1    0    0  501    0  0.00000000000E+00 -0.00000000000E+00 -0.47649303991E+02  0.47880540628E+02  0.47000000000E+01 0. -1.
          6    1    1    2  502    0  0.28950377189E+02  0.44631080265E+02  0.21198812113E+03  0.27812411109E+03  0.17200000000E+03 0. -1.
         -6    1    1    2    0  502 -0.28950377189E+02 -0.44631080265E+02  0.53641072998E+03  0.56581845931E+03  0.17200000000E+03 0.  1.
</event>
<event>
 4    1 -0.6901648E-004  0.1739292E+03  0.7818608E-02  0.1173811E+00
         -5   -1    0    0    0  501 -0.00000000000E+00  0.00000000000E+00  0.22723081065E+03  0.22727941242E+03  0.47000000000E+01 0.  1.
          5   -1    0    0  501    0  0.00000000000E+00 -0.00000000000E+00 -0.68254556938E+03  0.68256175126E+03  0.47000000000E+01 0. -1.
          6    1    1    2  502    0 -0.15957202405E+02 -0.20315636279E+02 -0.63581699209E+03  0.65917721806E+03  0.17200000000E+03 0. -1.
         -6    1    1    2    0  502  0.15957202405E+02  0.20315636279E+02  0.18050223335E+03  0.25066394561E+03  0.17200000000E+03 0.  1.
</event>
<event>
 4    1 -0.6901648E-004  0.2070144E+03  0.7818608E-02  0.1143952E+00
          5   -1    0    0  501    0  0.00000000000E+00  0.00000000000E+00  0.11500947684E+03  0.11510547234E+03  0.47000000000E+01 0. -1.
         -5   -1    0    0    0  501 -0.00000000000E+00 -0.00000000000E+00 -0.91504231035E+03  0.91505438075E+03  0.47000000000E+01 0.  1.
          6    1    1    2  502    0  0.98337733695E+02 -0.60005306084E+02 -0.33720899833E+01  0.20704182577E+03  0.17200000000E+03 0. -1.
         -6    1    1    2    0  502 -0.98337733695E+02  0.60005306084E+02 -0.79666074353E+03  0.82311802732E+03  0.17200000000E+03 0.  1.
</event>
<event>
 4    1 -0.6901648E-004  0.1972798E+03  0.7818608E-02  0.1152055E+00
         -5   -1    0    0    0  501 -0.00000000000E+00  0.00000000000E+00  0.89997442454E+02  0.90120084600E+02  0.47000000000E+01 0.  1.
          5   -1    0    0  501    0  0.00000000000E+00 -0.00000000000E+00 -0.87413233362E+03  0.87414496891E+03  0.47000000000E+01 0. -1.
          6    1    1    2  502    0  0.23756435460E+02 -0.93653367018E+02 -0.73492149600E+03  0.76093950263E+03  0.17200000000E+03 0. -1.
         -6    1    1    2    0  502 -0.23756435460E+02  0.93653367018E+02 -0.49213395167E+02  0.20332555089E+03  0.17200000000E+03 0.  1.
</event>
<event>
 4    1 -0.6901648E-004  0.3547116E+03  0.7818608E-02  0.1060698E+00
          5   -1    0    0  501    0  0.00000000000E+00  0.00000000000E+00  0.25364382347E+03  0.25368736505E+03  0.47000000000E+01 0. -1.
         -5   -1    0    0    0  501 -0.00000000000E+00 -0.00000000000E+00 -0.76830950236E+03  0.76832387794E+03  0.47000000000E+01 0.  1.
          6    1    1    2  502    0 -0.24932170838E+03 -0.18459418745E+03  0.46901471708E+02  0.35779893286E+03  0.17200000000E+03 0. -1.
         -6    1    1    2    0  502  0.24932170838E+03  0.18459418745E+03 -0.56156715060E+03  0.66421231014E+03  0.17200000000E+03 0.  1.
</event>
<event>
 4    1 -0.6901648E-004  0.2049814E+03  0.7818608E-02  0.1145603E+00
         -5   -1    0    0    0  501 -0.00000000000E+00  0.00000000000E+00  0.12014641647E+03  0.12023831083E+03  0.47000000000E+01 0.  1.
          5   -1    0    0  501    0  0.00000000000E+00 -0.00000000000E+00 -0.86948057324E+03  0.86949327614E+03  0.47000000000E+01 0. -1.
          6    1    1    2  502    0  0.98217049990E+02 -0.52790122964E+02 -0.75734399271E+03  0.78459372244E+03  0.17200000000E+03 0. -1.
         -6    1    1    2    0  502 -0.98217049990E+02  0.52790122964E+02  0.80098359369E+01  0.20513786453E+03  0.17200000000E+03 0.  1.
</event>
<event>
 4    1 -0.6901648E-004  0.1993668E+03  0.7818608E-02  0.1150274E+00
         -5   -1    0    0    0  501 -0.00000000000E+00  0.00000000000E+00  0.74376266346E+03  0.74377751348E+03  0.47000000000E+01 0.  1.
          5   -1    0    0  501    0  0.00000000000E+00 -0.00000000000E+00 -0.12714984909E+03  0.12723668545E+03  0.47000000000E+01 0. -1.
          6    1    1    2  502    0  0.95372455740E+02  0.32668010889E+02 -0.23337524636E+02  0.20072803567E+03  0.17200000000E+03 0. -1.
         -6    1    1    2    0  502 -0.95372455740E+02 -0.32668010889E+02  0.63995033901E+03  0.67028616325E+03  0.17200000000E+03 0.  1.
</event>
<event>
 4    1 -0.6901648E-004  0.1732409E+03  0.7818608E-02  0.1174510E+00
          5   -1    0    0  501    0  0.00000000000E+00  0.00000000000E+00  0.49081524290E+03  0.49083774576E+03  0.47000000000E+01 0. -1.
         -5   -1    0    0    0  501 -0.00000000000E+00 -0.00000000000E+00 -0.27810572199E+03  0.27814543427E+03  0.47000000000E+01 0.  1.
          6    1    1    2  502    0 -0.17801571207E+02  0.10560364972E+02  0.44596444494E+03  0.47843150334E+03  0.17200000000E+03 0. -1.
         -6    1    1    2    0  502  0.17801571207E+02 -0.10560364972E+02 -0.23325492402E+03  0.29055167669E+03  0.17200000000E+03 0.  1.
</event>
<event>
 4    1 -0.6901648E-004  0.1867207E+03  0.7818608E-02  0.1161453E+00
          5   -1    0    0  501    0  0.00000000000E+00  0.00000000000E+00  0.10230930017E+04  0.10231037973E+04  0.47000000000E+01 0. -1.
         -5   -1    0    0    0  501 -0.00000000000E+00 -0.00000000000E+00 -0.97700000152E+02  0.97812984975E+02  0.47000000000E+01 0.  1.
          6    1    1    2  502    0  0.48061074086E+02 -0.54504651773E+02  0.91505372782E+03  0.93391003244E+03  0.17200000000E+03 0. -1.
         -6    1    1    2    0  502 -0.48061074086E+02  0.54504651773E+02  0.10339273708E+02  0.18700674985E+03  0.17200000000E+03 0.  1.
</event>
<event>
 4    1 -0.6901648E-004  0.2393826E+03  0.7818608E-02  0.1120205E+00
          5   -1    0    0  501    0  0.00000000000E+00  0.00000000000E+00  0.49405983685E+03  0.49408219193E+03  0.47000000000E+01 0. -1.
         -5   -1    0    0    0  501 -0.00000000000E+00 -0.00000000000E+00 -0.25172029584E+03  0.25176417008E+03  0.47000000000E+01 0.  1.
          6    1    1    2  502    0 -0.16649259434E+03 -0.48179022440E+00  0.39503817086E+03  0.46190818626E+03  0.17200000000E+03 0. -1.
         -6    1    1    2    0  502  0.16649259434E+03  0.48179022440E+00 -0.15269862986E+03  0.28393817576E+03  0.17200000000E+03 0.  1.
</event>
<event>
 4    1 -0.6901648E-004  0.1761695E+03  0.7818608E-02  0.1171563E+00
          5   -1    0    0  501    0  0.00000000000E+00  0.00000000000E+00  0.16513110261E+03  0.16519797532E+03  0.47000000000E+01 0. -1.
         -5   -1    0    0    0  501 -0.00000000000E+00 -0.00000000000E+00 -0.21063612005E+03  0.21068854993E+03  0.47000000000E+01 0.  1.
          6    1    1    2  502    0  0.18714844855E+02  0.33187831106E+02  0.39097141035E+02  0.18045571199E+03  0.17200000000E+03 0. -1.
         -6    1    1    2    0  502 -0.18714844855E+02 -0.33187831106E+02 -0.84602158482E+02  0.19543081326E+03  0.17200000000E+03 0.  1.
</event>
<event>
 4    1 -0.6901648E-004  0.4015608E+03  0.7818608E-02  0.1043241E+00
          5   -1    0    0  501    0  0.00000000000E+00  0.00000000000E+00  0.86859833029E+02  0.86986898978E+02  0.47000000000E+01 0. -1.
         -5   -1    0    0    0  501 -0.00000000000E+00 -0.00000000000E+00 -0.31138076053E+04  0.31138111524E+04  0.47000000000E+01 0.  1.
          6    1    1    2  502    0  0.79148396474E+02  0.35412229694E+03 -0.49591632502E+03  0.63810976428E+03  0.17200000000E+03 0. -1.
         -6    1    1    2    0  502 -0.79148396474E+02 -0.35412229694E+03 -0.25310314472E+04  0.25626882871E+04  0.17200000000E+03 0.  1.
</event>
<event>
 4    1 -0.6901648E-004  0.1756574E+03  0.7818608E-02  0.1172073E+00
         -5   -1    0    0    0  501 -0.00000000000E+00  0.00000000000E+00  0.25865874864E+03  0.25870144616E+03  0.47000000000E+01 0.  1.
          5   -1    0    0  501    0  0.00000000000E+00 -0.00000000000E+00 -0.93197958156E+03  0.93199143261E+03  0.47000000000E+01 0. -1.
          6    1    1    2  502    0  0.31973903045E+02  0.15785832744E+02 -0.89260701348E+03  0.90972677410E+03  0.17200000000E+03 0. -1.
         -6    1    1    2    0  502 -0.31973903045E+02 -0.15785832744E+02  0.21928618056E+03  0.28096610467E+03  0.17200000000E+03 0.  1.
</event>
<event>
 4    1 -0.6901648E-004  0.1789135E+03  0.7818608E-02  0.1168859E+00
          5   -1    0    0  501    0  0.00000000000E+00  0.00000000000E+00  0.61584690699E+03  0.61586484138E+03  0.47000000000E+01 0. -1.
         -5   -1    0    0    0  501 -0.00000000000E+00 -0.00000000000E+00 -0.75638494827E+02  0.75784377675E+02  0.47000000000E+01 0.  1.
          6    1    1    2  502    0  0.43818729366E+02 -0.22493413463E+02  0.46378285751E+03  0.49709614121E+03  0.17200000000E+03 0. -1.
         -6    1    1    2    0  502 -0.43818729366E+02  0.22493413463E+02  0.76425554652E+02  0.19455307784E+03  0.17200000000E+03 0.  1.
</event>
<event>
 4    1 -0.6901648E-004  0.2819697E+03  0.7818608E-02  0.1094618E+00
         -5   -1    0    0    0  501 -0.00000000000E+00  0.00000000000E+00  0.17176425059E+04  0.17176489363E+04  0.47000000000E+01 0.  1.
          5   -1    0    0  501    0  0.00000000000E+00 -0.00000000000E+00 -0.99560637694E+02  0.99671513373E+02  0.47000000000E+01 0. -1.
          6    1    1    2  502    0  0.18181605323E+03  0.12986859836E+03  0.14418793296E+03  0.31669715828E+03  0.17200000000E+03 0. -1.
         -6    1    1    2    0  502 -0.18181605323E+03 -0.12986859836E+03  0.14738939353E+04  0.15006232914E+04  0.17200000000E+03 0.  1.
</event>
<event>
 4    1 -0.6901648E-004  0.2071702E+03  0.7818608E-02  0.1143827E+00
          5   -1    0    0  501    0  0.00000000000E+00  0.00000000000E+00  0.15791925267E+04  0.15791995208E+04  0.47000000000E+01 0. -1.
         -5   -1    0    0    0  501 -0.00000000000E+00 -0.00000000000E+00 -0.60687620583E+02  0.60869346079E+02  0.47000000000E+01 0.  1.
          6    1    1    2  502    0 -0.13151276408E+02  0.11472805235E+03  0.13689995658E+04  0.13845863257E+04  0.17200000000E+03 0. -1.
         -6    1    1    2    0  502  0.13151276408E+02 -0.11472805235E+03  0.14950534034E+03  0.25548254120E+03  0.17200000000E+03 0.  1.
</event>
<event>
 4    1 -0.6901648E-004  0.1907672E+03  0.7818608E-02  0.1157771E+00
         -5   -1    0    0    0  501 -0.00000000000E+00  0.00000000000E+00  0.16398653245E+03  0.16405387172E+03  0.47000000000E+01 0.  1.
          5   -1    0    0  501    0  0.00000000000E+00 -0.00000000000E+00 -0.31510715194E+03  0.31514220156E+03  0.47000000000E+01 0. -1.
          6    1    1    2  502    0  0.59682497846E+02 -0.56974725993E+02 -0.20592924721E+03  0.28071155090E+03  0.17200000000E+03 0. -1.
         -6    1    1    2    0  502 -0.59682497846E+02  0.56974725993E+02  0.54808627724E+02  0.19848452238E+03  0.17200000000E+03 0. -1.
</event>
<event>
 4    1 -0.6901648E-004  0.1734341E+03  0.7818608E-02  0.1174313E+00
          5   -1    0    0  501    0  0.00000000000E+00  0.00000000000E+00  0.18817716612E+03  0.18823585166E+03  0.47000000000E+01 0. -1.
         -5   -1    0    0    0  501 -0.00000000000E+00 -0.00000000000E+00 -0.18267464367E+03  0.18273509635E+03  0.47000000000E+01 0.  1.
          6    1    1    2  502    0  0.50341969051E+01  0.21680236230E+02  0.68469341270E+02  0.18646025441E+03  0.17200000000E+03 0. -1.
         -6    1    1    2    0  502 -0.50341969051E+01 -0.21680236230E+02 -0.62966818811E+02  0.18451069360E+03  0.17200000000E+03 0.  1.
</event>
<event>
 4    1 -0.6901648E-004  0.2121726E+03  0.7818608E-02  0.1139857E+00
         -5   -1    0    0    0  501 -0.00000000000E+00  0.00000000000E+00  0.78815146695E+02  0.78955160367E+02  0.47000000000E+01 0.  1.
          5   -1    0    0  501    0  0.00000000000E+00 -0.00000000000E+00 -0.69090225718E+03  0.69091824334E+03  0.47000000000E+01 0. -1.
          6    1    1    2  502    0 -0.10246483869E+03  0.70243627895E+02 -0.46670670526E+03  0.51267178503E+03  0.17200000000E+03 0. -1.
         -6    1    1    2    0  502  0.10246483869E+03 -0.70243627895E+02 -0.14538040523E+03  0.25720161868E+03  0.17200000000E+03 0.  1.
</event>
<event>
 4    1 -0.6901648E-004  0.1979631E+03  0.7818608E-02  0.1151469E+00
         -5   -1    0    0    0  501 -0.00000000000E+00  0.00000000000E+00  0.77636742725E+02  0.77778877730E+02  0.47000000000E+01 0.  1.
          5   -1    0    0  501    0  0.00000000000E+00 -0.00000000000E+00 -0.51060755584E+03  0.51062918648E+03  0.47000000000E+01 0. -1.
          6    1    1    2  502    0  0.81904016954E+02  0.53825000910E+02 -0.24952912011E+03  0.31851872864E+03  0.17200000000E+03 0. -1.
         -6    1    1    2    0  502 -0.81904016954E+02 -0.53825000910E+02 -0.18344169301E+03  0.26988933556E+03  0.17200000000E+03 0.  1.
</event>
<event>
 4    1 -0.6901648E-004  0.1844069E+03  0.7818608E-02  0.1163605E+00
          5   -1    0    0  501    0  0.00000000000E+00  0.00000000000E+00  0.58382061298E+03  0.58383953115E+03  0.47000000000E+01 0. -1.
         -5   -1    0    0    0  501 -0.00000000000E+00 -0.00000000000E+00 -0.12554719014E+03  0.12563513422E+03  0.47000000000E+01 0.  1.
          6    1    1    2  502    0  0.65472314178E+02  0.11631432031E+02  0.48891809610E+03  0.52253882041E+03  0.17200000000E+03 0. -1.
         -6    1    1    2    0  502 -0.65472314178E+02 -0.11631432031E+02 -0.30644673260E+02  0.18693584497E+03  0.17200000000E+03 0.  1.
</event>
<event>
 4    1 -0.6901648E-004  0.1808589E+03  0.7818608E-02  0.1166974E+00
         -5   -1    0    0    0  501 -0.00000000000E+00  0.00000000000E+00  0.77386100319E+02  0.77528694833E+02  0.47000000000E+01 0.  1.
          5   -1    0    0  501    0  0.00000000000E+00 -0.00000000000E+00 -0.44886128659E+03  0.44888589263E+03  0.47000000000E+01 0. -1.
          6    1    1    2  502    0  0.33819139449E+02  0.44521836839E+02 -0.24994556283E+03  0.30851695663E+03  0.17200000000E+03 0. -1.
         -6    1    1    2    0  502 -0.33819139449E+02 -0.44521836839E+02 -0.12152962344E+03  0.21789763083E+03  0.17200000000E+03 0.  1.
</event>
<event>
 4    1 -0.6901648E-004  0.2017039E+03  0.7818608E-02  0.1148309E+00
          5   -1    0    0  501    0  0.00000000000E+00  0.00000000000E+00  0.11303820531E+03  0.11313587345E+03  0.47000000000E+01 0. -1.
         -5   -1    0    0    0  501 -0.00000000000E+00 -0.00000000000E+00 -0.63645662587E+03  0.63647397952E+03  0.47000000000E+01 0.  1.
          6    1    1    2  502    0  0.80201453408E+02 -0.68324155820E+02 -0.14554947058E+02  0.20222836072E+03  0.17200000000E+03 0. -1.
         -6    1    1    2    0  502 -0.80201453408E+02  0.68324155820E+02 -0.50886347349E+03  0.54738149225E+03  0.17200000000E+03 0.  1.
</event>
<event>
 4    1 -0.6901648E-004  0.2478757E+03  0.7818608E-02  0.1114655E+00
         -5   -1    0    0    0  501 -0.00000000000E+00  0.00000000000E+00  0.52610338359E+03  0.52612437715E+03  0.47000000000E+01 0.  1.
          5   -1    0    0  501    0  0.00000000000E+00 -0.00000000000E+00 -0.11995496910E+03  0.12004701001E+03  0.47000000000E+01 0. -1.
          6    1    1    2  502    0  0.17778540641E+03  0.15833534378E+02  0.15001759758E+03  0.28973717595E+03  0.17200000000E+03 0. -1.
         -6    1    1    2    0  502 -0.17778540641E+03 -0.15833534378E+02  0.25613081691E+03  0.35643421120E+03  0.17200000000E+03 0.  1.
</event>
<event>
 4    1 -0.6901648E-004  0.3734706E+03  0.7818608E-02  0.1053374E+00
         -5   -1    0    0    0  501 -0.00000000000E+00  0.00000000000E+00  0.16288360949E+03  0.16295140454E+03  0.47000000000E+01 0.  1.
          5   -1    0    0  501    0  0.00000000000E+00 -0.00000000000E+00 -0.85713713134E+03  0.85715001716E+03  0.47000000000E+01 0. -1.
          6    1    1    2  502    0 -0.87108047310E+02 -0.31985696546E+03 -0.32909990266E+03  0.49778211719E+03  0.17200000000E+03 0. -1.
         -6    1    1    2    0  502  0.87108047310E+02  0.31985696546E+03 -0.36515361918E+03  0.52231930451E+03  0.17200000000E+03 0. -1.
</event>
<event>
 4    1 -0.6901648E-004  0.2694185E+03  0.7818608E-02  0.1101613E+00
         -5   -1    0    0    0  501 -0.00000000000E+00  0.00000000000E+00  0.60927433215E+03  0.60929246001E+03  0.47000000000E+01 0.  1.
          5   -1    0    0  501    0  0.00000000000E+00 -0.00000000000E+00 -0.30952355942E+03  0.30955924124E+03  0.47000000000E+01 0. -1.
          6    1    1    2  502    0  0.20286697899E+03 -0.42980358144E+02 -0.21045925045E+03  0.34187632040E+03  0.17200000000E+03 0. -1.
         -6    1    1    2    0  502 -0.20286697899E+03  0.42980358144E+02  0.51021002318E+03  0.57697538085E+03  0.17200000000E+03 0.  1.
</event>
<event>
 4    1 -0.6901648E-004  0.2744078E+03  0.7818608E-02  0.1098783E+00
         -5   -1    0    0    0  501 -0.00000000000E+00  0.00000000000E+00  0.90072691467E+03  0.90073917691E+03  0.47000000000E+01 0.  1.
          5   -1    0    0  501    0  0.00000000000E+00 -0.00000000000E+00 -0.56196945864E+03  0.56198911239E+03  0.47000000000E+01 0. -1.
          6    1    1    2  502    0  0.91759989827E+02  0.19312106477E+03 -0.50539994705E+03  0.57509020846E+03  0.17200000000E+03 0. -1.
         -6    1    1    2    0  502 -0.91759989827E+02 -0.19312106477E+03  0.84415740308E+03  0.88763808084E+03  0.17200000000E+03 0.  1.
</event>
<event>
 4    1 -0.6901648E-004  0.1783716E+03  0.7818608E-02  0.1169388E+00
          5   -1    0    0  501    0  0.00000000000E+00  0.00000000000E+00  0.83543574100E+03  0.83544896154E+03  0.47000000000E+01 0. -1.
         -5   -1    0    0    0  501 -0.00000000000E+00 -0.00000000000E+00 -0.24147933822E+03  0.24152507280E+03  0.47000000000E+01 0.  1.
          6    1    1    2  502    0 -0.38905053397E+02 -0.26811230585E+02  0.79118932103E+03  0.81104684635E+03  0.17200000000E+03 0. -1.
         -6    1    1    2    0  502  0.38905053397E+02  0.26811230585E+02 -0.19723291826E+03  0.26592718798E+03  0.17200000000E+03 0.  1.
</event>
<event>
 4    1 -0.6901648E-004  0.2138314E+03  0.7818608E-02  0.1138567E+00
         -5   -1    0    0    0  501 -0.00000000000E+00  0.00000000000E+00  0.17451905972E+03  0.17458233647E+03  0.47000000000E+01 0.  1.
          5   -1    0    0  501    0  0.00000000000E+00 -0.00000000000E+00 -0.30274633521E+03  0.30278281570E+03  0.47000000000E+01 0. -1.
          6    1    1    2  502    0 -0.12702747061E+03  0.19724808157E+01 -0.15180510040E+03  0.26223778804E+03  0.17200000000E+03 0. -1.
         -6    1    1    2    0  502  0.12702747061E+03 -0.19724808157E+01  0.23577824909E+02  0.21512736413E+03  0.17200000000E+03 0.  1.
</event>
<event>
 4    1 -0.6901648E-004  0.2281175E+03  0.7818608E-02  0.1127972E+00
         -5   -1    0    0    0  501 -0.00000000000E+00  0.00000000000E+00  0.23767320717E+03  0.23771967400E+03  0.47000000000E+01 0.  1.
          5   -1    0    0  501    0  0.00000000000E+00 -0.00000000000E+00 -0.42817271573E+03  0.42819851062E+03  0.47000000000E+01 0. -1.
          6    1    1    2  502    0  0.63291281541E+02 -0.13582267285E+03 -0.32802870884E+03  0.39955027043E+03  0.17200000000E+03 0. -1.
         -6    1    1    2    0  502 -0.63291281541E+02  0.13582267285E+03  0.13752920028E+03  0.26636791419E+03  0.17200000000E+03 0.  1.
</event>
<event>
 4    1 -0.6901648E-004  0.3550539E+03  0.7818608E-02  0.1060560E+00
         -5   -1    0    0    0  501 -0.00000000000E+00  0.00000000000E+00  0.54817159412E+03  0.54819174255E+03  0.47000000000E+01 0.  1.
          5   -1    0    0  501    0  0.00000000000E+00 -0.00000000000E+00 -0.51031409558E+03  0.51033573865E+03  0.47000000000E+01 0. -1.
          6    1    1    2  502    0 -0.30210935635E+03  0.72175050065E+02 -0.37336623391E+03  0.51523358360E+03  0.17200000000E+03 0. -1.
         -6    1    1    2    0  502  0.30210935635E+03 -0.72175050065E+02  0.41122373245E+03  0.54329389761E+03  0.17200000000E+03 0.  1.
</event>
<event>
 4    1 -0.6901648E-004  0.1722302E+03  0.7818608E-02  0.1175542E+00
         -5   -1    0    0    0  501 -0.00000000000E+00  0.00000000000E+00  0.21663236153E+03  0.21668334053E+03  0.47000000000E+01 0.  1.
          5   -1    0    0  501    0  0.00000000000E+00 -0.00000000000E+00 -0.82392336616E+03  0.82393677143E+03  0.47000000000E+01 0. -1.
          6    1    1    2  502    0 -0.78706910662E+01 -0.41592241088E+01 -0.77876573746E+03  0.79758342558E+03  0.17200000000E+03 0. -1.
         -6    1    1    2    0  502  0.78706910662E+01  0.41592241088E+01  0.17147473283E+03  0.24303668637E+03  0.17200000000E+03 0.  1.
</event>
<event>
 4    1 -0.6901648E-004  0.2560242E+03  0.7818608E-02  0.1109556E+00
         -5   -1    0    0    0  501 -0.00000000000E+00  0.00000000000E+00  0.29806225756E+03  0.29809931128E+03  0.47000000000E+01 0.  1.
          5   -1    0    0  501    0  0.00000000000E+00 -0.00000000000E+00 -0.78640909463E+03  0.78642313936E+03  0.47000000000E+01 0. -1.
          6    1    1    2  502    0  0.18752695994E+03  0.28249851972E+02 -0.70442138193E+03  0.74950510216E+03  0.17200000000E+03 0. -1.
         -6    1    1    2    0  502 -0.18752695994E+03 -0.28249851972E+02  0.21607454487E+03  0.33501734848E+03  0.17200000000E+03 0.  1.
</event>
<event>
 4    1 -0.6901648E-004  0.1788607E+03  0.7818608E-02  0.1168910E+00
          5   -1    0    0  501    0  0.00000000000E+00  0.00000000000E+00  0.26415429748E+03  0.26419610685E+03  0.47000000000E+01 0. -1.
         -5   -1    0    0    0  501 -0.00000000000E+00 -0.00000000000E+00 -0.15281921599E+04  0.15281993874E+04  0.47000000000E+01 0.  1.
          6    1    1    2  502    0 -0.26292468548E+02  0.41422868690E+02  0.22793852281E+03  0.28973629067E+03  0.17200000000E+03 0. -1.
         -6    1    1    2    0  502  0.26292468548E+02 -0.41422868690E+02 -0.14919763852E+04  0.15026592035E+04  0.17200000000E+03 0.  1.
</event>
<event>
 4    1 -0.6901648E-004  0.1927067E+03  0.7818608E-02  0.1156042E+00
         -5   -1    0    0    0  501 -0.00000000000E+00  0.00000000000E+00  0.81389281166E+03  0.81390638213E+03  0.47000000000E+01 0.  1.
          5   -1    0    0  501    0  0.00000000000E+00 -0.00000000000E+00 -0.33109252806E+03  0.33112588563E+03  0.47000000000E+01 0. -1.
          6    1    1    2  502    0  0.84866255198E+02  0.18697740154E+02 -0.29020963870E+03  0.34836406409E+03  0.17200000000E+03 0. -1.
         -6    1    1    2    0  502 -0.84866255198E+02 -0.18697740154E+02  0.77300992231E+03  0.79666820367E+03  0.17200000000E+03 0.  1.
</event>
<event>
 4    1 -0.6901648E-004  0.1831467E+03  0.7818608E-02  0.1164792E+00
          5   -1    0    0  501    0  0.00000000000E+00  0.00000000000E+00  0.40792800393E+03  0.40795507889E+03  0.47000000000E+01 0. -1.
         -5   -1    0    0    0  501 -0.00000000000E+00 -0.00000000000E+00 -0.17372597262E+03  0.17378953813E+03  0.47000000000E+01 0.  1.
          6    1    1    2  502    0 -0.41975344586E+02  0.46869957721E+02  0.32823128923E+03  0.37587032567E+03  0.17200000000E+03 0. -1.
         -6    1    1    2    0  502  0.41975344586E+02 -0.46869957721E+02 -0.94029257924E+02  0.20587429134E+03  0.17200000000E+03 0.  1.
</event>
<event>
 4    1 -0.6901648E-004  0.2470035E+03  0.7818608E-02  0.1115213E+00
          5   -1    0    0  501    0  0.00000000000E+00  0.00000000000E+00  0.11570099354E+03  0.11579641578E+03  0.47000000000E+01 0. -1.
         -5   -1    0    0    0  501 -0.00000000000E+00 -0.00000000000E+00 -0.73517416976E+03  0.73518919326E+03  0.47000000000E+01 0.  1.
          6    1    1    2  502    0 -0.10998476514E+03  0.13903258317E+03 -0.83331023019E+02  0.26068135174E+03  0.17200000000E+03 0. -1.
         -6    1    1    2    0  502  0.10998476514E+03 -0.13903258317E+03 -0.53614215320E+03  0.59030425730E+03  0.17200000000E+03 0.  1.
</event>
<event>
 4    1 -0.6901648E-004  0.2125827E+03  0.7818608E-02  0.1139537E+00
         -5   -1    0    0    0  501 -0.00000000000E+00  0.00000000000E+00  0.20527448326E+03  0.20532828221E+03  0.47000000000E+01 0.  1.
          5   -1    0    0  501    0  0.00000000000E+00 -0.00000000000E+00 -0.12029514084E+04  0.12029605900E+04  0.47000000000E+01 0. -1.
          6    1    1    2  502    0 -0.12316007660E+03 -0.20952713508E+02 -0.11353101165E+04  0.11550413332E+04  0.17200000000E+03 0. -1.
         -6    1    1    2    0  502  0.12316007660E+03  0.20952713508E+02  0.13763319133E+03  0.25324753903E+03  0.17200000000E+03 0.  1.
</event>
<event>
 4    1 -0.6901648E-004  0.2561459E+03  0.7818608E-02  0.1109481E+00
         -5   -1    0    0    0  501 -0.00000000000E+00  0.00000000000E+00  0.11605611877E+03  0.11615124925E+03  0.47000000000E+01 0.  1.
          5   -1    0    0  501    0  0.00000000000E+00 -0.00000000000E+00 -0.61871791144E+03  0.61873576261E+03  0.47000000000E+01 0. -1.
          6    1    1    2  502    0 -0.95960978144E+02  0.16376269095E+03 -0.35959014459E+03  0.44149269570E+03  0.17200000000E+03 0. -1.
         -6    1    1    2    0  502  0.95960978144E+02 -0.16376269095E+03 -0.14307164809E+03  0.29339431617E+03  0.17200000000E+03 0.  1.
</event>
<event>
 4    1 -0.6901648E-004  0.1837812E+03  0.7818608E-02  0.1164193E+00
          5   -1    0    0  501    0  0.00000000000E+00  0.00000000000E+00  0.17568887366E+04  0.17568950233E+04  0.47000000000E+01 0. -1.
         -5   -1    0    0    0  501 -0.00000000000E+00 -0.00000000000E+00 -0.30163974751E+02  0.30527944129E+02  0.47000000000E+01 0.  1.
          6    1    1    2  502    0 -0.55123033005E+02  0.33955682565E+02  0.14044949203E+04  0.14164679729E+04  0.17200000000E+03 0. -1.
         -6    1    1    2    0  502  0.55123033005E+02 -0.33955682565E+02  0.32222984153E+03  0.37095499447E+03  0.17200000000E+03 0.  1.
</event>
<event>
 4    1 -0.6901648E-004  0.2682614E+03  0.7818608E-02  0.1102279E+00
          5   -1    0    0  501    0  0.00000000000E+00  0.00000000000E+00  0.45409870937E+03  0.45412303163E+03  0.47000000000E+01 0. -1.
         -5   -1    0    0    0  501 -0.00000000000E+00 -0.00000000000E+00 -0.45450308689E+03  0.45452738751E+03  0.47000000000E+01 0.  1.
          6    1    1    2  502    0 -0.18056175504E+03  0.98881801053E+02  0.36646826797E+03  0.45416202988E+03  0.17200000000E+03 0. -1.
         -6    1    1    2    0  502  0.18056175504E+03 -0.98881801053E+02 -0.36687264548E+03  0.45448838925E+03  0.17200000000E+03 0.  1.
</event>
<event>
 4    1 -0.6901648E-004  0.1952546E+03  0.7818608E-02  0.1153806E+00
         -5   -1    0    0    0  501 -0.00000000000E+00  0.00000000000E+00  0.13391696137E+03  0.13399941247E+03  0.47000000000E+01 0.  1.
          5   -1    0    0  501    0  0.00000000000E+00 -0.00000000000E+00 -0.18566467125E+04  0.18566526614E+04  0.47000000000E+01 0. -1.
          6    1    1    2  502    0  0.85013845176E+02 -0.36235454245E+02 -0.17772381849E+04  0.17879317459E+04  0.17200000000E+03 0. -1.
         -6    1    1    2    0  502 -0.85013845176E+02  0.36235454245E+02  0.54508433792E+02  0.20272032797E+03  0.17200000000E+03 0.  1.
</event>
<event>
 4    1 -0.6901648E-004  0.1858425E+03  0.7818608E-02  0.1162265E+00
         -5   -1    0    0    0  501 -0.00000000000E+00  0.00000000000E+00  0.12121788723E+03  0.12130896993E+03  0.47000000000E+01 0.  1.
          5   -1    0    0  501    0  0.00000000000E+00 -0.00000000000E+00 -0.58014244158E+03  0.58016147969E+03  0.47000000000E+01 0. -1.
          6    1    1    2  502    0  0.67717713125E+02 -0.19176932925E+02 -0.47972806618E+03  0.51446716213E+03  0.17200000000E+03 0. -1.
         -6    1    1    2    0  502 -0.67717713125E+02  0.19176932925E+02  0.20803511842E+02  0.18700328749E+03  0.17200000000E+03 0.  1.
</event>
<event>
 4    1 -0.6901648E-004  0.1809615E+03  0.7818608E-02  0.1166876E+00
          5   -1    0    0  501    0  0.00000000000E+00  0.00000000000E+00  0.19112337440E+04  0.19112395230E+04  0.47000000000E+01 0. -1.
         -5   -1    0    0    0  501 -0.00000000000E+00 -0.00000000000E+00 -0.37313576081E+02  0.37608416078E+02  0.47000000000E+01 0.  1.
          6    1    1    2  502    0 -0.56206462283E+02 -0.19746705375E+01  0.16547931866E+04  0.16646583902E+04  0.17200000000E+03 0. -1.
         -6    1    1    2    0  502  0.56206462283E+02  0.19746705375E+01  0.21912698133E+03  0.28418954884E+03  0.17200000000E+03 0.  1.
</event>
<event>
 4    1 -0.6901648E-004  0.1881023E+03  0.7818608E-02  0.1160184E+00
          5   -1    0    0  501    0  0.00000000000E+00  0.00000000000E+00  0.31878726883E+03  0.31882191388E+03  0.47000000000E+01 0. -1.
         -5   -1    0    0    0  501 -0.00000000000E+00 -0.00000000000E+00 -0.11580374272E+03  0.11589908036E+03  0.47000000000E+01 0.  1.
          6    1    1    2  502    0 -0.21994833011E+02 -0.72902080647E+02  0.14619261149E+03  0.23823258739E+03  0.17200000000E+03 0. -1.
         -6    1    1    2    0  502  0.21994833011E+02  0.72902080647E+02  0.56790914625E+02  0.19648840685E+03  0.17200000000E+03 0. -1.
</event>
<event>
 4    1 -0.6901648E-004  0.3318180E+03  0.7818608E-02  0.1070335E+00
          5   -1    0    0  501    0  0.00000000000E+00  0.00000000000E+00  0.96718707522E+03  0.96719849487E+03  0.47000000000E+01 0. -1.
         -5   -1    0    0    0  501 -0.00000000000E+00 -0.00000000000E+00 -0.37242361129E+03  0.37245326720E+03  0.47000000000E+01 0.  1.
          6    1    1    2  502    0 -0.25522255643E+03  0.12401873275E+03  0.85553351391E+03  0.91762780735E+03  0.17200000000E+03 0. -1.
         -6    1    1    2    0  502  0.25522255643E+03 -0.12401873275E+03 -0.26077004999E+03  0.42202395472E+03  0.17200000000E+03 0.  1.
</event>
<event>
 4    1 -0.6901648E-004  0.2194200E+03  0.7818608E-02  0.1134316E+00
          5   -1    0    0  501    0  0.00000000000E+00  0.00000000000E+00  0.17087270675E+03  0.17093733329E+03  0.47000000000E+01 0. -1.
         -5   -1    0    0    0  501 -0.00000000000E+00 -0.00000000000E+00 -0.73702980662E+03  0.73704479229E+03  0.47000000000E+01 0.  1.
          6    1    1    2  502    0  0.13621506622E+03 -0.25634525092E+01  0.73764870859E+02  0.23148730360E+03  0.17200000000E+03 0. -1.
         -6    1    1    2    0  502 -0.13621506622E+03  0.25634525092E+01 -0.63992197072E+03  0.67649482198E+03  0.17200000000E+03 0.  1.
</event>
<event>
 4    1 -0.6901648E-004  0.1963672E+03  0.7818608E-02  0.1152841E+00
          5   -1    0    0  501    0  0.00000000000E+00  0.00000000000E+00  0.35752620382E+03  0.35755709532E+03  0.47000000000E+01 0. -1.
         -5   -1    0    0    0  501 -0.00000000000E+00 -0.00000000000E+00 -0.66104328395E+03  0.66105999217E+03  0.47000000000E+01 0.  1.
          6    1    1    2  502    0  0.92199712421E+02  0.21801135955E+02  0.31415769444E+03  0.37047959927E+03  0.17200000000E+03 0. -1.
         -6    1    1    2    0  502 -0.92199712421E+02 -0.21801135955E+02 -0.61767477457E+03  0.64813748822E+03  0.17200000000E+03 0.  1.
</event>
<event>
 4    1 -0.6901648E-004  0.2318779E+03  0.7818608E-02  0.1125325E+00
         -5   -1    0    0    0  501 -0.00000000000E+00  0.00000000000E+00  0.22812256858E+03  0.22817098040E+03  0.47000000000E+01 0.  1.
          5   -1    0    0  501    0  0.00000000000E+00 -0.00000000000E+00 -0.53712673028E+03  0.53714729301E+03  0.47000000000E+01 0. -1.
          6    1    1    2  502    0  0.97414101723E+02 -0.12121826931E+03 -0.44118687811E+03  0.49841071161E+03  0.17200000000E+03 0. -1.
         -6    1    1    2    0  502 -0.97414101723E+02  0.12121826931E+03  0.13218271641E+03  0.26690756180E+03  0.17200000000E+03 0.  1.
</event>
<event>
 4    1 -0.6901648E-004  0.1826743E+03  0.7818608E-02  0.1165240E+00
         -5   -1    0    0    0  501 -0.00000000000E+00  0.00000000000E+00  0.38629825384E+03  0.38632684468E+03  0.47000000000E+01 0.  1.
          5   -1    0    0  501    0  0.00000000000E+00 -0.00000000000E+00 -0.16378942854E+03  0.16385684880E+03  0.47000000000E+01 0. -1.
          6    1    1    2  502    0 -0.42155876285E+02 -0.44819633138E+02 -0.77902446576E+02  0.19859181404E+03  0.17200000000E+03 0. -1.
         -6    1    1    2    0  502  0.42155876285E+02  0.44819633138E+02  0.30041127188E+03  0.35159187945E+03  0.17200000000E+03 0.  1.
</event>
<event>
 4    1 -0.6901648E-004  0.1866714E+03  0.7818608E-02  0.1161498E+00
         -5   -1    0    0    0  501 -0.00000000000E+00  0.00000000000E+00  0.10016812243E+04  0.10016922507E+04  0.47000000000E+01 0.  1.
          5   -1    0    0  501    0  0.00000000000E+00 -0.00000000000E+00 -0.73934437621E+02  0.74083676112E+02  0.47000000000E+01 0. -1.
          6    1    1    2  502    0  0.42866303137E+02 -0.58520729976E+02  0.72275458071E+02  0.20017476769E+03  0.17200000000E+03 0. -1.
         -6    1    1    2    0  502 -0.42866303137E+02  0.58520729976E+02  0.85547132857E+03  0.87560115908E+03  0.17200000000E+03 0.  1.
</event>
<event>
 4    1 -0.6901648E-004  0.1869714E+03  0.7818608E-02  0.1161222E+00
          5   -1    0    0  501    0  0.00000000000E+00  0.00000000000E+00  0.12327974515E+04  0.12328064107E+04  0.47000000000E+01 0. -1.
         -5   -1    0    0    0  501 -0.00000000000E+00 -0.00000000000E+00 -0.45445055258E+02  0.45687449561E+02  0.47000000000E+01 0.  1.
          6    1    1    2  502    0  0.60658557616E+02 -0.41168632012E+02  0.98659323514E+03  0.10041536379E+04  0.17200000000E+03 0. -1.
         -6    1    1    2    0  502 -0.60658557616E+02  0.41168632012E+02  0.20075916108E+03  0.27434022241E+03  0.17200000000E+03 0.  1.
</event>
<event>
 4    1 -0.6901648E-004  0.1724345E+03  0.7818608E-02  0.1175333E+00
         -5   -1    0    0    0  501 -0.00000000000E+00  0.00000000000E+00  0.73749454810E+03  0.73750952433E+03  0.47000000000E+01 0.  1.
          5   -1    0    0  501    0  0.00000000000E+00 -0.00000000000E+00 -0.66057118087E+02  0.66224110791E+02  0.47000000000E+01 0. -1.
          6    1    1    2  502    0 -0.12143246675E+01  0.12173181527E+02  0.84567279377E+02  0.19205542344E+03  0.17200000000E+03 0. -1.
         -6    1    1    2    0  502  0.12143246675E+01 -0.12173181527E+02  0.58687015063E+03  0.61167821167E+03  0.17200000000E+03 0.  1.
</event>
<event>
 4    1 -0.6901648E-004  0.2489007E+03  0.7818608E-02  0.1114002E+00
         -5   -1    0    0    0  501 -0.00000000000E+00  0.00000000000E+00  0.16417910850E+03  0.16424636881E+03  0.47000000000E+01 0.  1.
          5   -1    0    0  501    0  0.00000000000E+00 -0.00000000000E+00 -0.44012969196E+03  0.44015478612E+03  0.47000000000E+01 0. -1.
          6    1    1    2  502    0  0.15496227940E+03 -0.91401692900E+02 -0.25224929810E+03  0.35437449950E+03  0.17200000000E+03 0. -1.
         -6    1    1    2    0  502 -0.15496227940E+03  0.91401692900E+02 -0.23701285356E+02  0.25002665544E+03  0.17200000000E+03 0.  1.
</event>
<event>
 4    1 -0.6901648E-004  0.2127034E+03  0.7818608E-02  0.1139443E+00
          5   -1    0    0  501    0  0.00000000000E+00  0.00000000000E+00  0.97137105170E+03  0.97138242216E+03  0.47000000000E+01 0. -1.
         -5   -1    0    0    0  501 -0.00000000000E+00 -0.00000000000E+00 -0.77322154968E+03  0.77323583394E+03  0.47000000000E+01 0.  1.
          6    1    1    2  502    0 -0.47378943182E+01  0.12504522729E+03  0.94470422417E+03  0.96835366869E+03  0.17200000000E+03 0. -1.
         -6    1    1    2    0  502  0.47378943182E+01 -0.12504522729E+03 -0.74655472214E+03  0.77626458741E+03  0.17200000000E+03 0.  1.
</event>
<event>
 4    1 -0.6901648E-004  0.1820040E+03  0.7818608E-02  0.1165878E+00
         -5   -1    0    0    0  501 -0.00000000000E+00  0.00000000000E+00  0.26930532616E+03  0.26934633596E+03  0.47000000000E+01 0.  1.
          5   -1    0    0  501    0  0.00000000000E+00 -0.00000000000E+00 -0.40043232642E+03  0.40045990816E+03  0.47000000000E+01 0. -1.
          6    1    1    2  502    0  0.19056265673E+02 -0.56376439352E+02 -0.34433673913E+03  0.38947815612E+03  0.17200000000E+03 0. -1.
         -6    1    1    2    0  502 -0.19056265673E+02  0.56376439352E+02  0.21320973887E+03  0.28032808801E+03  0.17200000000E+03 0.  1.
</event>
<event>
 4    1 -0.6901648E-004  0.1726267E+03  0.7818608E-02  0.1175136E+00
         -5   -1    0    0    0  501 -0.00000000000E+00  0.00000000000E+00  0.74811698943E+02  0.74959190889E+02  0.47000000000E+01 0.  1.
          5   -1    0    0  501    0  0.00000000000E+00 -0.00000000000E+00 -0.46331679850E+03  0.46334063687E+03  0.47000000000E+01 0. -1.
          6    1    1    2  502    0 -0.85114597361E+01  0.11980567995E+02 -0.29546136452E+03  0.34219496911E+03  0.17200000000E+03 0. -1.
         -6    1    1    2    0  502  0.85114597361E+01 -0.11980567995E+02 -0.93043735032E+02  0.19610485865E+03  0.17200000000E+03 0.  1.
</event>
<event>
 4    1 -0.6901648E-004  0.1998625E+03  0.7818608E-02  0.1149855E+00
          5   -1    0    0  501    0  0.00000000000E+00  0.00000000000E+00  0.29766963054E+03  0.29770673313E+03  0.47000000000E+01 0. -1.
         -5   -1    0    0    0  501 -0.00000000000E+00 -0.00000000000E+00 -0.22635799625E+03  0.22640678538E+03  0.47000000000E+01 0.  1.
          6    1    1    2  502    0 -0.96778695897E+02 -0.31542240662E+02  0.20291393237E+03  0.28481413742E+03  0.17200000000E+03 0. -1.
         -6    1    1    2    0  502  0.96778695897E+02  0.31542240662E+02 -0.13160229808E+03  0.23929938108E+03  0.17200000000E+03 0.  1.
</event>
<event>
 4    1 -0.6901648E-004  0.2273169E+03  0.7818608E-02  0.1128543E+00
          5   -1    0    0  501    0  0.00000000000E+00  0.00000000000E+00  0.62468185064E+03  0.62469953139E+03  0.47000000000E+01 0. -1.
         -5   -1    0    0    0  501 -0.00000000000E+00 -0.00000000000E+00 -0.12343608874E+03  0.12352553584E+03  0.47000000000E+01 0.  1.
          6    1    1    2  502    0 -0.71773993697E+02 -0.13014409053E+03  0.46560342200E+03  0.51813081075E+03  0.17200000000E+03 0. -1.
         -6    1    1    2    0  502  0.71773993697E+02  0.13014409053E+03  0.35642339903E+02  0.23009425648E+03  0.17200000000E+03 0.  1.
</event>
<event>
 4    1 -0.6901648E-004  0.1777824E+03  0.7818608E-02  0.1169967E+00
          5   -1    0    0  501    0  0.00000000000E+00  0.00000000000E+00  0.20092263122E+03  0.20097759511E+03  0.47000000000E+01 0. -1.
         -5   -1    0    0    0  501 -0.00000000000E+00 -0.00000000000E+00 -0.18844055696E+03  0.18849916049E+03  0.47000000000E+01 0.  1.
          6    1    1    2  502    0  0.10205942177E+00 -0.44973145421E+02  0.85512376380E+02  0.19727889076E+03  0.17200000000E+03 0. -1.
         -6    1    1    2    0  502 -0.10205942177E+00  0.44973145421E+02 -0.73030302112E+02  0.19219786485E+03  0.17200000000E+03 0.  1.
</event>
<event>
 4    1 -0.6901648E-004  0.3325837E+03  0.7818608E-02  0.1069999E+00
         -5   -1    0    0    0  501 -0.00000000000E+00  0.00000000000E+00  0.25562209968E+03  0.25566530435E+03  0.47000000000E+01 0.  1.
          5   -1    0    0  501    0  0.00000000000E+00 -0.00000000000E+00 -0.10399358383E+04  0.10399464591E+04  0.47000000000E+01 0. -1.
          6    1    1    2  502    0  0.33356569103E+02  0.28269284060E+03 -0.88719049650E+03  0.94748027943E+03  0.17200000000E+03 0. -1.
         -6    1    1    2    0  502 -0.33356569103E+02 -0.28269284060E+03  0.10287675791E+03  0.34813148399E+03  0.17200000000E+03 0.  1.
</event>
<event>
 4    1 -0.6901648E-004  0.3313692E+03  0.7818608E-02  0.1070533E+00
          5   -1    0    0  501    0  0.00000000000E+00  0.00000000000E+00  0.22550695539E+03  0.22555592860E+03  0.47000000000E+01 0. -1.
         -5   -1    0    0    0  501 -0.00000000000E+00 -0.00000000000E+00 -0.12783537166E+04  0.12783623566E+04  0.47000000000E+01 0.  1.
          6    1    1    2  502    0 -0.81166793370E+02 -0.27135492667E+03  0.65266315563E+02  0.33773545346E+03  0.17200000000E+03 0. -1.
         -6    1    1    2    0  502  0.81166793370E+02  0.27135492667E+03 -0.11181130768E+04  0.11661828317E+04  0.17200000000E+03 0.  1.
</event>
<event>
 4    1 -0.6901648E-004  0.1734353E+03  0.7818608E-02  0.1174312E+00
          5   -1    0    0  501    0  0.00000000000E+00  0.00000000000E+00  0.51425705310E+03  0.51427853024E+03  0.47000000000E+01 0. -1.
         -5   -1    0    0    0  501 -0.00000000000E+00 -0.00000000000E+00 -0.13909259946E+03  0.13917198434E+03  0.47000000000E+01 0.  1.
          6    1    1    2  502    0  0.20888129608E+02 -0.77131380245E+01  0.43633790042E+03  0.46954293712E+03  0.17200000000E+03 0. -1.
         -6    1    1    2    0  502 -0.20888129608E+02  0.77131380245E+01 -0.61173446776E+02  0.18390757746E+03  0.17200000000E+03 0.  1.
</event>
<event>
 4    1 -0.6901648E-004  0.1779163E+03  0.7818608E-02  0.1169835E+00
         -5   -1    0    0    0  501 -0.00000000000E+00  0.00000000000E+00  0.21051608569E+03  0.21056854545E+03  0.47000000000E+01 0.  1.
          5   -1    0    0  501    0  0.00000000000E+00 -0.00000000000E+00 -0.22335256021E+03  0.22340200570E+03  0.47000000000E+01 0. -1.
          6    1    1    2  502    0 -0.30440034142E+02 -0.33817112093E+02 -0.13051778504E+03  0.22065603314E+03  0.17200000000E+03 0. -1.
         -6    1    1    2    0  502  0.30440034142E+02  0.33817112093E+02  0.11768131052E+03  0.21331451801E+03  0.17200000000E+03 0.  1.
</event>
<event>
 4    1 -0.6901648E-004  0.1914770E+03  0.7818608E-02  0.1157136E+00
          5   -1    0    0  501    0  0.00000000000E+00  0.00000000000E+00  0.95425216656E+02  0.95540891632E+02  0.47000000000E+01 0. -1.
         -5   -1    0    0    0  501 -0.00000000000E+00 -0.00000000000E+00 -0.38617426955E+03  0.38620286956E+03  0.47000000000E+01 0.  1.
          6    1    1    2  502    0 -0.66491173162E+02 -0.51559348592E+02 -0.16406415197E+03  0.25215171722E+03  0.17200000000E+03 0. -1.
         -6    1    1    2    0  502  0.66491173162E+02  0.51559348592E+02 -0.12668490092E+03  0.22959204398E+03  0.17200000000E+03 0.  1.
</event>
<event>
 4    1 -0.6901648E-004  0.1807034E+03  0.7818608E-02  0.1167124E+00
         -5   -1    0    0    0  501 -0.00000000000E+00  0.00000000000E+00  0.22984045814E+03  0.22988850819E+03  0.47000000000E+01 0.  1.
          5   -1    0    0  501    0  0.00000000000E+00 -0.00000000000E+00 -0.97990995027E+03  0.97992122165E+03  0.47000000000E+01 0. -1.
          6    1    1    2  502    0 -0.53462423754E+02 -0.14542819546E+02 -0.93438013696E+03  0.95169320934E+03  0.17200000000E+03 0. -1.
         -6    1    1    2    0  502  0.53462423754E+02  0.14542819546E+02  0.18431064484E+03  0.25811652050E+03  0.17200000000E+03 0.  1.
</event>
<event>
 4    1 -0.6901648E-004  0.1760747E+03  0.7818608E-02  0.1171657E+00
          5   -1    0    0  501    0  0.00000000000E+00  0.00000000000E+00  0.95064949915E+03  0.95066111745E+03  0.47000000000E+01 0. -1.
         -5   -1    0    0    0  501 -0.00000000000E+00 -0.00000000000E+00 -0.28403416891E+03  0.28407305242E+03  0.47000000000E+01 0.  1.
          6    1    1    2  502    0  0.18136028236E+02  0.33005860844E+02  0.91415696037E+03  0.93095931735E+03  0.17200000000E+03 0. -1.
         -6    1    1    2    0  502 -0.18136028236E+02 -0.33005860844E+02 -0.24754163013E+03  0.30377485251E+03  0.17200000000E+03 0.  1.
</event>
<event>
 4    1 -0.6901648E-004  0.1796399E+03  0.7818608E-02  0.1168152E+00
         -5   -1    0    0    0  501 -0.00000000000E+00  0.00000000000E+00  0.47900516073E+03  0.47902821839E+03  0.47000000000E+01 0.  1.
          5   -1    0    0  501    0  0.00000000000E+00 -0.00000000000E+00 -0.26977842765E+03  0.26981936555E+03  0.47000000000E+01 0. -1.
          6    1    1    2  502    0  0.40324405244E+02  0.32564278699E+02 -0.21971707850E+03  0.28380642081E+03  0.17200000000E+03 0. -1.
         -6    1    1    2    0  502 -0.40324405244E+02 -0.32564278699E+02  0.42894381159E+03  0.46504116313E+03  0.17200000000E+03 0.  1.
</event>
<event>
 4    1 -0.6901648E-004  0.1810866E+03  0.7818608E-02  0.1166756E+00
         -5   -1    0    0    0  501 -0.00000000000E+00  0.00000000000E+00  0.52792848682E+03  0.52794940780E+03  0.47000000000E+01 0.  1.
          5   -1    0    0  501    0  0.00000000000E+00 -0.00000000000E+00 -0.63085589860E+02  0.63260427188E+02  0.47000000000E+01 0. -1.
          6    1    1    2  502    0 -0.27152995351E+02 -0.49710019289E+02  0.27106552305E+03  0.32598909331E+03  0.17200000000E+03 0.  1.
         -6    1    1    2    0  502  0.27152995351E+02  0.49710019289E+02  0.19377737392E+03  0.26522074168E+03  0.17200000000E+03 0. -1.
</event>
<event>
 4    1 -0.6901648E-004  0.1792109E+03  0.7818608E-02  0.1168569E+00
          5   -1    0    0  501    0  0.00000000000E+00  0.00000000000E+00  0.13177204210E+02  0.13990307745E+02  0.47000000000E+01 0. -1.
         -5   -1    0    0    0  501 -0.00000000000E+00 -0.00000000000E+00 -0.36293154841E+04  0.36293185273E+04  0.47000000000E+01 0.  1.
          6    1    1    2  502    0  0.48755383170E+02  0.12468787523E+02 -0.73238069878E+03  0.75398809407E+03  0.17200000000E+03 0. -1.
         -6    1    1    2    0  502 -0.48755383170E+02 -0.12468787523E+02 -0.28837575811E+04  0.28893207410E+04  0.17200000000E+03 0.  1.
</event>
<event>
 4    1 -0.6901648E-004  0.1923237E+03  0.7818608E-02  0.1156382E+00
         -5   -1    0    0    0  501 -0.00000000000E+00  0.00000000000E+00  0.19134716068E+04  0.19134773790E+04  0.47000000000E+01 0.  1.
          5   -1    0    0  501    0  0.00000000000E+00 -0.00000000000E+00 -0.27270313220E+02  0.27672368585E+02  0.47000000000E+01 0. -1.
          6    1    1    2  502    0 -0.85668723561E+02 -0.80782712213E+01  0.41461589235E+03  0.45705002664E+03  0.17200000000E+03 0. -1.
         -6    1    1    2    0  502  0.85668723561E+02  0.80782712213E+01  0.14715854013E+04  0.14840997210E+04  0.17200000000E+03 0.  1.
</event>
<event>
 4    1 -0.6901648E-004  0.2833343E+03  0.7818608E-02  0.1093882E+00
          5   -1    0    0  501    0  0.00000000000E+00  0.00000000000E+00  0.10541421144E+04  0.10541525921E+04  0.47000000000E+01 0. -1.
         -5   -1    0    0    0  501 -0.00000000000E+00 -0.00000000000E+00 -0.10554100914E+03  0.10564560857E+03  0.47000000000E+01 0.  1.
          6    1    1    2  502    0  0.15919991716E+03 -0.15921597531E+03  0.78053084614E+03  0.83036542690E+03  0.17200000000E+03 0. -1.
         -6    1    1    2    0  502 -0.15919991716E+03  0.15921597531E+03  0.16807025913E+03  0.32943277375E+03  0.17200000000E+03 0.  1.
</event>
<event>
 4    1 -0.6901648E-004  0.5059402E+03  0.7818608E-02  0.1012240E+00
         -5   -1    0    0    0  501 -0.00000000000E+00  0.00000000000E+00  0.33505106748E+03  0.33508403098E+03  0.47000000000E+01 0.  1.
          5   -1    0    0  501    0  0.00000000000E+00 -0.00000000000E+00 -0.14271944509E+04  0.14272021899E+04  0.47000000000E+01 0. -1.
          6    1    1    2  502    0 -0.33421445737E+03 -0.33866234964E+03 -0.11467577072E+04  0.12534068492E+04  0.17200000000E+03 0. -1.
         -6    1    1    2    0  502  0.33421445737E+03  0.33866234964E+03  0.54614323716E+02  0.50887937169E+03  0.17200000000E+03 0.  1.
</event>
<event>
 4    1 -0.6901648E-004  0.1741988E+03  0.7818608E-02  0.1173539E+00
          5   -1    0    0  501    0  0.00000000000E+00  0.00000000000E+00  0.71415678010E+03  0.71417224572E+03  0.47000000000E+01 0. -1.
         -5   -1    0    0    0  501 -0.00000000000E+00 -0.00000000000E+00 -0.57947470187E+02  0.58137761404E+02  0.47000000000E+01 0.  1.
          6    1    1    2  502    0 -0.27524458290E+02 -0.19087591673E+01  0.52806334652E+03  0.55605407750E+03  0.17200000000E+03 0. -1.
         -6    1    1    2    0  502  0.27524458290E+02  0.19087591673E+01  0.12814596339E+03  0.21625592963E+03  0.17200000000E+03 0.  1.
</event>
<event>
 4    1 -0.6901648E-004  0.3428454E+03  0.7818608E-02  0.1065590E+00
         -5   -1    0    0    0  501 -0.00000000000E+00  0.00000000000E+00  0.11907356624E+04  0.11907449382E+04  0.47000000000E+01 0.  1.
          5   -1    0    0  501    0  0.00000000000E+00 -0.00000000000E+00 -0.39810576686E+03  0.39813350977E+03  0.47000000000E+01 0. -1.
          6    1    1    2  502    0 -0.57149945614E+02 -0.29102035151E+03 -0.29263139235E+03  0.45075058854E+03  0.17200000000E+03 0. -1.
         -6    1    1    2    0  502  0.57149945614E+02  0.29102035151E+03  0.10852612879E+04  0.11381278594E+04  0.17200000000E+03 0.  1.
</event>
<event>
 4    1 -0.6901648E-004  0.2711771E+03  0.7818608E-02  0.1100608E+00
         -5   -1    0    0    0  501 -0.00000000000E+00  0.00000000000E+00  0.26937383540E+03  0.26941483478E+03  0.47000000000E+01 0.  1.
          5   -1    0    0  501    0  0.00000000000E+00 -0.00000000000E+00 -0.35552518003E+03  0.35555624539E+03  0.47000000000E+01 0. -1.
          6    1    1    2  502    0 -0.20527796061E+03 -0.42590546576E+02 -0.19369367800E+03  0.33324801074E+03  0.17200000000E+03 0. -1.
         -6    1    1    2    0  502  0.20527796061E+03  0.42590546576E+02  0.10754233337E+03  0.29172306943E+03  0.17200000000E+03 0.  1.
</event>
<event>
 4    1 -0.6901648E-004  0.1795005E+03  0.7818608E-02  0.1168287E+00
          5   -1    0    0  501    0  0.00000000000E+00  0.00000000000E+00  0.11647978910E+04  0.11648073733E+04  0.47000000000E+01 0. -1.
         -5   -1    0    0    0  501 -0.00000000000E+00 -0.00000000000E+00 -0.63547367867E+02  0.63720938182E+02  0.47000000000E+01 0.  1.
          6    1    1    2  502    0  0.45678382267E+02 -0.23449992900E+02  0.10124954870E+04  0.10282837779E+04  0.17200000000E+03 0. -1.
         -6    1    1    2    0  502 -0.45678382267E+02  0.23449992900E+02  0.88755036136E+02  0.20024453354E+03  0.17200000000E+03 0.  1.
</event>
<event>
 4    1 -0.6901648E-004  0.2245934E+03  0.7818608E-02  0.1130504E+00
         -5   -1    0    0    0  501 -0.00000000000E+00  0.00000000000E+00  0.75444757499E+02  0.75591014241E+02  0.47000000000E+01 0.  1.
          5   -1    0    0  501    0  0.00000000000E+00 -0.00000000000E+00 -0.11847413186E+04  0.11847506413E+04  0.47000000000E+01 0. -1.
          6    1    1    2  502    0 -0.14307684090E+03  0.19677940825E+02 -0.97088433878E+03  0.99652325766E+03  0.17200000000E+03 0. -1.
         -6    1    1    2    0  502  0.14307684090E+03 -0.19677940825E+02 -0.13841222230E+03  0.26381839784E+03  0.17200000000E+03 0.  1.
</event>
<event>
 4    1 -0.6901648E-004  0.1772362E+03  0.7818608E-02  0.1170505E+00
         -5   -1    0    0    0  501 -0.00000000000E+00  0.00000000000E+00  0.17524815698E+03  0.17531117057E+03  0.47000000000E+01 0.  1.
          5   -1    0    0  501    0  0.00000000000E+00 -0.00000000000E+00 -0.39504187116E+03  0.39506982923E+03  0.47000000000E+01 0. -1.
          6    1    1    2  502    0 -0.35299566920E+02  0.24137687639E+02 -0.32071195523E+03  0.36642713548E+03  0.17200000000E+03 0. -1.
         -6    1    1    2    0  502  0.35299566920E+02 -0.24137687639E+02  0.10091824106E+03  0.20395386431E+03  0.17200000000E+03 0.  1.
</event>
<event>
 4    1 -0.6901648E-004  0.2549983E+03  0.7818608E-02  0.1110186E+00
         -5   -1    0    0    0  501 -0.00000000000E+00  0.00000000000E+00  0.25122310138E+03  0.25126706244E+03  0.47000000000E+01 0.  1.
          5   -1    0    0  501    0  0.00000000000E+00 -0.00000000000E+00 -0.14952073920E+04  0.14952147789E+04  0.47000000000E+01 0. -1.
          6    1    1    2  502    0  0.18722656146E+03  0.19656080014E+02 -0.14160721572E+04  0.14388483246E+04  0.17200000000E+03 0. -1.
         -6    1    1    2    0  502 -0.18722656146E+03 -0.19656080014E+02  0.17208786660E+03  0.30763351675E+03  0.17200000000E+03 0.  1.
</event>
<event>
 4    1 -0.6901648E-004  0.1911463E+03  0.7818608E-02  0.1157432E+00
         -5   -1    0    0    0  501 -0.00000000000E+00  0.00000000000E+00  0.27397787278E+03  0.27401818329E+03  0.47000000000E+01 0.  1.
          5   -1    0    0  501    0  0.00000000000E+00 -0.00000000000E+00 -0.32552019978E+03  0.32555412832E+03  0.47000000000E+01 0. -1.
          6    1    1    2  502    0 -0.69679859974E+02 -0.45799632611E+02 -0.25612487383E+03  0.31958854833E+03  0.17200000000E+03 0. -1.
         -6    1    1    2    0  502  0.69679859974E+02  0.45799632611E+02  0.20458254682E+03  0.27998376327E+03  0.17200000000E+03 0.  1.
</event>
<event>
 4    1 -0.6901648E-004  0.2074708E+03  0.7818608E-02  0.1143585E+00
         -5   -1    0    0    0  501 -0.00000000000E+00  0.00000000000E+00  0.20740147184E+03  0.20745471921E+03  0.47000000000E+01 0.  1.
          5   -1    0    0  501    0  0.00000000000E+00 -0.00000000000E+00 -0.14099666432E+04  0.14099744767E+04  0.47000000000E+01 0. -1.
          6    1    1    2  502    0 -0.38504243263E+02 -0.10944211328E+03 -0.13481206485E+04  0.13639917287E+04  0.17200000000E+03 0. -1.
         -6    1    1    2    0  502  0.38504243263E+02  0.10944211328E+03  0.14555547711E+03  0.25343746729E+03  0.17200000000E+03 0.  1.
</event>
<event>
 4    1 -0.6901648E-004  0.1780123E+03  0.7818608E-02  0.1169741E+00
          5   -1    0    0  501    0  0.00000000000E+00  0.00000000000E+00  0.97537039983E+02  0.97650213357E+02  0.47000000000E+01 0. -1.
         -5   -1    0    0    0  501 -0.00000000000E+00 -0.00000000000E+00 -0.32746461725E+03  0.32749834435E+03  0.47000000000E+01 0.  1.
          6    1    1    2  502    0  0.36071187158E+02  0.28341358073E+02 -0.13495606412E+03  0.22338644176E+03  0.17200000000E+03 0.  1.
         -6    1    1    2    0  502 -0.36071187158E+02 -0.28341358073E+02 -0.94971513150E+02  0.20176211594E+03  0.17200000000E+03 0.  1.
</event>
<event>
 4    1 -0.6901648E-004  0.1780904E+03  0.7818608E-02  0.1169664E+00
         -5   -1    0    0    0  501 -0.00000000000E+00  0.00000000000E+00  0.28549075287E+03  0.28552943802E+03  0.47000000000E+01 0.  1.
          5   -1    0    0  501    0  0.00000000000E+00 -0.00000000000E+00 -0.17943491408E+03  0.17949645787E+03  0.47000000000E+01 0. -1.
          6    1    1    2  502    0 -0.30993445059E+02  0.34228708578E+02 -0.90519614027E+02  0.19977486992E+03  0.17200000000E+03 0. -1.
         -6    1    1    2    0  502  0.30993445059E+02 -0.34228708578E+02  0.19657545282E+03  0.26525102597E+03  0.17200000000E+03 0.  1.
</event>
<event>
 4    1 -0.6901648E-004  0.1728685E+03  0.7818608E-02  0.1174889E+00
         -5   -1    0    0    0  501 -0.00000000000E+00  0.00000000000E+00  0.17525018866E+04  0.17525081890E+04  0.47000000000E+01 0.  1.
          5   -1    0    0  501    0  0.00000000000E+00 -0.00000000000E+00 -0.12852206926E+03  0.12860797909E+03  0.47000000000E+01 0. -1.
          6    1    1    2  502    0 -0.88501523498E+01 -0.14872204939E+02 -0.63979336447E+02  0.18432813993E+03  0.17200000000E+03 0. -1.
         -6    1    1    2    0  502  0.88501523498E+01  0.14872204939E+02  0.16879591538E+04  0.16967880282E+04  0.17200000000E+03 0.  1.
</event>
<event>
 4    1 -0.6901648E-004  0.1810390E+03  0.7818608E-02  0.1166801E+00
          5   -1    0    0  501    0  0.00000000000E+00  0.00000000000E+00  0.33595551180E+02  0.33922721870E+02  0.47000000000E+01 0. -1.
         -5   -1    0    0    0  501 -0.00000000000E+00 -0.00000000000E+00 -0.10587727479E+04  0.10587831797E+04  0.47000000000E+01 0.  1.
          6    1    1    2  502    0 -0.46386364605E+02  0.32239996896E+02 -0.35487474970E+03  0.39838574297E+03  0.17200000000E+03 0. -1.
         -6    1    1    2    0  502  0.46386364605E+02 -0.32239996896E+02 -0.67030244703E+03  0.69432015865E+03  0.17200000000E+03 0.  1.
</event>
<event>
 4    1 -0.6901648E-004  0.1787952E+03  0.7818608E-02  0.1168974E+00
          5   -1    0    0  501    0  0.00000000000E+00  0.00000000000E+00  0.75445841521E+02  0.75592096166E+02  0.47000000000E+01 0. -1.
         -5   -1    0    0    0  501 -0.00000000000E+00 -0.00000000000E+00 -0.14816860111E+04  0.14816934654E+04  0.47000000000E+01 0.  1.
          6    1    1    2  502    0  0.32071448298E+02 -0.36812331057E+02 -0.45023671829E+02  0.18437694145E+03  0.17200000000E+03 0. -1.
         -6    1    1    2    0  502 -0.32071448298E+02  0.36812331057E+02 -0.13612164977E+04  0.13729086201E+04  0.17200000000E+03 0.  1.
</event>
<event>
 4    1 -0.6901648E-004  0.1953673E+03  0.7818608E-02  0.1153708E+00
         -5   -1    0    0    0  501 -0.00000000000E+00  0.00000000000E+00  0.14279539684E+03  0.14287272433E+03  0.47000000000E+01 0.  1.
          5   -1    0    0  501    0  0.00000000000E+00 -0.00000000000E+00 -0.52029069724E+03  0.52031192533E+03  0.47000000000E+01 0. -1.
          6    1    1    2  502    0  0.79570503632E+02 -0.47464877205E+02 -0.42002843024E+03  0.46324104074E+03  0.17200000000E+03 0. -1.
         -6    1    1    2    0  502 -0.79570503632E+02  0.47464877205E+02  0.42533129833E+02  0.19994360892E+03  0.17200000000E+03 0.  1.
</event>
<event>
 4    1 -0.6901648E-004  0.2151800E+03  0.7818608E-02  0.1137528E+00
          5   -1    0    0  501    0  0.00000000000E+00  0.00000000000E+00  0.22289768971E+03  0.22294723609E+03  0.47000000000E+01 0. -1.
         -5   -1    0    0    0  501 -0.00000000000E+00 -0.00000000000E+00 -0.26180541708E+03  0.26184760151E+03  0.47000000000E+01 0.  1.
          6    1    1    2  502    0 -0.12624720219E+03  0.27929515331E+02  0.90790981172E+02  0.23354960105E+03  0.17200000000E+03 0. -1.
         -6    1    1    2    0  502  0.12624720219E+03 -0.27929515331E+02 -0.12969870855E+03  0.25124523654E+03  0.17200000000E+03 0.  1.
</event>
<event>
 4    1 -0.6901648E-004  0.1804918E+03  0.7818608E-02  0.1167328E+00
          5   -1    0    0  501    0  0.00000000000E+00  0.00000000000E+00  0.32201244415E+03  0.32204674224E+03  0.47000000000E+01 0. -1.
         -5   -1    0    0    0  501 -0.00000000000E+00 -0.00000000000E+00 -0.25469343245E+03  0.25473679462E+03  0.47000000000E+01 0.  1.
          6    1    1    2  502    0 -0.23247616075E+02 -0.49526256561E+02  0.25758495000E+03  0.31452711840E+03  0.17200000000E+03 0. -1.
         -6    1    1    2    0  502  0.23247616075E+02  0.49526256561E+02 -0.19026593831E+03  0.26225641846E+03  0.17200000000E+03 0.  1.
</event>
<event>
 4    1 -0.6901648E-004  0.2090999E+03  0.7818608E-02  0.1142281E+00
         -5   -1    0    0    0  501 -0.00000000000E+00  0.00000000000E+00  0.10765801616E+04  0.10765904209E+04  0.47000000000E+01 0.  1.
          5   -1    0    0  501    0  0.00000000000E+00 -0.00000000000E+00 -0.90330966198E+02  0.90453156132E+02  0.47000000000E+01 0. -1.
          6    1    1    2  502    0  0.94491629243E+02 -0.72180947787E+02  0.60074816422E+02  0.21755859162E+03  0.17200000000E+03 0. -1.
         -6    1    1    2    0  502 -0.94491629243E+02  0.72180947787E+02  0.92617437898E+03  0.94948498540E+03  0.17200000000E+03 0.  1.
</event>
<event>
 4    1 -0.6901648E-004  0.2561938E+03  0.7818608E-02  0.1109452E+00
         -5   -1    0    0    0  501 -0.00000000000E+00  0.00000000000E+00  0.34337869273E+03  0.34341085687E+03  0.47000000000E+01 0.  1.
          5   -1    0    0  501    0  0.00000000000E+00 -0.00000000000E+00 -0.39509538966E+03  0.39512334394E+03  0.47000000000E+01 0. -1.
          6    1    1    2  502    0  0.18985796444E+03 -0.22865641550E+01 -0.29118734671E+03  0.38784706512E+03  0.17200000000E+03 0. -1.
         -6    1    1    2    0  502 -0.18985796444E+03  0.22865641550E+01  0.23947064978E+03  0.35068713570E+03  0.17200000000E+03 0.  1.
</event>
<event>
 4    1 -0.6901648E-004  0.2961208E+03  0.7818608E-02  0.1087196E+00
         -5   -1    0    0    0  501 -0.00000000000E+00  0.00000000000E+00  0.20877428400E+03  0.20882718133E+03  0.47000000000E+01 0.  1.
          5   -1    0    0  501    0  0.00000000000E+00 -0.00000000000E+00 -0.93789993686E+03  0.93791171310E+03  0.47000000000E+01 0. -1.
          6    1    1    2  502    0  0.16275970212E+01  0.24104125671E+03 -0.79065923142E+03  0.84429234080E+03  0.17200000000E+03 0. -1.
         -6    1    1    2    0  502 -0.16275970212E+01 -0.24104125671E+03  0.61533578554E+02  0.30244655362E+03  0.17200000000E+03 0.  1.
</event>
<event>
 4    1 -0.6901648E-004  0.1735924E+03  0.7818608E-02  0.1174152E+00
         -5   -1    0    0    0  501 -0.00000000000E+00  0.00000000000E+00  0.48114454049E+03  0.48116749563E+03  0.47000000000E+01 0.  1.
          5   -1    0    0  501    0  0.00000000000E+00 -0.00000000000E+00 -0.13111334500E+03  0.13119755805E+03  0.47000000000E+01 0. -1.
          6    1    1    2  502    0 -0.22307255267E+02 -0.72606055275E+01 -0.46319870794E+02  0.17966596912E+03  0.17200000000E+03 0. -1.
         -6    1    1    2    0  502  0.22307255267E+02  0.72606055275E+01  0.39635106628E+03  0.43269908455E+03  0.17200000000E+03 0.  1.
</event>
<event>
 4    1 -0.6901648E-004  0.1819198E+03  0.7818608E-02  0.1165958E+00
         -5   -1    0    0    0  501 -0.00000000000E+00  0.00000000000E+00  0.61893613599E+03  0.61895398087E+03  0.47000000000E+01 0.  1.
          5   -1    0    0  501    0  0.00000000000E+00 -0.00000000000E+00 -0.70857472892E+02  0.71013178105E+02  0.47000000000E+01 0. -1.
          6    1    1    2  502    0 -0.42979115264E+02  0.40787389460E+02  0.10279106889E+03  0.20895171531E+03  0.17200000000E+03 0. -1.
         -6    1    1    2    0  502  0.42979115264E+02 -0.40787389460E+02  0.44528759420E+03  0.48101544366E+03  0.17200000000E+03 0.  1.
</event>
<event>
 4    1 -0.6901648E-004  0.1946827E+03  0.7818608E-02  0.1154304E+00
          5   -1    0    0  501    0  0.00000000000E+00  0.00000000000E+00  0.93827749127E+03  0.93828926276E+03  0.47000000000E+01 0. -1.
         -5   -1    0    0    0  501 -0.00000000000E+00 -0.00000000000E+00 -0.59649765306E+02  0.59834642985E+02  0.47000000000E+01 0.  1.
          6    1    1    2  502    0 -0.87912322131E+02  0.24265070404E+02  0.72337987030E+03  0.74911935416E+03  0.17200000000E+03 0. -1.
         -6    1    1    2    0  502  0.87912322131E+02 -0.24265070404E+02  0.15524785566E+03  0.24900455159E+03  0.17200000000E+03 0.  1.
</event>
<event>
 4    1 -0.6901648E-004  0.1848395E+03  0.7818608E-02  0.1163200E+00
          5   -1    0    0  501    0  0.00000000000E+00  0.00000000000E+00  0.19227002866E+03  0.19232746533E+03  0.47000000000E+01 0. -1.
         -5   -1    0    0    0  501 -0.00000000000E+00 -0.00000000000E+00 -0.29975495812E+03  0.29979180262E+03  0.47000000000E+01 0.  1.
          6    1    1    2  502    0  0.61294535070E+02 -0.28716266772E+02  0.10331872912E+03  0.21175552837E+03  0.17200000000E+03 0. -1.
         -6    1    1    2    0  502 -0.61294535070E+02  0.28716266772E+02 -0.21080365858E+03  0.28036373959E+03  0.17200000000E+03 0.  1.
</event>
<event>
 4    1 -0.6901648E-004  0.1739576E+03  0.7818608E-02  0.1173782E+00
          5   -1    0    0  501    0  0.00000000000E+00  0.00000000000E+00  0.37947477371E+03  0.37950387861E+03  0.47000000000E+01 0. -1.
         -5   -1    0    0    0  501 -0.00000000000E+00 -0.00000000000E+00 -0.19956041752E+03  0.19961575649E+03  0.47000000000E+01 0.  1.
          6    1    1    2  502    0  0.23648738010E+02  0.10861286531E+02  0.31434744627E+03  0.35927085511E+03  0.17200000000E+03 0. -1.
         -6    1    1    2    0  502 -0.23648738010E+02 -0.10861286531E+02 -0.13443309008E+03  0.21984877999E+03  0.17200000000E+03 0.  1.
</event>
<event>
 4    1 -0.6901648E-004  0.1845975E+03  0.7818608E-02  0.1163426E+00
          5   -1    0    0  501    0  0.00000000000E+00  0.00000000000E+00  0.58309501570E+03  0.58311395742E+03  0.47000000000E+01 0. -1.
         -5   -1    0    0    0  501 -0.00000000000E+00 -0.00000000000E+00 -0.32060637375E+03  0.32064082224E+03  0.47000000000E+01 0.  1.
          6    1    1    2  502    0  0.31008783436E+02  0.59419577175E+02  0.53987319428E+03  0.57056051099E+03  0.17200000000E+03 0. -1.
         -6    1    1    2    0  502 -0.31008783436E+02 -0.59419577175E+02 -0.27738455233E+03  0.33319426867E+03  0.17200000000E+03 0.  1.
</event>
<event>
 4    1 -0.6901648E-004  0.1839414E+03  0.7818608E-02  0.1164042E+00
          5   -1    0    0  501    0  0.00000000000E+00  0.00000000000E+00  0.13450805644E+03  0.13459014543E+03  0.47000000000E+01 0. -1.
         -5   -1    0    0    0  501 -0.00000000000E+00 -0.00000000000E+00 -0.50136619113E+03  0.50138822045E+03  0.47000000000E+01 0.  1.
          6    1    1    2  502    0 -0.20599353501E+02 -0.61855437776E+02  0.41093140017E+02  0.18847566077E+03  0.17200000000E+03 0. -1.
         -6    1    1    2    0  502  0.20599353501E+02  0.61855437776E+02 -0.40795127471E+03  0.44750270511E+03  0.17200000000E+03 0.  1.
</event>
<event>
 4    1 -0.6901648E-004  0.2050373E+03  0.7818608E-02  0.1145557E+00
          5   -1    0    0  501    0  0.00000000000E+00  0.00000000000E+00  0.10037936564E+03  0.10048933797E+03  0.47000000000E+01 0. -1.
         -5   -1    0    0    0  501 -0.00000000000E+00 -0.00000000000E+00 -0.56964905734E+03  0.56966844614E+03  0.47000000000E+01 0.  1.
          6    1    1    2  502    0  0.16049729220E+02 -0.11044773196E+03 -0.62030968248E+02  0.21421516362E+03  0.17200000000E+03 0. -1.
         -6    1    1    2    0  502 -0.16049729220E+02  0.11044773196E+03 -0.40723872345E+03  0.45594262049E+03  0.17200000000E+03 0.  1.
</event>
<event>
 4    1 -0.6901648E-004  0.1751741E+03  0.7818608E-02  0.1172557E+00
          5   -1    0    0  501    0  0.00000000000E+00  0.00000000000E+00  0.73296109798E+03  0.73297616684E+03  0.47000000000E+01 0. -1.
         -5   -1    0    0    0  501 -0.00000000000E+00 -0.00000000000E+00 -0.56039917011E+02  0.56236663295E+02  0.47000000000E+01 0.  1.
          6    1    1    2  502    0 -0.22922480934E+02 -0.24010805289E+02  0.53751085111E+03  0.56533518727E+03  0.17200000000E+03 0. -1.
         -6    1    1    2    0  502  0.22922480934E+02  0.24010805289E+02  0.13941032986E+03  0.22387764286E+03  0.17200000000E+03 0.  1.
</event>
<event>
 4    1 -0.6901648E-004  0.1859077E+03  0.7818608E-02  0.1162205E+00
         -5   -1    0    0    0  501 -0.00000000000E+00  0.00000000000E+00  0.35847894993E+03  0.35850975934E+03  0.47000000000E+01 0.  1.
          5   -1    0    0  501    0  0.00000000000E+00 -0.00000000000E+00 -0.14367593919E+03  0.14375279302E+03  0.47000000000E+01 0. -1.
          6    1    1    2  502    0 -0.36206092287E+02  0.60554136643E+02 -0.36712384819E+02  0.18949797831E+03  0.17200000000E+03 0. -1.
         -6    1    1    2    0  502  0.36206092287E+02 -0.60554136643E+02  0.25151539556E+03  0.31276457406E+03  0.17200000000E+03 0.  1.
</event>
<event>
 4    1 -0.6901648E-004  0.1730171E+03  0.7818608E-02  0.1174738E+00
          5   -1    0    0  501    0  0.00000000000E+00  0.00000000000E+00  0.37503381969E+03  0.37506326921E+03  0.47000000000E+01 0. -1.
         -5   -1    0    0    0  501 -0.00000000000E+00 -0.00000000000E+00 -0.98328486608E+03  0.98329609878E+03  0.47000000000E+01 0.  1.
          6    1    1    2  502    0 -0.13624683244E+01  0.18683207810E+02  0.34690636406E+03  0.38765828251E+03  0.17200000000E+03 0. -1.
         -6    1    1    2    0  502  0.13624683244E+01 -0.18683207810E+02 -0.95515741046E+03  0.97070108547E+03  0.17200000000E+03 0.  1.
</event>
<event>
 4    1 -0.6901648E-004  0.1860718E+03  0.7818608E-02  0.1162053E+00
          5   -1    0    0  501    0  0.00000000000E+00  0.00000000000E+00  0.12281914938E+03  0.12290904546E+03  0.47000000000E+01 0. -1.
         -5   -1    0    0    0  501 -0.00000000000E+00 -0.00000000000E+00 -0.29712269340E+03  0.29715986427E+03  0.47000000000E+01 0.  1.
          6    1    1    2  502    0  0.70508115879E+02 -0.82043828180E+01 -0.39290047469E+02  0.19017469372E+03  0.17200000000E+03 0.  1.
         -6    1    1    2    0  502 -0.70508115879E+02  0.82043828180E+01 -0.13501349654E+03  0.22989421600E+03  0.17200000000E+03 0.  1.
</event>
<event>
 4    1 -0.6901648E-004  0.2131395E+03  0.7818608E-02  0.1139104E+00
          5   -1    0    0  501    0  0.00000000000E+00  0.00000000000E+00  0.17133520050E+03  0.17139965266E+03  0.47000000000E+01 0. -1.
         -5   -1    0    0    0  501 -0.00000000000E+00 -0.00000000000E+00 -0.76497965569E+03  0.76499409385E+03  0.47000000000E+01 0.  1.
          6    1    1    2  502    0 -0.11830011948E+03 -0.43005921070E+02  0.81663769019E+02  0.22824854586E+03  0.17200000000E+03 0. -1.
         -6    1    1    2    0  502  0.11830011948E+03  0.43005921070E+02 -0.67530822421E+03  0.70814520064E+03  0.17200000000E+03 0.  1.
</event>
<event>
 4    1 -0.6901648E-004  0.1840732E+03  0.7818608E-02  0.1163918E+00
          5   -1    0    0  501    0  0.00000000000E+00  0.00000000000E+00  0.50473197967E+03  0.50475386209E+03  0.47000000000E+01 0. -1.
         -5   -1    0    0    0  501 -0.00000000000E+00 -0.00000000000E+00 -0.20276964785E+03  0.20282411121E+03  0.47000000000E+01 0.  1.
          6    1    1    2  502    0  0.32286064103E+02 -0.57066319796E+02  0.44035787476E+03  0.47728190062E+03  0.17200000000E+03 0. -1.
         -6    1    1    2    0  502 -0.32286064103E+02  0.57066319796E+02 -0.13839554294E+03  0.23029607269E+03  0.17200000000E+03 0.  1.
</event>
<event>
 4    1 -0.6901648E-004  0.1829679E+03  0.7818608E-02  0.1164961E+00
         -5   -1    0    0    0  501 -0.00000000000E+00  0.00000000000E+00  0.78443660835E+03  0.78445068840E+03  0.47000000000E+01 0.  1.
          5   -1    0    0  501    0  0.00000000000E+00 -0.00000000000E+00 -0.23431816786E+03  0.23436529988E+03  0.47000000000E+01 0. -1.
          6    1    1    2  502    0  0.50069041761E+02  0.37233634758E+02 -0.18563800373E+03  0.26065057247E+03  0.17200000000E+03 0. -1.
         -6    1    1    2    0  502 -0.50069041761E+02 -0.37233634758E+02  0.73575644423E+03  0.75816541580E+03  0.17200000000E+03 0.  1.
</event>
<event>
 4    1 -0.6901648E-004  0.1763936E+03  0.7818608E-02  0.1171340E+00
         -5   -1    0    0    0  501 -0.00000000000E+00  0.00000000000E+00  0.32261270216E+03  0.32264693644E+03  0.47000000000E+01 0.  1.
          5   -1    0    0  501    0  0.00000000000E+00 -0.00000000000E+00 -0.15500485467E+03  0.15507609413E+03  0.47000000000E+01 0. -1.
          6    1    1    2  502    0  0.38531800759E+02 -0.67835132090E+01 -0.63071688219E+02  0.18733059968E+03  0.17200000000E+03 0. -1.
         -6    1    1    2    0  502 -0.38531800759E+02  0.67835132090E+01  0.23067953571E+03  0.29039243089E+03  0.17200000000E+03 0.  1.
</event>
<event>
 4    1 -0.6901648E-004  0.2230621E+03  0.7818608E-02  0.1131621E+00
         -5   -1    0    0    0  501 -0.00000000000E+00  0.00000000000E+00  0.96327877266E+03  0.96329023864E+03  0.47000000000E+01 0.  1.
          5   -1    0    0  501    0  0.00000000000E+00 -0.00000000000E+00 -0.20328538507E+03  0.20333971029E+03  0.47000000000E+01 0. -1.
          6    1    1    2  502    0  0.10456287005E+03  0.96121297485E+02 -0.12380525229E+03  0.25511651871E+03  0.17200000000E+03 0. -1.
         -6    1    1    2    0  502 -0.10456287005E+03 -0.96121297485E+02  0.88379863988E+03  0.91151343022E+03  0.17200000000E+03 0.  1.
</event>
<event>
 4    1 -0.6901648E-004  0.1834035E+03  0.7818608E-02  0.1164549E+00
          5   -1    0    0  501    0  0.00000000000E+00  0.00000000000E+00  0.15229598738E+03  0.15236849337E+03  0.47000000000E+01 0. -1.
         -5   -1    0    0    0  501 -0.00000000000E+00 -0.00000000000E+00 -0.86590347011E+03  0.86591622548E+03  0.47000000000E+01 0.  1.
          6    1    1    2  502    0 -0.52921892447E+02 -0.35385111280E+02  0.82658745728E+02  0.20116983135E+03  0.17200000000E+03 0. -1.
         -6    1    1    2    0  502  0.52921892447E+02  0.35385111280E+02 -0.79626622846E+03  0.81711488751E+03  0.17200000000E+03 0.  1.
</event>
<event>
 4    1 -0.6901648E-004  0.1984669E+03  0.7818608E-02  0.1151039E+00
          5   -1    0    0  501    0  0.00000000000E+00  0.00000000000E+00  0.65142596540E+02  0.65311927578E+02  0.47000000000E+01 0. -1.
         -5   -1    0    0    0  501 -0.00000000000E+00 -0.00000000000E+00 -0.72942970702E+03  0.72944484883E+03  0.47000000000E+01 0.  1.
          6    1    1    2  502    0  0.85749553420E+02 -0.49519018575E+02 -0.16718230109E+03  0.25949767034E+03  0.17200000000E+03 0.  1.
         -6    1    1    2    0  502 -0.85749553420E+02  0.49519018575E+02 -0.49710480939E+03  0.53525910607E+03  0.17200000000E+03 0.  1.
</event>
<event>
 4    1 -0.6901648E-004  0.2944317E+03  0.7818608E-02  0.1088058E+00
         -5   -1    0    0    0  501 -0.00000000000E+00  0.00000000000E+00  0.17019623778E+04  0.17019688673E+04  0.47000000000E+01 0.  1.
          5   -1    0    0  501    0  0.00000000000E+00 -0.00000000000E+00 -0.65667396986E+03  0.65669078926E+03  0.47000000000E+01 0. -1.
          6    1    1    2  502    0 -0.84398842984E+01  0.23881960482E+03 -0.61002597439E+03  0.67736380530E+03  0.17200000000E+03 0. -1.
         -6    1    1    2    0  502  0.84398842984E+01 -0.23881960482E+03  0.16553143823E+04  0.16812958513E+04  0.17200000000E+03 0.  1.
</event>
<event>
 4    1 -0.6901648E-004  0.1745066E+03  0.7818608E-02  0.1173228E+00
          5   -1    0    0  501    0  0.00000000000E+00  0.00000000000E+00  0.17518507140E+03  0.17524810767E+03  0.47000000000E+01 0. -1.
         -5   -1    0    0    0  501 -0.00000000000E+00 -0.00000000000E+00 -0.88163995237E+03  0.88165248007E+03  0.47000000000E+01 0.  1.
          6    1    1    2  502    0  0.12072790996E+02  0.26884924901E+02  0.12028391637E+03  0.21194520992E+03  0.17200000000E+03 0. -1.
         -6    1    1    2    0  502 -0.12072790996E+02 -0.26884924901E+02 -0.82673879734E+03  0.84495537781E+03  0.17200000000E+03 0.  1.
</event>
<event>
 4    1 -0.6901648E-004  0.2661466E+03  0.7818608E-02  0.1103505E+00
          5   -1    0    0  501    0  0.00000000000E+00  0.00000000000E+00  0.49138282229E+03  0.49140529916E+03  0.47000000000E+01 0. -1.
         -5   -1    0    0    0  501 -0.00000000000E+00 -0.00000000000E+00 -0.18605976443E+03  0.18611911761E+03  0.47000000000E+01 0.  1.
          6    1    1    2  502    0 -0.81257445821E+02 -0.18613775071E+03  0.31351852131E+03  0.41125162364E+03  0.17200000000E+03 0. -1.
         -6    1    1    2    0  502  0.81257445821E+02  0.18613775071E+03 -0.81954634483E+01  0.26627279313E+03  0.17200000000E+03 0.  1.
</event>
<event>
 4    1 -0.6901648E-004  0.1839932E+03  0.7818608E-02  0.1163993E+00
          5   -1    0    0  501    0  0.00000000000E+00  0.00000000000E+00  0.25975169914E+03  0.25979421703E+03  0.47000000000E+01 0. -1.
         -5   -1    0    0    0  501 -0.00000000000E+00 -0.00000000000E+00 -0.40919156769E+03  0.40921855905E+03  0.47000000000E+01 0.  1.
          6    1    1    2  502    0 -0.55867619517E+02 -0.33886787602E+02  0.20143792368E+03  0.27281998164E+03  0.17200000000E+03 0. -1.
         -6    1    1    2    0  502  0.55867619517E+02  0.33886787602E+02 -0.35087779224E+03  0.39619279444E+03  0.17200000000E+03 0.  1.
</event>
<event>
 4    1 -0.6901648E-004  0.2360172E+03  0.7818608E-02  0.1122475E+00
         -5   -1    0    0    0  501 -0.00000000000E+00  0.00000000000E+00  0.13722836416E+03  0.13730882685E+03  0.47000000000E+01 0.  1.
          5   -1    0    0  501    0  0.00000000000E+00 -0.00000000000E+00 -0.15202731067E+04  0.15202803718E+04  0.47000000000E+01 0. -1.
          6    1    1    2  502    0 -0.14627267315E+03  0.68734278842E+02 -0.14011402783E+04  0.14208793670E+04  0.17200000000E+03 0. -1.
         -6    1    1    2    0  502  0.14627267315E+03 -0.68734278842E+02  0.18095535787E+02  0.23670983168E+03  0.17200000000E+03 0.  1.
</event>
<event>
 4    1 -0.6901648E-004  0.1728986E+03  0.7818608E-02  0.1174858E+00
         -5   -1    0    0    0  501 -0.00000000000E+00  0.00000000000E+00  0.18789100181E+03  0.18794977669E+03  0.47000000000E+01 0.  1.
          5   -1    0    0  501    0  0.00000000000E+00 -0.00000000000E+00 -0.17483962668E+03  0.17490278745E+03  0.47000000000E+01 0. -1.
          6    1    1    2  502    0  0.15725807556E+02 -0.79137884003E+01 -0.48089706101E+02  0.17946183133E+03  0.17200000000E+03 0. -1.
         -6    1    1    2    0  502 -0.15725807556E+02  0.79137884003E+01  0.61141081226E+02  0.18339073282E+03  0.17200000000E+03 0.  1.
</event>
<event>
 4    1 -0.6901648E-004  0.2986733E+03  0.7818608E-02  0.1085906E+00
          5   -1    0    0  501    0  0.00000000000E+00  0.00000000000E+00  0.98113667142E+02  0.98226176145E+02  0.47000000000E+01 0. -1.
         -5   -1    0    0    0  501 -0.00000000000E+00 -0.00000000000E+00 -0.10150953057E+04  0.10151061863E+04  0.47000000000E+01 0.  1.
          6    1    1    2  502    0  0.55882548559E+01 -0.24411173498E+03 -0.27817086748E+03  0.40814801146E+03  0.17200000000E+03 0. -1.
         -6    1    1    2    0  502 -0.55882548559E+01  0.24411173498E+03 -0.63881077104E+03  0.70518435103E+03  0.17200000000E+03 0.  1.
</event>
<event>
 4    1 -0.6901648E-004  0.2052400E+03  0.7818608E-02  0.1145392E+00
         -5   -1    0    0    0  501 -0.00000000000E+00  0.00000000000E+00  0.20482925636E+03  0.20488317223E+03  0.47000000000E+01 0.  1.
          5   -1    0    0  501    0  0.00000000000E+00 -0.00000000000E+00 -0.23040122118E+03  0.23044915431E+03  0.47000000000E+01 0. -1.
          6    1    1    2  502    0  0.54317326651E+02  0.97923880171E+02 -0.84264990802E+02  0.22186492953E+03  0.17200000000E+03 0. -1.
         -6    1    1    2    0  502 -0.54317326651E+02 -0.97923880171E+02  0.58693025985E+02  0.21346739700E+03  0.17200000000E+03 0.  1.
</event>
<event>
 4    1 -0.6901648E-004  0.2250658E+03  0.7818608E-02  0.1130162E+00
          5   -1    0    0  501    0  0.00000000000E+00  0.00000000000E+00  0.33988013756E+03  0.33991263276E+03  0.47000000000E+01 0. -1.
         -5   -1    0    0    0  501 -0.00000000000E+00 -0.00000000000E+00 -0.15139875150E+03  0.15147168698E+03  0.47000000000E+01 0.  1.
          6    1    1    2  502    0  0.13283733573E+03 -0.58522229393E+02  0.63068890008E+02  0.23373552144E+03  0.17200000000E+03 0. -1.
         -6    1    1    2    0  502 -0.13283733573E+03  0.58522229393E+02  0.12541249605E+03  0.25764879830E+03  0.17200000000E+03 0. -1.
</event>
<event>
 4    1 -0.6901648E-004  0.2102959E+03  0.7818608E-02  0.1141332E+00
          5   -1    0    0  501    0  0.00000000000E+00  0.00000000000E+00  0.77086857846E+03  0.77088290632E+03  0.47000000000E+01 0. -1.
         -5   -1    0    0    0  501 -0.00000000000E+00 -0.00000000000E+00 -0.77392516157E+02  0.77535098872E+02  0.47000000000E+01 0.  1.
          6    1    1    2  502    0  0.10786108380E+03 -0.54830114449E+02  0.56285418191E+03  0.60085704202E+03  0.17200000000E+03 0. -1.
         -6    1    1    2    0  502 -0.10786108380E+03  0.54830114449E+02  0.13062188039E+03  0.24756096317E+03  0.17200000000E+03 0.  1.
</event>
<event>
 4    1 -0.6901648E-004  0.3428740E+03  0.7818608E-02  0.1065578E+00
          5   -1    0    0  501    0  0.00000000000E+00  0.00000000000E+00  0.14976692969E+04  0.14976766717E+04  0.47000000000E+01 0. -1.
         -5   -1    0    0    0  501 -0.00000000000E+00 -0.00000000000E+00 -0.10328054001E+03  0.10338742643E+03  0.47000000000E+01 0.  1.
          6    1    1    2  502    0 -0.29194614306E+03 -0.52402719437E+02  0.10897099919E+04  0.11423792986E+04  0.17200000000E+03 0. -1.
         -6    1    1    2    0  502  0.29194614306E+03  0.52402719437E+02  0.30467876501E+03  0.45868479951E+03  0.17200000000E+03 0.  1.
</event>
<event>
 4    1 -0.6901648E-004  0.2158656E+03  0.7818608E-02  0.1137004E+00
          5   -1    0    0  501    0  0.00000000000E+00  0.00000000000E+00  0.17934170846E+04  0.17934232433E+04  0.47000000000E+01 0. -1.
         -5   -1    0    0    0  501 -0.00000000000E+00 -0.00000000000E+00 -0.27440121296E+02  0.27839724437E+02  0.47000000000E+01 0.  1.
          6    1    1    2  502    0  0.93935530500E+01  0.13009881572E+03  0.11063553437E+04  0.11272178526E+04  0.17200000000E+03 0. -1.
         -6    1    1    2    0  502 -0.93935530500E+01 -0.13009881572E+03  0.65962161967E+03  0.69404511512E+03  0.17200000000E+03 0. -1.
</event>
<event>
 4    1 -0.6901648E-004  0.1757553E+03  0.7818608E-02  0.1171975E+00
          5   -1    0    0  501    0  0.00000000000E+00  0.00000000000E+00  0.86685984155E+02  0.86813304561E+02  0.47000000000E+01 0. -1.
         -5   -1    0    0    0  501 -0.00000000000E+00 -0.00000000000E+00 -0.39748508554E+03  0.39751287178E+03  0.47000000000E+01 0.  1.
          6    1    1    2  502    0 -0.29944941641E+02 -0.20229461370E+02 -0.77123384042E+02  0.19193214166E+03  0.17200000000E+03 0. -1.
         -6    1    1    2    0  502  0.29944941641E+02  0.20229461370E+02 -0.23367571735E+03  0.29239403468E+03  0.17200000000E+03 0. -1.
</event>
<event>
 4    1 -0.6901648E-004  0.2105631E+03  0.7818608E-02  0.1141121E+00
          5   -1    0    0  501    0  0.00000000000E+00  0.00000000000E+00  0.64868070655E+03  0.64869773319E+03  0.47000000000E+01 0. -1.
         -5   -1    0    0    0  501 -0.00000000000E+00 -0.00000000000E+00 -0.68895073072E+02  0.69055203233E+02  0.47000000000E+01 0.  1.
          6    1    1    2  502    0  0.80233392637E+02  0.91188976191E+02  0.32456105164E+03  0.38688073474E+03  0.17200000000E+03 0. -1.
         -6    1    1    2    0  502 -0.80233392637E+02 -0.91188976191E+02  0.25522458184E+03  0.33087220169E+03  0.17200000000E+03 0. -1.
</event>
<event>
 4    1 -0.6901648E-004  0.2272434E+03  0.7818608E-02  0.1128595E+00
          5   -1    0    0  501    0  0.00000000000E+00  0.00000000000E+00  0.52419087232E+03  0.52421194247E+03  0.47000000000E+01 0. -1.
         -5   -1    0    0    0  501 -0.00000000000E+00 -0.00000000000E+00 -0.12316884987E+04  0.12316974660E+04  0.47000000000E+01 0.  1.
          6    1    1    2  502    0 -0.60180855495E+01 -0.14838916238E+03  0.48836549418E+03  0.53864683864E+03  0.17200000000E+03 0. -1.
         -6    1    1    2    0  502  0.60180855495E+01  0.14838916238E+03 -0.11958631205E+04  0.12172625698E+04  0.17200000000E+03 0.  1.
</event>
<event>
 4    1 -0.6901648E-004  0.1828403E+03  0.7818608E-02  0.1165082E+00
         -5   -1    0    0    0  501 -0.00000000000E+00  0.00000000000E+00  0.27130887329E+03  0.27134958030E+03  0.47000000000E+01 0.  1.
          5   -1    0    0  501    0  0.00000000000E+00 -0.00000000000E+00 -0.45027869590E+03  0.45030322448E+03  0.47000000000E+01 0. -1.
          6    1    1    2  502    0 -0.62020331354E+02 -0.23543885137E+00 -0.39701418913E+03  0.43709363219E+03  0.17200000000E+03 0. -1.
         -6    1    1    2    0  502  0.62020331354E+02  0.23543885137E+00  0.21804436652E+03  0.28455917259E+03  0.17200000000E+03 0.  1.
</event>
<event>
 4    1 -0.6901648E-004  0.1827083E+03  0.7818608E-02  0.1165207E+00
          5   -1    0    0  501    0  0.00000000000E+00  0.00000000000E+00  0.14519097383E+03  0.14526702613E+03  0.47000000000E+01 0. -1.
         -5   -1    0    0    0  501 -0.00000000000E+00 -0.00000000000E+00 -0.44524007152E+03  0.44526487768E+03  0.47000000000E+01 0.  1.
          6    1    1    2  502    0  0.30841699241E+02 -0.53358338367E+02  0.55358757314E+02  0.19091075061E+03  0.17200000000E+03 0. -1.
         -6    1    1    2    0  502 -0.30841699241E+02  0.53358338367E+02 -0.35540785501E+03  0.39962115320E+03  0.17200000000E+03 0.  1.
</event>
<event>
 4    1 -0.6901648E-004  0.2947579E+03  0.7818608E-02  0.1087891E+00
          5   -1    0    0  501    0  0.00000000000E+00  0.00000000000E+00  0.12225566533E+04  0.12225656876E+04  0.47000000000E+01 0. -1.
         -5   -1    0    0    0  501 -0.00000000000E+00 -0.00000000000E+00 -0.24560900976E+03  0.24565397550E+03  0.47000000000E+01 0.  1.
          6    1    1    2  502    0 -0.23934835831E+03 -0.32495857304E+01  0.11073472106E+04  0.11459057733E+04  0.17200000000E+03 0. -1.
         -6    1    1    2    0  502  0.23934835831E+03  0.32495857304E+01 -0.13039956712E+03  0.32231388977E+03  0.17200000000E+03 0.  1.
</event>
<event>
 4    1 -0.6901648E-004  0.3361653E+03  0.7818608E-02  0.1068441E+00
         -5   -1    0    0    0  501 -0.00000000000E+00  0.00000000000E+00  0.27171589297E+03  0.27175653900E+03  0.47000000000E+01 0.  1.
          5   -1    0    0  501    0  0.00000000000E+00 -0.00000000000E+00 -0.95096595086E+03  0.95097756529E+03  0.47000000000E+01 0. -1.
          6    1    1    2  502    0 -0.99562476771E+02  0.27112805846E+03 -0.79823486712E+03  0.86613279233E+03  0.17200000000E+03 0. -1.
         -6    1    1    2    0  502  0.99562476771E+02 -0.27112805846E+03  0.11898480924E+03  0.35660131196E+03  0.17200000000E+03 0.  1.
</event>
<event>
 4    1 -0.6901648E-004  0.2469342E+03  0.7818608E-02  0.1115258E+00
         -5   -1    0    0    0  501 -0.00000000000E+00  0.00000000000E+00  0.21581224648E+03  0.21586341916E+03  0.47000000000E+01 0.  1.
          5   -1    0    0  501    0  0.00000000000E+00 -0.00000000000E+00 -0.59779301014E+03  0.59781148615E+03  0.47000000000E+01 0. -1.
          6    1    1    2  502    0 -0.15246987313E+03  0.90252107007E+02 -0.48646144022E+03  0.54554673296E+03  0.17200000000E+03 0. -1.
         -6    1    1    2    0  502  0.15246987313E+03 -0.90252107007E+02  0.10448067656E+03  0.26812817234E+03  0.17200000000E+03 0.  1.
</event>
<event>
 4    1 -0.6901648E-004  0.2766681E+03  0.7818608E-02  0.1097523E+00
          5   -1    0    0  501    0  0.00000000000E+00  0.00000000000E+00  0.80170860373E+03  0.80172238043E+03  0.47000000000E+01 0. -1.
         -5   -1    0    0    0  501 -0.00000000000E+00 -0.00000000000E+00 -0.14998298523E+03  0.15005660884E+03  0.47000000000E+01 0.  1.
          6    1    1    2  502    0 -0.22629239548E+02 -0.21552068405E+03  0.61283257418E+03  0.67239052024E+03  0.17200000000E+03 0. -1.
         -6    1    1    2    0  502  0.22629239548E+02  0.21552068405E+03  0.38893044319E+02  0.27938846904E+03  0.17200000000E+03 0.  1.
</event>
<event>
 4    1 -0.6901648E-004  0.2275796E+03  0.7818608E-02  0.1128355E+00
          5   -1    0    0  501    0  0.00000000000E+00  0.00000000000E+00  0.33484920255E+03  0.33488218592E+03  0.47000000000E+01 0. -1.
         -5   -1    0    0    0  501 -0.00000000000E+00 -0.00000000000E+00 -0.31848603509E+03  0.31852071290E+03  0.47000000000E+01 0.  1.
          6    1    1    2  502    0 -0.59316741828E+02 -0.13671137521E+03  0.24250797778E+03  0.33256968482E+03  0.17200000000E+03 0. -1.
         -6    1    1    2    0  502  0.59316741828E+02  0.13671137521E+03 -0.22614481032E+03  0.32083321400E+03  0.17200000000E+03 0.  1.
</event>
<event>
 4    1 -0.6901648E-004  0.3376747E+03  0.7818608E-02  0.1067791E+00
         -5   -1    0    0    0  501 -0.00000000000E+00  0.00000000000E+00  0.11725148981E+04  0.11725243179E+04  0.47000000000E+01 0.  1.
          5   -1    0    0  501    0  0.00000000000E+00 -0.00000000000E+00 -0.24954055614E+03  0.24958481355E+03  0.47000000000E+01 0. -1.
          6    1    1    2  502    0  0.96918056315E+02 -0.27394722271E+03 -0.94020981888E+02  0.35051980758E+03  0.17200000000E+03 0. -1.
         -6    1    1    2    0  502 -0.96918056315E+02  0.27394722271E+03  0.10169953238E+04  0.10715893239E+04  0.17200000000E+03 0.  1.
</event>
<event>
 4    1 -0.6901648E-004  0.2184514E+03  0.7818608E-02  0.1135043E+00
         -5   -1    0    0    0  501 -0.00000000000E+00  0.00000000000E+00  0.68030871854E+03  0.68032495362E+03  0.47000000000E+01 0.  1.
          5   -1    0    0  501    0  0.00000000000E+00 -0.00000000000E+00 -0.78057729336E+02  0.78199099158E+02  0.47000000000E+01 0. -1.
          6    1    1    2  502    0  0.96837096082E+01  0.13432505510E+03  0.17978145674E+03  0.28291759727E+03  0.17200000000E+03 0. -1.
         -6    1    1    2    0  502 -0.96837096082E+01 -0.13432505510E+03  0.42246953246E+03  0.47560645551E+03  0.17200000000E+03 0.  1.
</event>
<event>
 4    1 -0.6901648E-004  0.1816226E+03  0.7818608E-02  0.1166242E+00
         -5   -1    0    0    0  501 -0.00000000000E+00  0.00000000000E+00  0.21835614332E+03  0.21840671997E+03  0.47000000000E+01 0.  1.
          5   -1    0    0  501    0  0.00000000000E+00 -0.00000000000E+00 -0.25462605340E+03  0.25466942704E+03  0.47000000000E+01 0. -1.
          6    1    1    2  502    0  0.53081333411E+02 -0.24189399469E+02 -0.16902717495E+03  0.24810671268E+03  0.17200000000E+03 0. -1.
         -6    1    1    2    0  502 -0.53081333411E+02  0.24189399469E+02  0.13275726488E+03  0.22496943433E+03  0.17200000000E+03 0.  1.
</event>
<event>
 4    1 -0.6901648E-004  0.2728311E+03  0.7818608E-02  0.1099670E+00
         -5   -1    0    0    0  501 -0.00000000000E+00  0.00000000000E+00  0.78166416953E+02  0.78307590560E+02  0.47000000000E+01 0.  1.
          5   -1    0    0  501    0  0.00000000000E+00 -0.00000000000E+00 -0.21086237319E+04  0.21086289699E+04  0.47000000000E+01 0. -1.
          6    1    1    2  502    0  0.69088677529E+02 -0.20019882783E+03 -0.18252983305E+04  0.18455760107E+04  0.17200000000E+03 0. -1.
         -6    1    1    2    0  502 -0.69088677529E+02  0.20019882783E+03 -0.20515898446E+03  0.34136054976E+03  0.17200000000E+03 0.  1.
</event>
<event>
 4    1 -0.6901648E-004  0.1784964E+03  0.7818608E-02  0.1169266E+00
          5   -1    0    0  501    0  0.00000000000E+00  0.00000000000E+00  0.20984101318E+03  0.20989364167E+03  0.47000000000E+01 0. -1.
         -5   -1    0    0    0  501 -0.00000000000E+00 -0.00000000000E+00 -0.10237159417E+04  0.10237267308E+04  0.47000000000E+01 0.  1.
          6    1    1    2  502    0 -0.10293908427E+02 -0.46594162459E+02  0.16230534499E+03  0.24125506324E+03  0.17200000000E+03 0. -1.
         -6    1    1    2    0  502  0.10293908427E+02  0.46594162459E+02 -0.97618027355E+03  0.99236530925E+03  0.17200000000E+03 0.  1.
</event>
<event>
 4    1 -0.6901648E-004  0.1760490E+03  0.7818608E-02  0.1171683E+00
          5   -1    0    0  501    0  0.00000000000E+00  0.00000000000E+00  0.71928314320E+03  0.71929849861E+03  0.47000000000E+01 0. -1.
         -5   -1    0    0    0  501 -0.00000000000E+00 -0.00000000000E+00 -0.22337054713E+03  0.22341998864E+03  0.47000000000E+01 0.  1.
          6    1    1    2  502    0  0.27512827143E+02  0.25539782225E+02  0.67142810424E+03  0.69412458197E+03  0.17200000000E+03 0. -1.
         -6    1    1    2    0  502 -0.27512827143E+02 -0.25539782225E+02 -0.17551550817E+03  0.24859390528E+03  0.17200000000E+03 0.  1.
</event>
<event>
 4    1 -0.6901648E-004  0.1907916E+03  0.7818608E-02  0.1157749E+00
         -5   -1    0    0    0  501 -0.00000000000E+00  0.00000000000E+00  0.41601980664E+03  0.41604635501E+03  0.47000000000E+01 0.  1.
          5   -1    0    0  501    0  0.00000000000E+00 -0.00000000000E+00 -0.69857278116E+03  0.69858859179E+03  0.47000000000E+01 0. -1.
          6    1    1    2  502    0 -0.22604832522E+02 -0.79413283676E+02 -0.66252648756E+03  0.68945108223E+03  0.17200000000E+03 0. -1.
         -6    1    1    2    0  502  0.22604832522E+02  0.79413283676E+02  0.37997351304E+03  0.42518386457E+03  0.17200000000E+03 0.  1.
</event>
<event>
 4    1 -0.6901648E-004  0.1721509E+03  0.7818608E-02  0.1175623E+00
          5   -1    0    0  501    0  0.00000000000E+00  0.00000000000E+00  0.86137980142E+03  0.86139262377E+03  0.47000000000E+01 0. -1.
         -5   -1    0    0    0  501 -0.00000000000E+00 -0.00000000000E+00 -0.13018205009E+03  0.13026686519E+03  0.47000000000E+01 0.  1.
          6    1    1    2  502    0 -0.68464163375E+01 -0.22513491456E+01  0.79092392531E+03  0.80944215211E+03  0.17200000000E+03 0. -1.
         -6    1    1    2    0  502  0.68464163375E+01  0.22513491456E+01 -0.59726173986E+02  0.18221733685E+03  0.17200000000E+03 0.  1.
</event>
<event>
 4    1 -0.6901648E-004  0.1737974E+03  0.7818608E-02  0.1173945E+00
          5   -1    0    0  501    0  0.00000000000E+00  0.00000000000E+00  0.20271228457E+03  0.20276676334E+03  0.47000000000E+01 0. -1.
         -5   -1    0    0    0  501 -0.00000000000E+00 -0.00000000000E+00 -0.30824866169E+03  0.30828449107E+03  0.47000000000E+01 0.  1.
          6    1    1    2  502    0 -0.24423061606E+02  0.50045455446E+01  0.13092257762E+03  0.21759194090E+03  0.17200000000E+03 0. -1.
         -6    1    1    2    0  502  0.24423061606E+02 -0.50045455446E+01 -0.23645895474E+03  0.29345931352E+03  0.17200000000E+03 0.  1.
</event>
<event>
 4    1 -0.6901648E-004  0.4013201E+03  0.7818608E-02  0.1043324E+00
         -5   -1    0    0    0  501 -0.00000000000E+00  0.00000000000E+00  0.38063116034E+03  0.38066017682E+03  0.47000000000E+01 0.  1.
          5   -1    0    0  501    0  0.00000000000E+00 -0.00000000000E+00 -0.52896153458E+03  0.52898241471E+03  0.47000000000E+01 0. -1.
          6    1    1    2  502    0 -0.30687015877E+03  0.19314381509E+03 -0.27764754497E+03  0.48800203573E+03  0.17200000000E+03 0.  1.
         -6    1    1    2    0  502  0.30687015877E+03 -0.19314381509E+03  0.12931717072E+03  0.42164055580E+03  0.17200000000E+03 0.  1.
</event>
<event>
 4    1 -0.6901648E-004  0.1866369E+03  0.7818608E-02  0.1161530E+00
         -5   -1    0    0    0  501 -0.00000000000E+00  0.00000000000E+00  0.49754710626E+02  0.49976206634E+02  0.47000000000E+01 0.  1.
          5   -1    0    0  501    0  0.00000000000E+00 -0.00000000000E+00 -0.15952123424E+04  0.15952192663E+04  0.47000000000E+01 0. -1.
          6    1    1    2  502    0 -0.41710794968E+02  0.59241410268E+02 -0.13894906006E+04  0.14019691381E+04  0.17200000000E+03 0. -1.
         -6    1    1    2    0  502  0.41710794968E+02 -0.59241410268E+02 -0.15596703125E+03  0.24322633481E+03  0.17200000000E+03 0.  1.
</event>
<event>
 4    1 -0.6901648E-004  0.1910719E+03  0.7818608E-02  0.1157498E+00
         -5   -1    0    0    0  501 -0.00000000000E+00  0.00000000000E+00  0.26239045716E+04  0.26239087810E+04  0.47000000000E+01 0.  1.
          5   -1    0    0  501    0  0.00000000000E+00 -0.00000000000E+00 -0.15214542617E+03  0.15221800387E+03  0.47000000000E+01 0. -1.
          6    1    1    2  502    0  0.57283451147E+02 -0.60357880630E+02 -0.87210473157E+02  0.21003365006E+03  0.17200000000E+03 0. -1.
         -6    1    1    2    0  502 -0.57283451147E+02  0.60357880630E+02  0.25589696186E+04  0.25660931348E+04  0.17200000000E+03 0.  1.
</event>
<event>
 4    1 -0.6901648E-004  0.1846366E+03  0.7818608E-02  0.1163390E+00
         -5   -1    0    0    0  501 -0.00000000000E+00  0.00000000000E+00  0.13462573935E+04  0.13462655977E+04  0.47000000000E+01 0.  1.
          5   -1    0    0  501    0  0.00000000000E+00 -0.00000000000E+00 -0.49872406701E+02  0.50093382299E+02  0.47000000000E+01 0. -1.
          6    1    1    2  502    0 -0.17998458369E+02 -0.64674083802E+02  0.15774428605E+03  0.24284550933E+03  0.17200000000E+03 0. -1.
         -6    1    1    2    0  502  0.17998458369E+02  0.64674083802E+02  0.11386407007E+04  0.11535134707E+04  0.17200000000E+03 0.  1.
</event>
<event>
 4    1 -0.6901648E-004  0.1810926E+03  0.7818608E-02  0.1166750E+00
         -5   -1    0    0    0  501 -0.00000000000E+00  0.00000000000E+00  0.34199714804E+03  0.34202944211E+03  0.47000000000E+01 0.  1.
          5   -1    0    0  501    0  0.00000000000E+00 -0.00000000000E+00 -0.13353032644E+03  0.13361301613E+03  0.47000000000E+01 0. -1.
          6    1    1    2  502    0  0.54777811433E+02 -0.14488047863E+02 -0.22127075499E+02  0.18243935876E+03  0.17200000000E+03 0. -1.
         -6    1    1    2    0  502 -0.54777811433E+02  0.14488047863E+02  0.23059389711E+03  0.29320309947E+03  0.17200000000E+03 0.  1.
</event>
<event>
 4    1 -0.6901648E-004  0.1729304E+03  0.7818608E-02  0.1174826E+00
          5   -1    0    0  501    0  0.00000000000E+00  0.00000000000E+00  0.16583438628E+04  0.16583505230E+04  0.47000000000E+01 0. -1.
         -5   -1    0    0    0  501 -0.00000000000E+00 -0.00000000000E+00 -0.66958489525E+02  0.67123239787E+02  0.47000000000E+01 0.  1.
          6    1    1    2  502    0 -0.13590598767E+02  0.11671080503E+02  0.15333413142E+04  0.15430620546E+04  0.17200000000E+03 0. -1.
         -6    1    1    2    0  502  0.13590598767E+02 -0.11671080503E+02  0.58044059019E+02  0.18241170818E+03  0.17200000000E+03 0.  1.
</event>
<event>
 4    1 -0.6901648E-004  0.2453540E+03  0.7818608E-02  0.1116277E+00
          5   -1    0    0  501    0  0.00000000000E+00  0.00000000000E+00  0.15880859512E+03  0.15887812903E+03  0.47000000000E+01 0. -1.
         -5   -1    0    0    0  501 -0.00000000000E+00 -0.00000000000E+00 -0.11964125924E+04  0.11964218241E+04  0.47000000000E+01 0.  1.
          6    1    1    2  502    0 -0.23538409151E+02  0.17337968858E+03  0.41338482812E+02  0.24881206417E+03  0.17200000000E+03 0. -1.
         -6    1    1    2    0  502  0.23538409151E+02 -0.17337968858E+03 -0.10789424801E+04  0.11064878889E+04  0.17200000000E+03 0.  1.
</event>
<event>
 4    1 -0.6901648E-004  0.2009565E+03  0.7818608E-02  0.1148935E+00
          5   -1    0    0  501    0  0.00000000000E+00  0.00000000000E+00  0.26306199391E+03  0.26310397686E+03  0.47000000000E+01 0. -1.
         -5   -1    0    0    0  501 -0.00000000000E+00 -0.00000000000E+00 -0.15868805857E+03  0.15875764528E+03  0.47000000000E+01 0.  1.
          6    1    1    2  502    0  0.72799214458E+02 -0.74160432746E+02  0.90594378731E+02  0.22043329347E+03  0.17200000000E+03 0.  1.
         -6    1    1    2    0  502 -0.72799214458E+02  0.74160432746E+02  0.13779556607E+02  0.20142832867E+03  0.17200000000E+03 0.  1.
</event>
<event>
 4    1 -0.6901648E-004  0.2731275E+03  0.7818608E-02  0.1099503E+00
          5   -1    0    0  501    0  0.00000000000E+00  0.00000000000E+00  0.83980295496E+03  0.83981610675E+03  0.47000000000E+01 0. -1.
         -5   -1    0    0    0  501 -0.00000000000E+00 -0.00000000000E+00 -0.81967854647E+03  0.81969202116E+03  0.47000000000E+01 0.  1.
          6    1    1    2  502    0  0.19845876745E+03  0.75024806790E+02  0.79356857354E+03  0.83925543485E+03  0.17200000000E+03 0. -1.
         -6    1    1    2    0  502 -0.19845876745E+03 -0.75024806790E+02 -0.77344416505E+03  0.82025269306E+03  0.17200000000E+03 0.  1.
</event>
<event>
 4    1 -0.6901648E-004  0.2352478E+03  0.7818608E-02  0.1123000E+00
         -5   -1    0    0    0  501 -0.00000000000E+00  0.00000000000E+00  0.28871492236E+03  0.28875317556E+03  0.47000000000E+01 0.  1.
          5   -1    0    0  501    0  0.00000000000E+00 -0.00000000000E+00 -0.20508935524E+03  0.20514320274E+03  0.47000000000E+01 0. -1.
          6    1    1    2  502    0 -0.57099451627E+02  0.14999056053E+03 -0.21499946274E+02  0.23622820178E+03  0.17200000000E+03 0. -1.
         -6    1    1    2    0  502  0.57099451627E+02 -0.14999056053E+03  0.10512551340E+03  0.25766817652E+03  0.17200000000E+03 0.  1.
</event>
<event>
 4    1 -0.6901648E-004  0.2075542E+03  0.7818608E-02  0.1143518E+00
          5   -1    0    0  501    0  0.00000000000E+00  0.00000000000E+00  0.53076022706E+03  0.53078103642E+03  0.47000000000E+01 0. -1.
         -5   -1    0    0    0  501 -0.00000000000E+00 -0.00000000000E+00 -0.92984408708E+02  0.93103116289E+02  0.47000000000E+01 0.  1.
          6    1    1    2  502    0 -0.63925146211E+01  0.11599090312E+03  0.33044321603E+03  0.39021977509E+03  0.17200000000E+03 0. -1.
         -6    1    1    2    0  502  0.63925146211E+01 -0.11599090312E+03  0.10733260232E+03  0.23366437762E+03  0.17200000000E+03 0.  1.
</event>
<event>
 4    1 -0.6901648E-004  0.1852507E+03  0.7818608E-02  0.1162816E+00
         -5   -1    0    0    0  501 -0.00000000000E+00  0.00000000000E+00  0.38701370915E+02  0.38985716752E+02  0.47000000000E+01 0.  1.
          5   -1    0    0  501    0  0.00000000000E+00 -0.00000000000E+00 -0.88322358038E+03  0.88323608562E+03  0.47000000000E+01 0. -1.
          6    1    1    2  502    0 -0.16827354906E+02 -0.66713356902E+02 -0.42473866033E+03  0.46337971626E+03  0.17200000000E+03 0. -1.
         -6    1    1    2    0  502  0.16827354906E+02  0.66713356902E+02 -0.41978354913E+03  0.45884208611E+03  0.17200000000E+03 0. -1.
</event>
<event>
 4    1 -0.6901648E-004  0.1911161E+03  0.7818608E-02  0.1157459E+00
          5   -1    0    0  501    0  0.00000000000E+00  0.00000000000E+00  0.38516459830E+03  0.38519327329E+03  0.47000000000E+01 0. -1.
         -5   -1    0    0    0  501 -0.00000000000E+00 -0.00000000000E+00 -0.34276913535E+03  0.34280135669E+03  0.47000000000E+01 0.  1.
          6    1    1    2  502    0 -0.81560540520E+02 -0.17006895937E+02  0.33078518994E+03  0.38202643647E+03  0.17200000000E+03 0. -1.
         -6    1    1    2    0  502  0.81560540520E+02  0.17006895937E+02 -0.28838972699E+03  0.34596819350E+03  0.17200000000E+03 0.  1.
</event>
<event>
 4    1 -0.6901648E-004  0.1895061E+03  0.7818608E-02  0.1158908E+00
          5   -1    0    0  501    0  0.00000000000E+00  0.00000000000E+00  0.10754566438E+04  0.10754669138E+04  0.47000000000E+01 0. -1.
         -5   -1    0    0    0  501 -0.00000000000E+00 -0.00000000000E+00 -0.10478505099E+03  0.10489040429E+03  0.47000000000E+01 0.  1.
          6    1    1    2  502    0  0.51328247914E+02  0.60778131919E+02  0.97255079980E+03  0.99084187868E+03  0.17200000000E+03 0. -1.
         -6    1    1    2    0  502 -0.51328247914E+02 -0.60778131919E+02 -0.18792070037E+01  0.18951543940E+03  0.17200000000E+03 0.  1.
</event>
<event>
 4    1 -0.6901648E-004  0.1885547E+03  0.7818608E-02  0.1159771E+00
         -5   -1    0    0    0  501 -0.00000000000E+00  0.00000000000E+00  0.78335257423E+03  0.78336667376E+03  0.47000000000E+01 0.  1.
          5   -1    0    0  501    0  0.00000000000E+00 -0.00000000000E+00 -0.48697135674E+02  0.48923419983E+02  0.47000000000E+01 0. -1.
          6    1    1    2  502    0 -0.35755900481E+02  0.68486303490E+02  0.25687923357E+03  0.31865310108E+03  0.17200000000E+03 0. -1.
         -6    1    1    2    0  502  0.35755900481E+02 -0.68486303490E+02  0.47777620499E+03  0.51363699267E+03  0.17200000000E+03 0. -1.
</event>
<event>
 4    1 -0.6901648E-004  0.2524784E+03  0.7818608E-02  0.1111748E+00
         -5   -1    0    0    0  501 -0.00000000000E+00  0.00000000000E+00  0.61204568068E+02  0.61384763194E+02  0.47000000000E+01 0.  1.
          5   -1    0    0  501    0  0.00000000000E+00 -0.00000000000E+00 -0.10687691577E+04  0.10687794919E+04  0.47000000000E+01 0. -1.
          6    1    1    2  502    0  0.95387586927E+02 -0.15831160021E+03 -0.59681260511E+03  0.64802055532E+03  0.17200000000E+03 0. -1.
         -6    1    1    2    0  502 -0.95387586927E+02  0.15831160021E+03 -0.41075198449E+03  0.48214369981E+03  0.17200000000E+03 0. -1.
</event>
<event>
 4    1 -0.6901648E-004  0.2002607E+03  0.7818608E-02  0.1149519E+00
          5   -1    0    0  501    0  0.00000000000E+00  0.00000000000E+00  0.27764657968E+03  0.27768635762E+03  0.47000000000E+01 0. -1.
         -5   -1    0    0    0  501 -0.00000000000E+00 -0.00000000000E+00 -0.37112068974E+03  0.37115044975E+03  0.47000000000E+01 0.  1.
          6    1    1    2  502    0  0.94366582514E+02 -0.40190917767E+02  0.20682349584E+03  0.28788942356E+03  0.17200000000E+03 0. -1.
         -6    1    1    2    0  502 -0.94366582514E+02  0.40190917767E+02 -0.30029760590E+03  0.36094738381E+03  0.17200000000E+03 0.  1.
</event>
<event>
 4    1 -0.6901648E-004  0.2037461E+03  0.7818608E-02  0.1146616E+00
          5   -1    0    0  501    0  0.00000000000E+00  0.00000000000E+00  0.87816078698E+02  0.87941762991E+02  0.47000000000E+01 0. -1.
         -5   -1    0    0    0  501 -0.00000000000E+00 -0.00000000000E+00 -0.76289048627E+03  0.76290496396E+03  0.47000000000E+01 0.  1.
          6    1    1    2  502    0  0.98187563451E+02 -0.47829744463E+02 -0.74975955075E+02  0.21710337609E+03  0.17200000000E+03 0. -1.
         -6    1    1    2    0  502 -0.98187563451E+02  0.47829744463E+02 -0.60009845250E+03  0.63374335086E+03  0.17200000000E+03 0.  1.
</event>
<event>
 4    1 -0.6901648E-004  0.1811396E+03  0.7818608E-02  0.1166705E+00
         -5   -1    0    0    0  501 -0.00000000000E+00  0.00000000000E+00  0.34934939169E+03  0.34938100617E+03  0.47000000000E+01 0.  1.
          5   -1    0    0  501    0  0.00000000000E+00 -0.00000000000E+00 -0.16249608619E+03  0.16256404284E+03  0.47000000000E+01 0. -1.
          6    1    1    2  502    0  0.56735715269E+02 -0.29337761357E+01 -0.72909150732E+02  0.19526211279E+03  0.17200000000E+03 0. -1.
         -6    1    1    2    0  502 -0.56735715269E+02  0.29337761357E+01  0.25976245623E+03  0.31668293623E+03  0.17200000000E+03 0.  1.
</event>
<event>
 4    1 -0.6901648E-004  0.4533127E+03  0.7818608E-02  0.1026739E+00
          5   -1    0    0  501    0  0.00000000000E+00  0.00000000000E+00  0.20884994436E+03  0.20890282252E+03  0.47000000000E+01 0. -1.
         -5   -1    0    0    0  501 -0.00000000000E+00 -0.00000000000E+00 -0.10456852881E+04  0.10456958504E+04  0.47000000000E+01 0.  1.
          6    1    1    2  502    0  0.11406119153E+03 -0.40360676973E+03 -0.26574426444E+03  0.52546397980E+03  0.17200000000E+03 0. -1.
         -6    1    1    2    0  502 -0.11406119153E+03  0.40360676973E+03 -0.57109107925E+03  0.72913469317E+03  0.17200000000E+03 0.  1.
</event>
<event>
 4    1 -0.6901648E-004  0.2674211E+03  0.7818608E-02  0.1102765E+00
          5   -1    0    0  501    0  0.00000000000E+00  0.00000000000E+00  0.50431022561E+03  0.50433212634E+03  0.47000000000E+01 0. -1.
         -5   -1    0    0    0  501 -0.00000000000E+00 -0.00000000000E+00 -0.46616550034E+03  0.46618919304E+03  0.47000000000E+01 0.  1.
          6    1    1    2  502    0  0.19740130252E+03 -0.54431558058E+02  0.42386020418E+03  0.50117017213E+03  0.17200000000E+03 0. -1.
         -6    1    1    2    0  502 -0.19740130252E+03  0.54431558058E+02 -0.38571547891E+03  0.46935114725E+03  0.17200000000E+03 0.  1.
</event>
<event>
 4    1 -0.6901648E-004  0.2452723E+03  0.7818608E-02  0.1116330E+00
          5   -1    0    0  501    0  0.00000000000E+00  0.00000000000E+00  0.33297196231E+03  0.33300513162E+03  0.47000000000E+01 0. -1.
         -5   -1    0    0    0  501 -0.00000000000E+00 -0.00000000000E+00 -0.29580770478E+03  0.29584504087E+03  0.47000000000E+01 0.  1.
          6    1    1    2  502    0 -0.44828256544E+02 -0.16901158719E+03  0.21478048753E+03  0.32602016350E+03  0.17200000000E+03 0. -1.
         -6    1    1    2    0  502  0.44828256544E+02  0.16901158719E+03 -0.17761622999E+03  0.30283000899E+03  0.17200000000E+03 0.  1.
</event>
<event>
 4    1 -0.6901648E-004  0.1753693E+03  0.7818608E-02  0.1172361E+00
          5   -1    0    0  501    0  0.00000000000E+00  0.00000000000E+00  0.48337932527E+03  0.48340217428E+03  0.47000000000E+01 0. -1.
         -5   -1    0    0    0  501 -0.00000000000E+00 -0.00000000000E+00 -0.27006342981E+03  0.27010432452E+03  0.47000000000E+01 0.  1.
          6    1    1    2  502    0  0.74890929987E+01  0.33381383537E+02  0.43606509560E+03  0.47000762853E+03  0.17200000000E+03 0. -1.
         -6    1    1    2    0  502 -0.74890929987E+01 -0.33381383537E+02 -0.22274920014E+03  0.28349887027E+03  0.17200000000E+03 0.  1.
</event>
<event>
 4    1 -0.6901648E-004  0.2182710E+03  0.7818608E-02  0.1135179E+00
         -5   -1    0    0    0  501 -0.00000000000E+00  0.00000000000E+00  0.11147864162E+04  0.11147963239E+04  0.47000000000E+01 0.  1.
          5   -1    0    0  501    0  0.00000000000E+00 -0.00000000000E+00 -0.28998220107E+03  0.29002028712E+03  0.47000000000E+01 0. -1.
          6    1    1    2  502    0  0.10141346701E+03 -0.88167582248E+02 -0.23619072008E+03  0.32160265873E+03  0.17200000000E+03 0. -1.
         -6    1    1    2    0  502 -0.10141346701E+03  0.88167582248E+02  0.10609949352E+04  0.10832139523E+04  0.17200000000E+03 0.  1.
</event>
<event>
 4    1 -0.6901648E-004  0.1934834E+03  0.7818608E-02  0.1155357E+00
         -5   -1    0    0    0  501 -0.00000000000E+00  0.00000000000E+00  0.31073986172E+03  0.31077540389E+03  0.47000000000E+01 0.  1.
          5   -1    0    0  501    0  0.00000000000E+00 -0.00000000000E+00 -0.42700245255E+03  0.42702831813E+03  0.47000000000E+01 0. -1.
          6    1    1    2  502    0 -0.87940509641E+02 -0.10875918992E+02 -0.37070051381E+03  0.41815629828E+03  0.17200000000E+03 0. -1.
         -6    1    1    2    0  502  0.87940509641E+02  0.10875918992E+02  0.25443792299E+03  0.31964742374E+03  0.17200000000E+03 0.  1.
</event>
<event>
 4    1 -0.6901648E-004  0.2284106E+03  0.7818608E-02  0.1127763E+00
          5   -1    0    0  501    0  0.00000000000E+00  0.00000000000E+00  0.64550233588E+03  0.64551944636E+03  0.47000000000E+01 0. -1.
         -5   -1    0    0    0  501 -0.00000000000E+00 -0.00000000000E+00 -0.90645890056E+02  0.90767656046E+02  0.47000000000E+01 0.  1.
          6    1    1    2  502    0 -0.13501651589E+03  0.66014665087E+02  0.39905192374E+03  0.45979760049E+03  0.17200000000E+03 0. -1.
         -6    1    1    2    0  502  0.13501651589E+03 -0.66014665087E+02  0.15580452208E+03  0.27648950192E+03  0.17200000000E+03 0.  1.
</event>
<event>
 4    1 -0.6901648E-004  0.1941587E+03  0.7818608E-02  0.1154763E+00
          5   -1    0    0  501    0  0.00000000000E+00  0.00000000000E+00  0.26981407224E+03  0.26985500473E+03  0.47000000000E+01 0. -1.
         -5   -1    0    0    0  501 -0.00000000000E+00 -0.00000000000E+00 -0.15821312588E+03  0.15828292138E+03  0.47000000000E+01 0.  1.
          6    1    1    2  502    0 -0.27156238274E+02  0.85884400211E+02  0.12914741978E+03  0.23318800894E+03  0.17200000000E+03 0. -1.
         -6    1    1    2    0  502  0.27156238274E+02 -0.85884400211E+02 -0.17546473429E+02  0.19494991718E+03  0.17200000000E+03 0.  1.
</event>
<event>
 4    1 -0.6901648E-004  0.1763145E+03  0.7818608E-02  0.1171418E+00
          5   -1    0    0  501    0  0.00000000000E+00  0.00000000000E+00  0.26400838246E+03  0.26405021493E+03  0.47000000000E+01 0. -1.
         -5   -1    0    0    0  501 -0.00000000000E+00 -0.00000000000E+00 -0.25454094299E+03  0.25458433114E+03  0.47000000000E+01 0.  1.
          6    1    1    2  502    0  0.40806969282E+01 -0.38550569470E+02  0.19486074869E+03  0.26278795610E+03  0.17200000000E+03 0. -1.
         -6    1    1    2    0  502 -0.40806969282E+01  0.38550569470E+02 -0.18539330922E+03  0.25584658997E+03  0.17200000000E+03 0.  1.
</event>
<event>
 4    1 -0.6901648E-004  0.1789630E+03  0.7818608E-02  0.1168810E+00
         -5   -1    0    0    0  501 -0.00000000000E+00  0.00000000000E+00  0.64599932088E+02  0.64770681838E+02  0.47000000000E+01 0.  1.
          5   -1    0    0  501    0  0.00000000000E+00 -0.00000000000E+00 -0.88404422659E+03  0.88405672022E+03  0.47000000000E+01 0. -1.
          6    1    1    2  502    0  0.37031364707E+02  0.32747793484E+02 -0.72442565149E+03  0.74620390275E+03  0.17200000000E+03 0. -1.
         -6    1    1    2    0  502 -0.37031364707E+02 -0.32747793484E+02 -0.95018643011E+02  0.20262349930E+03  0.17200000000E+03 0.  1.
</event>
<event>
 4    1 -0.6901648E-004  0.1771247E+03  0.7818608E-02  0.1170615E+00
          5   -1    0    0  501    0  0.00000000000E+00  0.00000000000E+00  0.86789780232E+02  0.86916948593E+02  0.47000000000E+01 0. -1.
         -5   -1    0    0    0  501 -0.00000000000E+00 -0.00000000000E+00 -0.39675318720E+03  0.39678102469E+03  0.47000000000E+01 0.  1.
          6    1    1    2  502    0  0.41035606680E+02 -0.10258395809E+02 -0.82473749885E+02  0.19538442906E+03  0.17200000000E+03 0. -1.
         -6    1    1    2    0  502 -0.41035606680E+02  0.10258395809E+02 -0.22748965708E+03  0.28831354422E+03  0.17200000000E+03 0.  1.
</event>
<event>
 4    1 -0.6901648E-004  0.1834027E+03  0.7818608E-02  0.1164550E+00
          5   -1    0    0  501    0  0.00000000000E+00  0.00000000000E+00  0.18407552576E+03  0.18413551853E+03  0.47000000000E+01 0. -1.
         -5   -1    0    0    0  501 -0.00000000000E+00 -0.00000000000E+00 -0.67157421364E+03  0.67159065987E+03  0.47000000000E+01 0.  1.
          6    1    1    2  502    0 -0.32067310126E+02  0.54992973010E+02  0.12131003680E+03  0.21989239297E+03  0.17200000000E+03 0. -1.
         -6    1    1    2    0  502  0.32067310126E+02 -0.54992973010E+02 -0.60880872467E+03  0.63583378543E+03  0.17200000000E+03 0.  1.
</event>
<event>
 4    1 -0.6901648E-004  0.2023296E+03  0.7818608E-02  0.1147788E+00
         -5   -1    0    0    0  501 -0.00000000000E+00  0.00000000000E+00  0.10773887269E+04  0.10773989785E+04  0.47000000000E+01 0.  1.
          5   -1    0    0  501    0  0.00000000000E+00 -0.00000000000E+00 -0.41846097149E+02  0.42109213322E+02  0.47000000000E+01 0. -1.
          6    1    1    2  502    0 -0.82892781107E+02  0.66948277212E+02  0.34519003748E+03  0.40011679165E+03  0.17200000000E+03 0. -1.
         -6    1    1    2    0  502  0.82892781107E+02 -0.66948277212E+02  0.69035259231E+03  0.71939140021E+03  0.17200000000E+03 0.  1.
</event>
<event>
 4    1 -0.6901648E-004  0.2087312E+03  0.7818608E-02  0.1142575E+00
          5   -1    0    0  501    0  0.00000000000E+00  0.00000000000E+00  0.39249321199E+03  0.39252135160E+03  0.47000000000E+01 0. -1.
         -5   -1    0    0    0  501 -0.00000000000E+00 -0.00000000000E+00 -0.14643185413E+04  0.14643260840E+04  0.47000000000E+01 0.  1.
          6    1    1    2  502    0 -0.10594476356E+03 -0.52539516721E+02  0.35662939836E+03  0.41322296828E+03  0.17200000000E+03 0. -1.
         -6    1    1    2    0  502  0.10594476356E+03  0.52539516721E+02 -0.14284547276E+04  0.14436244673E+04  0.17200000000E+03 0.  1.
</event>
<event>
 4    1 -0.6901648E-004  0.2330502E+03  0.7818608E-02  0.1124511E+00
          5   -1    0    0  501    0  0.00000000000E+00  0.00000000000E+00  0.23801244063E+03  0.23805884124E+03  0.47000000000E+01 0. -1.
         -5   -1    0    0    0  501 -0.00000000000E+00 -0.00000000000E+00 -0.23003822098E+03  0.23008622973E+03  0.47000000000E+01 0.  1.
          6    1    1    2  502    0  0.11052457337E+03  0.11186030412E+03  0.25476173342E+02  0.23443857269E+03  0.17200000000E+03 0. -1.
         -6    1    1    2    0  502 -0.11052457337E+03 -0.11186030412E+03 -0.17501953698E+02  0.23370649828E+03  0.17200000000E+03 0.  1.
</event>
<event>
 4    1 -0.6901648E-004  0.2313402E+03  0.7818608E-02  0.1125700E+00
          5   -1    0    0  501    0  0.00000000000E+00  0.00000000000E+00  0.21334725689E+03  0.21339902067E+03  0.47000000000E+01 0. -1.
         -5   -1    0    0    0  501 -0.00000000000E+00 -0.00000000000E+00 -0.34323256692E+03  0.34326474476E+03  0.47000000000E+01 0.  1.
          6    1    1    2  502    0  0.14830348163E+01 -0.15470003563E+03  0.79518186997E+02  0.24462510599E+03  0.17200000000E+03 0. -1.
         -6    1    1    2    0  502 -0.14830348163E+01  0.15470003563E+03 -0.20940349703E+03  0.31203865944E+03  0.17200000000E+03 0.  1.
</event>
<event>
 4    1 -0.6901648E-004  0.1769390E+03  0.7818608E-02  0.1170799E+00
          5   -1    0    0  501    0  0.00000000000E+00  0.00000000000E+00  0.44123190321E+03  0.44125693469E+03  0.47000000000E+01 0. -1.
         -5   -1    0    0    0  501 -0.00000000000E+00 -0.00000000000E+00 -0.81300161581E+02  0.81435902851E+02  0.47000000000E+01 0.  1.
          6    1    1    2  502    0 -0.39342798848E+02  0.13249021137E+02  0.27356783668E+03  0.32580170909E+03  0.17200000000E+03 0.  1.
         -6    1    1    2    0  502  0.39342798848E+02 -0.13249021137E+02  0.86363904949E+02  0.19689112844E+03  0.17200000000E+03 0.  1.
</event>
<event>
 4    1 -0.6901648E-004  0.2301821E+03  0.7818608E-02  0.1126512E+00
         -5   -1    0    0    0  501 -0.00000000000E+00  0.00000000000E+00  0.37864011063E+03  0.37866927968E+03  0.47000000000E+01 0.  1.
          5   -1    0    0  501    0  0.00000000000E+00 -0.00000000000E+00 -0.14550249069E+03  0.14557838025E+03  0.47000000000E+01 0. -1.
          6    1    1    2  502    0  0.11659113382E+03 -0.99026841180E+02  0.64959015515E+02  0.23917249310E+03  0.17200000000E+03 0.  1.
         -6    1    1    2    0  502 -0.11659113382E+03  0.99026841180E+02  0.16817860442E+03  0.28507516683E+03  0.17200000000E+03 0.  1.
</event>
<event>
 4    1 -0.6901648E-004  0.2589152E+03  0.7818608E-02  0.1107797E+00
         -5   -1    0    0    0  501 -0.00000000000E+00  0.00000000000E+00  0.62371559948E+03  0.62373330762E+03  0.47000000000E+01 0.  1.
          5   -1    0    0  501    0  0.00000000000E+00 -0.00000000000E+00 -0.28893947227E+03  0.28897769574E+03  0.47000000000E+01 0. -1.
          6    1    1    2  502    0  0.93071690040E+02 -0.16967829034E+03 -0.19427793257E+03  0.32369889834E+03  0.17200000000E+03 0. -1.
         -6    1    1    2    0  502 -0.93071690040E+02  0.16967829034E+03  0.52905405977E+03  0.58901210502E+03  0.17200000000E+03 0.  1.
</event>
<event>
 4    1 -0.6901648E-004  0.2317540E+03  0.7818608E-02  0.1125411E+00
         -5   -1    0    0    0  501 -0.00000000000E+00  0.00000000000E+00  0.19460029084E+03  0.19465703993E+03  0.47000000000E+01 0.  1.
          5   -1    0    0  501    0  0.00000000000E+00 -0.00000000000E+00 -0.27603430671E+03  0.27607431695E+03  0.47000000000E+01 0. -1.
          6    1    1    2  502    0  0.45202902766E+02 -0.14860219491E+03 -0.46204661330E+02  0.23631501323E+03  0.17200000000E+03 0. -1.
         -6    1    1    2    0  502 -0.45202902766E+02  0.14860219491E+03 -0.35229354536E+02  0.23441634365E+03  0.17200000000E+03 0.  1.
</event>
<event>
 4    1 -0.6901648E-004  0.2501576E+03  0.7818608E-02  0.1113205E+00
         -5   -1    0    0    0  501 -0.00000000000E+00  0.00000000000E+00  0.21332431073E+03  0.21337608007E+03  0.47000000000E+01 0.  1.
          5   -1    0    0  501    0  0.00000000000E+00 -0.00000000000E+00 -0.17160624749E+04  0.17160689111E+04  0.47000000000E+01 0. -1.
          6    1    1    2  502    0  0.14793512587E+03 -0.10540415584E+03 -0.16297870013E+04  0.16488737087E+04  0.17200000000E+03 0. -1.
         -6    1    1    2    0  502 -0.14793512587E+03  0.10540415584E+03  0.12704883717E+03  0.28057128249E+03  0.17200000000E+03 0.  1.
</event>
<event>
 4    1 -0.6901648E-004  0.1990847E+03  0.7818608E-02  0.1150514E+00
          5   -1    0    0  501    0  0.00000000000E+00  0.00000000000E+00  0.77350637806E+03  0.77352065706E+03  0.47000000000E+01 0. -1.
         -5   -1    0    0    0  501 -0.00000000000E+00 -0.00000000000E+00 -0.15590098270E+03  0.15597181286E+03  0.47000000000E+01 0.  1.
          6    1    1    2  502    0 -0.93701090576E+02  0.35648703333E+02  0.68962118347E+03  0.71778276736E+03  0.17200000000E+03 0. -1.
         -6    1    1    2    0  502  0.93701090576E+02 -0.35648703333E+02 -0.72015788105E+02  0.21170970257E+03  0.17200000000E+03 0.  1.
</event>
<event>
 4    1 -0.6901648E-004  0.1846407E+03  0.7818608E-02  0.1163386E+00
          5   -1    0    0  501    0  0.00000000000E+00  0.00000000000E+00  0.24189435153E+03  0.24194000766E+03  0.47000000000E+01 0. -1.
         -5   -1    0    0    0  501 -0.00000000000E+00 -0.00000000000E+00 -0.53421589292E+03  0.53423656768E+03  0.47000000000E+01 0.  1.
          6    1    1    2  502    0  0.61006636691E+02 -0.28042430251E+02  0.18683384624E+03  0.26267674758E+03  0.17200000000E+03 0. -1.
         -6    1    1    2    0  502 -0.61006636691E+02  0.28042430251E+02 -0.47915538763E+03  0.51349982776E+03  0.17200000000E+03 0.  1.
</event>
<event>
 4    1 -0.6901648E-004  0.1723223E+03  0.7818608E-02  0.1175447E+00
         -5   -1    0    0    0  501 -0.00000000000E+00  0.00000000000E+00  0.14019014541E+02  0.14785897629E+02  0.47000000000E+01 0.  1.
          5   -1    0    0  501    0  0.00000000000E+00 -0.00000000000E+00 -0.20633992922E+04  0.20634046450E+04  0.47000000000E+01 0. -1.
          6    1    1    2  502    0  0.10306905673E+02 -0.21768776996E+01 -0.10598980306E+04  0.10738150708E+04  0.17200000000E+03 0. -1.
         -6    1    1    2    0  502 -0.10306905673E+02  0.21768776996E+01 -0.98948224708E+03  0.10043754718E+04  0.17200000000E+03 0. -1.
</event>
<event>
 4    1 -0.6901648E-004  0.2991728E+03  0.7818608E-02  0.1085655E+00
          5   -1    0    0  501    0  0.00000000000E+00  0.00000000000E+00  0.15973641025E+03  0.15980554046E+03  0.47000000000E+01 0. -1.
         -5   -1    0    0    0  501 -0.00000000000E+00 -0.00000000000E+00 -0.13335308767E+04  0.13335391592E+04  0.47000000000E+01 0.  1.
          6    1    1    2  502    0  0.22141227287E+03  0.10438864916E+03 -0.18281795426E+02  0.29973089379E+03  0.17200000000E+03 0. -1.
         -6    1    1    2    0  502 -0.22141227287E+03 -0.10438864916E+03 -0.11555126710E+04  0.11936138058E+04  0.17200000000E+03 0.  1.
</event>
<event>
 4    1 -0.6901648E-004  0.2322290E+03  0.7818608E-02  0.1125081E+00
         -5   -1    0    0    0  501 -0.00000000000E+00  0.00000000000E+00  0.84348524957E+03  0.84349834395E+03  0.47000000000E+01 0.  1.
          5   -1    0    0  501    0  0.00000000000E+00 -0.00000000000E+00 -0.48485923266E+03  0.48488201193E+03  0.47000000000E+01 0. -1.
          6    1    1    2  502    0  0.75456797566E+02 -0.13657447119E+03 -0.43953959850E+03  0.49711706180E+03  0.17200000000E+03 0. -1.
         -6    1    1    2    0  502 -0.75456797566E+02  0.13657447119E+03  0.79816561541E+03  0.83126329409E+03  0.17200000000E+03 0.  1.
</event>
<event>
 4    1 -0.6901648E-004  0.1965335E+03  0.7818608E-02  0.1152697E+00
          5   -1    0    0  501    0  0.00000000000E+00  0.00000000000E+00  0.93591257057E+03  0.93592437181E+03  0.47000000000E+01 0. -1.
         -5   -1    0    0    0  501 -0.00000000000E+00 -0.00000000000E+00 -0.12584545019E+03  0.12593318599E+03  0.47000000000E+01 0.  1.
          6    1    1    2  502    0  0.92163194293E+02  0.23396001294E+02  0.84033120423E+03  0.86300750869E+03  0.17200000000E+03 0. -1.
         -6    1    1    2    0  502 -0.92163194293E+02 -0.23396001294E+02 -0.30264083849E+02  0.19885004911E+03  0.17200000000E+03 0.  1.
</event>
<event>
 4    1 -0.6901648E-004  0.1818326E+03  0.7818608E-02  0.1166041E+00
         -5   -1    0    0    0  501 -0.00000000000E+00  0.00000000000E+00  0.18218461670E+03  0.18224523193E+03  0.47000000000E+01 0.  1.
          5   -1    0    0  501    0  0.00000000000E+00 -0.00000000000E+00 -0.47886154727E+03  0.47888461184E+03  0.47000000000E+01 0. -1.
          6    1    1    2  502    0  0.39122774040E+02  0.44141922013E+02 -0.40886372766E+03  0.44747362886E+03  0.17200000000E+03 0. -1.
         -6    1    1    2    0  502 -0.39122774040E+02 -0.44141922013E+02  0.11218679709E+03  0.21365621491E+03  0.17200000000E+03 0.  1.
</event>
<event>
 4    1 -0.6901648E-004  0.1825638E+03  0.7818608E-02  0.1165345E+00
         -5   -1    0    0    0  501 -0.00000000000E+00  0.00000000000E+00  0.29050044270E+03  0.29053846081E+03  0.47000000000E+01 0.  1.
          5   -1    0    0  501    0  0.00000000000E+00 -0.00000000000E+00 -0.11466689603E+03  0.11476317809E+03  0.47000000000E+01 0. -1.
          6    1    1    2  502    0 -0.27192302856E+02  0.54828030778E+02  0.84688301188E+02  0.20125019913E+03  0.17200000000E+03 0.  1.
         -6    1    1    2    0  502  0.27192302856E+02 -0.54828030778E+02  0.91145245487E+02  0.20405143976E+03  0.17200000000E+03 0.  1.
</event>
<event>
 4    1 -0.6901648E-004  0.1872387E+03  0.7818608E-02  0.1160976E+00
          5   -1    0    0  501    0  0.00000000000E+00  0.00000000000E+00  0.95804779928E+02  0.95919997170E+02  0.47000000000E+01 0. -1.
         -5   -1    0    0    0  501 -0.00000000000E+00 -0.00000000000E+00 -0.56148842648E+03  0.56150809707E+03  0.47000000000E+01 0.  1.
          6    1    1    2  502    0  0.73985063155E+02 -0.74129707744E+00 -0.38701950040E+02  0.19119670507E+03  0.17200000000E+03 0. -1.
         -6    1    1    2    0  502 -0.73985063155E+02  0.74129707744E+00 -0.42698169652E+03  0.46623138917E+03  0.17200000000E+03 0.  1.
</event>
<event>
 4    1 -0.6901648E-004  0.2063124E+03  0.7818608E-02  0.1144520E+00
         -5   -1    0    0    0  501 -0.00000000000E+00  0.00000000000E+00  0.64671132802E+02  0.64841695057E+02  0.47000000000E+01 0.  1.
          5   -1    0    0  501    0  0.00000000000E+00 -0.00000000000E+00 -0.67805951280E+03  0.67807580173E+03  0.47000000000E+01 0. -1.
          6    1    1    2  502    0 -0.11253860183E+03 -0.17773121718E+02 -0.24143816940E+03  0.31758024246E+03  0.17200000000E+03 0. -1.
         -6    1    1    2    0  502  0.11253860183E+03  0.17773121718E+02 -0.37195021059E+03  0.42533725433E+03  0.17200000000E+03 0. -1.
</event>
<event>
 4    1 -0.6901648E-004  0.1913492E+03  0.7818608E-02  0.1157250E+00
         -5   -1    0    0    0  501 -0.00000000000E+00  0.00000000000E+00  0.37912257858E+03  0.37915171051E+03  0.47000000000E+01 0.  1.
          5   -1    0    0  501    0  0.00000000000E+00 -0.00000000000E+00 -0.23276130299E+03  0.23280875020E+03  0.47000000000E+01 0. -1.
          6    1    1    2  502    0 -0.64397139556E+02 -0.53698332900E+02 -0.16088758347E+03  0.24999863410E+03  0.17200000000E+03 0. -1.
         -6    1    1    2    0  502  0.64397139556E+02  0.53698332900E+02  0.30724885905E+03  0.36196182661E+03  0.17200000000E+03 0.  1.
</event>
<event>
 4    1 -0.6901648E-004  0.2088254E+03  0.7818608E-02  0.1142500E+00
         -5   -1    0    0    0  501 -0.00000000000E+00  0.00000000000E+00  0.53437412518E+03  0.53439479382E+03  0.47000000000E+01 0.  1.
          5   -1    0    0  501    0  0.00000000000E+00 -0.00000000000E+00 -0.94467013131E+02  0.94583859987E+02  0.47000000000E+01 0. -1.
          6    1    1    2  502    0  0.50610787239E+01 -0.11831501381E+03  0.10359939070E+03  0.23311132698E+03  0.17200000000E+03 0. -1.
         -6    1    1    2    0  502 -0.50610787239E+01  0.11831501381E+03  0.33630772135E+03  0.39586732683E+03  0.17200000000E+03 0.  1.
</event>
<event>
 4    1 -0.6901648E-004  0.1720751E+03  0.7818608E-02  0.1175701E+00
         -5   -1    0    0    0  501 -0.00000000000E+00  0.00000000000E+00  0.79604732985E+03  0.79606120453E+03  0.47000000000E+01 0.  1.
          5   -1    0    0  501    0  0.00000000000E+00 -0.00000000000E+00 -0.12306170578E+03  0.12315142479E+03  0.47000000000E+01 0. -1.
          6    1    1    2  502    0 -0.37704194595E+01  0.34101988558E+01 -0.47461777292E+02  0.17850060454E+03  0.17200000000E+03 0. -1.
         -6    1    1    2    0  502  0.37704194595E+01 -0.34101988558E+01  0.72044740136E+03  0.74071202478E+03  0.17200000000E+03 0.  1.
</event>
<event>
 4    1 -0.6901648E-004  0.2008143E+03  0.7818608E-02  0.1149054E+00
         -5   -1    0    0    0  501 -0.00000000000E+00  0.00000000000E+00  0.13179057892E+03  0.13187435949E+03  0.47000000000E+01 0.  1.
          5   -1    0    0  501    0  0.00000000000E+00 -0.00000000000E+00 -0.10327614304E+04  0.10327721250E+04  0.47000000000E+01 0. -1.
          6    1    1    2  502    0 -0.25907249521E+02 -0.10035527211E+03 -0.93902584979E+03  0.96025825317E+03  0.17200000000E+03 0. -1.
         -6    1    1    2    0  502  0.25907249521E+02  0.10035527211E+03  0.38054998259E+02  0.20438823134E+03  0.17200000000E+03 0.  1.
</event>
<event>
 4    1 -0.6901648E-004  0.2016219E+03  0.7818608E-02  0.1148378E+00
         -5   -1    0    0    0  501 -0.00000000000E+00  0.00000000000E+00  0.36849641733E+03  0.36852638926E+03  0.47000000000E+01 0.  1.
          5   -1    0    0  501    0  0.00000000000E+00 -0.00000000000E+00 -0.75104201069E+03  0.75105671678E+03  0.47000000000E+01 0. -1.
          6    1    1    2  502    0 -0.25718386950E+02  0.10200958522E+03 -0.70832389913E+03  0.73646054679E+03  0.17200000000E+03 0. -1.
         -6    1    1    2    0  502  0.25718386950E+02 -0.10200958522E+03  0.32577830576E+03  0.38312255925E+03  0.17200000000E+03 0.  1.
</event>
<event>
 4    1 -0.6901648E-004  0.1781632E+03  0.7818608E-02  0.1169593E+00
         -5   -1    0    0    0  501 -0.00000000000E+00  0.00000000000E+00  0.10592870190E+04  0.10592974457E+04  0.47000000000E+01 0.  1.
          5   -1    0    0  501    0  0.00000000000E+00 -0.00000000000E+00 -0.39850510759E+02  0.40126714391E+02  0.47000000000E+01 0. -1.
          6    1    1    2  502    0  0.43372403536E+02 -0.16641829357E+02  0.23439699555E+03  0.29442158107E+03  0.17200000000E+03 0. -1.
         -6    1    1    2    0  502 -0.43372403536E+02  0.16641829357E+02  0.78503951265E+03  0.80500257906E+03  0.17200000000E+03 0.  1.
</event>
<event>
 4    1 -0.6901648E-004  0.2177383E+03  0.7818608E-02  0.1135581E+00
         -5   -1    0    0    0  501 -0.00000000000E+00  0.00000000000E+00  0.14791117154E+04  0.14791191827E+04  0.47000000000E+01 0.  1.
          5   -1    0    0  501    0  0.00000000000E+00 -0.00000000000E+00 -0.20033626901E+03  0.20039139373E+03  0.47000000000E+01 0. -1.
          6    1    1    2  502    0  0.10328063876E+03  0.84611213286E+02 -0.13027557798E+03  0.25373544091E+03  0.17200000000E+03 0. -1.
         -6    1    1    2    0  502 -0.10328063876E+03 -0.84611213286E+02  0.14090510244E+04  0.14257751355E+04  0.17200000000E+03 0.  1.
</event>
<event>
 4    1 -0.6901648E-004  0.2624728E+03  0.7818608E-02  0.1105667E+00
          5   -1    0    0  501    0  0.00000000000E+00  0.00000000000E+00  0.32927238160E+03  0.32930592355E+03  0.47000000000E+01 0. -1.
         -5   -1    0    0    0  501 -0.00000000000E+00 -0.00000000000E+00 -0.10214824501E+04  0.10214932627E+04  0.47000000000E+01 0.  1.
          6    1    1    2  502    0 -0.18955300686E+03  0.58117269909E+02  0.25617326755E+03  0.36676518712E+03  0.17200000000E+03 0. -1.
         -6    1    1    2    0  502  0.18955300686E+03 -0.58117269909E+02 -0.94838333602E+03  0.98403399917E+03  0.17200000000E+03 0.  1.
</event>
<event>
 4    1 -0.6901648E-004  0.1805310E+03  0.7818608E-02  0.1167290E+00
         -5   -1    0    0    0  501 -0.00000000000E+00  0.00000000000E+00  0.84140531258E+02  0.84271697505E+02  0.47000000000E+01 0.  1.
          5   -1    0    0  501    0  0.00000000000E+00 -0.00000000000E+00 -0.13655108489E+04  0.13655189374E+04  0.47000000000E+01 0. -1.
          6    1    1    2  502    0 -0.21728883088E+02 -0.50351862704E+02 -0.12543190303E+04  0.12672441297E+04  0.17200000000E+03 0. -1.
         -6    1    1    2    0  502  0.21728883088E+02  0.50351862704E+02 -0.27051287364E+02  0.18254650527E+03  0.17200000000E+03 0.  1.
</event>
<event>
 4    1 -0.6901648E-004  0.1723436E+03  0.7818608E-02  0.1175426E+00
         -5   -1    0    0    0  501 -0.00000000000E+00  0.00000000000E+00  0.62187555183E+03  0.62189331236E+03  0.47000000000E+01 0.  1.
          5   -1    0    0  501    0  0.00000000000E+00 -0.00000000000E+00 -0.19770968769E+03  0.19776554454E+03  0.47000000000E+01 0. -1.
          6    1    1    2  502    0 -0.66236543772E+01  0.86271993207E+01 -0.14484074964E+03  0.22512473014E+03  0.17200000000E+03 0. -1.
         -6    1    1    2    0  502  0.66236543772E+01 -0.86271993207E+01  0.56900661378E+03  0.59453412676E+03  0.17200000000E+03 0.  1.
</event>
<event>
 4    1 -0.6901648E-004  0.1808378E+03  0.7818608E-02  0.1166995E+00
         -5   -1    0    0    0  501 -0.00000000000E+00  0.00000000000E+00  0.28371237031E+03  0.28375129791E+03  0.47000000000E+01 0.  1.
          5   -1    0    0  501    0  0.00000000000E+00 -0.00000000000E+00 -0.23626469859E+03  0.23631144238E+03  0.47000000000E+01 0. -1.
          6    1    1    2  502    0 -0.12865935369E+02 -0.54339446426E+02 -0.16239310466E+03  0.24305108140E+03  0.17200000000E+03 0. -1.
         -6    1    1    2    0  502  0.12865935369E+02  0.54339446426E+02  0.20984077638E+03  0.27701165889E+03  0.17200000000E+03 0.  1.
</event>
<event>
 4    1 -0.6901648E-004  0.1720294E+03  0.7818608E-02  0.1175748E+00
         -5   -1    0    0    0  501 -0.00000000000E+00  0.00000000000E+00  0.29503914975E+03  0.29507658308E+03  0.47000000000E+01 0.  1.
          5   -1    0    0  501    0  0.00000000000E+00 -0.00000000000E+00 -0.23645910537E+03  0.23650581074E+03  0.47000000000E+01 0. -1.
          6    1    1    2  502    0  0.30233931146E+01 -0.98190993513E+00 -0.17242028841E+03  0.24356284796E+03  0.17200000000E+03 0. -1.
         -6    1    1    2    0  502 -0.30233931146E+01  0.98190993513E+00  0.23100033278E+03  0.28801954586E+03  0.17200000000E+03 0.  1.
</event>
<event>
 4    1 -0.6901648E-004  0.5029015E+03  0.7818608E-02  0.1013024E+00
          5   -1    0    0  501    0  0.00000000000E+00  0.00000000000E+00  0.26090125558E+03  0.26094358617E+03  0.47000000000E+01 0. -1.
         -5   -1    0    0    0  501 -0.00000000000E+00 -0.00000000000E+00 -0.97549120752E+03  0.97550252996E+03  0.47000000000E+01 0.  1.
          6    1    1    2  502    0  0.19010792103E+03  0.43264874140E+03 -0.30782137287E+03  0.58963035257E+03  0.17200000000E+03 0. -1.
         -6    1    1    2    0  502 -0.19010792103E+03 -0.43264874140E+03 -0.40676857907E+03  0.64681576356E+03  0.17200000000E+03 0.  1.
</event>
<event>
 4    1 -0.6901648E-004  0.1850631E+03  0.7818608E-02  0.1162991E+00
         -5   -1    0    0    0  501 -0.00000000000E+00  0.00000000000E+00  0.33488218620E+03  0.33491516633E+03  0.47000000000E+01 0.  1.
          5   -1    0    0  501    0  0.00000000000E+00 -0.00000000000E+00 -0.16142605602E+03  0.16149446295E+03  0.47000000000E+01 0. -1.
          6    1    1    2  502    0 -0.39355304252E+02 -0.55816838414E+02 -0.63585450522E+02  0.19568206086E+03  0.17200000000E+03 0. -1.
         -6    1    1    2    0  502  0.39355304252E+02  0.55816838414E+02  0.23704158070E+03  0.30072756842E+03  0.17200000000E+03 0.  1.
</event>
<event>
 4    1 -0.6901648E-004  0.2016189E+03  0.7818608E-02  0.1148380E+00
         -5   -1    0    0    0  501 -0.00000000000E+00  0.00000000000E+00  0.26234340001E+03  0.26238549794E+03  0.47000000000E+01 0.  1.
          5   -1    0    0  501    0  0.00000000000E+00 -0.00000000000E+00 -0.43149878526E+03  0.43152438133E+03  0.47000000000E+01 0. -1.
          6    1    1    2  502    0  0.64160836928E+02  0.83364124816E+02 -0.36235333366E+03  0.41466869754E+03  0.17200000000E+03 0. -1.
         -6    1    1    2    0  502 -0.64160836928E+02 -0.83364124816E+02  0.19319794842E+03  0.27924118173E+03  0.17200000000E+03 0.  1.
</event>
<event>
 4    1 -0.6901648E-004  0.1768540E+03  0.7818608E-02  0.1170883E+00
          5   -1    0    0  501    0  0.00000000000E+00  0.00000000000E+00  0.10100353157E+03  0.10111282505E+03  0.47000000000E+01 0. -1.
         -5   -1    0    0    0  501 -0.00000000000E+00 -0.00000000000E+00 -0.59421560439E+03  0.59423419163E+03  0.47000000000E+01 0.  1.
          6    1    1    2  502    0  0.34701611395E+02 -0.22116631489E+02 -0.59185542103E+01  0.17695303475E+03  0.17200000000E+03 0. -1.
         -6    1    1    2    0  502 -0.34701611395E+02  0.22116631489E+02 -0.48729351862E+03  0.51839398194E+03  0.17200000000E+03 0.  1.
</event>
<event>
 4    1 -0.6901648E-004  0.1804367E+03  0.7818608E-02  0.1167381E+00
          5   -1    0    0  501    0  0.00000000000E+00  0.00000000000E+00  0.33139571503E+03  0.33142904209E+03  0.47000000000E+01 0. -1.
         -5   -1    0    0    0  501 -0.00000000000E+00 -0.00000000000E+00 -0.42795421204E+03  0.42798002010E+03  0.47000000000E+01 0.  1.
          6    1    1    2  502    0  0.46178104343E+02  0.28999792036E+02  0.28501209652E+03  0.33732669687E+03  0.17200000000E+03 0. -1.
         -6    1    1    2    0  502 -0.46178104343E+02 -0.28999792036E+02 -0.38157059354E+03  0.42208236532E+03  0.17200000000E+03 0.  1.
</event>
<event>
 4    1 -0.6901648E-004  0.1900426E+03  0.7818608E-02  0.1158423E+00
          5   -1    0    0  501    0  0.00000000000E+00  0.00000000000E+00  0.27258114222E+03  0.27262165925E+03  0.47000000000E+01 0. -1.
         -5   -1    0    0    0  501 -0.00000000000E+00 -0.00000000000E+00 -0.17516129430E+03  0.17522433912E+03  0.47000000000E+01 0.  1.
          6    1    1    2  502    0 -0.80815832367E+02  0.10034241424E+01  0.15930571419E+03  0.24798087869E+03  0.17200000000E+03 0. -1.
         -6    1    1    2    0  502  0.80815832367E+02 -0.10034241424E+01 -0.61885866278E+02  0.19986511968E+03  0.17200000000E+03 0.  1.
</event>
<event>
 4    1 -0.6901648E-004  0.1860221E+03  0.7818608E-02  0.1162099E+00
         -5   -1    0    0    0  501 -0.00000000000E+00  0.00000000000E+00  0.13168805970E+04  0.13168889842E+04  0.47000000000E+01 0.  1.
          5   -1    0    0  501    0  0.00000000000E+00 -0.00000000000E+00 -0.92017458733E+02  0.92137412117E+02  0.47000000000E+01 0. -1.
          6    1    1    2  502    0 -0.23072883074E+02 -0.66991482313E+02  0.16860328368E+02  0.18678460137E+03  0.17200000000E+03 0. -1.
         -6    1    1    2    0  502  0.23072883074E+02  0.66991482313E+02  0.12080028099E+04  0.12222417949E+04  0.17200000000E+03 0.  1.
</event>
<event>
 4    1 -0.6901648E-004  0.2373682E+03  0.7818608E-02  0.1121559E+00
          5   -1    0    0  501    0  0.00000000000E+00  0.00000000000E+00  0.26056758981E+03  0.26060997460E+03  0.47000000000E+01 0. -1.
         -5   -1    0    0    0  501 -0.00000000000E+00 -0.00000000000E+00 -0.22372749041E+03  0.22377685306E+03  0.47000000000E+01 0.  1.
          6    1    1    2  502    0 -0.12115418339E+03  0.10991509948E+03  0.62986573199E+02  0.24558292622E+03  0.17200000000E+03 0.  1.
         -6    1    1    2    0  502  0.12115418339E+03 -0.10991509948E+03 -0.26146473803E+02  0.23880390144E+03  0.17200000000E+03 0.  1.
</event>
<event>
 4    1 -0.6901648E-004  0.1767289E+03  0.7818608E-02  0.1171007E+00
         -5   -1    0    0    0  501 -0.00000000000E+00  0.00000000000E+00  0.49106952233E+03  0.49109201354E+03  0.47000000000E+01 0.  1.
          5   -1    0    0  501    0  0.00000000000E+00 -0.00000000000E+00 -0.75919069669E+02  0.76064414409E+02  0.47000000000E+01 0. -1.
          6    1    1    2  502    0 -0.39534182601E+02  0.92827699823E+01  0.92978640293E+02  0.19969514006E+03  0.17200000000E+03 0. -1.
         -6    1    1    2    0  502  0.39534182601E+02 -0.92827699823E+01  0.32217181237E+03  0.36746128789E+03  0.17200000000E+03 0. -1.
</event>
<event>
 4    1 -0.6901648E-004  0.1798975E+03  0.7818608E-02  0.1167902E+00
          5   -1    0    0  501    0  0.00000000000E+00  0.00000000000E+00  0.52512238957E+03  0.52514342234E+03  0.47000000000E+01 0. -1.
         -5   -1    0    0    0  501 -0.00000000000E+00 -0.00000000000E+00 -0.61396208071E+03  0.61398007016E+03  0.47000000000E+01 0.  1.
          6    1    1    2  502    0  0.52706118668E+02  0.10845355391E+01  0.49580179670E+03  0.52743012122E+03  0.17200000000E+03 0. -1.
         -6    1    1    2    0  502 -0.52706118668E+02 -0.10845355391E+01 -0.58464148784E+03  0.61169337128E+03  0.17200000000E+03 0.  1.
</event>
<event>
 4    1 -0.6901648E-004  0.2368979E+03  0.7818608E-02  0.1121877E+00
         -5   -1    0    0    0  501 -0.00000000000E+00  0.00000000000E+00  0.89341923621E+02  0.89465464377E+02  0.47000000000E+01 0.  1.
          5   -1    0    0  501    0  0.00000000000E+00 -0.00000000000E+00 -0.66921769439E+03  0.66923419853E+03  0.47000000000E+01 0. -1.
          6    1    1    2  502    0 -0.35566972601E+01 -0.16286179081E+03 -0.38454125885E+03  0.45165539160E+03  0.17200000000E+03 0. -1.
         -6    1    1    2    0  502  0.35566972601E+01  0.16286179081E+03 -0.19533451192E+03  0.30704427131E+03  0.17200000000E+03 0.  1.
</event>
<event>
 4    1 -0.6901648E-004  0.2068182E+03  0.7818608E-02  0.1144111E+00
         -5   -1    0    0    0  501 -0.00000000000E+00  0.00000000000E+00  0.12789628616E+03  0.12798261606E+03  0.47000000000E+01 0.  1.
          5   -1    0    0  501    0  0.00000000000E+00 -0.00000000000E+00 -0.83876942860E+03  0.83878259659E+03  0.47000000000E+01 0. -1.
          6    1    1    2  502    0 -0.98301551804E+02 -0.59384978355E+02 -0.73031541847E+03  0.75903516466E+03  0.17200000000E+03 0. -1.
         -6    1    1    2    0  502  0.98301551804E+02  0.59384978355E+02  0.19442276038E+02  0.20773004799E+03  0.17200000000E+03 0.  1.
</event>
<event>
 4    1 -0.6901648E-004  0.2102124E+03  0.7818608E-02  0.1141398E+00
          5   -1    0    0  501    0  0.00000000000E+00  0.00000000000E+00  0.11663490084E+04  0.11663584781E+04  0.47000000000E+01 0. -1.
         -5   -1    0    0    0  501 -0.00000000000E+00 -0.00000000000E+00 -0.27992683140E+03  0.27996628536E+03  0.47000000000E+01 0.  1.
          6    1    1    2  502    0  0.10806722685E+03  0.54099156046E+02  0.11156623858E+04  0.11352937079E+04  0.17200000000E+03 0. -1.
         -6    1    1    2    0  502 -0.10806722685E+03 -0.54099156046E+02 -0.22924020875E+03  0.31103105554E+03  0.17200000000E+03 0.  1.
</event>
<event>
 4    1 -0.6901648E-004  0.1746466E+03  0.7818608E-02  0.1173087E+00
          5   -1    0    0  501    0  0.00000000000E+00  0.00000000000E+00  0.22451343116E+03  0.22456262105E+03  0.47000000000E+01 0. -1.
         -5   -1    0    0    0  501 -0.00000000000E+00 -0.00000000000E+00 -0.13575242174E+03  0.13583375872E+03  0.47000000000E+01 0.  1.
          6    1    1    2  502    0 -0.15698884911E+02  0.25903480239E+02  0.44957900510E+02  0.18034039507E+03  0.17200000000E+03 0.  1.
         -6    1    1    2    0  502  0.15698884911E+02 -0.25903480239E+02  0.43803108915E+02  0.18005598470E+03  0.17200000000E+03 0.  1.
</event>
<event>
 4    1 -0.6901648E-004  0.1761922E+03  0.7818608E-02  0.1171540E+00
         -5   -1    0    0    0  501 -0.00000000000E+00  0.00000000000E+00  0.18716591021E+03  0.18722491272E+03  0.47000000000E+01 0.  1.
          5   -1    0    0  501    0  0.00000000000E+00 -0.00000000000E+00 -0.40984312538E+03  0.40987007383E+03  0.47000000000E+01 0. -1.
          6    1    1    2  502    0  0.26390182773E+02  0.27626925731E+02 -0.34171192909E+03  0.38446161220E+03  0.17200000000E+03 0. -1.
         -6    1    1    2    0  502 -0.26390182773E+02 -0.27626925731E+02  0.11903471391E+03  0.21263337435E+03  0.17200000000E+03 0.  1.
</event>
<event>
 4    1 -0.6901648E-004  0.2069514E+03  0.7818608E-02  0.1144003E+00
         -5   -1    0    0    0  501 -0.00000000000E+00  0.00000000000E+00  0.41193462788E+03  0.41196143952E+03  0.47000000000E+01 0.  1.
          5   -1    0    0  501    0  0.00000000000E+00 -0.00000000000E+00 -0.48145019950E+03  0.48147314006E+03  0.47000000000E+01 0. -1.
          6    1    1    2  502    0 -0.59559814772E+02  0.98475933339E+02 -0.43031636927E+03  0.47749456399E+03  0.17200000000E+03 0. -1.
         -6    1    1    2    0  502  0.59559814772E+02 -0.98475933339E+02  0.36080079765E+03  0.41594001559E+03  0.17200000000E+03 0.  1.
</event>
<event>
 4    1 -0.6901648E-004  0.1776763E+03  0.7818608E-02  0.1170071E+00
          5   -1    0    0  501    0  0.00000000000E+00  0.00000000000E+00  0.77855079560E+03  0.77856498208E+03  0.47000000000E+01 0. -1.
         -5   -1    0    0    0  501 -0.00000000000E+00 -0.00000000000E+00 -0.24145704564E+03  0.24150278443E+03  0.47000000000E+01 0.  1.
          6    1    1    2  502    0 -0.23425735230E+02 -0.37896070957E+02  0.73379612273E+03  0.75500041523E+03  0.17200000000E+03 0. -1.
         -6    1    1    2    0  502  0.23425735230E+02  0.37896070957E+02 -0.19670237277E+03  0.26506735129E+03  0.17200000000E+03 0.  1.
</event>
<event>
 4    1 -0.6901648E-004  0.2080588E+03  0.7818608E-02  0.1143112E+00
          5   -1    0    0  501    0  0.00000000000E+00  0.00000000000E+00  0.32387457515E+02  0.32726707813E+02  0.47000000000E+01 0. -1.
         -5   -1    0    0    0  501 -0.00000000000E+00 -0.00000000000E+00 -0.28964857299E+04  0.28964895431E+04  0.47000000000E+01 0.  1.
          6    1    1    2  502    0 -0.11497435509E+03 -0.22031069308E+02 -0.35478136849E+03  0.41128857238E+03  0.17200000000E+03 0. -1.
         -6    1    1    2    0  502  0.11497435509E+03  0.22031069308E+02 -0.25093169038E+04  0.25179276785E+04  0.17200000000E+03 0.  1.
</event>
<event>
 4    1 -0.6901648E-004  0.1824003E+03  0.7818608E-02  0.1165500E+00
          5   -1    0    0  501    0  0.00000000000E+00  0.00000000000E+00  0.81982994847E+03  0.81984342067E+03  0.47000000000E+01 0. -1.
         -5   -1    0    0    0  501 -0.00000000000E+00 -0.00000000000E+00 -0.24557565186E+03  0.24562062370E+03  0.47000000000E+01 0.  1.
          6    1    1    2  502    0 -0.85766416219E+01  0.60102612140E+02  0.77386328652E+03  0.79506871967E+03  0.17200000000E+03 0. -1.
         -6    1    1    2    0  502  0.85766416219E+01 -0.60102612140E+02 -0.19960898991E+03  0.27039532470E+03  0.17200000000E+03 0.  1.
</event>
<event>
 4    1 -0.6901648E-004  0.2051674E+03  0.7818608E-02  0.1145451E+00
         -5   -1    0    0    0  501 -0.00000000000E+00  0.00000000000E+00  0.87008213564E+03  0.87009482975E+03  0.47000000000E+01 0.  1.
          5   -1    0    0  501    0  0.00000000000E+00 -0.00000000000E+00 -0.72225513867E+02  0.72378276115E+02  0.47000000000E+01 0. -1.
          6    1    1    2  502    0 -0.89424655300E+02 -0.67177941738E+02  0.12781434644E+03  0.24172329633E+03  0.17200000000E+03 0. -1.
         -6    1    1    2    0  502  0.89424655300E+02  0.67177941738E+02  0.67004227534E+03  0.70074980954E+03  0.17200000000E+03 0.  1.
</event>
<event>
 4    1 -0.6901648E-004  0.1811926E+03  0.7818608E-02  0.1166654E+00
          5   -1    0    0  501    0  0.00000000000E+00  0.00000000000E+00  0.14448945926E+03  0.14456588061E+03  0.47000000000E+01 0. -1.
         -5   -1    0    0    0  501 -0.00000000000E+00 -0.00000000000E+00 -0.49267448592E+03  0.49269690386E+03  0.47000000000E+01 0.  1.
          6    1    1    2  502    0 -0.51815499381E+02  0.23704754640E+02  0.59837791799E+02  0.19081751150E+03  0.17200000000E+03 0. -1.
         -6    1    1    2    0  502  0.51815499381E+02 -0.23704754640E+02 -0.40802281846E+03  0.44644527296E+03  0.17200000000E+03 0.  1.
</event>
<event>
 4    1 -0.6901648E-004  0.2757113E+03  0.7818608E-02  0.1098055E+00
         -5   -1    0    0    0  501 -0.00000000000E+00  0.00000000000E+00  0.93318765018E+02  0.93437047815E+02  0.47000000000E+01 0.  1.
          5   -1    0    0  501    0  0.00000000000E+00 -0.00000000000E+00 -0.82262511105E+03  0.82263853747E+03  0.47000000000E+01 0. -1.
          6    1    1    2  502    0  0.16066701779E+03  0.14359255805E+03 -0.41168367582E+03  0.49547972942E+03  0.17200000000E+03 0.  1.
         -6    1    1    2    0  502 -0.16066701779E+03 -0.14359255805E+03 -0.31762267022E+03  0.42059585586E+03  0.17200000000E+03 0.  1.
</event>
<event>
 4    1 -0.6901648E-004  0.1729821E+03  0.7818608E-02  0.1174773E+00
         -5   -1    0    0    0  501 -0.00000000000E+00  0.00000000000E+00  0.40411318176E+03  0.40414051229E+03  0.47000000000E+01 0.  1.
          5   -1    0    0  501    0  0.00000000000E+00 -0.00000000000E+00 -0.79330040842E+02  0.79469147346E+02  0.47000000000E+01 0. -1.
          6    1    1    2  502    0  0.47951065920E+01 -0.17771539685E+02  0.99437324126E+02  0.19952594342E+03  0.17200000000E+03 0. -1.
         -6    1    1    2    0  502 -0.47951065920E+01  0.17771539685E+02  0.22534581679E+03  0.28408371621E+03  0.17200000000E+03 0.  1.
</event>
<event>
 4    1 -0.6901648E-004  0.2192900E+03  0.7818608E-02  0.1134414E+00
          5   -1    0    0  501    0  0.00000000000E+00  0.00000000000E+00  0.13919335474E+04  0.13919414824E+04  0.47000000000E+01 0. -1.
         -5   -1    0    0    0  501 -0.00000000000E+00 -0.00000000000E+00 -0.66612719691E+02  0.66778323015E+02  0.47000000000E+01 0.  1.
          6    1    1    2  502    0  0.11128416014E+03 -0.78229953876E+02  0.11690652056E+04  0.11894543055E+04  0.17200000000E+03 0. -1.
         -6    1    1    2    0  502 -0.11128416014E+03  0.78229953876E+02  0.15625562211E+03  0.26926549988E+03  0.17200000000E+03 0.  1.
</event>
<event>
 4    1 -0.6901648E-004  0.2722547E+03  0.7818608E-02  0.1099996E+00
         -5   -1    0    0    0  501 -0.00000000000E+00  0.00000000000E+00  0.17323283437E+04  0.17323347195E+04  0.47000000000E+01 0.  1.
          5   -1    0    0  501    0  0.00000000000E+00 -0.00000000000E+00 -0.23076086529E+03  0.23080872372E+03  0.47000000000E+01 0. -1.
          6    1    1    2  502    0 -0.29304964667E+02  0.20899719447E+03 -0.13513786415E+03  0.30394876308E+03  0.17200000000E+03 0. -1.
         -6    1    1    2    0  502  0.29304964667E+02 -0.20899719447E+03  0.16367053425E+04  0.16591946801E+04  0.17200000000E+03 0.  1.
</event>
<event>
 4    1 -0.6901648E-004  0.1816733E+03  0.7818608E-02  0.1166193E+00
         -5   -1    0    0    0  501 -0.00000000000E+00  0.00000000000E+00  0.14645577025E+03  0.14653116611E+03  0.47000000000E+01 0.  1.
          5   -1    0    0  501    0  0.00000000000E+00 -0.00000000000E+00 -0.49737767530E+03  0.49739988127E+03  0.47000000000E+01 0. -1.
          6    1    1    2  502    0  0.70766058736E+01 -0.58061246048E+02 -0.41360668862E+03  0.45174736249E+03  0.17200000000E+03 0. -1.
         -6    1    1    2    0  502 -0.70766058736E+01  0.58061246048E+02  0.62684783578E+02  0.19218368488E+03  0.17200000000E+03 0.  1.
</event>
<event>
 4    1 -0.6901648E-004  0.2109111E+03  0.7818608E-02  0.1140846E+00
          5   -1    0    0  501    0  0.00000000000E+00  0.00000000000E+00  0.93181056057E+02  0.93299513439E+02  0.47000000000E+01 0. -1.
         -5   -1    0    0    0  501 -0.00000000000E+00 -0.00000000000E+00 -0.13402666160E+04  0.13402748568E+04  0.47000000000E+01 0.  1.
          6    1    1    2  502    0 -0.10295225987E+03 -0.65576946213E+02 -0.48292550909E+02  0.21636930041E+03  0.17200000000E+03 0. -1.
         -6    1    1    2    0  502  0.10295225987E+03  0.65576946213E+02 -0.11987930090E+04  0.12172050699E+04  0.17200000000E+03 0.  1.
</event>
<event>
 4    1 -0.6901648E-004  0.2237301E+03  0.7818608E-02  0.1131132E+00
         -5   -1    0    0    0  501 -0.00000000000E+00  0.00000000000E+00  0.11454286093E+03  0.11463924716E+03  0.47000000000E+01 0.  1.
          5   -1    0    0  501    0  0.00000000000E+00 -0.00000000000E+00 -0.68931731121E+03  0.68933333412E+03  0.47000000000E+01 0. -1.
          6    1    1    2  502    0  0.89866473353E+02 -0.11133362293E+03 -0.53071444927E+03  0.57594529714E+03  0.17200000000E+03 0. -1.
         -6    1    1    2    0  502 -0.89866473353E+02  0.11133362293E+03 -0.44060001010E+02  0.22802728415E+03  0.17200000000E+03 0.  1.
</event>
<event>
 4    1 -0.6901648E-004  0.1720163E+03  0.7818608E-02  0.1175761E+00
          5   -1    0    0  501    0  0.00000000000E+00  0.00000000000E+00  0.59506376491E+03  0.59508232565E+03  0.47000000000E+01 0. -1.
         -5   -1    0    0    0  501 -0.00000000000E+00 -0.00000000000E+00 -0.29547598662E+03  0.29551336462E+03  0.47000000000E+01 0.  1.
          6    1    1    2  502    0 -0.23592059376E+01 -0.15905778451E+00  0.55590351993E+03  0.58190919792E+03  0.17200000000E+03 0. -1.
         -6    1    1    2    0  502  0.23592059376E+01  0.15905778451E+00 -0.25631574164E+03  0.30868649236E+03  0.17200000000E+03 0.  1.
</event>
<event>
 4    1 -0.6901648E-004  0.1850157E+03  0.7818608E-02  0.1163035E+00
          5   -1    0    0  501    0  0.00000000000E+00  0.00000000000E+00  0.10002644800E+04  0.10002755220E+04  0.47000000000E+01 0. -1.
         -5   -1    0    0    0  501 -0.00000000000E+00 -0.00000000000E+00 -0.87806791176E+02  0.87932488743E+02  0.47000000000E+01 0.  1.
          6    1    1    2  502    0  0.66958664071E+02 -0.12780670795E+02  0.88139331138E+03  0.90060256361E+03  0.17200000000E+03 0. -1.
         -6    1    1    2    0  502 -0.66958664071E+02  0.12780670795E+02  0.31064377400E+02  0.18760544710E+03  0.17200000000E+03 0.  1.
</event>
<event>
 4    1 -0.6901648E-004  0.2476602E+03  0.7818608E-02  0.1114793E+00
         -5   -1    0    0    0  501 -0.00000000000E+00  0.00000000000E+00  0.30696278277E+03  0.30699876222E+03  0.47000000000E+01 0.  1.
          5   -1    0    0  501    0  0.00000000000E+00 -0.00000000000E+00 -0.34137117071E+03  0.34140352399E+03  0.47000000000E+01 0. -1.
          6    1    1    2  502    0 -0.19855862532E+02 -0.17707992245E+03 -0.22600461430E+03  0.33528143387E+03  0.17200000000E+03 0. -1.
         -6    1    1    2    0  502  0.19855862532E+02  0.17707992245E+03  0.19159622636E+03  0.31312085233E+03  0.17200000000E+03 0.  1.
</event>
<event>
 4    1 -0.6901648E-004  0.4216113E+03  0.7818608E-02  0.1036543E+00
         -5   -1    0    0    0  501 -0.00000000000E+00  0.00000000000E+00  0.97922541353E+03  0.97923669279E+03  0.47000000000E+01 0.  1.
          5   -1    0    0  501    0  0.00000000000E+00 -0.00000000000E+00 -0.13566099000E+04  0.13566180416E+04  0.47000000000E+01 0. -1.
          6    1    1    2  502    0  0.38037020722E+03  0.59081250526E+02 -0.12756761775E+04  0.13435422579E+04  0.17200000000E+03 0. -1.
         -6    1    1    2    0  502 -0.38037020722E+03 -0.59081250526E+02  0.89829169110E+03  0.99231247650E+03  0.17200000000E+03 0.  1.
</event>
<event>
 4    1 -0.6901648E-004  0.1836820E+03  0.7818608E-02  0.1164286E+00
         -5   -1    0    0    0  501 -0.00000000000E+00  0.00000000000E+00  0.27541102836E+03  0.27545112914E+03  0.47000000000E+01 0.  1.
          5   -1    0    0  501    0  0.00000000000E+00 -0.00000000000E+00 -0.27812210889E+03  0.27816181883E+03  0.47000000000E+01 0. -1.
          6    1    1    2  502    0  0.59699812682E+02 -0.24310320323E+02 -0.20843512787E+03  0.27782055691E+03  0.17200000000E+03 0. -1.
         -6    1    1    2    0  502 -0.59699812682E+02  0.24310320323E+02  0.20572404735E+03  0.27579239106E+03  0.17200000000E+03 0.  1.
</event>
<event>
 4    1 -0.6901648E-004  0.2664485E+03  0.7818608E-02  0.1103330E+00
         -5   -1    0    0    0  501 -0.00000000000E+00  0.00000000000E+00  0.81527420728E+02  0.81662784245E+02  0.47000000000E+01 0.  1.
          5   -1    0    0  501    0  0.00000000000E+00 -0.00000000000E+00 -0.11100269935E+04  0.11100369437E+04  0.47000000000E+01 0. -1.
          6    1    1    2  502    0 -0.14190441219E+03  0.14585585769E+03 -0.79134014246E+03  0.83499342182E+03  0.17200000000E+03 0. -1.
         -6    1    1    2    0  502  0.14190441219E+03 -0.14585585769E+03 -0.23715943034E+03  0.35670630611E+03  0.17200000000E+03 0.  1.
</event>
<event>
 4    1 -0.6901648E-004  0.2069540E+03  0.7818608E-02  0.1144001E+00
          5   -1    0    0  501    0  0.00000000000E+00  0.00000000000E+00  0.49081705022E+03  0.49083955299E+03  0.47000000000E+01 0. -1.
         -5   -1    0    0    0  501 -0.00000000000E+00 -0.00000000000E+00 -0.18185940090E+03  0.18192012449E+03  0.47000000000E+01 0.  1.
          6    1    1    2  502    0 -0.54544304489E+02  0.10134523900E+03  0.39711930335E+03  0.44780987005E+03  0.17200000000E+03 0. -1.
         -6    1    1    2    0  502  0.54544304489E+02 -0.10134523900E+03 -0.88161654039E+02  0.22494980743E+03  0.17200000000E+03 0.  1.
</event>
<event>
 4    1 -0.6901648E-004  0.1877748E+03  0.7818608E-02  0.1160484E+00
          5   -1    0    0  501    0  0.00000000000E+00  0.00000000000E+00  0.18675717891E+03  0.18681631052E+03  0.47000000000E+01 0. -1.
         -5   -1    0    0    0  501 -0.00000000000E+00 -0.00000000000E+00 -0.38289638257E+03  0.38292522741E+03  0.47000000000E+01 0.  1.
          6    1    1    2  502    0 -0.47421947816E+02 -0.58536629392E+02  0.10478843526E+03  0.21503486759E+03  0.17200000000E+03 0. -1.
         -6    1    1    2    0  502  0.47421947816E+02  0.58536629392E+02 -0.30092763892E+03  0.35470667033E+03  0.17200000000E+03 0.  1.
</event>
<event>
 4    1 -0.6901648E-004  0.1810193E+03  0.7818608E-02  0.1166820E+00
         -5   -1    0    0    0  501 -0.00000000000E+00  0.00000000000E+00  0.19568891069E+03  0.19574534417E+03  0.47000000000E+01 0.  1.
          5   -1    0    0  501    0  0.00000000000E+00 -0.00000000000E+00 -0.18126188582E+03  0.18132280952E+03  0.47000000000E+01 0. -1.
          6    1    1    2  502    0 -0.50990082040E+02  0.24166249458E+02 -0.45026916246E+02  0.18653530300E+03  0.17200000000E+03 0. -1.
         -6    1    1    2    0  502  0.50990082040E+02 -0.24166249458E+02  0.59453941110E+02  0.19053285069E+03  0.17200000000E+03 0.  1.
</event>
<event>
 4    1 -0.6901648E-004  0.2534181E+03  0.7818608E-02  0.1111164E+00
          5   -1    0    0  501    0  0.00000000000E+00  0.00000000000E+00  0.12648631826E+03  0.12657360984E+03  0.47000000000E+01 0. -1.
         -5   -1    0    0    0  501 -0.00000000000E+00 -0.00000000000E+00 -0.65770309423E+03  0.65771988731E+03  0.47000000000E+01 0.  1.
          6    1    1    2  502    0  0.90432811152E+02 -0.16266109796E+03 -0.78194180387E+02  0.26520757148E+03  0.17200000000E+03 0. -1.
         -6    1    1    2    0  502 -0.90432811152E+02  0.16266109796E+03 -0.45302259558E+03  0.51908592567E+03  0.17200000000E+03 0.  1.
</event>
<event>
 4    1 -0.6901648E-004  0.1806783E+03  0.7818608E-02  0.1167148E+00
          5   -1    0    0  501    0  0.00000000000E+00  0.00000000000E+00  0.14209055769E+04  0.14209133501E+04  0.47000000000E+01 0. -1.
         -5   -1    0    0    0  501 -0.00000000000E+00 -0.00000000000E+00 -0.10256382856E+03  0.10267146112E+03  0.47000000000E+01 0.  1.
          6    1    1    2  502    0  0.51232318563E+02 -0.20877992517E+02  0.13302977727E+04  0.13425113799E+04  0.17200000000E+03 0. -1.
         -6    1    1    2    0  502 -0.51232318563E+02  0.20877992517E+02 -0.11956024315E+02  0.18107343139E+03  0.17200000000E+03 0.  1.
</event>
<event>
 4    1 -0.6901648E-004  0.2179161E+03  0.7818608E-02  0.1135446E+00
          5   -1    0    0  501    0  0.00000000000E+00  0.00000000000E+00  0.59789261896E+02  0.59973709557E+02  0.47000000000E+01 0. -1.
         -5   -1    0    0    0  501 -0.00000000000E+00 -0.00000000000E+00 -0.82126914201E+03  0.82128259060E+03  0.47000000000E+01 0.  1.
          6    1    1    2  502    0 -0.10637706288E+03 -0.81162493712E+02 -0.46272201708E+03  0.51146758938E+03  0.17200000000E+03 0. -1.
         -6    1    1    2    0  502  0.10637706288E+03  0.81162493712E+02 -0.29875786303E+03  0.36978871078E+03  0.17200000000E+03 0.  1.
</event>
<event>
 4    1 -0.6901648E-004  0.1731314E+03  0.7818608E-02  0.1174621E+00
          5   -1    0    0  501    0  0.00000000000E+00  0.00000000000E+00  0.80072940185E+02  0.80210758318E+02  0.47000000000E+01 0. -1.
         -5   -1    0    0    0  501 -0.00000000000E+00 -0.00000000000E+00 -0.43119615682E+03  0.43122177085E+03  0.47000000000E+01 0.  1.
          6    1    1    2  502    0  0.98208202222E+01 -0.17147239714E+02 -0.82336626576E+02  0.19171279669E+03  0.17200000000E+03 0. -1.
         -6    1    1    2    0  502 -0.98208202222E+01  0.17147239714E+02 -0.26878659006E+03  0.31971973247E+03  0.17200000000E+03 0.  1.
</event>
<event>
 4    1 -0.6901648E-004  0.2547809E+03  0.7818608E-02  0.1110320E+00
          5   -1    0    0  501    0  0.00000000000E+00  0.00000000000E+00  0.48220598293E+03  0.48222888753E+03  0.47000000000E+01 0. -1.
         -5   -1    0    0    0  501 -0.00000000000E+00 -0.00000000000E+00 -0.18431243564E+03  0.18437235132E+03  0.47000000000E+01 0.  1.
          6    1    1    2  502    0  0.18603790618E+03 -0.26817884079E+02  0.32208700144E+03  0.41067424796E+03  0.17200000000E+03 0. -1.
         -6    1    1    2    0  502 -0.18603790618E+03  0.26817884079E+02 -0.24193454155E+02  0.25592699089E+03  0.17200000000E+03 0.  1.
</event>
<event>
 4    1 -0.6901648E-004  0.2801041E+03  0.7818608E-02  0.1095632E+00
         -5   -1    0    0    0  501 -0.00000000000E+00  0.00000000000E+00  0.12814718221E+04  0.12814804410E+04  0.47000000000E+01 0.  1.
          5   -1    0    0  501    0  0.00000000000E+00 -0.00000000000E+00 -0.96439571396E+02  0.96554031148E+02  0.47000000000E+01 0. -1.
          6    1    1    2  502    0  0.13389231426E+03  0.17591809157E+03  0.17591412992E+03  0.33076291791E+03  0.17200000000E+03 0. -1.
         -6    1    1    2    0  502 -0.13389231426E+03 -0.17591809157E+03  0.10091181208E+04  0.10472715543E+04  0.17200000000E+03 0.  1.
</event>
<event>
 4    1 -0.6901648E-004  0.1766864E+03  0.7818608E-02  0.1171049E+00
          5   -1    0    0  501    0  0.00000000000E+00  0.00000000000E+00  0.16184525883E+03  0.16191348865E+03  0.47000000000E+01 0. -1.
         -5   -1    0    0    0  501 -0.00000000000E+00 -0.00000000000E+00 -0.59620532531E+03  0.59622385052E+03  0.47000000000E+01 0.  1.
          6    1    1    2  502    0 -0.38781237650E+02 -0.11406251480E+02  0.94621696553E+02  0.20042792327E+03  0.17200000000E+03 0. -1.
         -6    1    1    2    0  502  0.38781237650E+02  0.11406251480E+02 -0.52898176303E+03  0.55770941590E+03  0.17200000000E+03 0.  1.
</event>
<event>
 4    1 -0.6901648E-004  0.2032177E+03  0.7818608E-02  0.1147052E+00
         -5   -1    0    0    0  501 -0.00000000000E+00  0.00000000000E+00  0.61577548560E+03  0.61579342207E+03  0.47000000000E+01 0.  1.
          5   -1    0    0  501    0  0.00000000000E+00 -0.00000000000E+00 -0.95746472007E+02  0.95861759330E+02  0.47000000000E+01 0. -1.
          6    1    1    2  502    0 -0.69346664010E+02 -0.83093197834E+02  0.65083533188E+02  0.21338534539E+03  0.17200000000E+03 0. -1.
         -6    1    1    2    0  502  0.69346664010E+02  0.83093197834E+02  0.45494548040E+03  0.49826983601E+03  0.17200000000E+03 0.  1.
</event>
<event>
 4    1 -0.6901648E-004  0.2149440E+03  0.7818608E-02  0.1137710E+00
         -5   -1    0    0    0  501 -0.00000000000E+00  0.00000000000E+00  0.49433366812E+03  0.49435601083E+03  0.47000000000E+01 0.  1.
          5   -1    0    0  501    0  0.00000000000E+00 -0.00000000000E+00 -0.22102996906E+03  0.22107993402E+03  0.47000000000E+01 0. -1.
          6    1    1    2  502    0  0.11844688490E+02  0.12836123759E+03 -0.13513309825E+03  0.25389339929E+03  0.17200000000E+03 0. -1.
         -6    1    1    2    0  502 -0.11844688490E+02 -0.12836123759E+03  0.40843679731E+03  0.46154254555E+03  0.17200000000E+03 0.  1.
</event>
<event>
 4    1 -0.6901648E-004  0.1764078E+03  0.7818608E-02  0.1171326E+00
          5   -1    0    0  501    0  0.00000000000E+00  0.00000000000E+00  0.10426513406E+03  0.10437101216E+03  0.47000000000E+01 0. -1.
         -5   -1    0    0    0  501 -0.00000000000E+00 -0.00000000000E+00 -0.10262834305E+04  0.10262941926E+04  0.47000000000E+01 0.  1.
          6    1    1    2  502    0  0.33990218920E+02  0.19502885965E+02  0.15132470850E+02  0.17705561052E+03  0.17200000000E+03 0. -1.
         -6    1    1    2    0  502 -0.33990218920E+02 -0.19502885965E+02 -0.93715076729E+03  0.95360959421E+03  0.17200000000E+03 0.  1.
</event>
<event>
 4    1 -0.6901648E-004  0.1813981E+03  0.7818608E-02  0.1166457E+00
          5   -1    0    0  501    0  0.00000000000E+00  0.00000000000E+00  0.78933329891E+02  0.79073134298E+02  0.47000000000E+01 0. -1.
         -5   -1    0    0    0  501 -0.00000000000E+00 -0.00000000000E+00 -0.64844650942E+03  0.64846354222E+03  0.47000000000E+01 0.  1.
          6    1    1    2  502    0 -0.48759485833E+02  0.30721293332E+02 -0.67153182149E+02  0.19342914774E+03  0.17200000000E+03 0. -1.
         -6    1    1    2    0  502  0.48759485833E+02 -0.30721293332E+02 -0.50235999738E+03  0.53410752878E+03  0.17200000000E+03 0.  1.
</event>
<event>
 4    1 -0.6901648E-004  0.1980756E+03  0.7818608E-02  0.1151373E+00
         -5   -1    0    0    0  501 -0.00000000000E+00  0.00000000000E+00  0.44232514349E+03  0.44235011311E+03  0.47000000000E+01 0.  1.
          5   -1    0    0  501    0  0.00000000000E+00 -0.00000000000E+00 -0.18102805134E+03  0.18108905371E+03  0.47000000000E+01 0. -1.
          6    1    1    2  502    0 -0.65191195698E+02  0.73485110683E+02 -0.92004831479E+02  0.21840064676E+03  0.17200000000E+03 0. -1.
         -6    1    1    2    0  502  0.65191195698E+02 -0.73485110683E+02  0.35330192363E+03  0.40503852005E+03  0.17200000000E+03 0.  1.
</event>
<event>
 4    1 -0.6901648E-004  0.1808600E+03  0.7818608E-02  0.1166973E+00
         -5   -1    0    0    0  501 -0.00000000000E+00  0.00000000000E+00  0.93998478174E+03  0.93999653185E+03  0.47000000000E+01 0.  1.
          5   -1    0    0  501    0  0.00000000000E+00 -0.00000000000E+00 -0.38215900286E+02  0.38503831429E+02  0.47000000000E+01 0. -1.
          6    1    1    2  502    0 -0.54376304417E+02 -0.13021038599E+02  0.30158941066E+03  0.35166248386E+03  0.17200000000E+03 0. -1.
         -6    1    1    2    0  502  0.54376304417E+02  0.13021038599E+02  0.60017947079E+03  0.62683787943E+03  0.17200000000E+03 0.  1.
</event>
<event>
 4    1 -0.6901648E-004  0.2959788E+03  0.7818608E-02  0.1087268E+00
         -5   -1    0    0    0  501 -0.00000000000E+00  0.00000000000E+00  0.38776761569E+03  0.38779609820E+03  0.47000000000E+01 0.  1.
          5   -1    0    0  501    0  0.00000000000E+00 -0.00000000000E+00 -0.24623726246E+03  0.24628211349E+03  0.47000000000E+01 0. -1.
          6    1    1    2  502    0 -0.14323250572E+03  0.19365917436E+03 -0.20432527595E+02  0.29668318909E+03  0.17200000000E+03 0. -1.
         -6    1    1    2    0  502  0.14323250572E+03 -0.19365917436E+03  0.16196288082E+03  0.33739502259E+03  0.17200000000E+03 0.  1.
</event>
<event>
 4    1 -0.6901648E-004  0.2317714E+03  0.7818608E-02  0.1125399E+00
         -5   -1    0    0    0  501 -0.00000000000E+00  0.00000000000E+00  0.19372940408E+03  0.19378640821E+03  0.47000000000E+01 0.  1.
          5   -1    0    0  501    0  0.00000000000E+00 -0.00000000000E+00 -0.64579647747E+03  0.64581358016E+03  0.47000000000E+01 0. -1.
          6    1    1    2  502    0 -0.12143565956E+03 -0.96888329674E+02 -0.54318125910E+03  0.59056231515E+03  0.17200000000E+03 0. -1.
         -6    1    1    2    0  502  0.12143565956E+03  0.96888329674E+02  0.91114185709E+02  0.24903767321E+03  0.17200000000E+03 0.  1.
</event>
<event>
 4    1 -0.6901648E-004  0.3737810E+03  0.7818608E-02  0.1053257E+00
         -5   -1    0    0    0  501 -0.00000000000E+00  0.00000000000E+00  0.19596969750E+04  0.19597026111E+04  0.47000000000E+01 0.  1.
          5   -1    0    0  501    0  0.00000000000E+00 -0.00000000000E+00 -0.40994427771E+03  0.40997121951E+03  0.47000000000E+01 0. -1.
          6    1    1    2  502    0 -0.32697575105E+03 -0.56702046251E+02 -0.30202235220E+03  0.48055152174E+03  0.17200000000E+03 0. -1.
         -6    1    1    2    0  502  0.32697575105E+03  0.56702046251E+02  0.18517750495E+04  0.18891223089E+04  0.17200000000E+03 0.  1.
</event>
<event>
 4    1 -0.6901648E-004  0.1761708E+03  0.7818608E-02  0.1171561E+00
          5   -1    0    0  501    0  0.00000000000E+00  0.00000000000E+00  0.15930588549E+04  0.15930657881E+04  0.47000000000E+01 0. -1.
         -5   -1    0    0    0  501 -0.00000000000E+00 -0.00000000000E+00 -0.97581168386E+02  0.97694290640E+02  0.47000000000E+01 0.  1.
          6    1    1    2  502    0  0.35984353388E+02  0.12540534311E+02  0.15040965486E+04  0.15143786073E+04  0.17200000000E+03 0. -1.
         -6    1    1    2    0  502 -0.35984353388E+02 -0.12540534311E+02 -0.86188620736E+01  0.17638147146E+03  0.17200000000E+03 0.  1.
</event>
<event>
 4    1 -0.6901648E-004  0.1744529E+03  0.7818608E-02  0.1173282E+00
         -5   -1    0    0    0  501 -0.00000000000E+00  0.00000000000E+00  0.17370830245E+03  0.17377187442E+03  0.47000000000E+01 0.  1.
          5   -1    0    0  501    0  0.00000000000E+00 -0.00000000000E+00 -0.28415636161E+03  0.28419522839E+03  0.47000000000E+01 0. -1.
          6    1    1    2  502    0 -0.23381088156E+02 -0.17410673375E+02 -0.19706979496E+03  0.26319253583E+03  0.17200000000E+03 0. -1.
         -6    1    1    2    0  502  0.23381088156E+02  0.17410673375E+02  0.86621735806E+02  0.19477456699E+03  0.17200000000E+03 0.  1.
</event>
<event>
 4    1 -0.6901648E-004  0.1899983E+03  0.7818608E-02  0.1158463E+00
         -5   -1    0    0    0  501 -0.00000000000E+00  0.00000000000E+00  0.13093032660E+04  0.13093117018E+04  0.47000000000E+01 0.  1.
          5   -1    0    0  501    0  0.00000000000E+00 -0.00000000000E+00 -0.13273174634E+03  0.13281493322E+03  0.47000000000E+01 0. -1.
          6    1    1    2  502    0  0.80712606158E+02 -0.91256470310E+00 -0.53564294746E+02  0.19740438505E+03  0.17200000000E+03 0. -1.
         -6    1    1    2    0  502 -0.80712606158E+02  0.91256470310E+00  0.12301358144E+04  0.12447222500E+04  0.17200000000E+03 0.  1.
</event>
<event>
 4    1 -0.6901648E-004  0.1917582E+03  0.7818608E-02  0.1156885E+00
          5   -1    0    0  501    0  0.00000000000E+00  0.00000000000E+00  0.61668330708E+03  0.61670121714E+03  0.47000000000E+01 0. -1.
         -5   -1    0    0    0  501 -0.00000000000E+00 -0.00000000000E+00 -0.60015796682E+02  0.60199550258E+02  0.47000000000E+01 0.  1.
          6    1    1    2  502    0 -0.49436731564E+02 -0.68870889258E+02  0.24749757568E+03  0.31309142400E+03  0.17200000000E+03 0.  1.
         -6    1    1    2    0  502  0.49436731564E+02  0.68870889258E+02  0.30916993472E+03  0.36380934340E+03  0.17200000000E+03 0.  1.
</event>
<event>
 4    1 -0.6901648E-004  0.6123654E+03  0.7818608E-02  0.9880079E-01
          5   -1    0    0  501    0  0.00000000000E+00  0.00000000000E+00  0.15148906138E+04  0.15148979048E+04  0.47000000000E+01 0. -1.
         -5   -1    0    0    0  501 -0.00000000000E+00 -0.00000000000E+00 -0.42920332318E+03  0.42922905613E+03  0.47000000000E+01 0.  1.
          6    1    1    2  502    0 -0.44995928576E+03 -0.37807939633E+03  0.11752773105E+04  0.13252426741E+04  0.17200000000E+03 0. -1.
         -6    1    1    2    0  502  0.44995928576E+03  0.37807939633E+03 -0.89590019827E+02  0.61888428678E+03  0.17200000000E+03 0.  1.
</event>
<event>
 4    1 -0.6901648E-004  0.2397598E+03  0.7818608E-02  0.1119953E+00
         -5   -1    0    0    0  501 -0.00000000000E+00  0.00000000000E+00  0.23006695905E+03  0.23011496181E+03  0.47000000000E+01 0.  1.
          5   -1    0    0  501    0  0.00000000000E+00 -0.00000000000E+00 -0.40159988992E+03  0.40162739148E+03  0.47000000000E+01 0. -1.
          6    1    1    2  502    0 -0.15513298144E+03 -0.61923385585E+02 -0.27996859381E+03  0.36860162931E+03  0.17200000000E+03 0. -1.
         -6    1    1    2    0  502  0.15513298144E+03  0.61923385585E+02  0.10843566294E+03  0.26314072397E+03  0.17200000000E+03 0.  1.
</event>
<event>
 4    1 -0.6901648E-004  0.1893601E+03  0.7818608E-02  0.1159040E+00
         -5   -1    0    0    0  501 -0.00000000000E+00  0.00000000000E+00  0.40870190789E+03  0.40872893158E+03  0.47000000000E+01 0.  1.
          5   -1    0    0  501    0  0.00000000000E+00 -0.00000000000E+00 -0.20483694818E+03  0.20489086203E+03  0.47000000000E+01 0. -1.
          6    1    1    2  502    0  0.65297464745E+02 -0.44827115388E+02 -0.13007210455E+03  0.22973023649E+03  0.17200000000E+03 0. -1.
         -6    1    1    2    0  502 -0.65297464745E+02  0.44827115388E+02  0.33393706426E+03  0.38388955711E+03  0.17200000000E+03 0.  1.
</event>
<event>
 4    1 -0.6901648E-004  0.1730689E+03  0.7818608E-02  0.1174685E+00
          5   -1    0    0  501    0  0.00000000000E+00  0.00000000000E+00  0.46650497050E+03  0.46652864596E+03  0.47000000000E+01 0. -1.
         -5   -1    0    0    0  501 -0.00000000000E+00 -0.00000000000E+00 -0.22860455250E+03  0.22865286227E+03  0.47000000000E+01 0.  1.
          6    1    1    2  502    0 -0.18970058918E+02  0.29967984568E+01  0.41372711683E+03  0.44846735794E+03  0.17200000000E+03 0. -1.
         -6    1    1    2    0  502  0.18970058918E+02 -0.29967984568E+01 -0.17582669883E+03  0.24671415030E+03  0.17200000000E+03 0.  1.
</event>
<event>
 4    1 -0.6901648E-004  0.1897021E+03  0.7818608E-02  0.1158730E+00
          5   -1    0    0  501    0  0.00000000000E+00  0.00000000000E+00  0.11185048121E+03  0.11194918555E+03  0.47000000000E+01 0. -1.
         -5   -1    0    0    0  501 -0.00000000000E+00 -0.00000000000E+00 -0.41118846889E+03  0.41121532917E+03  0.47000000000E+01 0.  1.
          6    1    1    2  502    0  0.97282549261E+01 -0.79424447932E+02 -0.27509122978E+02  0.19168628986E+03  0.17200000000E+03 0. -1.
         -6    1    1    2    0  502 -0.97282549261E+01  0.79424447932E+02 -0.27182886471E+03  0.33147822487E+03  0.17200000000E+03 0.  1.
</event>
<event>
 4    1 -0.6901648E-004  0.2124739E+03  0.7818608E-02  0.1139622E+00
         -5   -1    0    0    0  501 -0.00000000000E+00  0.00000000000E+00  0.72029207527E+03  0.72030740917E+03  0.47000000000E+01 0.  1.
          5   -1    0    0  501    0  0.00000000000E+00 -0.00000000000E+00 -0.31944648648E+03  0.31948106004E+03  0.47000000000E+01 0. -1.
          6    1    1    2  502    0  0.56266695170E+01 -0.12461740517E+03 -0.26569353496E+03  0.34020319164E+03  0.17200000000E+03 0. -1.
         -6    1    1    2    0  502 -0.56266695170E+01  0.12461740517E+03  0.66653912376E+03  0.69958527756E+03  0.17200000000E+03 0.  1.
</event>
<event>
 4    1 -0.6901648E-004  0.1727774E+03  0.7818608E-02  0.1174982E+00
         -5   -1    0    0    0  501 -0.00000000000E+00  0.00000000000E+00  0.76323231317E+03  0.76324678438E+03  0.47000000000E+01 0.  1.
          5   -1    0    0  501    0  0.00000000000E+00 -0.00000000000E+00 -0.10682328102E+03  0.10692662610E+03  0.47000000000E+01 0. -1.
          6    1    1    2  502    0 -0.64975563940E+01 -0.15027454261E+02 -0.18253060200E+02  0.17373893296E+03  0.17200000000E+03 0. -1.
         -6    1    1    2    0  502  0.64975563940E+01  0.15027454261E+02  0.67466209235E+03  0.69643447751E+03  0.17200000000E+03 0.  1.
</event>
<event>
 4    1 -0.6901648E-004  0.1760555E+03  0.7818608E-02  0.1171676E+00
         -5   -1    0    0    0  501 -0.00000000000E+00  0.00000000000E+00  0.19981627058E+03  0.19987153872E+03  0.47000000000E+01 0.  1.
          5   -1    0    0  501    0  0.00000000000E+00 -0.00000000000E+00 -0.28100561190E+03  0.28104491441E+03  0.47000000000E+01 0. -1.
          6    1    1    2  502    0  0.37413294379E+02 -0.34308882013E+01 -0.20157701752E+03  0.26763560971E+03  0.17200000000E+03 0. -1.
         -6    1    1    2    0  502 -0.37413294379E+02  0.34308882013E+01  0.12038767621E+03  0.21328084343E+03  0.17200000000E+03 0.  1.
</event>
<event>
 4    1 -0.6901648E-004  0.1854800E+03  0.7818608E-02  0.1162602E+00
         -5   -1    0    0    0  501 -0.00000000000E+00  0.00000000000E+00  0.32405508618E+03  0.32408916810E+03  0.47000000000E+01 0.  1.
          5   -1    0    0  501    0  0.00000000000E+00 -0.00000000000E+00 -0.24086530916E+03  0.24091116030E+03  0.47000000000E+01 0. -1.
          6    1    1    2  502    0  0.42827969277E+02  0.54631352992E+02 -0.16968968640E+03  0.25139094923E+03  0.17200000000E+03 0. -1.
         -6    1    1    2    0  502 -0.42827969277E+02 -0.54631352992E+02  0.25287946343E+03  0.31360937917E+03  0.17200000000E+03 0.  1.
</event>
<event>
 4    1 -0.6901648E-004  0.3325361E+03  0.7818608E-02  0.1070020E+00
          5   -1    0    0  501    0  0.00000000000E+00  0.00000000000E+00  0.11787277208E+04  0.11787370910E+04  0.47000000000E+01 0. -1.
         -5   -1    0    0    0  501 -0.00000000000E+00 -0.00000000000E+00 -0.34084497386E+03  0.34087737708E+03  0.47000000000E+01 0.  1.
          6    1    1    2  502    0  0.28459820730E+03  0.33938711984E+00  0.10657977642E+04  0.11164699409E+04  0.17200000000E+03 0. -1.
         -6    1    1    2    0  502 -0.28459820730E+03 -0.33938711984E+00 -0.22791501721E+03  0.40314452725E+03  0.17200000000E+03 0.  1.
</event>
<event>
 4    1 -0.6901648E-004  0.2058060E+03  0.7818608E-02  0.1144931E+00
         -5   -1    0    0    0  501 -0.00000000000E+00  0.00000000000E+00  0.40741610831E+02  0.41011813580E+02  0.47000000000E+01 0.  1.
          5   -1    0    0  501    0  0.00000000000E+00 -0.00000000000E+00 -0.12860799633E+04  0.12860885513E+04  0.47000000000E+01 0. -1.
          6    1    1    2  502    0 -0.40803548426E+02 -0.10539066353E+03 -0.91528953459E+03  0.93814234189E+03  0.17200000000E+03 0. -1.
         -6    1    1    2    0  502  0.40803548426E+02  0.10539066353E+03 -0.33004881785E+03  0.38895802304E+03  0.17200000000E+03 0.  1.
</event>
<event>
 4    1 -0.6901648E-004  0.2084399E+03  0.7818608E-02  0.1142807E+00
          5   -1    0    0  501    0  0.00000000000E+00  0.00000000000E+00  0.51495327923E+03  0.51497472733E+03  0.47000000000E+01 0. -1.
         -5   -1    0    0    0  501 -0.00000000000E+00 -0.00000000000E+00 -0.86324090564E+02  0.86451943944E+02  0.47000000000E+01 0.  1.
          6    1    1    2  502    0 -0.75187261400E+02  0.90609448284E+02  0.16810887081E+03  0.26778310036E+03  0.17200000000E+03 0.  1.
         -6    1    1    2    0  502  0.75187261400E+02 -0.90609448284E+02  0.26052031785E+03  0.33364357091E+03  0.17200000000E+03 0. -1.
</event>
<event>
 4    1 -0.6901648E-004  0.2145073E+03  0.7818608E-02  0.1138046E+00
         -5   -1    0    0    0  501 -0.00000000000E+00  0.00000000000E+00  0.27668603745E+03  0.27672595347E+03  0.47000000000E+01 0.  1.
          5   -1    0    0  501    0  0.00000000000E+00 -0.00000000000E+00 -0.46858034847E+03  0.46860391908E+03  0.47000000000E+01 0. -1.
          6    1    1    2  502    0  0.54411006595E+02 -0.11605534259E+03 -0.39527830883E+03  0.44973141053E+03  0.17200000000E+03 0. -1.
         -6    1    1    2    0  502 -0.54411006595E+02  0.11605534259E+03  0.20338399781E+03  0.29559846202E+03  0.17200000000E+03 0.  1.
</event>
<event>
 4    1 -0.6901648E-004  0.1830339E+03  0.7818608E-02  0.1164899E+00
         -5   -1    0    0    0  501 -0.00000000000E+00  0.00000000000E+00  0.13482697196E+03  0.13490886690E+03  0.47000000000E+01 0.  1.
          5   -1    0    0  501    0  0.00000000000E+00 -0.00000000000E+00 -0.75892017164E+03  0.75893472507E+03  0.47000000000E+01 0. -1.
          6    1    1    2  502    0  0.61692774524E+02  0.10555131258E+02 -0.67861216541E+03  0.70286263258E+03  0.17200000000E+03 0. -1.
         -6    1    1    2    0  502 -0.61692774524E+02 -0.10555131258E+02  0.54518965738E+02  0.19098095939E+03  0.17200000000E+03 0.  1.
</event>
<event>
 4    1 -0.6901648E-004  0.2178297E+03  0.7818608E-02  0.1135512E+00
          5   -1    0    0  501    0  0.00000000000E+00  0.00000000000E+00  0.80723810931E+03  0.80725179165E+03  0.47000000000E+01 0. -1.
         -5   -1    0    0    0  501 -0.00000000000E+00 -0.00000000000E+00 -0.18574887854E+03  0.18580833103E+03  0.47000000000E+01 0.  1.
          6    1    1    2  502    0 -0.13201874896E+03  0.20899974620E+02  0.72128396029E+03  0.75345889761E+03  0.17200000000E+03 0. -1.
         -6    1    1    2    0  502  0.13201874896E+03 -0.20899974620E+02 -0.99794729521E+02  0.23960122507E+03  0.17200000000E+03 0.  1.
</event>
<event>
 4    1 -0.6901648E-004  0.1850025E+03  0.7818608E-02  0.1163048E+00
         -5   -1    0    0    0  501 -0.00000000000E+00  0.00000000000E+00  0.38530729055E+03  0.38533595492E+03  0.47000000000E+01 0.  1.
          5   -1    0    0  501    0  0.00000000000E+00 -0.00000000000E+00 -0.17420952817E+03  0.17427291731E+03  0.47000000000E+01 0. -1.
          6    1    1    2  502    0  0.42340336457E+02 -0.53378075005E+02 -0.90375391932E+02  0.20589714532E+03  0.17200000000E+03 0. -1.
         -6    1    1    2    0  502 -0.42340336457E+02  0.53378075005E+02  0.30147315431E+03  0.35371172691E+03  0.17200000000E+03 0.  1.
</event>
<event>
 4    1 -0.6901648E-004  0.1732993E+03  0.7818608E-02  0.1174450E+00
          5   -1    0    0  501    0  0.00000000000E+00  0.00000000000E+00  0.29250128044E+02  0.29625326844E+02  0.47000000000E+01 0. -1.
         -5   -1    0    0    0  501 -0.00000000000E+00 -0.00000000000E+00 -0.10402601868E+04  0.10402708043E+04  0.47000000000E+01 0.  1.
          6    1    1    2  502    0  0.18809579971E+02 -0.97383193305E+01 -0.43054780162E+03  0.46411641282E+03  0.17200000000E+03 0.  1.
         -6    1    1    2    0  502 -0.18809579971E+02  0.97383193305E+01 -0.58046225717E+03  0.60577971835E+03  0.17200000000E+03 0.  1.
</event>
<event>
 4    1 -0.6901648E-004  0.2939049E+03  0.7818608E-02  0.1088328E+00
          5   -1    0    0  501    0  0.00000000000E+00  0.00000000000E+00  0.13476760391E+04  0.13476842347E+04  0.47000000000E+01 0. -1.
         -5   -1    0    0    0  501 -0.00000000000E+00 -0.00000000000E+00 -0.38742000419E+03  0.38744851225E+03  0.47000000000E+01 0.  1.
          6    1    1    2  502    0  0.21995053610E+03  0.91748827290E+02  0.12726906040E+04  0.13061858440E+04  0.17200000000E+03 0. -1.
         -6    1    1    2    0  502 -0.21995053610E+03 -0.91748827290E+02 -0.31243456901E+03  0.42894690296E+03  0.17200000000E+03 0.  1.
</event>
<event>
 4    1 -0.6901648E-004  0.1751343E+03  0.7818608E-02  0.1172597E+00
          5   -1    0    0  501    0  0.00000000000E+00  0.00000000000E+00  0.36612167746E+03  0.36615184379E+03  0.47000000000E+01 0. -1.
         -5   -1    0    0    0  501 -0.00000000000E+00 -0.00000000000E+00 -0.11387421869E+03  0.11397117040E+03  0.47000000000E+01 0.  1.
          6    1    1    2  502    0 -0.23850097554E+02 -0.22785858724E+02  0.24966881162E+03  0.30496973293E+03  0.17200000000E+03 0. -1.
         -6    1    1    2    0  502  0.23850097554E+02  0.22785858724E+02  0.25786471593E+01  0.17515328125E+03  0.17200000000E+03 0.  1.
</event>
<event>
 4    1 -0.6901648E-004  0.1885625E+03  0.7818608E-02  0.1159764E+00
          5   -1    0    0  501    0  0.00000000000E+00  0.00000000000E+00  0.31133202397E+03  0.31136749854E+03  0.47000000000E+01 0. -1.
         -5   -1    0    0    0  501 -0.00000000000E+00 -0.00000000000E+00 -0.26966327793E+03  0.26970423331E+03  0.47000000000E+01 0.  1.
          6    1    1    2  502    0  0.71212124218E+02 -0.30010665125E+02  0.24145054956E+03  0.30635628693E+03  0.17200000000E+03 0. -1.
         -6    1    1    2    0  502 -0.71212124218E+02  0.30010665125E+02 -0.19978180353E+03  0.27471544492E+03  0.17200000000E+03 0.  1.
</event>
<event>
 4    1 -0.6901648E-004  0.2198405E+03  0.7818608E-02  0.1134002E+00
          5   -1    0    0  501    0  0.00000000000E+00  0.00000000000E+00  0.82911854150E+02  0.83044961067E+02  0.47000000000E+01 0. -1.
         -5   -1    0    0    0  501 -0.00000000000E+00 -0.00000000000E+00 -0.10299391560E+04  0.10299498799E+04  0.47000000000E+01 0.  1.
          6    1    1    2  502    0 -0.73004943940E+02 -0.11582801027E+03 -0.10666069698E+03  0.24434883688E+03  0.17200000000E+03 0. -1.
         -6    1    1    2    0  502  0.73004943940E+02  0.11582801027E+03 -0.84036660486E+03  0.86864600406E+03  0.17200000000E+03 0.  1.
</event>
<event>
 4    1 -0.6901648E-004  0.2384512E+03  0.7818608E-02  0.1120829E+00
          5   -1    0    0  501    0  0.00000000000E+00  0.00000000000E+00  0.13175337133E+03  0.13183717555E+03  0.47000000000E+01 0. -1.
         -5   -1    0    0    0  501 -0.00000000000E+00 -0.00000000000E+00 -0.13897972329E+04  0.13898051801E+04  0.47000000000E+01 0.  1.
          6    1    1    2  502    0 -0.15544161331E+03  0.55793070491E+02  0.27808826053E+01  0.23846738806E+03  0.17200000000E+03 0. -1.
         -6    1    1    2    0  502  0.15544161331E+03 -0.55793070491E+02 -0.12608247442E+04  0.12831749675E+04  0.17200000000E+03 0.  1.
</event>
<event>
 4    1 -0.6901648E-004  0.3081967E+03  0.7818608E-02  0.1081213E+00
         -5   -1    0    0    0  501 -0.00000000000E+00  0.00000000000E+00  0.24816484389E+03  0.24820934660E+03  0.47000000000E+01 0.  1.
          5   -1    0    0  501    0  0.00000000000E+00 -0.00000000000E+00 -0.54617587174E+03  0.54619609379E+03  0.47000000000E+01 0. -1.
          6    1    1    2  502    0 -0.22232145336E+03  0.12638989448E+03 -0.36632668338E+03  0.47872797392E+03  0.17200000000E+03 0. -1.
         -6    1    1    2    0  502  0.22232145336E+03 -0.12638989448E+03  0.68315655526E+02  0.31567746648E+03  0.17200000000E+03 0.  1.
</event>
<event>
 4    1 -0.6901648E-004  0.2384479E+03  0.7818608E-02  0.1120831E+00
          5   -1    0    0  501    0  0.00000000000E+00  0.00000000000E+00  0.85887174609E+03  0.85888460589E+03  0.47000000000E+01 0. -1.
         -5   -1    0    0    0  501 -0.00000000000E+00 -0.00000000000E+00 -0.12615066570E+03  0.12623818937E+03  0.47000000000E+01 0.  1.
          6    1    1    2  502    0  0.15817290150E+03 -0.47483815597E+02  0.70600274662E+03  0.74518270092E+03  0.17200000000E+03 0. -1.
         -6    1    1    2    0  502 -0.15817290150E+03  0.47483815597E+02  0.26718333775E+02  0.23994009434E+03  0.17200000000E+03 0.  1.
</event>
<event>
 4    1 -0.6901648E-004  0.1902082E+03  0.7818608E-02  0.1158274E+00
          5   -1    0    0  501    0  0.00000000000E+00  0.00000000000E+00  0.26186771165E+03  0.26190988604E+03  0.47000000000E+01 0. -1.
         -5   -1    0    0    0  501 -0.00000000000E+00 -0.00000000000E+00 -0.37315452268E+03  0.37318412050E+03  0.47000000000E+01 0.  1.
          6    1    1    2  502    0 -0.28091385190E+01  0.81161922741E+02  0.19637023158E+03  0.27338693607E+03  0.17200000000E+03 0. -1.
         -6    1    1    2    0  502  0.28091385190E+01 -0.81161922741E+02 -0.30765704261E+03  0.36170707047E+03  0.17200000000E+03 0.  1.
</event>
<event>
 4    1 -0.6901648E-004  0.2493559E+03  0.7818608E-02  0.1113713E+00
          5   -1    0    0  501    0  0.00000000000E+00  0.00000000000E+00  0.49898019162E+03  0.49900232628E+03  0.47000000000E+01 0. -1.
         -5   -1    0    0    0  501 -0.00000000000E+00 -0.00000000000E+00 -0.66270690659E+03  0.66272357287E+03  0.47000000000E+01 0.  1.
          6    1    1    2  502    0 -0.79258779886E+02  0.16221095326E+03  0.44155175498E+03  0.50709594740E+03  0.17200000000E+03 0. -1.
         -6    1    1    2    0  502  0.79258779886E+02 -0.16221095326E+03 -0.60527846995E+03  0.65462995175E+03  0.17200000000E+03 0.  1.
</event>
<event>
 4    1 -0.6901648E-004  0.2630944E+03  0.7818608E-02  0.1105298E+00
         -5   -1    0    0    0  501 -0.00000000000E+00  0.00000000000E+00  0.13538530051E+03  0.13546685792E+03  0.47000000000E+01 0.  1.
          5   -1    0    0  501    0  0.00000000000E+00 -0.00000000000E+00 -0.96139974953E+03  0.96141123792E+03  0.47000000000E+01 0. -1.
          6    1    1    2  502    0 -0.18336924153E+03 -0.77526689719E+02 -0.78836123629E+03  0.83110294503E+03  0.17200000000E+03 0. -1.
         -6    1    1    2    0  502  0.18336924153E+03  0.77526689719E+02 -0.37653212725E+02  0.26577515081E+03  0.17200000000E+03 0.  1.
</event>
<event>
 4    1 -0.6901648E-004  0.1858746E+03  0.7818608E-02  0.1162236E+00
          5   -1    0    0  501    0  0.00000000000E+00  0.00000000000E+00  0.12047483262E+03  0.12056647666E+03  0.47000000000E+01 0. -1.
         -5   -1    0    0    0  501 -0.00000000000E+00 -0.00000000000E+00 -0.40239967607E+03  0.40242712297E+03  0.47000000000E+01 0.  1.
          6    1    1    2  502    0  0.11432963712E+02  0.69531582282E+02 -0.28124553964E+03  0.33711779419E+03  0.17200000000E+03 0.  1.
         -6    1    1    2    0  502 -0.11432963712E+02 -0.69531582282E+02 -0.67930380800E+00  0.18587580544E+03  0.17200000000E+03 0. -1.
</event>
<event>
 4    1 -0.6901648E-004  0.2024829E+03  0.7818608E-02  0.1147661E+00
         -5   -1    0    0    0  501 -0.00000000000E+00  0.00000000000E+00  0.79424138234E+03  0.79425528857E+03  0.47000000000E+01 0.  1.
          5   -1    0    0  501    0  0.00000000000E+00 -0.00000000000E+00 -0.22201122841E+03  0.22206097257E+03  0.47000000000E+01 0. -1.
          6    1    1    2  502    0 -0.32848477082E+02  0.10166758468E+03 -0.15907570082E+03  0.25749640544E+03  0.17200000000E+03 0. -1.
         -6    1    1    2    0  502  0.32848477082E+02 -0.10166758468E+03  0.73130585475E+03  0.75881985571E+03  0.17200000000E+03 0.  1.
</event>
<event>
 4    1 -0.6901648E-004  0.1963887E+03  0.7818608E-02  0.1152822E+00
         -5   -1    0    0    0  501 -0.00000000000E+00  0.00000000000E+00  0.40888723068E+03  0.40891424212E+03  0.47000000000E+01 0.  1.
          5   -1    0    0  501    0  0.00000000000E+00 -0.00000000000E+00 -0.29160068412E+03  0.29163855880E+03  0.47000000000E+01 0. -1.
          6    1    1    2  502    0  0.90632596266E+02 -0.27753755141E+02 -0.22947612554E+03  0.30203945210E+03  0.17200000000E+03 0. -1.
         -6    1    1    2    0  502 -0.90632596266E+02  0.27753755141E+02  0.34676267210E+03  0.39851334882E+03  0.17200000000E+03 0.  1.
</event>
<event>
 4    1 -0.6901648E-004  0.1809679E+03  0.7818608E-02  0.1166870E+00
         -5   -1    0    0    0  501 -0.00000000000E+00  0.00000000000E+00  0.76781380795E+03  0.76782819281E+03  0.47000000000E+01 0.  1.
          5   -1    0    0  501    0  0.00000000000E+00 -0.00000000000E+00 -0.73515679895E+02  0.73665766747E+02  0.47000000000E+01 0. -1.
          6    1    1    2  502    0 -0.19178630291E+02  0.52891824078E+02  0.74303588372E+02  0.19562818856E+03  0.17200000000E+03 0. -1.
         -6    1    1    2    0  502  0.19178630291E+02 -0.52891824078E+02  0.61999453968E+03  0.64586577100E+03  0.17200000000E+03 0.  1.
</event>
<event>
 4    1 -0.6901648E-004  0.1753236E+03  0.7818608E-02  0.1172407E+00
          5   -1    0    0  501    0  0.00000000000E+00  0.00000000000E+00  0.23969321263E+03  0.23973928794E+03  0.47000000000E+01 0. -1.
         -5   -1    0    0    0  501 -0.00000000000E+00 -0.00000000000E+00 -0.17047985415E+03  0.17054462956E+03  0.47000000000E+01 0.  1.
          6    1    1    2  502    0  0.33972635264E+02 -0.45768840563E+00  0.13680494322E+03  0.22238242268E+03  0.17200000000E+03 0. -1.
         -6    1    1    2    0  502 -0.33972635264E+02  0.45768840563E+00 -0.67591584747E+02  0.18790149482E+03  0.17200000000E+03 0.  1.
</event>
<event>
 4    1 -0.6901648E-004  0.2256161E+03  0.7818608E-02  0.1129764E+00
          5   -1    0    0  501    0  0.00000000000E+00  0.00000000000E+00  0.47967940957E+03  0.47970243481E+03  0.47000000000E+01 0. -1.
         -5   -1    0    0    0  501 -0.00000000000E+00 -0.00000000000E+00 -0.21754529526E+03  0.21759606037E+03  0.47000000000E+01 0.  1.
          6    1    1    2  502    0 -0.13958867378E+03  0.42820691961E+02  0.38061884366E+03  0.44246278223E+03  0.17200000000E+03 0. -1.
         -6    1    1    2    0  502  0.13958867378E+03 -0.42820691961E+02 -0.11848472935E+03  0.25483571296E+03  0.17200000000E+03 0.  1.
</event>
<event>
 4    1 -0.6901648E-004  0.1720873E+03  0.7818608E-02  0.1175688E+00
         -5   -1    0    0    0  501 -0.00000000000E+00  0.00000000000E+00  0.27509134440E+03  0.27513149177E+03  0.47000000000E+01 0.  1.
          5   -1    0    0  501    0  0.00000000000E+00 -0.00000000000E+00 -0.17050481142E+03  0.17056957735E+03  0.47000000000E+01 0. -1.
          6    1    1    2  502    0 -0.25411879161E+01 -0.48561381002E+01 -0.83067899092E+02  0.19108719364E+03  0.17200000000E+03 0. -1.
         -6    1    1    2    0  502  0.25411879161E+01  0.48561381002E+01  0.18765443207E+03  0.25461387548E+03  0.17200000000E+03 0.  1.
</event>
<event>
 4    1 -0.6901648E-004  0.4105360E+03  0.7818608E-02  0.1040191E+00
         -5   -1    0    0    0  501 -0.00000000000E+00  0.00000000000E+00  0.21307281783E+04  0.21307333619E+04  0.47000000000E+01 0.  1.
          5   -1    0    0  501    0  0.00000000000E+00 -0.00000000000E+00 -0.51785131718E+03  0.51787264526E+03  0.47000000000E+01 0. -1.
          6    1    1    2  502    0 -0.30016899778E+03  0.22103021558E+03 -0.41253846226E+03  0.58200323562E+03  0.17200000000E+03 0. -1.
         -6    1    1    2    0  502  0.30016899778E+03 -0.22103021558E+03  0.20254153234E+04  0.20666027716E+04  0.17200000000E+03 0.  1.
</event>
<event>
 4    1 -0.6901648E-004  0.2161137E+03  0.7818608E-02  0.1136814E+00
          5   -1    0    0  501    0  0.00000000000E+00  0.00000000000E+00  0.16304342967E+04  0.16304410709E+04  0.47000000000E+01 0. -1.
         -5   -1    0    0    0  501 -0.00000000000E+00 -0.00000000000E+00 -0.58242103433E+03  0.58243999797E+03  0.47000000000E+01 0.  1.
          6    1    1    2  502    0 -0.91610592862E+02 -0.93427236805E+02  0.16028953217E+04  0.16173987022E+04  0.17200000000E+03 0. -1.
         -6    1    1    2    0  502  0.91610592862E+02  0.93427236805E+02 -0.55488205938E+03  0.59548236676E+03  0.17200000000E+03 0.  1.
</event>
<event>
 4    1 -0.6901648E-004  0.1915541E+03  0.7818608E-02  0.1157067E+00
         -5   -1    0    0    0  501 -0.00000000000E+00  0.00000000000E+00  0.13977478475E+03  0.13985378240E+03  0.47000000000E+01 0.  1.
          5   -1    0    0  501    0  0.00000000000E+00 -0.00000000000E+00 -0.57775348640E+03  0.57777260323E+03  0.47000000000E+01 0. -1.
          6    1    1    2  502    0 -0.82263202483E+02  0.18485900502E+02 -0.48408071590E+03  0.52060263398E+03  0.17200000000E+03 0. -1.
         -6    1    1    2    0  502  0.82263202483E+02 -0.18485900502E+02  0.46102014250E+02  0.19702375166E+03  0.17200000000E+03 0.  1.
</event>
<event>
 4    1 -0.6901648E-004  0.1930150E+03  0.7818608E-02  0.1155770E+00
         -5   -1    0    0    0  501 -0.00000000000E+00  0.00000000000E+00  0.31923708066E+03  0.31927167690E+03  0.47000000000E+01 0.  1.
          5   -1    0    0  501    0  0.00000000000E+00 -0.00000000000E+00 -0.15739091180E+03  0.15746107176E+03  0.47000000000E+01 0. -1.
          6    1    1    2  502    0  0.31723935663E+02  0.81635752713E+02 -0.40364316142E+02  0.19719047196E+03  0.17200000000E+03 0. -1.
         -6    1    1    2    0  502 -0.31723935663E+02 -0.81635752713E+02  0.20221048500E+03  0.27954227669E+03  0.17200000000E+03 0.  1.
</event>
<event>
 4    1 -0.6901648E-004  0.1929108E+03  0.7818608E-02  0.1155862E+00
          5   -1    0    0  501    0  0.00000000000E+00  0.00000000000E+00  0.73448599871E+03  0.73450103628E+03  0.47000000000E+01 0. -1.
         -5   -1    0    0    0  501 -0.00000000000E+00 -0.00000000000E+00 -0.51550181316E+03  0.51552323844E+03  0.47000000000E+01 0.  1.
          6    1    1    2  502    0 -0.55749502628E+02 -0.67250068520E+02  0.70299638048E+03  0.72898456069E+03  0.17200000000E+03 0. -1.
         -6    1    1    2    0  502  0.55749502628E+02  0.67250068520E+02 -0.48401219493E+03  0.52103971403E+03  0.17200000000E+03 0.  1.
</event>
<event>
 4    1 -0.6901648E-004  0.2743553E+03  0.7818608E-02  0.1098812E+00
          5   -1    0    0  501    0  0.00000000000E+00  0.00000000000E+00  0.29647414309E+03  0.29651139526E+03  0.47000000000E+01 0. -1.
         -5   -1    0    0    0  501 -0.00000000000E+00 -0.00000000000E+00 -0.32390158996E+03  0.32393568803E+03  0.47000000000E+01 0.  1.
          6    1    1    2  502    0 -0.15340018127E+03  0.14884636401E+03  0.13057907060E+03  0.30384494297E+03  0.17200000000E+03 0. -1.
         -6    1    1    2    0  502  0.15340018127E+03 -0.14884636401E+03 -0.15800651747E+03  0.31660214032E+03  0.17200000000E+03 0.  1.
</event>
<event>
 4    1 -0.6901648E-004  0.2005452E+03  0.7818608E-02  0.1149280E+00
         -5   -1    0    0    0  501 -0.00000000000E+00  0.00000000000E+00  0.37942431321E+03  0.37945342198E+03  0.47000000000E+01 0.  1.
          5   -1    0    0  501    0  0.00000000000E+00 -0.00000000000E+00 -0.23245558878E+03  0.23250309838E+03  0.47000000000E+01 0. -1.
          6    1    1    2  502    0  0.20367385864E+02  0.10109167936E+03 -0.15222041427E+03  0.25177254132E+03  0.17200000000E+03 0. -1.
         -6    1    1    2    0  502 -0.20367385864E+02 -0.10109167936E+03  0.29918913870E+03  0.36018397904E+03  0.17200000000E+03 0.  1.
</event>
<event>
 4    1 -0.6901648E-004  0.1948535E+03  0.7818608E-02  0.1154155E+00
         -5   -1    0    0    0  501 -0.00000000000E+00  0.00000000000E+00  0.96370018653E+02  0.96484560916E+02  0.47000000000E+01 0.  1.
          5   -1    0    0  501    0  0.00000000000E+00 -0.00000000000E+00 -0.52972908966E+03  0.52974993953E+03  0.47000000000E+01 0. -1.
          6    1    1    2  502    0  0.12686616165E+02  0.90680394180E+02 -0.37537714384E+03  0.42293721075E+03  0.17200000000E+03 0. -1.
         -6    1    1    2    0  502 -0.12686616165E+02 -0.90680394180E+02 -0.57981927159E+02  0.20329728969E+03  0.17200000000E+03 0.  1.
</event>
<event>
 4    1 -0.6901648E-004  0.2037564E+03  0.7818608E-02  0.1146608E+00
          5   -1    0    0  501    0  0.00000000000E+00  0.00000000000E+00  0.28070885636E+03  0.28074820042E+03  0.47000000000E+01 0. -1.
         -5   -1    0    0    0  501 -0.00000000000E+00 -0.00000000000E+00 -0.30551823452E+03  0.30555438407E+03  0.47000000000E+01 0.  1.
          6    1    1    2  502    0  0.37539975301E+02  0.10258379582E+03  0.19818145458E+03  0.28424034522E+03  0.17200000000E+03 0. -1.
         -6    1    1    2    0  502 -0.37539975301E+02 -0.10258379582E+03 -0.22299083273E+03  0.30206223927E+03  0.17200000000E+03 0.  1.
</event>
<event>
 4    1 -0.6901648E-004  0.1966100E+03  0.7818608E-02  0.1152631E+00
         -5   -1    0    0    0  501 -0.00000000000E+00  0.00000000000E+00  0.10467700657E+03  0.10478246850E+03  0.47000000000E+01 0.  1.
          5   -1    0    0  501    0  0.00000000000E+00 -0.00000000000E+00 -0.29127264444E+04  0.29127302364E+04  0.47000000000E+01 0. -1.
          6    1    1    2  502    0  0.82526676293E+02 -0.47548464280E+02 -0.28139538470E+04  0.28208140247E+04  0.17200000000E+03 0. -1.
         -6    1    1    2    0  502 -0.82526676293E+02  0.47548464280E+02  0.59044091482E+01  0.19669868023E+03  0.17200000000E+03 0.  1.
</event>
<event>
 4    1 -0.6901648E-004  0.1741620E+03  0.7818608E-02  0.1173576E+00
          5   -1    0    0  501    0  0.00000000000E+00  0.00000000000E+00  0.13552744648E+03  0.13560891840E+03  0.47000000000E+01 0. -1.
         -5   -1    0    0    0  501 -0.00000000000E+00 -0.00000000000E+00 -0.50785090377E+03  0.50787265181E+03  0.47000000000E+01 0.  1.
          6    1    1    2  502    0 -0.26944907170E+02  0.47307001168E+01  0.54502135921E+02  0.18249079529E+03  0.17200000000E+03 0. -1.
         -6    1    1    2    0  502  0.26944907170E+02 -0.47307001168E+01 -0.42682559321E+03  0.46099077492E+03  0.17200000000E+03 0.  1.
</event>
<event>
 4    1 -0.6901648E-004  0.1855088E+03  0.7818608E-02  0.1162576E+00
         -5   -1    0    0    0  501 -0.00000000000E+00  0.00000000000E+00  0.11636661441E+04  0.11636756357E+04  0.47000000000E+01 0.  1.
          5   -1    0    0  501    0  0.00000000000E+00 -0.00000000000E+00 -0.97341304426E+02  0.97454705106E+02  0.47000000000E+01 0. -1.
          6    1    1    2  502    0 -0.45612080856E+02  0.52431458761E+02  0.69533627090E+01  0.18563908274E+03  0.17200000000E+03 0. -1.
         -6    1    1    2    0  502  0.45612080856E+02 -0.52431458761E+02  0.10593714770E+04  0.10754912580E+04  0.17200000000E+03 0.  1.
</event>
<event>
 4    1 -0.6901648E-004  0.2900496E+03  0.7818608E-02  0.1090323E+00
         -5   -1    0    0    0  501 -0.00000000000E+00  0.00000000000E+00  0.39901300292E+03  0.39904068276E+03  0.47000000000E+01 0.  1.
          5   -1    0    0  501    0  0.00000000000E+00 -0.00000000000E+00 -0.56200638951E+03  0.56202604197E+03  0.47000000000E+01 0. -1.
          6    1    1    2  502    0  0.14042168789E+03  0.18661859902E+03 -0.46135470755E+03  0.54495588639E+03  0.17200000000E+03 0. -1.
         -6    1    1    2    0  502 -0.14042168789E+03 -0.18661859902E+03  0.29836132096E+03  0.41611083833E+03  0.17200000000E+03 0.  1.
</event>
<event>
 4    1 -0.6901648E-004  0.1742177E+03  0.7818608E-02  0.1173519E+00
         -5   -1    0    0    0  501 -0.00000000000E+00  0.00000000000E+00  0.15664865277E+03  0.15671914501E+03  0.47000000000E+01 0.  1.
          5   -1    0    0  501    0  0.00000000000E+00 -0.00000000000E+00 -0.37325635322E+03  0.37328594297E+03  0.47000000000E+01 0. -1.
          6    1    1    2  502    0 -0.18417937396E+02  0.20702729685E+02 -0.29212002793E+03  0.34012635028E+03  0.17200000000E+03 0. -1.
         -6    1    1    2    0  502  0.18417937396E+02 -0.20702729685E+02  0.75512327473E+02  0.18987873771E+03  0.17200000000E+03 0.  1.
</event>
<event>
 4    1 -0.6901648E-004  0.2561852E+03  0.7818608E-02  0.1109457E+00
         -5   -1    0    0    0  501 -0.00000000000E+00  0.00000000000E+00  0.26538540171E+03  0.26542701717E+03  0.47000000000E+01 0.  1.
          5   -1    0    0  501    0  0.00000000000E+00 -0.00000000000E+00 -0.59186911496E+03  0.59188777588E+03  0.47000000000E+01 0. -1.
          6    1    1    2  502    0 -0.15235354079E+03 -0.11329289276E+03 -0.49032543736E+03  0.55321778303E+03  0.17200000000E+03 0. -1.
         -6    1    1    2    0  502  0.15235354079E+03  0.11329289276E+03  0.16384172411E+03  0.30409701002E+03  0.17200000000E+03 0.  1.
</event>
<event>
 4    1 -0.6901648E-004  0.2112723E+03  0.7818608E-02  0.1140562E+00
          5   -1    0    0  501    0  0.00000000000E+00  0.00000000000E+00  0.62708931238E+03  0.62710692525E+03  0.47000000000E+01 0. -1.
         -5   -1    0    0    0  501 -0.00000000000E+00 -0.00000000000E+00 -0.87012039374E+02  0.87138883376E+02  0.47000000000E+01 0.  1.
          6    1    1    2  502    0 -0.69569270246E+02 -0.10105494309E+03  0.42269736643E+03  0.47255586810E+03  0.17200000000E+03 0.  1.
         -6    1    1    2    0  502  0.69569270246E+02  0.10105494309E+03  0.11737990657E+03  0.24168994053E+03  0.17200000000E+03 0.  1.
</event>
<event>
 4    1 -0.6901648E-004  0.2054079E+03  0.7818608E-02  0.1145255E+00
         -5   -1    0    0    0  501 -0.00000000000E+00  0.00000000000E+00  0.13875644889E+04  0.13875724489E+04  0.47000000000E+01 0.  1.
          5   -1    0    0  501    0  0.00000000000E+00 -0.00000000000E+00 -0.78764166778E+02  0.78904270912E+02  0.47000000000E+01 0. -1.
          6    1    1    2  502    0  0.55585981942E+02  0.97563392309E+02  0.79696040015E+02  0.22032674758E+03  0.17200000000E+03 0. -1.
         -6    1    1    2    0  502 -0.55585981942E+02 -0.97563392309E+02  0.12291042821E+04  0.12461499722E+04  0.17200000000E+03 0.  1.
</event>
<event>
 4    1 -0.6901648E-004  0.1729623E+03  0.7818608E-02  0.1174793E+00
         -5   -1    0    0    0  501 -0.00000000000E+00  0.00000000000E+00  0.18360501909E+03  0.18366516554E+03  0.47000000000E+01 0.  1.
          5   -1    0    0  501    0  0.00000000000E+00 -0.00000000000E+00 -0.24332852429E+03  0.24337391137E+03  0.47000000000E+01 0. -1.
          6    1    1    2  502    0 -0.16756214982E+02  0.71548456378E+01 -0.15265352534E+03  0.23069256892E+03  0.17200000000E+03 0. -1.
         -6    1    1    2    0  502  0.16756214982E+02 -0.71548456378E+01  0.92930020134E+02  0.19634650799E+03  0.17200000000E+03 0.  1.
</event>
<event>
 4    1 -0.6901648E-004  0.1954596E+03  0.7818608E-02  0.1153627E+00
          5   -1    0    0  501    0  0.00000000000E+00  0.00000000000E+00  0.92058937336E+02  0.92178836743E+02  0.47000000000E+01 0. -1.
         -5   -1    0    0    0  501 -0.00000000000E+00 -0.00000000000E+00 -0.43536841805E+03  0.43539378663E+03  0.47000000000E+01 0.  1.
          6    1    1    2  502    0 -0.62907631650E+02 -0.68286884806E+02 -0.11404629314E+03  0.22629853233E+03  0.17200000000E+03 0.  1.
         -6    1    1    2    0  502  0.62907631650E+02  0.68286884806E+02 -0.22926318757E+03  0.30127409104E+03  0.17200000000E+03 0.  1.
</event>
<event>
 4    1 -0.6901648E-004  0.1913632E+03  0.7818608E-02  0.1157238E+00
         -5   -1    0    0    0  501 -0.00000000000E+00  0.00000000000E+00  0.87051363545E+03  0.87052632327E+03  0.47000000000E+01 0.  1.
          5   -1    0    0  501    0  0.00000000000E+00 -0.00000000000E+00 -0.54838047959E+02  0.55039090690E+02  0.47000000000E+01 0. -1.
          6    1    1    2  502    0  0.83337543886E+02  0.95252836873E+01  0.18374723562E+03  0.26529780219E+03  0.17200000000E+03 0. -1.
         -6    1    1    2    0  502 -0.83337543886E+02 -0.95252836873E+01  0.63192835187E+03  0.66026761177E+03  0.17200000000E+03 0.  1.
</event>
<event>
 4    1 -0.6901648E-004  0.1947582E+03  0.7818608E-02  0.1154238E+00
         -5   -1    0    0    0  501 -0.00000000000E+00  0.00000000000E+00  0.20386034035E+03  0.20391451240E+03  0.47000000000E+01 0.  1.
          5   -1    0    0  501    0  0.00000000000E+00 -0.00000000000E+00 -0.21125259895E+03  0.21130487586E+03  0.47000000000E+01 0. -1.
          6    1    1    2  502    0  0.86731093699E+02  0.28713791304E+02 -0.75522269914E+02  0.20888843357E+03  0.17200000000E+03 0. -1.
         -6    1    1    2    0  502 -0.86731093699E+02 -0.28713791304E+02  0.68130011315E+02  0.20633095470E+03  0.17200000000E+03 0.  1.
</event>
<event>
 4    1 -0.6901648E-004  0.1752244E+03  0.7818608E-02  0.1172507E+00
          5   -1    0    0  501    0  0.00000000000E+00  0.00000000000E+00  0.15952112907E+04  0.15952182146E+04  0.47000000000E+01 0. -1.
         -5   -1    0    0    0  501 -0.00000000000E+00 -0.00000000000E+00 -0.51568300797E+02  0.51782039812E+02  0.47000000000E+01 0.  1.
          6    1    1    2  502    0 -0.11670054452E+02 -0.31359178654E+02  0.14241992517E+04  0.14349380115E+04  0.17200000000E+03 0. -1.
         -6    1    1    2    0  502  0.11670054452E+02  0.31359178654E+02  0.11944373823E+03  0.21206224289E+03  0.17200000000E+03 0.  1.
</event>
<event>
 4    1 -0.6901648E-004  0.1752621E+03  0.7818608E-02  0.1172469E+00
          5   -1    0    0  501    0  0.00000000000E+00  0.00000000000E+00  0.12975745233E+03  0.12984254478E+03  0.47000000000E+01 0. -1.
         -5   -1    0    0    0  501 -0.00000000000E+00 -0.00000000000E+00 -0.61157719042E+03  0.61159525001E+03  0.47000000000E+01 0.  1.
          6    1    1    2  502    0  0.98171701197E+00 -0.33642651802E+02  0.49368937974E+02  0.18208262911E+03  0.17200000000E+03 0. -1.
         -6    1    1    2    0  502 -0.98171701197E+00  0.33642651802E+02 -0.53118867607E+03  0.55935516568E+03  0.17200000000E+03 0.  1.
</event>
<event>
 4    1 -0.6901648E-004  0.1988637E+03  0.7818608E-02  0.1150701E+00
         -5   -1    0    0    0  501 -0.00000000000E+00  0.00000000000E+00  0.25213360374E+03  0.25217740607E+03  0.47000000000E+01 0.  1.
          5   -1    0    0  501    0  0.00000000000E+00 -0.00000000000E+00 -0.29782072655E+03  0.29785781031E+03  0.47000000000E+01 0. -1.
          6    1    1    2  502    0 -0.30242255223E+02 -0.95121971042E+02 -0.21208721330E+03  0.29073659801E+03  0.17200000000E+03 0. -1.
         -6    1    1    2    0  502  0.30242255223E+02  0.95121971042E+02  0.16640009049E+03  0.25929861837E+03  0.17200000000E+03 0.  1.
</event>
<event>
 4    1 -0.6901648E-004  0.2588175E+03  0.7818608E-02  0.1107856E+00
         -5   -1    0    0    0  501 -0.00000000000E+00  0.00000000000E+00  0.79434196185E+03  0.79435586632E+03  0.47000000000E+01 0.  1.
          5   -1    0    0  501    0  0.00000000000E+00 -0.00000000000E+00 -0.10160204228E+03  0.10171069263E+03  0.47000000000E+01 0. -1.
          6    1    1    2  502    0  0.16498017965E+03 -0.10091610701E+03  0.16133414446E+03  0.30498397745E+03  0.17200000000E+03 0. -1.
         -6    1    1    2    0  502 -0.16498017965E+03  0.10091610701E+03  0.53140577511E+03  0.59108258150E+03  0.17200000000E+03 0.  1.
</event>
<event>
 4    1 -0.6901648E-004  0.2032492E+03  0.7818608E-02  0.1147026E+00
         -5   -1    0    0    0  501 -0.00000000000E+00  0.00000000000E+00  0.25135139743E+03  0.25139533605E+03  0.47000000000E+01 0.  1.
          5   -1    0    0  501    0  0.00000000000E+00 -0.00000000000E+00 -0.39605998351E+03  0.39608786972E+03  0.47000000000E+01 0. -1.
          6    1    1    2  502    0  0.10826597387E+03 -0.21752124167E+01 -0.31999608693E+03  0.37908804821E+03  0.17200000000E+03 0. -1.
         -6    1    1    2    0  502 -0.10826597387E+03  0.21752124167E+01  0.17528750085E+03  0.26839515756E+03  0.17200000000E+03 0.  1.
</event>
<event>
 4    1 -0.6901648E-004  0.1748288E+03  0.7818608E-02  0.1172904E+00
          5   -1    0    0  501    0  0.00000000000E+00  0.00000000000E+00  0.36060155080E+03  0.36063217887E+03  0.47000000000E+01 0. -1.
         -5   -1    0    0    0  501 -0.00000000000E+00 -0.00000000000E+00 -0.18763319243E+03  0.18769204805E+03  0.47000000000E+01 0.  1.
          6    1    1    2  502    0 -0.24240714100E+02 -0.19837103465E+02  0.28951661050E+03  0.33820850174E+03  0.17200000000E+03 0. -1.
         -6    1    1    2    0  502  0.24240714100E+02  0.19837103465E+02 -0.11654825213E+03  0.21011572518E+03  0.17200000000E+03 0.  1.
</event>
<event>
 4    1 -0.6901648E-004  0.1739151E+03  0.7818608E-02  0.1173825E+00
          5   -1    0    0  501    0  0.00000000000E+00  0.00000000000E+00  0.39427572757E+03  0.39430373997E+03  0.47000000000E+01 0. -1.
         -5   -1    0    0    0  501 -0.00000000000E+00 -0.00000000000E+00 -0.26947207082E+03  0.26951305525E+03  0.47000000000E+01 0.  1.
          6    1    1    2  502    0 -0.25448058016E+02  0.38559404748E+01  0.34313016800E+03  0.38468790483E+03  0.17200000000E+03 0. -1.
         -6    1    1    2    0  502  0.25448058016E+02 -0.38559404748E+01 -0.21832651125E+03  0.27912889038E+03  0.17200000000E+03 0.  1.
</event>
<event>
 4    1 -0.6901648E-004  0.2387839E+03  0.7818608E-02  0.1120606E+00
         -5   -1    0    0    0  501 -0.00000000000E+00  0.00000000000E+00  0.28692969267E+03  0.28696818384E+03  0.47000000000E+01 0.  1.
          5   -1    0    0  501    0  0.00000000000E+00 -0.00000000000E+00 -0.58099830225E+03  0.58101731232E+03  0.47000000000E+01 0. -1.
          6    1    1    2  502    0 -0.12875039210E+03  0.10419727612E+03 -0.49908370210E+03  0.55326510600E+03  0.17200000000E+03 0. -1.
         -6    1    1    2    0  502  0.12875039210E+03 -0.10419727612E+03  0.20501509253E+03  0.31472039016E+03  0.17200000000E+03 0.  1.
</event>
<event>
 4    1 -0.6901648E-004  0.1967831E+03  0.7818608E-02  0.1152482E+00
         -5   -1    0    0    0  501 -0.00000000000E+00  0.00000000000E+00  0.19269842422E+03  0.19275573324E+03  0.47000000000E+01 0.  1.
          5   -1    0    0  501    0  0.00000000000E+00 -0.00000000000E+00 -0.49103430521E+03  0.49105679803E+03  0.47000000000E+01 0. -1.
          6    1    1    2  502    0 -0.72624559976E+02 -0.62171161881E+02 -0.41198489932E+03  0.45656887470E+03  0.17200000000E+03 0. -1.
         -6    1    1    2    0  502  0.72624559976E+02  0.62171161881E+02  0.11364901833E+03  0.22724365656E+03  0.17200000000E+03 0.  1.
</event>
<event>
 4    1 -0.6901648E-004  0.2577477E+03  0.7818608E-02  0.1108504E+00
          5   -1    0    0  501    0  0.00000000000E+00  0.00000000000E+00  0.20216518819E+03  0.20221981435E+03  0.47000000000E+01 0. -1.
         -5   -1    0    0    0  501 -0.00000000000E+00 -0.00000000000E+00 -0.88195459997E+03  0.88196712320E+03  0.47000000000E+01 0.  1.
          6    1    1    2  502    0  0.12962020272E+03 -0.14159257650E+03  0.89517647350E+02  0.27285025904E+03  0.17200000000E+03 0. -1.
         -6    1    1    2    0  502 -0.12962020272E+03  0.14159257650E+03 -0.76930705913E+03  0.81133667851E+03  0.17200000000E+03 0.  1.
</event>
<event>
 4    1 -0.6901648E-004  0.1756259E+03  0.7818608E-02  0.1172105E+00
         -5   -1    0    0    0  501 -0.00000000000E+00  0.00000000000E+00  0.78869829651E+03  0.78871230048E+03  0.47000000000E+01 0.  1.
          5   -1    0    0  501    0  0.00000000000E+00 -0.00000000000E+00 -0.49814859070E+02  0.50036088817E+02  0.47000000000E+01 0. -1.
          6    1    1    2  502    0  0.15837964581E+02 -0.31774564937E+02  0.17412957797E+03  0.24731674837E+03  0.17200000000E+03 0. -1.
         -6    1    1    2    0  502 -0.15837964581E+02  0.31774564937E+02  0.56475385947E+03  0.59143164093E+03  0.17200000000E+03 0.  1.
</event>
<event>
 4    1 -0.6901648E-004  0.2171032E+03  0.7818608E-02  0.1136061E+00
          5   -1    0    0  501    0  0.00000000000E+00  0.00000000000E+00  0.26254043047E+04  0.26254085117E+04  0.47000000000E+01 0. -1.
         -5   -1    0    0    0  501 -0.00000000000E+00 -0.00000000000E+00 -0.37818582658E+03  0.37821503067E+03  0.47000000000E+01 0.  1.
          6    1    1    2  502    0  0.60418956885E+02  0.11789557852E+03  0.25893429774E+04  0.25984285390E+04  0.17200000000E+03 0. -1.
         -6    1    1    2    0  502 -0.60418956885E+02 -0.11789557852E+03 -0.34212449922E+03  0.40519500337E+03  0.17200000000E+03 0.  1.
</event>
<event>
 4    1 -0.6901648E-004  0.1759174E+03  0.7818608E-02  0.1171814E+00
         -5   -1    0    0    0  501 -0.00000000000E+00  0.00000000000E+00  0.50576191016E+03  0.50578374802E+03  0.47000000000E+01 0.  1.
          5   -1    0    0  501    0  0.00000000000E+00 -0.00000000000E+00 -0.16447872066E+03  0.16454585850E+03  0.47000000000E+01 0. -1.
          6    1    1    2  502    0  0.33218757130E+02  0.16107310744E+02 -0.94989398338E+02  0.19992477856E+03  0.17200000000E+03 0. -1.
         -6    1    1    2    0  502 -0.33218757130E+02 -0.16107310744E+02  0.43627258783E+03  0.47040482797E+03  0.17200000000E+03 0.  1.
</event>
<event>
 4    1 -0.6901648E-004  0.1758045E+03  0.7818608E-02  0.1171926E+00
          5   -1    0    0  501    0  0.00000000000E+00  0.00000000000E+00  0.11009205201E+03  0.11019233147E+03  0.47000000000E+01 0. -1.
         -5   -1    0    0    0  501 -0.00000000000E+00 -0.00000000000E+00 -0.29720963008E+03  0.29724679008E+03  0.47000000000E+01 0.  1.
          6    1    1    2  502    0 -0.37876695784E+01  0.36178325522E+02 -0.45254302452E+02  0.18153558761E+03  0.17200000000E+03 0. -1.
         -6    1    1    2    0  502  0.37876695784E+01 -0.36178325522E+02 -0.14186327562E+03  0.22590353394E+03  0.17200000000E+03 0.  1.
</event>
<event>
 4    1 -0.6901648E-004  0.3167545E+03  0.7818608E-02  0.1077153E+00
          5   -1    0    0  501    0  0.00000000000E+00  0.00000000000E+00  0.70406213464E+03  0.70407782200E+03  0.47000000000E+01 0. -1.
         -5   -1    0    0    0  501 -0.00000000000E+00 -0.00000000000E+00 -0.69628489043E+03  0.69630075301E+03  0.47000000000E+01 0.  1.
          6    1    1    2  502    0 -0.25781771569E+03 -0.65417510285E+02  0.62833118828E+03  0.70365723711E+03  0.17200000000E+03 0. -1.
         -6    1    1    2    0  502  0.25781771569E+03  0.65417510285E+02 -0.62055394407E+03  0.69672133789E+03  0.17200000000E+03 0.  1.
</event>
<event>
 4    1 -0.6901648E-004  0.1882467E+03  0.7818608E-02  0.1160052E+00
          5   -1    0    0  501    0  0.00000000000E+00  0.00000000000E+00  0.23300590494E+03  0.23305330235E+03  0.47000000000E+01 0. -1.
         -5   -1    0    0    0  501 -0.00000000000E+00 -0.00000000000E+00 -0.19148696286E+03  0.19154463434E+03  0.47000000000E+01 0.  1.
          6    1    1    2  502    0 -0.10684839612E+02 -0.75753885235E+02  0.11715410966E+03  0.22172483473E+03  0.17200000000E+03 0. -1.
         -6    1    1    2    0  502  0.10684839612E+02  0.75753885235E+02 -0.75635167575E+02  0.20287310196E+03  0.17200000000E+03 0.  1.
</event>
<event>
 4    1 -0.6901648E-004  0.3093396E+03  0.7818608E-02  0.1080663E+00
         -5   -1    0    0    0  501 -0.00000000000E+00  0.00000000000E+00  0.66058970147E+03  0.66060642117E+03  0.47000000000E+01 0.  1.
          5   -1    0    0  501    0  0.00000000000E+00 -0.00000000000E+00 -0.22245233269E+03  0.22250197824E+03  0.47000000000E+01 0. -1.
          6    1    1    2  502    0 -0.23326069525E+03  0.10814993682E+03 -0.41765486750E+02  0.31214630650E+03  0.17200000000E+03 0. -1.
         -6    1    1    2    0  502  0.23326069525E+03 -0.10814993682E+03  0.47990285553E+03  0.57096209290E+03  0.17200000000E+03 0.  1.
</event>
<event>
 4    1 -0.6901648E-004  0.2557441E+03  0.7818608E-02  0.1109728E+00
         -5   -1    0    0    0  501 -0.00000000000E+00  0.00000000000E+00  0.17328819360E+04  0.17328883098E+04  0.47000000000E+01 0.  1.
          5   -1    0    0  501    0  0.00000000000E+00 -0.00000000000E+00 -0.23136577505E+03  0.23141350839E+03  0.47000000000E+01 0. -1.
          6    1    1    2  502    0  0.14423788979E+03 -0.12254177325E+03 -0.14772916690E+03  0.29534549564E+03  0.17200000000E+03 0. -1.
         -6    1    1    2    0  502 -0.14423788979E+03  0.12254177325E+03  0.16492453279E+04  0.16689563226E+04  0.17200000000E+03 0.  1.
</event>
<event>
 4    1 -0.6901648E-004  0.1726244E+03  0.7818608E-02  0.1175138E+00
         -5   -1    0    0    0  501 -0.00000000000E+00  0.00000000000E+00  0.98287329880E+02  0.98399640319E+02  0.47000000000E+01 0.  1.
          5   -1    0    0  501    0  0.00000000000E+00 -0.00000000000E+00 -0.34347218156E+03  0.34350433695E+03  0.47000000000E+01 0. -1.
          6    1    1    2  502    0 -0.13261399115E+02 -0.62701138294E+01 -0.19853356139E+03  0.26308697048E+03  0.17200000000E+03 0. -1.
         -6    1    1    2    0  502  0.13261399115E+02  0.62701138294E+01 -0.46651290283E+02  0.17881700679E+03  0.17200000000E+03 0.  1.
</event>
<event>
 4    1 -0.6901648E-004  0.2336232E+03  0.7818608E-02  0.1124115E+00
          5   -1    0    0  501    0  0.00000000000E+00  0.00000000000E+00  0.50886386128E+03  0.50888556603E+03  0.47000000000E+01 0. -1.
         -5   -1    0    0    0  501 -0.00000000000E+00 -0.00000000000E+00 -0.29845214129E+03  0.29848914661E+03  0.47000000000E+01 0.  1.
          6    1    1    2  502    0 -0.38303020022E+02  0.15339060202E+03  0.42832591898E+03  0.48789639372E+03  0.17200000000E+03 0. -1.
         -6    1    1    2    0  502  0.38303020022E+02 -0.15339060202E+03 -0.21791419900E+03  0.31947831892E+03  0.17200000000E+03 0.  1.
</event>
<event>
 4    1 -0.6901648E-004  0.2442418E+03  0.7818608E-02  0.1116999E+00
          5   -1    0    0  501    0  0.00000000000E+00  0.00000000000E+00  0.32921885806E+03  0.32925240546E+03  0.47000000000E+01 0. -1.
         -5   -1    0    0    0  501 -0.00000000000E+00 -0.00000000000E+00 -0.64752520449E+03  0.64754226152E+03  0.47000000000E+01 0.  1.
          6    1    1    2  502    0  0.21120316500E+02 -0.17211625199E+03  0.25532313917E+03  0.35333267237E+03  0.17200000000E+03 0. -1.
         -6    1    1    2    0  502 -0.21120316500E+02  0.17211625199E+03 -0.57362948560E+03  0.62346199461E+03  0.17200000000E+03 0.  1.
</event>
<event>
 4    1 -0.6901648E-004  0.3168668E+03  0.7818608E-02  0.1077100E+00
          5   -1    0    0  501    0  0.00000000000E+00  0.00000000000E+00  0.30811299103E+03  0.30814883618E+03  0.47000000000E+01 0. -1.
         -5   -1    0    0    0  501 -0.00000000000E+00 -0.00000000000E+00 -0.10429661010E+04  0.10429766909E+04  0.47000000000E+01 0.  1.
          6    1    1    2  502    0 -0.63089147737E+02 -0.25853490444E+03  0.19275545560E+03  0.37088974512E+03  0.17200000000E+03 0. -1.
         -6    1    1    2    0  502  0.63089147737E+02  0.25853490444E+03 -0.92760856553E+03  0.98023578195E+03  0.17200000000E+03 0.  1.
</event>
<event>
 4    1 -0.6901648E-004  0.1865656E+03  0.7818608E-02  0.1161596E+00
         -5   -1    0    0    0  501 -0.00000000000E+00  0.00000000000E+00  0.17526061504E+03  0.17532362414E+03  0.47000000000E+01 0.  1.
          5   -1    0    0  501    0  0.00000000000E+00 -0.00000000000E+00 -0.20597203492E+03  0.20602565172E+03  0.47000000000E+01 0. -1.
          6    1    1    2  502    0 -0.14371428791E+02  0.70825077565E+02 -0.51726987410E+02  0.19360374688E+03  0.17200000000E+03 0. -1.
         -6    1    1    2    0  502  0.14371428791E+02 -0.70825077565E+02  0.21015567531E+02  0.18774552899E+03  0.17200000000E+03 0.  1.
</event>
<event>
 4    1 -0.6901648E-004  0.2997844E+03  0.7818608E-02  0.1085348E+00
          5   -1    0    0  501    0  0.00000000000E+00  0.00000000000E+00  0.99239707504E+03  0.99240820459E+03  0.47000000000E+01 0. -1.
         -5   -1    0    0    0  501 -0.00000000000E+00 -0.00000000000E+00 -0.34075024240E+03  0.34078265463E+03  0.47000000000E+01 0.  1.
          6    1    1    2  502    0  0.18113235961E+03  0.16576419270E+03  0.89702165075E+03  0.94578990331E+03  0.17200000000E+03 0. -1.
         -6    1    1    2    0  502 -0.18113235961E+03 -0.16576419270E+03 -0.24537481811E+03  0.38740095592E+03  0.17200000000E+03 0.  1.
</event>
<event>
 4    1 -0.6901648E-004  0.1900857E+03  0.7818608E-02  0.1158384E+00
          5   -1    0    0  501    0  0.00000000000E+00  0.00000000000E+00  0.26791738782E+03  0.26795861005E+03  0.47000000000E+01 0. -1.
         -5   -1    0    0    0  501 -0.00000000000E+00 -0.00000000000E+00 -0.13727532266E+03  0.13735575784E+03  0.47000000000E+01 0.  1.
          6    1    1    2  502    0  0.79293969011E+02 -0.16156236516E+02  0.37966331490E+02  0.19384013988E+03  0.17200000000E+03 0.  1.
         -6    1    1    2    0  502 -0.79293969011E+02  0.16156236516E+02  0.92675733676E+02  0.21147422801E+03  0.17200000000E+03 0.  1.
</event>
<event>
 4    1 -0.6901648E-004  0.2170490E+03  0.7818608E-02  0.1136102E+00
         -5   -1    0    0    0  501 -0.00000000000E+00  0.00000000000E+00  0.65533933947E+03  0.65535619312E+03  0.47000000000E+01 0.  1.
          5   -1    0    0  501    0  0.00000000000E+00 -0.00000000000E+00 -0.15800029601E+03  0.15807018549E+03  0.47000000000E+01 0. -1.
          6    1    1    2  502    0 -0.12474487167E+03 -0.44328392296E+02 -0.51631277396E+02  0.22310553148E+03  0.17200000000E+03 0. -1.
         -6    1    1    2    0  502  0.12474487167E+03  0.44328392296E+02  0.54897032085E+03  0.59032084713E+03  0.17200000000E+03 0.  1.
</event>
<event>
 4    1 -0.6901648E-004  0.1778245E+03  0.7818608E-02  0.1169925E+00
          5   -1    0    0  501    0  0.00000000000E+00  0.00000000000E+00  0.72402984486E+02  0.72555373078E+02  0.47000000000E+01 0. -1.
         -5   -1    0    0    0  501 -0.00000000000E+00 -0.00000000000E+00 -0.59192302892E+03  0.59194168814E+03  0.47000000000E+01 0.  1.
          6    1    1    2  502    0  0.44756546566E+02  0.58655123154E+01 -0.89326502435E+02  0.19899943903E+03  0.17200000000E+03 0. -1.
         -6    1    1    2    0  502 -0.44756546566E+02 -0.58655123154E+01 -0.43019354199E+03  0.46549762219E+03  0.17200000000E+03 0.  1.
</event>
<event>
 4    1 -0.6901648E-004  0.1844000E+03  0.7818608E-02  0.1163611E+00
         -5   -1    0    0    0  501 -0.00000000000E+00  0.00000000000E+00  0.21467028596E+03  0.21472173079E+03  0.47000000000E+01 0.  1.
          5   -1    0    0  501    0  0.00000000000E+00 -0.00000000000E+00 -0.31091035990E+03  0.31094588258E+03  0.47000000000E+01 0. -1.
          6    1    1    2  502    0 -0.51266043602E+02  0.42322144214E+02 -0.23223672762E+03  0.29654218718E+03  0.17200000000E+03 0. -1.
         -6    1    1    2    0  502  0.51266043602E+02 -0.42322144214E+02  0.13599665368E+03  0.22912542619E+03  0.17200000000E+03 0.  1.
</event>
<event>
 4    1 -0.6901648E-004  0.1754749E+03  0.7818608E-02  0.1172256E+00
         -5   -1    0    0    0  501 -0.00000000000E+00  0.00000000000E+00  0.92739685073E+03  0.92740876034E+03  0.47000000000E+01 0.  1.
          5   -1    0    0  501    0  0.00000000000E+00 -0.00000000000E+00 -0.81706680660E+02  0.81841747687E+02  0.47000000000E+01 0. -1.
          6    1    1    2  502    0 -0.34255677583E+02 -0.58291817736E+01  0.33909834552E+02  0.17872131290E+03  0.17200000000E+03 0. -1.
         -6    1    1    2    0  502  0.34255677583E+02  0.58291817736E+01  0.81178033552E+03  0.83052919512E+03  0.17200000000E+03 0.  1.
</event>
<event>
 4    1 -0.6901648E-004  0.2645828E+03  0.7818608E-02  0.1104421E+00
          5   -1    0    0  501    0  0.00000000000E+00  0.00000000000E+00  0.31349310557E+03  0.31352833562E+03  0.47000000000E+01 0. -1.
         -5   -1    0    0    0  501 -0.00000000000E+00 -0.00000000000E+00 -0.22835873507E+03  0.22840709683E+03  0.47000000000E+01 0.  1.
          6    1    1    2  502    0 -0.41648720889E+02 -0.19668608965E+03  0.19694222374E+01  0.26459008378E+03  0.17200000000E+03 0.  1.
         -6    1    1    2    0  502  0.41648720889E+02  0.19668608965E+03  0.83164948255E+02  0.27734534867E+03  0.17200000000E+03 0.  1.
</event>
<event>
 4    1 -0.6901648E-004  0.2932007E+03  0.7818608E-02  0.1088690E+00
         -5   -1    0    0    0  501 -0.00000000000E+00  0.00000000000E+00  0.59466336438E+03  0.59468193762E+03  0.47000000000E+01 0.  1.
          5   -1    0    0  501    0  0.00000000000E+00 -0.00000000000E+00 -0.49171551574E+03  0.49173797740E+03  0.47000000000E+01 0. -1.
          6    1    1    2  502    0  0.21883608187E+03  0.92159900955E+02 -0.40495950046E+03  0.49995887339E+03  0.17200000000E+03 0. -1.
         -6    1    1    2    0  502 -0.21883608187E+03 -0.92159900955E+02  0.50790734910E+03  0.58646104162E+03  0.17200000000E+03 0.  1.
</event>
<event>
 4    1 -0.6901648E-004  0.2369809E+03  0.7818608E-02  0.1121821E+00
          5   -1    0    0  501    0  0.00000000000E+00  0.00000000000E+00  0.20035891000E+03  0.20041402850E+03  0.47000000000E+01 0. -1.
         -5   -1    0    0    0  501 -0.00000000000E+00 -0.00000000000E+00 -0.67560065637E+03  0.67561700459E+03  0.47000000000E+01 0.  1.
          6    1    1    2  502    0 -0.16209594934E+03  0.17345276976E+02  0.97456884299E+02  0.25623777966E+03  0.17200000000E+03 0. -1.
         -6    1    1    2    0  502  0.16209594934E+03 -0.17345276976E+02 -0.57269863067E+03  0.61979325343E+03  0.17200000000E+03 0.  1.
</event>
<event>
 4    1 -0.6901648E-004  0.1776155E+03  0.7818608E-02  0.1170131E+00
         -5   -1    0    0    0  501 -0.00000000000E+00  0.00000000000E+00  0.14764896127E+03  0.14772374813E+03  0.47000000000E+01 0.  1.
          5   -1    0    0  501    0  0.00000000000E+00 -0.00000000000E+00 -0.39615642748E+03  0.39618430690E+03  0.47000000000E+01 0. -1.
          6    1    1    2  502    0 -0.27269050126E+02  0.34923485141E+02 -0.30888529982E+03  0.35631079040E+03  0.17200000000E+03 0. -1.
         -6    1    1    2    0  502  0.27269050126E+02 -0.34923485141E+02  0.60377833603E+02  0.18759726464E+03  0.17200000000E+03 0.  1.
</event>
<event>
 4    1 -0.6901648E-004  0.1959657E+03  0.7818608E-02  0.1153188E+00
         -5   -1    0    0    0  501 -0.00000000000E+00  0.00000000000E+00  0.45901828882E+03  0.45904235041E+03  0.47000000000E+01 0.  1.
          5   -1    0    0  501    0  0.00000000000E+00 -0.00000000000E+00 -0.32073489237E+03  0.32076932706E+03  0.47000000000E+01 0. -1.
          6    1    1    2  502    0  0.84143785922E+02  0.41694023814E+02 -0.26608538077E+03  0.33046028232E+03  0.17200000000E+03 0. -1.
         -6    1    1    2    0  502 -0.84143785922E+02 -0.41694023814E+02  0.40436877722E+03  0.44935139515E+03  0.17200000000E+03 0.  1.
</event>
<event>
 4    1 -0.6901648E-004  0.1952854E+03  0.7818608E-02  0.1153779E+00
         -5   -1    0    0    0  501 -0.00000000000E+00  0.00000000000E+00  0.16694114101E+03  0.16700728895E+03  0.47000000000E+01 0.  1.
          5   -1    0    0  501    0  0.00000000000E+00 -0.00000000000E+00 -0.75047285627E+03  0.75048757352E+03  0.47000000000E+01 0. -1.
          6    1    1    2  502    0 -0.18178850803E+02 -0.90674778586E+02 -0.67439876568E+03  0.70210403875E+03  0.17200000000E+03 0. -1.
         -6    1    1    2    0  502  0.18178850803E+02  0.90674778586E+02  0.90867050415E+02  0.21539082371E+03  0.17200000000E+03 0.  1.
</event>
<event>
 4    1 -0.6901648E-004  0.2010367E+03  0.7818608E-02  0.1148867E+00
         -5   -1    0    0    0  501 -0.00000000000E+00  0.00000000000E+00  0.11798012138E+03  0.11807370173E+03  0.47000000000E+01 0.  1.
          5   -1    0    0  501    0  0.00000000000E+00 -0.00000000000E+00 -0.91467259822E+03  0.91468467350E+03  0.47000000000E+01 0. -1.
          6    1    1    2  502    0 -0.20179321717E+02 -0.10210070323E+03 -0.80679799696E+03  0.83146783854E+03  0.17200000000E+03 0. -1.
         -6    1    1    2    0  502  0.20179321717E+02  0.10210070323E+03  0.10105520122E+02  0.20129053669E+03  0.17200000000E+03 0.  1.
</event>
<event>
 4    1 -0.6901648E-004  0.2228706E+03  0.7818608E-02  0.1131761E+00
          5   -1    0    0  501    0  0.00000000000E+00  0.00000000000E+00  0.57905403406E+02  0.58095832411E+02  0.47000000000E+01 0. -1.
         -5   -1    0    0    0  501 -0.00000000000E+00 -0.00000000000E+00 -0.12131597938E+04  0.12131688981E+04  0.47000000000E+01 0.  1.
          6    1    1    2  502    0 -0.11736087582E+03  0.79459078718E+02 -0.23286233874E+03  0.32232931788E+03  0.17200000000E+03 0. -1.
         -6    1    1    2    0  502  0.11736087582E+03 -0.79459078718E+02 -0.92239205163E+03  0.94893541259E+03  0.17200000000E+03 0.  1.
</event>
<event>
 4    1 -0.6901648E-004  0.1724501E+03  0.7818608E-02  0.1175317E+00
          5   -1    0    0  501    0  0.00000000000E+00  0.00000000000E+00  0.70382328920E+02  0.70539082956E+02  0.47000000000E+01 0. -1.
         -5   -1    0    0    0  501 -0.00000000000E+00 -0.00000000000E+00 -0.83784810816E+03  0.83786129064E+03  0.47000000000E+01 0.  1.
          6    1    1    2  502    0  0.80853400502E+01  0.94692695469E+01 -0.63739700024E+02  0.18385262889E+03  0.17200000000E+03 0. -1.
         -6    1    1    2    0  502 -0.80853400502E+01 -0.94692695469E+01 -0.70372607922E+03  0.72454774471E+03  0.17200000000E+03 0.  1.
</event>
<event>
 4    1 -0.6901648E-004  0.2032777E+03  0.7818608E-02  0.1147003E+00
          5   -1    0    0  501    0  0.00000000000E+00  0.00000000000E+00  0.81370699461E+02  0.81506323257E+02  0.47000000000E+01 0. -1.
         -5   -1    0    0    0  501 -0.00000000000E+00 -0.00000000000E+00 -0.85765811215E+03  0.85767099015E+03  0.47000000000E+01 0.  1.
          6    1    1    2  502    0  0.10553789398E+03  0.24486418079E+02 -0.88015221320E+02  0.22151413255E+03  0.17200000000E+03 0. -1.
         -6    1    1    2    0  502 -0.10553789398E+03 -0.24486418079E+02 -0.68827219137E+03  0.71766318085E+03  0.17200000000E+03 0.  1.
</event>
<event>
 4    1 -0.6901648E-004  0.1958904E+03  0.7818608E-02  0.1153253E+00
          5   -1    0    0  501    0  0.00000000000E+00  0.00000000000E+00  0.99420373525E+02  0.99531405455E+02  0.47000000000E+01 0. -1.
         -5   -1    0    0    0  501 -0.00000000000E+00 -0.00000000000E+00 -0.48810925634E+03  0.48813188394E+03  0.47000000000E+01 0.  1.
          6    1    1    2  502    0  0.13036500420E+02 -0.92839017592E+02 -0.59726132387E+02  0.20479317474E+03  0.17200000000E+03 0. -1.
         -6    1    1    2    0  502 -0.13036500420E+02  0.92839017592E+02 -0.32896275043E+03  0.38287011466E+03  0.17200000000E+03 0.  1.
</event>
<event>
 4    1 -0.6901648E-004  0.2151246E+03  0.7818608E-02  0.1137571E+00
          5   -1    0    0  501    0  0.00000000000E+00  0.00000000000E+00  0.20294144036E+03  0.20299585763E+03  0.47000000000E+01 0. -1.
         -5   -1    0    0    0  501 -0.00000000000E+00 -0.00000000000E+00 -0.28173187734E+03  0.28177107855E+03  0.47000000000E+01 0.  1.
          6    1    1    2  502    0 -0.28741374655E+01  0.12917560387E+03  0.66507764041E+02  0.22517077959E+03  0.17200000000E+03 0. -1.
         -6    1    1    2    0  502  0.28741374655E+01 -0.12917560387E+03 -0.14529820101E+03  0.25959615660E+03  0.17200000000E+03 0.  1.
</event>
<event>
 4    1 -0.6901648E-004  0.2151277E+03  0.7818608E-02  0.1137569E+00
         -5   -1    0    0    0  501 -0.00000000000E+00  0.00000000000E+00  0.14627347752E+03  0.14634896729E+03  0.47000000000E+01 0.  1.
          5   -1    0    0  501    0  0.00000000000E+00 -0.00000000000E+00 -0.37586670023E+03  0.37589608450E+03  0.47000000000E+01 0. -1.
          6    1    1    2  502    0  0.12867171939E+03  0.11812277056E+02 -0.21880377886E+03  0.30684692422E+03  0.17200000000E+03 0. -1.
         -6    1    1    2    0  502 -0.12867171939E+03 -0.11812277056E+02 -0.10789443845E+02  0.21539812757E+03  0.17200000000E+03 0.  1.
</event>
<event>
 4    1 -0.6901648E-004  0.1889477E+03  0.7818608E-02  0.1159414E+00
         -5   -1    0    0    0  501 -0.00000000000E+00  0.00000000000E+00  0.97378630551E+02  0.97491987814E+02  0.47000000000E+01 0.  1.
          5   -1    0    0  501    0  0.00000000000E+00 -0.00000000000E+00 -0.74430373284E+03  0.74431857206E+03  0.47000000000E+01 0. -1.
          6    1    1    2  502    0  0.75808325632E+02 -0.19243993073E+02 -0.62339848736E+03  0.65140379762E+03  0.17200000000E+03 0. -1.
         -6    1    1    2    0  502 -0.75808325632E+02  0.19243993073E+02 -0.23526614926E+02  0.19040676226E+03  0.17200000000E+03 0.  1.
</event>
<event>
 4    1 -0.6901648E-004  0.2116379E+03  0.7818608E-02  0.1140276E+00
          5   -1    0    0  501    0  0.00000000000E+00  0.00000000000E+00  0.96274843001E+03  0.96275990231E+03  0.47000000000E+01 0. -1.
         -5   -1    0    0    0  501 -0.00000000000E+00 -0.00000000000E+00 -0.31021131758E+03  0.31024692029E+03  0.47000000000E+01 0.  1.
          6    1    1    2  502    0 -0.73143851829E+02  0.99280199561E+02  0.91310984263E+03  0.93731540358E+03  0.17200000000E+03 0. -1.
         -6    1    1    2    0  502  0.73143851829E+02 -0.99280199561E+02 -0.26057273019E+03  0.33569141902E+03  0.17200000000E+03 0.  1.
</event>
<event>
 4    1 -0.6901648E-004  0.1825324E+03  0.7818608E-02  0.1165374E+00
          5   -1    0    0  501    0  0.00000000000E+00  0.00000000000E+00  0.20853171293E+03  0.20858467177E+03  0.47000000000E+01 0. -1.
         -5   -1    0    0    0  501 -0.00000000000E+00 -0.00000000000E+00 -0.31670675327E+03  0.31674162588E+03  0.47000000000E+01 0.  1.
          6    1    1    2  502    0  0.43004121686E+02  0.43413416800E+02  0.13084086470E+03  0.22458274893E+03  0.17200000000E+03 0. -1.
         -6    1    1    2    0  502 -0.43004121686E+02 -0.43413416800E+02 -0.23901590504E+03  0.30074354873E+03  0.17200000000E+03 0.  1.
</event>
<event>
 4    1 -0.6901648E-004  0.2052758E+03  0.7818608E-02  0.1145363E+00
          5   -1    0    0  501    0  0.00000000000E+00  0.00000000000E+00  0.14979815307E+04  0.14979889039E+04  0.47000000000E+01 0. -1.
         -5   -1    0    0    0  501 -0.00000000000E+00 -0.00000000000E+00 -0.57560167878E+02  0.57751735266E+02  0.47000000000E+01 0.  1.
          6    1    1    2  502    0  0.68454556694E+02  0.88702547842E+02  0.12769018064E+04  0.12932967144E+04  0.17200000000E+03 0. -1.
         -6    1    1    2    0  502 -0.68454556694E+02 -0.88702547842E+02  0.16351955642E+03  0.26244392479E+03  0.17200000000E+03 0.  1.
</event>
<event>
 4    1 -0.6901648E-004  0.3235581E+03  0.7818608E-02  0.1074023E+00
          5   -1    0    0  501    0  0.00000000000E+00  0.00000000000E+00  0.52059963016E+03  0.52062084564E+03  0.47000000000E+01 0. -1.
         -5   -1    0    0    0  501 -0.00000000000E+00 -0.00000000000E+00 -0.27789408290E+03  0.27793382542E+03  0.47000000000E+01 0.  1.
          6    1    1    2  502    0 -0.26096290072E+03 -0.83690970917E+02  0.33129971771E+03  0.46308672743E+03  0.17200000000E+03 0. -1.
         -6    1    1    2    0  502  0.26096290072E+03  0.83690970917E+02 -0.88594170452E+02  0.33546794363E+03  0.17200000000E+03 0.  1.
</event>
<event>
 4    1 -0.6901648E-004  0.2237236E+03  0.7818608E-02  0.1131137E+00
          5   -1    0    0  501    0  0.00000000000E+00  0.00000000000E+00  0.18794346536E+04  0.18794405304E+04  0.47000000000E+01 0. -1.
         -5   -1    0    0    0  501 -0.00000000000E+00 -0.00000000000E+00 -0.66431140465E+02  0.66597195313E+02  0.47000000000E+01 0.  1.
          6    1    1    2  502    0 -0.12287790641E+03  0.73275190575E+02  0.16599772210E+04  0.16749855545E+04  0.17200000000E+03 0. -1.
         -6    1    1    2    0  502  0.12287790641E+03 -0.73275190575E+02  0.15302629217E+03  0.27105217123E+03  0.17200000000E+03 0.  1.
</event>
<event>
 4    1 -0.6901648E-004  0.1766373E+03  0.7818608E-02  0.1171098E+00
         -5   -1    0    0    0  501 -0.00000000000E+00  0.00000000000E+00  0.93423131315E+03  0.93424313563E+03  0.47000000000E+01 0.  1.
          5   -1    0    0  501    0  0.00000000000E+00 -0.00000000000E+00 -0.49413779989E+03  0.49416015145E+03  0.47000000000E+01 0. -1.
          6    1    1    2  502    0 -0.37321927681E+02 -0.14960780186E+02 -0.46959866868E+03  0.50172070005E+03  0.17200000000E+03 0. -1.
         -6    1    1    2    0  502  0.37321927681E+02  0.14960780186E+02  0.90969218194E+03  0.92668258703E+03  0.17200000000E+03 0.  1.
</event>
<event>
 4    1 -0.6901648E-004  0.1789933E+03  0.7818608E-02  0.1168781E+00
          5   -1    0    0  501    0  0.00000000000E+00  0.00000000000E+00  0.72144144985E+03  0.72145675932E+03  0.47000000000E+01 0. -1.
         -5   -1    0    0    0  501 -0.00000000000E+00 -0.00000000000E+00 -0.45815716431E+02  0.46056159980E+02  0.47000000000E+01 0.  1.
          6    1    1    2  502    0  0.12214605513E+02  0.48014608958E+02  0.40812494706E+03  0.44565072834E+03  0.17200000000E+03 0. -1.
         -6    1    1    2    0  502 -0.12214605513E+02 -0.48014608958E+02  0.26750078636E+03  0.32186219096E+03  0.17200000000E+03 0. -1.
</event>
<event>
 4    1 -0.6901648E-004  0.1876003E+03  0.7818608E-02  0.1160644E+00
         -5   -1    0    0    0  501 -0.00000000000E+00  0.00000000000E+00  0.90549590002E+02  0.90671485317E+02  0.47000000000E+01 0.  1.
          5   -1    0    0  501    0  0.00000000000E+00 -0.00000000000E+00 -0.14444870183E+04  0.14444946646E+04  0.47000000000E+01 0. -1.
          6    1    1    2  502    0 -0.52906870256E+02 -0.53016444248E+02 -0.13333008584E+04  0.13464342016E+04  0.17200000000E+03 0. -1.
         -6    1    1    2    0  502  0.52906870256E+02  0.53016444248E+02 -0.20636569877E+02  0.18873194827E+03  0.17200000000E+03 0.  1.
</event>
<event>
 4    1 -0.6901648E-004  0.1954299E+03  0.7818608E-02  0.1153653E+00
          5   -1    0    0  501    0  0.00000000000E+00  0.00000000000E+00  0.52573262277E+03  0.52575363113E+03  0.47000000000E+01 0. -1.
         -5   -1    0    0    0  501 -0.00000000000E+00 -0.00000000000E+00 -0.52992753558E+03  0.52994837764E+03  0.47000000000E+01 0.  1.
          6    1    1    2  502    0 -0.37902770212E+02 -0.84689103687E+02  0.48824244153E+03  0.52590260124E+03  0.17200000000E+03 0. -1.
         -6    1    1    2    0  502  0.37902770212E+02  0.84689103687E+02 -0.49243735434E+03  0.52979940754E+03  0.17200000000E+03 0. -1.
</event>
<event>
 4    1 -0.6901648E-004  0.1832633E+03  0.7818608E-02  0.1164682E+00
         -5   -1    0    0    0  501 -0.00000000000E+00  0.00000000000E+00  0.43191248978E+03  0.43193806133E+03  0.47000000000E+01 0.  1.
          5   -1    0    0  501    0  0.00000000000E+00 -0.00000000000E+00 -0.17489252350E+03  0.17495566517E+03  0.47000000000E+01 0. -1.
          6    1    1    2  502    0  0.30064360145E+02 -0.55655921620E+02 -0.97663472264E+02  0.20766222858E+03  0.17200000000E+03 0. -1.
         -6    1    1    2    0  502 -0.30064360145E+02  0.55655921620E+02  0.35468343854E+03  0.39923149793E+03  0.17200000000E+03 0.  1.
</event>
<event>
 4    1 -0.6901648E-004  0.2154623E+03  0.7818608E-02  0.1137312E+00
          5   -1    0    0  501    0  0.00000000000E+00  0.00000000000E+00  0.54251601226E+02  0.54454809114E+02  0.47000000000E+01 0. -1.
         -5   -1    0    0    0  501 -0.00000000000E+00 -0.00000000000E+00 -0.89992858698E+03  0.89994086009E+03  0.47000000000E+01 0.  1.
          6    1    1    2  502    0  0.50482771806E+02  0.11954694299E+03 -0.53073887019E+03  0.57280688732E+03  0.17200000000E+03 0. -1.
         -6    1    1    2    0  502 -0.50482771806E+02 -0.11954694299E+03 -0.31493811557E+03  0.38158878189E+03  0.17200000000E+03 0.  1.
</event>
<event>
 4    1 -0.6901648E-004  0.2264136E+03  0.7818608E-02  0.1129190E+00
         -5   -1    0    0    0  501 -0.00000000000E+00  0.00000000000E+00  0.51217989042E+02  0.51433183855E+02  0.47000000000E+01 0.  1.
          5   -1    0    0  501    0  0.00000000000E+00 -0.00000000000E+00 -0.17062187151E+04  0.17062251885E+04  0.47000000000E+01 0. -1.
          6    1    1    2  502    0  0.47375295783E+02 -0.13940843187E+03 -0.13934396127E+04  0.14117142358E+04  0.17200000000E+03 0. -1.
         -6    1    1    2    0  502 -0.47375295783E+02  0.13940843187E+03 -0.26156111338E+03  0.34594413647E+03  0.17200000000E+03 0.  1.
</event>
<event>
 4    1 -0.6901648E-004  0.4374727E+03  0.7818608E-02  0.1031525E+00
          5   -1    0    0  501    0  0.00000000000E+00  0.00000000000E+00  0.26859322892E+03  0.26863434743E+03  0.47000000000E+01 0. -1.
         -5   -1    0    0    0  501 -0.00000000000E+00 -0.00000000000E+00 -0.22387616905E+04  0.22387666241E+04  0.47000000000E+01 0.  1.
          6    1    1    2  502    0 -0.42284918363E+02 -0.40001292956E+03  0.50079306992E+02  0.44032975726E+03  0.17200000000E+03 0. -1.
         -6    1    1    2    0  502  0.42284918363E+02  0.40001292956E+03 -0.20202477686E+04  0.20670712142E+04  0.17200000000E+03 0.  1.
</event>
<event>
 4    1 -0.6901648E-004  0.2075952E+03  0.7818608E-02  0.1143485E+00
          5   -1    0    0  501    0  0.00000000000E+00  0.00000000000E+00  0.30496694290E+03  0.30500315779E+03  0.47000000000E+01 0. -1.
         -5   -1    0    0    0  501 -0.00000000000E+00 -0.00000000000E+00 -0.49027601863E+03  0.49029854624E+03  0.47000000000E+01 0.  1.
          6    1    1    2  502    0 -0.71756080035E+02 -0.91448552760E+02  0.24283970469E+03  0.31947909947E+03  0.17200000000E+03 0. -1.
         -6    1    1    2    0  502  0.71756080035E+02  0.91448552760E+02 -0.42814878043E+03  0.47582260456E+03  0.17200000000E+03 0.  1.
</event>
<event>
 4    1 -0.6901648E-004  0.1793073E+03  0.7818608E-02  0.1168475E+00
         -5   -1    0    0    0  501 -0.00000000000E+00  0.00000000000E+00  0.64251942017E+02  0.64423614094E+02  0.47000000000E+01 0.  1.
          5   -1    0    0  501    0  0.00000000000E+00 -0.00000000000E+00 -0.49954635259E+03  0.49956846217E+03  0.47000000000E+01 0. -1.
          6    1    1    2  502    0  0.88445412331E+01 -0.49888681041E+02 -0.21858179153E+03  0.28271736062E+03  0.17200000000E+03 0. -1.
         -6    1    1    2    0  502 -0.88445412331E+01  0.49888681041E+02 -0.21671261904E+03  0.28127471564E+03  0.17200000000E+03 0.  1.
</event>
<event>
 4    1 -0.6901648E-004  0.1723585E+03  0.7818608E-02  0.1175410E+00
         -5   -1    0    0    0  501 -0.00000000000E+00  0.00000000000E+00  0.12871747152E+03  0.12880325103E+03  0.47000000000E+01 0.  1.
          5   -1    0    0  501    0  0.00000000000E+00 -0.00000000000E+00 -0.67603213086E+03  0.67604846864E+03  0.47000000000E+01 0. -1.
          6    1    1    2  502    0  0.10860002214E+02  0.23515195564E+01 -0.60028318992E+03  0.62453773096E+03  0.17200000000E+03 0. -1.
         -6    1    1    2    0  502 -0.10860002214E+02 -0.23515195564E+01  0.52968530586E+02  0.18031398871E+03  0.17200000000E+03 0.  1.
</event>
<event>
 4    1 -0.6901648E-004  0.1739501E+03  0.7818608E-02  0.1173790E+00
         -5   -1    0    0    0  501 -0.00000000000E+00  0.00000000000E+00  0.37058209827E+03  0.37061190154E+03  0.47000000000E+01 0.  1.
          5   -1    0    0  501    0  0.00000000000E+00 -0.00000000000E+00 -0.95135809910E+03  0.95136970875E+03  0.47000000000E+01 0. -1.
          6    1    1    2  502    0 -0.21586910454E+02 -0.14443949218E+02 -0.92237966158E+03  0.93863883494E+03  0.17200000000E+03 0. -1.
         -6    1    1    2    0  502  0.21586910454E+02  0.14443949218E+02  0.34160366075E+03  0.38334277534E+03  0.17200000000E+03 0.  1.
</event>
<event>
 4    1 -0.6901648E-004  0.1742125E+03  0.7818608E-02  0.1173525E+00
         -5   -1    0    0    0  501 -0.00000000000E+00  0.00000000000E+00  0.86336588272E+02  0.86464423172E+02  0.47000000000E+01 0.  1.
          5   -1    0    0  501    0  0.00000000000E+00 -0.00000000000E+00 -0.47016390049E+03  0.47018739171E+03  0.47000000000E+01 0. -1.
          6    1    1    2  502    0  0.27640283470E+02 -0.14233843740E+01 -0.33193585239E+03  0.37487520776E+03  0.17200000000E+03 0. -1.
         -6    1    1    2    0  502 -0.27640283470E+02  0.14233843740E+01 -0.51891459831E+02  0.18177660712E+03  0.17200000000E+03 0.  1.
</event>
<event>
 4    1 -0.6901648E-004  0.1750243E+03  0.7818608E-02  0.1172707E+00
         -5   -1    0    0    0  501 -0.00000000000E+00  0.00000000000E+00  0.24427702134E+03  0.24432223222E+03  0.47000000000E+01 0.  1.
          5   -1    0    0  501    0  0.00000000000E+00 -0.00000000000E+00 -0.23173507017E+03  0.23178272746E+03  0.47000000000E+01 0. -1.
          6    1    1    2  502    0  0.19209298723E+02 -0.26086412008E+02 -0.15501824413E+03  0.23380366563E+03  0.17200000000E+03 0. -1.
         -6    1    1    2    0  502 -0.19209298723E+02  0.26086412008E+02  0.16756019530E+03  0.24230129405E+03  0.17200000000E+03 0.  1.
</event>
<event>
 4    1 -0.6901648E-004  0.1870968E+03  0.7818608E-02  0.1161106E+00
         -5   -1    0    0    0  501 -0.00000000000E+00  0.00000000000E+00  0.44364971700E+03  0.44367461207E+03  0.47000000000E+01 0.  1.
          5   -1    0    0  501    0  0.00000000000E+00 -0.00000000000E+00 -0.97171103165E+02  0.97284702242E+02  0.47000000000E+01 0. -1.
          6    1    1    2  502    0  0.57772682046E+02  0.45645634073E+02  0.55742050723E+02  0.19522393019E+03  0.17200000000E+03 0. -1.
         -6    1    1    2    0  502 -0.57772682046E+02 -0.45645634073E+02  0.29073656311E+03  0.34573538412E+03  0.17200000000E+03 0.  1.
</event>
<event>
 4    1 -0.6901648E-004  0.1896471E+03  0.7818608E-02  0.1158780E+00
          5   -1    0    0  501    0  0.00000000000E+00  0.00000000000E+00  0.99371015045E+02  0.99482102064E+02  0.47000000000E+01 0. -1.
         -5   -1    0    0    0  501 -0.00000000000E+00 -0.00000000000E+00 -0.42413352194E+03  0.42415956247E+03  0.47000000000E+01 0.  1.
          6    1    1    2  502    0  0.34593478168E+02 -0.72009005671E+02 -0.61871057194E+02  0.19948441881E+03  0.17200000000E+03 0. -1.
         -6    1    1    2    0  502 -0.34593478168E+02  0.72009005671E+02 -0.26289144970E+03  0.32415724573E+03  0.17200000000E+03 0. -1.
</event>
<event>
 4    1 -0.6901648E-004  0.2010754E+03  0.7818608E-02  0.1148835E+00
          5   -1    0    0  501    0  0.00000000000E+00  0.00000000000E+00  0.80188241677E+02  0.80325861983E+02  0.47000000000E+01 0. -1.
         -5   -1    0    0    0  501 -0.00000000000E+00 -0.00000000000E+00 -0.70412219945E+03  0.70413788548E+03  0.47000000000E+01 0.  1.
          6    1    1    2  502    0 -0.88073333006E+02 -0.55591425453E+02 -0.10268797761E+03  0.22577896119E+03  0.17200000000E+03 0.  1.
         -6    1    1    2    0  502  0.88073333006E+02  0.55591425453E+02 -0.52124598016E+03  0.55868478627E+03  0.17200000000E+03 0. -1.
</event>
<event>
 4    1 -0.6901648E-004  0.1780583E+03  0.7818608E-02  0.1169696E+00
          5   -1    0    0  501    0  0.00000000000E+00  0.00000000000E+00  0.57753008151E+03  0.57754920574E+03  0.47000000000E+01 0. -1.
         -5   -1    0    0    0  501 -0.00000000000E+00 -0.00000000000E+00 -0.65266121650E+03  0.65267813931E+03  0.47000000000E+01 0.  1.
          6    1    1    2  502    0 -0.43072454866E+02 -0.16294805408E+02  0.55111208832E+03  0.57916257730E+03  0.17200000000E+03 0. -1.
         -6    1    1    2    0  502  0.43072454866E+02  0.16294805408E+02 -0.62624322332E+03  0.65106476775E+03  0.17200000000E+03 0.  1.
</event>
<event>
 4    1 -0.6901648E-004  0.1953048E+03  0.7818608E-02  0.1153762E+00
          5   -1    0    0  501    0  0.00000000000E+00  0.00000000000E+00  0.26931547118E+03  0.26935647944E+03  0.47000000000E+01 0. -1.
         -5   -1    0    0    0  501 -0.00000000000E+00 -0.00000000000E+00 -0.91799548731E+03  0.91800751888E+03  0.47000000000E+01 0.  1.
          6    1    1    2  502    0 -0.77044655956E+02 -0.51225668728E+02  0.22163270063E+03  0.29540650320E+03  0.17200000000E+03 0. -1.
         -6    1    1    2    0  502  0.77044655956E+02  0.51225668728E+02 -0.87031271675E+03  0.89195749511E+03  0.17200000000E+03 0.  1.
</event>
<event>
 4    1 -0.6901648E-004  0.1962933E+03  0.7818608E-02  0.1152905E+00
         -5   -1    0    0    0  501 -0.00000000000E+00  0.00000000000E+00  0.26401557165E+03  0.26405740299E+03  0.47000000000E+01 0.  1.
          5   -1    0    0  501    0  0.00000000000E+00 -0.00000000000E+00 -0.21302925729E+03  0.21308109832E+03  0.47000000000E+01 0. -1.
          6    1    1    2  502    0 -0.49055117650E+02  0.80874272227E+02 -0.10844405450E+03  0.22425691836E+03  0.17200000000E+03 0. -1.
         -6    1    1    2    0  502  0.49055117650E+02 -0.80874272227E+02  0.15943036886E+03  0.25288158294E+03  0.17200000000E+03 0.  1.
</event>
<event>
 4    1 -0.6901648E-004  0.2041905E+03  0.7818608E-02  0.1146251E+00
         -5   -1    0    0    0  501 -0.00000000000E+00  0.00000000000E+00  0.11491125925E+03  0.11500733673E+03  0.47000000000E+01 0.  1.
          5   -1    0    0  501    0  0.00000000000E+00 -0.00000000000E+00 -0.36265661911E+03  0.36268707363E+03  0.47000000000E+01 0. -1.
          6    1    1    2  502    0  0.92705698561E+02  0.59291047677E+02 -0.12021657216E+03  0.23695104790E+03  0.17200000000E+03 0. -1.
         -6    1    1    2    0  502 -0.92705698561E+02 -0.59291047677E+02 -0.12752878770E+03  0.24074336247E+03  0.17200000000E+03 0.  1.
</event>
<event>
 4    1 -0.6901648E-004  0.2233870E+03  0.7818608E-02  0.1131383E+00
          5   -1    0    0  501    0  0.00000000000E+00  0.00000000000E+00  0.44269233577E+03  0.44271728468E+03  0.47000000000E+01 0. -1.
         -5   -1    0    0    0  501 -0.00000000000E+00 -0.00000000000E+00 -0.13085847391E+03  0.13094285087E+03  0.47000000000E+01 0.  1.
          6    1    1    2  502    0 -0.11038740291E+03  0.90179757881E+02  0.26287482088E+03  0.34497092473E+03  0.17200000000E+03 0. -1.
         -6    1    1    2    0  502  0.11038740291E+03 -0.90179757881E+02  0.48959040984E+02  0.22868921082E+03  0.17200000000E+03 0. -1.
</event>
<event>
 4    1 -0.6901648E-004  0.1752888E+03  0.7818608E-02  0.1172442E+00
         -5   -1    0    0    0  501 -0.00000000000E+00  0.00000000000E+00  0.96214474379E+03  0.96215622328E+03  0.47000000000E+01 0.  1.
          5   -1    0    0  501    0  0.00000000000E+00 -0.00000000000E+00 -0.36766674902E+02  0.37065865474E+02  0.47000000000E+01 0. -1.
          6    1    1    2  502    0 -0.11428664670E+02 -0.31804648329E+02  0.27897970212E+03  0.32947810887E+03  0.17200000000E+03 0. -1.
         -6    1    1    2    0  502  0.11428664670E+02  0.31804648329E+02  0.64639836677E+03  0.66974397989E+03  0.17200000000E+03 0.  1.
</event>
<event>
 4    1 -0.6901648E-004  0.2838078E+03  0.7818608E-02  0.1093627E+00
         -5   -1    0    0    0  501 -0.00000000000E+00  0.00000000000E+00  0.24262346088E+03  0.24266897982E+03  0.47000000000E+01 0.  1.
          5   -1    0    0  501    0  0.00000000000E+00 -0.00000000000E+00 -0.66550730995E+03  0.66552390611E+03  0.47000000000E+01 0. -1.
          6    1    1    2  502    0  0.20366762518E+03 -0.97377294851E+02 -0.53293620146E+03  0.60379452956E+03  0.17200000000E+03 0. -1.
         -6    1    1    2    0  502 -0.20366762518E+03  0.97377294851E+02  0.11005235238E+03  0.30439835637E+03  0.17200000000E+03 0.  1.
</event>
<event>
 4    1 -0.6901648E-004  0.2259897E+03  0.7818608E-02  0.1129495E+00
          5   -1    0    0  501    0  0.00000000000E+00  0.00000000000E+00  0.76993813544E+02  0.77137133237E+02  0.47000000000E+01 0. -1.
         -5   -1    0    0    0  501 -0.00000000000E+00 -0.00000000000E+00 -0.92643184134E+03  0.92644376335E+03  0.47000000000E+01 0.  1.
          6    1    1    2  502    0 -0.14496552077E+03  0.21733647164E+02 -0.15693531095E+03  0.27513641245E+03  0.17200000000E+03 0. -1.
         -6    1    1    2    0  502  0.14496552077E+03 -0.21733647164E+02 -0.69250271685E+03  0.72844448414E+03  0.17200000000E+03 0.  1.
</event>
<event>
 4    1 -0.6901648E-004  0.1734061E+03  0.7818608E-02  0.1174342E+00
         -5   -1    0    0    0  501 -0.00000000000E+00  0.00000000000E+00  0.71092665827E+02  0.71247857052E+02  0.47000000000E+01 0.  1.
          5   -1    0    0  501    0  0.00000000000E+00 -0.00000000000E+00 -0.11398848546E+04  0.11398945441E+04  0.47000000000E+01 0. -1.
          6    1    1    2  502    0  0.47152618481E+01 -0.21527297554E+02 -0.10148235606E+04  0.10295321838E+04  0.17200000000E+03 0. -1.
         -6    1    1    2    0  502 -0.47152618481E+01  0.21527297554E+02 -0.53968628114E+02  0.18161021737E+03  0.17200000000E+03 0.  1.
</event>
<event>
 4    1 -0.6901648E-004  0.1993980E+03  0.7818608E-02  0.1150248E+00
          5   -1    0    0  501    0  0.00000000000E+00  0.00000000000E+00  0.30007702306E+02  0.30373544371E+02  0.47000000000E+01 0. -1.
         -5   -1    0    0    0  501 -0.00000000000E+00 -0.00000000000E+00 -0.13205438894E+04  0.13205522534E+04  0.47000000000E+01 0.  1.
          6    1    1    2  502    0 -0.10076751526E+03 -0.46334280271E+01 -0.68226731114E+03  0.71080816303E+03  0.17200000000E+03 0.  1.
         -6    1    1    2    0  502  0.10076751526E+03  0.46334280271E+01 -0.60826887598E+03  0.64011763471E+03  0.17200000000E+03 0. -1.
</event>
<event>
 4    1 -0.6901648E-004  0.1750463E+03  0.7818608E-02  0.1172685E+00
          5   -1    0    0  501    0  0.00000000000E+00  0.00000000000E+00  0.31344376496E+02  0.31694793546E+02  0.47000000000E+01 0. -1.
         -5   -1    0    0    0  501 -0.00000000000E+00 -0.00000000000E+00 -0.12089614619E+04  0.12089705978E+04  0.47000000000E+01 0.  1.
          6    1    1    2  502    0 -0.13255137032E+02 -0.29690235676E+02 -0.31408398692E+03  0.35956913048E+03  0.17200000000E+03 0. -1.
         -6    1    1    2    0  502  0.13255137032E+02  0.29690235676E+02 -0.86353309852E+03  0.88109626091E+03  0.17200000000E+03 0.  1.
</event>
<event>
 4    1 -0.6901648E-004  0.1786369E+03  0.7818608E-02  0.1169129E+00
          5   -1    0    0  501    0  0.00000000000E+00  0.00000000000E+00  0.78541324236E+03  0.78542730490E+03  0.47000000000E+01 0. -1.
         -5   -1    0    0    0  501 -0.00000000000E+00 -0.00000000000E+00 -0.14413213149E+03  0.14420874221E+03  0.47000000000E+01 0.  1.
          6    1    1    2  502    0 -0.43161805944E+02  0.21545526091E+02  0.71456182108E+03  0.73655261002E+03  0.17200000000E+03 0. -1.
         -6    1    1    2    0  502  0.43161805944E+02 -0.21545526091E+02 -0.73280710209E+02  0.19308343708E+03  0.17200000000E+03 0.  1.
</event>
<event>
 4    1 -0.6901648E-004  0.2037318E+03  0.7818608E-02  0.1146628E+00
         -5   -1    0    0    0  501 -0.00000000000E+00  0.00000000000E+00  0.47036864097E+03  0.47039212197E+03  0.47000000000E+01 0.  1.
          5   -1    0    0  501    0  0.00000000000E+00 -0.00000000000E+00 -0.60958641804E+03  0.60960453662E+03  0.47000000000E+01 0. -1.
          6    1    1    2  502    0 -0.10466302651E+03 -0.31117275408E+02 -0.56899872074E+03  0.60437254914E+03  0.17200000000E+03 0. -1.
         -6    1    1    2    0  502  0.10466302651E+03  0.31117275408E+02  0.42978094367E+03  0.47562410945E+03  0.17200000000E+03 0.  1.
</event>
<event>
 4    1 -0.6901648E-004  0.2363834E+03  0.7818608E-02  0.1122226E+00
          5   -1    0    0  501    0  0.00000000000E+00  0.00000000000E+00  0.48804851956E+03  0.48807114998E+03  0.47000000000E+01 0. -1.
         -5   -1    0    0    0  501 -0.00000000000E+00 -0.00000000000E+00 -0.16534338532E+03  0.16541017221E+03  0.47000000000E+01 0.  1.
          6    1    1    2  502    0 -0.13397705044E+03  0.91341559938E+02  0.34262951359E+03  0.41625967160E+03  0.17200000000E+03 0. -1.
         -6    1    1    2    0  502  0.13397705044E+03 -0.91341559938E+02 -0.19924379356E+02  0.23722165059E+03  0.17200000000E+03 0.  1.
</event>
<event>
 4    1 -0.6901648E-004  0.2362202E+03  0.7818608E-02  0.1122337E+00
         -5   -1    0    0    0  501 -0.00000000000E+00  0.00000000000E+00  0.77963568352E+02  0.78105108605E+02  0.47000000000E+01 0.  1.
          5   -1    0    0  501    0  0.00000000000E+00 -0.00000000000E+00 -0.10554977191E+04  0.10555081833E+04  0.47000000000E+01 0. -1.
          6    1    1    2  502    0  0.16189641992E+03  0.23547464113E+01 -0.81071253522E+03  0.84442572815E+03  0.17200000000E+03 0.  1.
         -6    1    1    2    0  502 -0.16189641992E+03 -0.23547464113E+01 -0.16682161549E+03  0.28918756371E+03  0.17200000000E+03 0.  1.
</event>
<event>
 4    1 -0.6901648E-004  0.1940760E+03  0.7818608E-02  0.1154836E+00
          5   -1    0    0  501    0  0.00000000000E+00  0.00000000000E+00  0.29135721423E+03  0.29139512056E+03  0.47000000000E+01 0. -1.
         -5   -1    0    0    0  501 -0.00000000000E+00 -0.00000000000E+00 -0.34226249072E+03  0.34229475975E+03  0.47000000000E+01 0.  1.
          6    1    1    2  502    0  0.27350156309E+02  0.85635659717E+02  0.22450851647E+03  0.29676517861E+03  0.17200000000E+03 0. -1.
         -6    1    1    2    0  502 -0.27350156309E+02 -0.85635659717E+02 -0.27541379296E+03  0.33692470170E+03  0.17200000000E+03 0.  1.
</event>
<event>
 4    1 -0.6901648E-004  0.2347151E+03  0.7818608E-02  0.1123364E+00
         -5   -1    0    0    0  501 -0.00000000000E+00  0.00000000000E+00  0.71551588714E+03  0.71553132338E+03  0.47000000000E+01 0.  1.
          5   -1    0    0  501    0  0.00000000000E+00 -0.00000000000E+00 -0.15103754849E+03  0.15111065831E+03  0.47000000000E+01 0. -1.
          6    1    1    2  502    0 -0.14310454250E+03 -0.70910371027E+02 -0.21211346848E+02  0.23567161908E+03  0.17200000000E+03 0. -1.
         -6    1    1    2    0  502  0.14310454250E+03  0.70910371027E+02  0.58568968549E+03  0.63097036261E+03  0.17200000000E+03 0.  1.
</event>
<event>
 4    1 -0.6901648E-004  0.2248905E+03  0.7818608E-02  0.1130289E+00
          5   -1    0    0  501    0  0.00000000000E+00  0.00000000000E+00  0.22779086994E+04  0.22779135482E+04  0.47000000000E+01 0. -1.
         -5   -1    0    0    0  501 -0.00000000000E+00 -0.00000000000E+00 -0.49069149496E+03  0.49071400349E+03  0.47000000000E+01 0.  1.
          6    1    1    2  502    0  0.12883969228E+03  0.66272537835E+02  0.22462423846E+04  0.22574721628E+04  0.17200000000E+03 0. -1.
         -6    1    1    2    0  502 -0.12883969228E+03 -0.66272537835E+02 -0.45902518011E+03  0.51115538885E+03  0.17200000000E+03 0.  1.
</event>
<event>
 4    1 -0.6901648E-004  0.1855359E+03  0.7818608E-02  0.1162550E+00
          5   -1    0    0  501    0  0.00000000000E+00  0.00000000000E+00  0.46487077391E+03  0.46489453259E+03  0.47000000000E+01 0. -1.
         -5   -1    0    0    0  501 -0.00000000000E+00 -0.00000000000E+00 -0.10166547231E+03  0.10177405495E+03  0.47000000000E+01 0.  1.
          6    1    1    2  502    0 -0.68096113771E+02 -0.14230468437E+02  0.32942880713E+03  0.37808322617E+03  0.17200000000E+03 0. -1.
         -6    1    1    2    0  502  0.68096113771E+02  0.14230468437E+02  0.33776494462E+02  0.18858536136E+03  0.17200000000E+03 0.  1.
</event>
<event>
 4    1 -0.6901648E-004  0.1979454E+03  0.7818608E-02  0.1151484E+00
          5   -1    0    0  501    0  0.00000000000E+00  0.00000000000E+00  0.36136720016E+03  0.36139776335E+03  0.47000000000E+01 0. -1.
         -5   -1    0    0    0  501 -0.00000000000E+00 -0.00000000000E+00 -0.13759655900E+03  0.13767680650E+03  0.47000000000E+01 0.  1.
          6    1    1    2  502    0 -0.27333252352E+01 -0.97933200313E+02  0.22689543690E+03  0.30110450358E+03  0.17200000000E+03 0. -1.
         -6    1    1    2    0  502  0.27333252352E+01  0.97933200313E+02 -0.31247957318E+01  0.19797006627E+03  0.17200000000E+03 0.  1.
</event>
<event>
 4    1 -0.6901648E-004  0.1843686E+03  0.7818608E-02  0.1163641E+00
          5   -1    0    0  501    0  0.00000000000E+00  0.00000000000E+00  0.24734103173E+03  0.24738568265E+03  0.47000000000E+01 0. -1.
         -5   -1    0    0    0  501 -0.00000000000E+00 -0.00000000000E+00 -0.37037221874E+03  0.37040203890E+03  0.47000000000E+01 0.  1.
          6    1    1    2  502    0 -0.50608754065E+02 -0.42971299659E+02  0.18347390268E+03  0.26010469344E+03  0.17200000000E+03 0. -1.
         -6    1    1    2    0  502  0.50608754065E+02  0.42971299659E+02 -0.30650508970E+03  0.35768302810E+03  0.17200000000E+03 0.  1.
</event>
<event>
 4    1 -0.6901648E-004  0.1885721E+03  0.7818608E-02  0.1159756E+00
         -5   -1    0    0    0  501 -0.00000000000E+00  0.00000000000E+00  0.34946147014E+03  0.34949307448E+03  0.47000000000E+01 0.  1.
          5   -1    0    0  501    0  0.00000000000E+00 -0.00000000000E+00 -0.40312732537E+03  0.40315472273E+03  0.47000000000E+01 0. -1.
          6    1    1    2  502    0  0.76159129576E+02  0.13237409096E+02 -0.35222273032E+03  0.39952508529E+03  0.17200000000E+03 0. -1.
         -6    1    1    2    0  502 -0.76159129576E+02 -0.13237409096E+02  0.29855687509E+03  0.35312271193E+03  0.17200000000E+03 0.  1.
</event>
<event>
 4    1 -0.6901648E-004  0.1720891E+03  0.7818608E-02  0.1175687E+00
         -5   -1    0    0    0  501 -0.00000000000E+00  0.00000000000E+00  0.15851383015E+03  0.15858349330E+03  0.47000000000E+01 0.  1.
          5   -1    0    0  501    0  0.00000000000E+00 -0.00000000000E+00 -0.86325761749E+03  0.86327041196E+03  0.47000000000E+01 0. -1.
          6    1    1    2  502    0  0.48146859839E+01  0.27356015663E+01 -0.80466366582E+03  0.82285981783E+03  0.17200000000E+03 0. -1.
         -6    1    1    2    0  502 -0.48146859839E+01 -0.27356015663E+01  0.99919878475E+02  0.19899408743E+03  0.17200000000E+03 0.  1.
</event>
<event>
 4    1 -0.6901648E-004  0.2160019E+03  0.7818608E-02  0.1136899E+00
         -5   -1    0    0    0  501 -0.00000000000E+00  0.00000000000E+00  0.23430537441E+03  0.23435250901E+03  0.47000000000E+01 0.  1.
          5   -1    0    0  501    0  0.00000000000E+00 -0.00000000000E+00 -0.21763567798E+03  0.21768642201E+03  0.47000000000E+01 0. -1.
          6    1    1    2  502    0 -0.56944999483E+02  0.11760139307E+03 -0.57729087776E+02  0.22358324667E+03  0.17200000000E+03 0. -1.
         -6    1    1    2    0  502  0.56944999483E+02 -0.11760139307E+03  0.74398784208E+02  0.22845568435E+03  0.17200000000E+03 0.  1.
</event>
<event>
 4    1 -0.6901648E-004  0.1976852E+03  0.7818608E-02  0.1151707E+00
          5   -1    0    0  501    0  0.00000000000E+00  0.00000000000E+00  0.16015444294E+03  0.16022339278E+03  0.47000000000E+01 0. -1.
         -5   -1    0    0    0  501 -0.00000000000E+00 -0.00000000000E+00 -0.79474804640E+03  0.79476194376E+03  0.47000000000E+01 0.  1.
          6    1    1    2  502    0 -0.70107033219E+02 -0.67678982062E+02  0.80218654926E+02  0.21334121336E+03  0.17200000000E+03 0. -1.
         -6    1    1    2    0  502  0.70107033219E+02  0.67678982062E+02 -0.71481225838E+03  0.74164412319E+03  0.17200000000E+03 0.  1.
</event>
<event>
 4    1 -0.6901648E-004  0.1730854E+03  0.7818608E-02  0.1174668E+00
          5   -1    0    0  501    0  0.00000000000E+00  0.00000000000E+00  0.53191194443E+02  0.53398437863E+02  0.47000000000E+01 0. -1.
         -5   -1    0    0    0  501 -0.00000000000E+00 -0.00000000000E+00 -0.10082579780E+04  0.10082689325E+04  0.47000000000E+01 0.  1.
          6    1    1    2  502    0 -0.17245040002E+02 -0.87833753035E+01 -0.12438212178E+03  0.21314185724E+03  0.17200000000E+03 0. -1.
         -6    1    1    2    0  502  0.17245040002E+02  0.87833753035E+01 -0.83068466181E+03  0.84852551314E+03  0.17200000000E+03 0.  1.
</event>
<event>
 4    1 -0.6901648E-004  0.3554499E+03  0.7818608E-02  0.1060400E+00
         -5   -1    0    0    0  501 -0.00000000000E+00  0.00000000000E+00  0.61974538953E+03  0.61976321110E+03  0.47000000000E+01 0.  1.
          5   -1    0    0  501    0  0.00000000000E+00 -0.00000000000E+00 -0.53348313342E+03  0.53350383658E+03  0.47000000000E+01 0. -1.
          6    1    1    2  502    0  0.25891407329E+03  0.17240688429E+03 -0.41013561921E+03  0.54273000400E+03  0.17200000000E+03 0. -1.
         -6    1    1    2    0  502 -0.25891407329E+03 -0.17240688429E+03  0.49639787531E+03  0.61053704368E+03  0.17200000000E+03 0.  1.
</event>
<event>
 4    1 -0.6901648E-004  0.2351237E+03  0.7818608E-02  0.1123085E+00
          5   -1    0    0  501    0  0.00000000000E+00  0.00000000000E+00  0.22127803317E+03  0.22132794212E+03  0.47000000000E+01 0. -1.
         -5   -1    0    0    0  501 -0.00000000000E+00 -0.00000000000E+00 -0.33171156344E+03  0.33174485876E+03  0.47000000000E+01 0.  1.
          6    1    1    2  502    0 -0.15825734459E+03 -0.25569074123E+02  0.82237216929E+02  0.24909059500E+03  0.17200000000E+03 0. -1.
         -6    1    1    2    0  502  0.15825734459E+03  0.25569074123E+02 -0.19267074720E+03  0.30398220588E+03  0.17200000000E+03 0.  1.
</event>
<event>
 4    1 -0.6901648E-004  0.1997115E+03  0.7818608E-02  0.1149983E+00
         -5   -1    0    0    0  501 -0.00000000000E+00  0.00000000000E+00  0.12647109384E+04  0.12647196716E+04  0.47000000000E+01 0.  1.
          5   -1    0    0  501    0  0.00000000000E+00 -0.00000000000E+00 -0.37479145644E+02  0.37772693287E+02  0.47000000000E+01 0. -1.
          6    1    1    2  502    0  0.85270483562E+02  0.55042231962E+02  0.35146571796E+03  0.40424355724E+03  0.17200000000E+03 0. -1.
         -6    1    1    2    0  502 -0.85270483562E+02 -0.55042231962E+02  0.87576607482E+03  0.89824880766E+03  0.17200000000E+03 0.  1.
</event>
<event>
 4    1 -0.6901648E-004  0.1853912E+03  0.7818608E-02  0.1162685E+00
         -5   -1    0    0    0  501 -0.00000000000E+00  0.00000000000E+00  0.99511740517E+02  0.99622670616E+02  0.47000000000E+01 0.  1.
          5   -1    0    0  501    0  0.00000000000E+00 -0.00000000000E+00 -0.17513986110E+04  0.17514049174E+04  0.47000000000E+01 0. -1.
          6    1    1    2  502    0  0.52080110632E+02  0.45536540027E+02 -0.16552560319E+04  0.16656057294E+04  0.17200000000E+03 0. -1.
         -6    1    1    2    0  502 -0.52080110632E+02 -0.45536540027E+02  0.33691614814E+01  0.18542185861E+03  0.17200000000E+03 0.  1.
</event>
<event>
 4    1 -0.6901648E-004  0.1736804E+03  0.7818608E-02  0.1174063E+00
         -5   -1    0    0    0  501 -0.00000000000E+00  0.00000000000E+00  0.56454139468E+03  0.56456095890E+03  0.47000000000E+01 0.  1.
          5   -1    0    0  501    0  0.00000000000E+00 -0.00000000000E+00 -0.31020594847E+03  0.31024155181E+03  0.47000000000E+01 0. -1.
          6    1    1    2  502    0  0.15815880051E+02 -0.18186576333E+02 -0.27078931797E+03  0.32170133408E+03  0.17200000000E+03 0. -1.
         -6    1    1    2    0  502 -0.15815880051E+02  0.18186576333E+02  0.52512476419E+03  0.55310117662E+03  0.17200000000E+03 0.  1.
</event>
<event>
 4    1 -0.6901648E-004  0.1847346E+03  0.7818608E-02  0.1163298E+00
          5   -1    0    0  501    0  0.00000000000E+00  0.00000000000E+00  0.49237030175E+03  0.49239273354E+03  0.47000000000E+01 0. -1.
         -5   -1    0    0    0  501 -0.00000000000E+00 -0.00000000000E+00 -0.61980053635E+03  0.61981835634E+03  0.47000000000E+01 0.  1.
          6    1    1    2  502    0  0.63761321650E+02 -0.21848492010E+02  0.46037701850E+03  0.49605832511E+03  0.17200000000E+03 0. -1.
         -6    1    1    2    0  502 -0.63761321650E+02  0.21848492010E+02 -0.58780725310E+03  0.61615276477E+03  0.17200000000E+03 0.  1.
</event>
<event>
 4    1 -0.6901648E-004  0.2037631E+03  0.7818608E-02  0.1146602E+00
         -5   -1    0    0    0  501 -0.00000000000E+00  0.00000000000E+00  0.30037083327E+02  0.30402571845E+02  0.47000000000E+01 0.  1.
          5   -1    0    0  501    0  0.00000000000E+00 -0.00000000000E+00 -0.15142714039E+04  0.15142786978E+04  0.47000000000E+01 0. -1.
          6    1    1    2  502    0 -0.10911677711E+03  0.53790378012E+01 -0.50669674149E+03  0.54613276127E+03  0.17200000000E+03 0.  1.
         -6    1    1    2    0  502  0.10911677711E+03 -0.53790378012E+01 -0.97753757904E+03  0.99854850835E+03  0.17200000000E+03 0. -1.
</event>
<event>
 4    1 -0.6901648E-004  0.1734818E+03  0.7818608E-02  0.1174265E+00
          5   -1    0    0  501    0  0.00000000000E+00  0.00000000000E+00  0.75980157129E+02  0.76125385237E+02  0.47000000000E+01 0. -1.
         -5   -1    0    0    0  501 -0.00000000000E+00 -0.00000000000E+00 -0.45428711244E+03  0.45431142461E+03  0.47000000000E+01 0.  1.
          6    1    1    2  502    0  0.22619262102E+02 -0.54497626898E+00 -0.93817439220E+02  0.19722484610E+03  0.17200000000E+03 0. -1.
         -6    1    1    2    0  502 -0.22619262102E+02  0.54497626898E+00 -0.28448951609E+03  0.33321196374E+03  0.17200000000E+03 0.  1.
</event>
<event>
 4    1 -0.6901648E-004  0.1811758E+03  0.7818608E-02  0.1166670E+00
         -5   -1    0    0    0  501 -0.00000000000E+00  0.00000000000E+00  0.41452526960E+03  0.41455191368E+03  0.47000000000E+01 0.  1.
          5   -1    0    0  501    0  0.00000000000E+00 -0.00000000000E+00 -0.47416737763E+03  0.47419067052E+03  0.47000000000E+01 0. -1.
          6    1    1    2  502    0 -0.42944187472E+02 -0.37369418107E+02 -0.43539801663E+03  0.47158892007E+03  0.17200000000E+03 0. -1.
         -6    1    1    2    0  502  0.42944187472E+02  0.37369418107E+02  0.37575590860E+03  0.41715366413E+03  0.17200000000E+03 0.  1.
</event>
<event>
 4    1 -0.6901648E-004  0.5052852E+03  0.7818608E-02  0.1012409E+00
         -5   -1    0    0    0  501 -0.00000000000E+00  0.00000000000E+00  0.78237491998E+03  0.78238903712E+03  0.47000000000E+01 0.  1.
          5   -1    0    0  501    0  0.00000000000E+00 -0.00000000000E+00 -0.13098935211E+04  0.13099019530E+04  0.47000000000E+01 0. -1.
          6    1    1    2  502    0  0.10151148317E+03  0.46413847329E+03 -0.11702779866E+04  0.12747014041E+04  0.17200000000E+03 0. -1.
         -6    1    1    2    0  502 -0.10151148317E+03 -0.46413847329E+03  0.64275938551E+03  0.81758958608E+03  0.17200000000E+03 0.  1.
</event>
<event>
 4    1 -0.6901648E-004  0.2138986E+03  0.7818608E-02  0.1138515E+00
         -5   -1    0    0    0  501 -0.00000000000E+00  0.00000000000E+00  0.59281683545E+03  0.59283546655E+03  0.47000000000E+01 0.  1.
          5   -1    0    0  501    0  0.00000000000E+00 -0.00000000000E+00 -0.25457041420E+03  0.25461379732E+03  0.47000000000E+01 0. -1.
          6    1    1    2  502    0  0.11574511279E+03  0.52646586642E+02 -0.18459983030E+03  0.28254148645E+03  0.17200000000E+03 0. -1.
         -6    1    1    2    0  502 -0.11574511279E+03 -0.52646586642E+02  0.52284625155E+03  0.56490777741E+03  0.17200000000E+03 0.  1.
</event>
<event>
 4    1 -0.6901648E-004  0.3160395E+03  0.7818608E-02  0.1077487E+00
          5   -1    0    0  501    0  0.00000000000E+00  0.00000000000E+00  0.26350465331E+03  0.26354656574E+03  0.47000000000E+01 0. -1.
         -5   -1    0    0    0  501 -0.00000000000E+00 -0.00000000000E+00 -0.38066249428E+03  0.38069150837E+03  0.47000000000E+01 0.  1.
          6    1    1    2  502    0 -0.12476978098E+03 -0.23394327594E+03 -0.37048477107E+02  0.31820362075E+03  0.17200000000E+03 0. -1.
         -6    1    1    2    0  502  0.12476978098E+03  0.23394327594E+03 -0.80109363863E+02  0.32603445337E+03  0.17200000000E+03 0.  1.
</event>
<event>
 4    1 -0.6901648E-004  0.2699090E+03  0.7818608E-02  0.1101332E+00
         -5   -1    0    0    0  501 -0.00000000000E+00  0.00000000000E+00  0.10590624048E+03  0.10601047954E+03  0.47000000000E+01 0.  1.
          5   -1    0    0  501    0  0.00000000000E+00 -0.00000000000E+00 -0.85190651082E+03  0.85191947576E+03  0.47000000000E+01 0. -1.
          6    1    1    2  502    0  0.16348213299E+03 -0.12860962172E+03 -0.58344075859E+03  0.64284831911E+03  0.17200000000E+03 0. -1.
         -6    1    1    2    0  502 -0.16348213299E+03  0.12860962172E+03 -0.16255951176E+03  0.31508163619E+03  0.17200000000E+03 0.  1.
</event>
<event>
 4    1 -0.6901648E-004  0.2576869E+03  0.7818608E-02  0.1108541E+00
         -5   -1    0    0    0  501 -0.00000000000E+00  0.00000000000E+00  0.48816900762E+03  0.48819163246E+03  0.47000000000E+01 0.  1.
          5   -1    0    0  501    0  0.00000000000E+00 -0.00000000000E+00 -0.14411952056E+04  0.14412028693E+04  0.47000000000E+01 0. -1.
          6    1    1    2  502    0 -0.18033911334E+03 -0.65546556456E+02 -0.13945589473E+04  0.14181668464E+04  0.17200000000E+03 0. -1.
         -6    1    1    2    0  502  0.18033911334E+03  0.65546556456E+02  0.44153274934E+03  0.51122765536E+03  0.17200000000E+03 0.  1.
</event>
<event>
 4    1 -0.6901648E-004  0.2587304E+03  0.7818608E-02  0.1107908E+00
         -5   -1    0    0    0  501 -0.00000000000E+00  0.00000000000E+00  0.18966659808E+03  0.18972482291E+03  0.47000000000E+01 0.  1.
          5   -1    0    0  501    0  0.00000000000E+00 -0.00000000000E+00 -0.94137998186E+03  0.94139171456E+03  0.47000000000E+01 0. -1.
          6    1    1    2  502    0 -0.85100866265E+02 -0.17353752104E+03 -0.82302791104E+03  0.86273771854E+03  0.17200000000E+03 0. -1.
         -6    1    1    2    0  502  0.85100866265E+02  0.17353752104E+03  0.71314527264E+02  0.26837881893E+03  0.17200000000E+03 0.  1.
</event>
<event>
 4    1 -0.6901648E-004  0.1830042E+03  0.7818608E-02  0.1164927E+00
         -5   -1    0    0    0  501 -0.00000000000E+00  0.00000000000E+00  0.79718789291E+02  0.79857218622E+02  0.47000000000E+01 0.  1.
          5   -1    0    0  501    0  0.00000000000E+00 -0.00000000000E+00 -0.69546621629E+03  0.69548209754E+03  0.47000000000E+01 0. -1.
          6    1    1    2  502    0 -0.10600821577E+02 -0.61596790788E+02 -0.55200821727E+03  0.58155276113E+03  0.17200000000E+03 0. -1.
         -6    1    1    2    0  502  0.10600821577E+02  0.61596790788E+02 -0.63739209735E+02  0.19378655503E+03  0.17200000000E+03 0.  1.
</event>
<event>
 4    1 -0.6901648E-004  0.2264123E+03  0.7818608E-02  0.1129191E+00
          5   -1    0    0  501    0  0.00000000000E+00  0.00000000000E+00  0.16277333950E+03  0.16284118046E+03  0.47000000000E+01 0. -1.
         -5   -1    0    0    0  501 -0.00000000000E+00 -0.00000000000E+00 -0.35291713933E+03  0.35294843424E+03  0.47000000000E+01 0.  1.
          6    1    1    2  502    0  0.91126930574E+02  0.11564784209E+03 -0.10307756396E+02  0.22664684136E+03  0.17200000000E+03 0. -1.
         -6    1    1    2    0  502 -0.91126930574E+02 -0.11564784209E+03 -0.17983604343E+03  0.28914277334E+03  0.17200000000E+03 0.  1.
</event>
<event>
 4    1 -0.6901648E-004  0.1960881E+03  0.7818608E-02  0.1153082E+00
          5   -1    0    0  501    0  0.00000000000E+00  0.00000000000E+00  0.11506758494E+04  0.11506854481E+04  0.47000000000E+01 0. -1.
         -5   -1    0    0    0  501 -0.00000000000E+00 -0.00000000000E+00 -0.40782733539E+02  0.41052665625E+02  0.47000000000E+01 0.  1.
          6    1    1    2  502    0 -0.37207910911E+02  0.86499203405E+02  0.81022666858E+03  0.83361729546E+03  0.17200000000E+03 0. -1.
         -6    1    1    2    0  502  0.37207910911E+02 -0.86499203405E+02  0.29966644733E+03  0.35812081827E+03  0.17200000000E+03 0.  1.
</event>
<event>
 4    1 -0.6901648E-004  0.1771812E+03  0.7818608E-02  0.1170559E+00
          5   -1    0    0  501    0  0.00000000000E+00  0.00000000000E+00  0.36191225370E+03  0.36194277086E+03  0.47000000000E+01 0. -1.
         -5   -1    0    0    0  501 -0.00000000000E+00 -0.00000000000E+00 -0.23038763963E+03  0.23043557558E+03  0.47000000000E+01 0.  1.
          6    1    1    2  502    0 -0.19388389574E+02 -0.37858650277E+02  0.29965762687E+03  0.34812049694E+03  0.17200000000E+03 0. -1.
         -6    1    1    2    0  502  0.19388389574E+02  0.37858650277E+02 -0.16813301279E+03  0.24425784950E+03  0.17200000000E+03 0.  1.
</event>
<event>
 4    1 -0.6901648E-004  0.1863120E+03  0.7818608E-02  0.1161830E+00
         -5   -1    0    0    0  501 -0.00000000000E+00  0.00000000000E+00  0.14326149627E+04  0.14326226723E+04  0.47000000000E+01 0.  1.
          5   -1    0    0  501    0  0.00000000000E+00 -0.00000000000E+00 -0.13181321564E+03  0.13189698183E+03  0.47000000000E+01 0. -1.
          6    1    1    2  502    0 -0.12346662654E+02  0.70538752210E+02 -0.56343699871E+02  0.19464523667E+03  0.17200000000E+03 0. -1.
         -6    1    1    2    0  502  0.12346662654E+02 -0.70538752210E+02  0.13571454469E+04  0.13698744175E+04  0.17200000000E+03 0.  1.
</event>
<event>
 4    1 -0.6901648E-004  0.2034140E+03  0.7818608E-02  0.1146890E+00
         -5   -1    0    0    0  501 -0.00000000000E+00  0.00000000000E+00  0.28048770658E+03  0.28052708166E+03  0.47000000000E+01 0.  1.
          5   -1    0    0  501    0  0.00000000000E+00 -0.00000000000E+00 -0.25934729635E+03  0.25938988053E+03  0.47000000000E+01 0. -1.
          6    1    1    2  502    0  0.10019895561E+03 -0.41874109521E+02 -0.16673398692E+03  0.26301614807E+03  0.17200000000E+03 0. -1.
         -6    1    1    2    0  502 -0.10019895561E+03  0.41874109521E+02  0.18787439715E+03  0.27690081412E+03  0.17200000000E+03 0.  1.
</event>
<event>
 4    1 -0.6901648E-004  0.2420438E+03  0.7818608E-02  0.1118439E+00
         -5   -1    0    0    0  501 -0.00000000000E+00  0.00000000000E+00  0.76969898008E+02  0.77113262150E+02  0.47000000000E+01 0.  1.
          5   -1    0    0  501    0  0.00000000000E+00 -0.00000000000E+00 -0.13842624763E+04  0.13842704553E+04  0.47000000000E+01 0. -1.
          6    1    1    2  502    0  0.91913366563E+02 -0.14336368691E+03 -0.11441982514E+04  0.11695190688E+04  0.17200000000E+03 0. -1.
         -6    1    1    2    0  502 -0.91913366563E+02  0.14336368691E+03 -0.16309432693E+03  0.29186464869E+03  0.17200000000E+03 0.  1.
</event>
<event>
 4    1 -0.6901648E-004  0.1769894E+03  0.7818608E-02  0.1170749E+00
         -5   -1    0    0    0  501 -0.00000000000E+00  0.00000000000E+00  0.10449328743E+03  0.10459893460E+03  0.47000000000E+01 0.  1.
          5   -1    0    0  501    0  0.00000000000E+00 -0.00000000000E+00 -0.41155263613E+03  0.41157947265E+03  0.47000000000E+01 0. -1.
          6    1    1    2  502    0 -0.17818957703E+02  0.37732365895E+02 -0.28817225230E+03  0.33818411211E+03  0.17200000000E+03 0. -1.
         -6    1    1    2    0  502  0.17818957703E+02 -0.37732365895E+02 -0.18887096397E+02  0.17799429513E+03  0.17200000000E+03 0.  1.
</event>
<event>
 4    1 -0.6901648E-004  0.1861998E+03  0.7818608E-02  0.1161934E+00
          5   -1    0    0  501    0  0.00000000000E+00  0.00000000000E+00  0.48437655549E+03  0.48439935746E+03  0.47000000000E+01 0. -1.
         -5   -1    0    0    0  501 -0.00000000000E+00 -0.00000000000E+00 -0.19774183215E+03  0.19779767992E+03  0.47000000000E+01 0.  1.
          6    1    1    2  502    0 -0.16152963329E+02  0.69465394230E+02  0.41579678565E+03  0.45558459827E+03  0.17200000000E+03 0. -1.
         -6    1    1    2    0  502  0.16152963329E+02 -0.69465394230E+02 -0.12916206231E+03  0.22661243911E+03  0.17200000000E+03 0.  1.
</event>
<event>
 4    1 -0.6901648E-004  0.2077887E+03  0.7818608E-02  0.1143329E+00
          5   -1    0    0  501    0  0.00000000000E+00  0.00000000000E+00  0.29773567980E+03  0.29777277415E+03  0.47000000000E+01 0. -1.
         -5   -1    0    0    0  501 -0.00000000000E+00 -0.00000000000E+00 -0.16126609304E+03  0.16133456780E+03  0.47000000000E+01 0.  1.
          6    1    1    2  502    0  0.11617400491E+03 -0.97848886402E+01  0.14126945335E+03  0.25126321241E+03  0.17200000000E+03 0. -1.
         -6    1    1    2    0  502 -0.11617400491E+03  0.97848886402E+01 -0.47998666009E+01  0.20784412953E+03  0.17200000000E+03 0.  1.
</event>
<event>
 4    1 -0.6901648E-004  0.2257257E+03  0.7818608E-02  0.1129685E+00
          5   -1    0    0  501    0  0.00000000000E+00  0.00000000000E+00  0.85731238074E+02  0.85859974270E+02  0.47000000000E+01 0. -1.
         -5   -1    0    0    0  501 -0.00000000000E+00 -0.00000000000E+00 -0.18174890727E+04  0.18174951497E+04  0.47000000000E+01 0.  1.
          6    1    1    2  502    0  0.76218988267E+02 -0.12473472171E+03 -0.85000635242E+02  0.24119948790E+03  0.17200000000E+03 0. -1.
         -6    1    1    2    0  502 -0.76218988267E+02  0.12473472171E+03 -0.16467571993E+04  0.16621556361E+04  0.17200000000E+03 0.  1.
</event>
<event>
 4    1 -0.6901648E-004  0.2165857E+03  0.7818608E-02  0.1136454E+00
          5   -1    0    0  501    0  0.00000000000E+00  0.00000000000E+00  0.69976543195E+03  0.69978121564E+03  0.47000000000E+01 0. -1.
         -5   -1    0    0    0  501 -0.00000000000E+00 -0.00000000000E+00 -0.24648684147E+03  0.24653164709E+03  0.47000000000E+01 0.  1.
          6    1    1    2  502    0 -0.12281272040E+03 -0.47353770016E+02  0.63037237474E+03  0.66654232774E+03  0.17200000000E+03 0. -1.
         -6    1    1    2    0  502  0.12281272040E+03  0.47353770016E+02 -0.17709378426E+03  0.27977053499E+03  0.17200000000E+03 0.  1.
</event>
<event>
 4    1 -0.6901648E-004  0.2130306E+03  0.7818608E-02  0.1139188E+00
          5   -1    0    0  501    0  0.00000000000E+00  0.00000000000E+00  0.15188689606E+04  0.15188762324E+04  0.47000000000E+01 0. -1.
         -5   -1    0    0    0  501 -0.00000000000E+00 -0.00000000000E+00 -0.66211941528E+02  0.66378544733E+02  0.47000000000E+01 0.  1.
          6    1    1    2  502    0  0.12508098810E+03 -0.12360625792E+02  0.13138129887E+04  0.13309720537E+04  0.17200000000E+03 0. -1.
         -6    1    1    2    0  502 -0.12508098810E+03  0.12360625792E+02  0.13884403040E+03  0.25428272342E+03  0.17200000000E+03 0.  1.
</event>
<event>
 4    1 -0.6901648E-004  0.1835912E+03  0.7818608E-02  0.1164372E+00
          5   -1    0    0  501    0  0.00000000000E+00  0.00000000000E+00  0.81255241375E+02  0.81391057561E+02  0.47000000000E+01 0. -1.
         -5   -1    0    0    0  501 -0.00000000000E+00 -0.00000000000E+00 -0.69566744956E+03  0.69568332622E+03  0.47000000000E+01 0.  1.
          6    1    1    2  502    0 -0.25250077518E+01  0.64151115408E+02 -0.60144036026E+02  0.19319173466E+03  0.17200000000E+03 0. -1.
         -6    1    1    2    0  502  0.25250077518E+01 -0.64151115408E+02 -0.55426817216E+03  0.58388264912E+03  0.17200000000E+03 0.  1.
</event>
<event>
 4    1 -0.6901648E-004  0.1795513E+03  0.7818608E-02  0.1168238E+00
         -5   -1    0    0    0  501 -0.00000000000E+00  0.00000000000E+00  0.12159471897E+02  0.13036209449E+02  0.47000000000E+01 0.  1.
          5   -1    0    0  501    0  0.00000000000E+00 -0.00000000000E+00 -0.26515267419E+04  0.26515309074E+04  0.47000000000E+01 0. -1.
          6    1    1    2  502    0 -0.49073124673E+02 -0.15699912266E+02 -0.15696136481E+04  0.15798498863E+04  0.17200000000E+03 0. -1.
         -6    1    1    2    0  502  0.49073124673E+02  0.15699912266E+02 -0.10697536219E+04  0.10847172306E+04  0.17200000000E+03 0.  1.
</event>
<event>
 4    1 -0.6901648E-004  0.2252900E+03  0.7818608E-02  0.1129999E+00
         -5   -1    0    0    0  501 -0.00000000000E+00  0.00000000000E+00  0.78439074536E+02  0.78579758297E+02  0.47000000000E+01 0.  1.
          5   -1    0    0  501    0  0.00000000000E+00 -0.00000000000E+00 -0.85358418154E+03  0.85359712100E+03  0.47000000000E+01 0. -1.
          6    1    1    2  502    0  0.55122519900E+02  0.13465917625E+03 -0.61721146032E+03  0.65704305240E+03  0.17200000000E+03 0. -1.
         -6    1    1    2    0  502 -0.55122519900E+02 -0.13465917625E+03 -0.15793364668E+03  0.27513382690E+03  0.17200000000E+03 0.  1.
</event>
<event>
 4    1 -0.6901648E-004  0.1915932E+03  0.7818608E-02  0.1157032E+00
         -5   -1    0    0    0  501 -0.00000000000E+00  0.00000000000E+00  0.15350451772E+03  0.15357645314E+03  0.47000000000E+01 0.  1.
          5   -1    0    0  501    0  0.00000000000E+00 -0.00000000000E+00 -0.74316430906E+03  0.74317917104E+03  0.47000000000E+01 0. -1.
          6    1    1    2  502    0  0.27710783364E+02  0.79724860908E+02 -0.66411835222E+03  0.69120266689E+03  0.17200000000E+03 0. -1.
         -6    1    1    2    0  502 -0.27710783364E+02 -0.79724860908E+02  0.74458560877E+02  0.20555295729E+03  0.17200000000E+03 0.  1.
</event>
<event>
 4    1 -0.6901648E-004  0.2534502E+03  0.7818608E-02  0.1111144E+00
         -5   -1    0    0    0  501 -0.00000000000E+00  0.00000000000E+00  0.31364555921E+03  0.31368077214E+03  0.47000000000E+01 0.  1.
          5   -1    0    0  501    0  0.00000000000E+00 -0.00000000000E+00 -0.26744527552E+03  0.26748657050E+03  0.47000000000E+01 0. -1.
          6    1    1    2  502    0 -0.17510696862E+03  0.63170806116E+02 -0.11758865470E+03  0.27939952205E+03  0.17200000000E+03 0. -1.
         -6    1    1    2    0  502  0.17510696862E+03 -0.63170806116E+02  0.16378893839E+03  0.30176782059E+03  0.17200000000E+03 0. -1.
</event>
<event>
 4    1 -0.6901648E-004  0.2199589E+03  0.7818608E-02  0.1133914E+00
         -5   -1    0    0    0  501 -0.00000000000E+00  0.00000000000E+00  0.15802526233E+03  0.15809514077E+03  0.47000000000E+01 0.  1.
          5   -1    0    0  501    0  0.00000000000E+00 -0.00000000000E+00 -0.10553037357E+04  0.10553142018E+04  0.47000000000E+01 0. -1.
          6    1    1    2  502    0 -0.90714367037E+02  0.10280476680E+03 -0.95984466048E+03  0.98472518437E+03  0.17200000000E+03 0. -1.
         -6    1    1    2    0  502  0.90714367037E+02 -0.10280476680E+03  0.62566187102E+02  0.22868415824E+03  0.17200000000E+03 0.  1.
</event>
<event>
 4    1 -0.6901648E-004  0.1831890E+03  0.7818608E-02  0.1164752E+00
         -5   -1    0    0    0  501 -0.00000000000E+00  0.00000000000E+00  0.33394028934E+03  0.33397336248E+03  0.47000000000E+01 0.  1.
          5   -1    0    0  501    0  0.00000000000E+00 -0.00000000000E+00 -0.11075228336E+03  0.11085196556E+03  0.47000000000E+01 0. -1.
          6    1    1    2  502    0  0.36518518303E+02  0.51386819862E+02  0.43632948137E+02  0.18831367873E+03  0.17200000000E+03 0. -1.
         -6    1    1    2    0  502 -0.36518518303E+02 -0.51386819862E+02  0.17955505784E+03  0.25651164931E+03  0.17200000000E+03 0.  1.
</event>
<event>
 4    1 -0.6901648E-004  0.2046845E+03  0.7818608E-02  0.1145846E+00
         -5   -1    0    0    0  501 -0.00000000000E+00  0.00000000000E+00  0.38329318700E+02  0.38616404183E+02  0.47000000000E+01 0.  1.
          5   -1    0    0  501    0  0.00000000000E+00 -0.00000000000E+00 -0.17004504831E+04  0.17004569784E+04  0.47000000000E+01 0. -1.
          6    1    1    2  502    0  0.12733229251E+02 -0.11022522520E+03 -0.13525719112E+04  0.13679716775E+04  0.17200000000E+03 0. -1.
         -6    1    1    2    0  502 -0.12733229251E+02  0.11022522520E+03 -0.30954925320E+03  0.37110170513E+03  0.17200000000E+03 0.  1.
</event>
<event>
 4    1 -0.6901648E-004  0.1900705E+03  0.7818608E-02  0.1158398E+00
          5   -1    0    0  501    0  0.00000000000E+00  0.00000000000E+00  0.21025519122E+04  0.21025571653E+04  0.47000000000E+01 0. -1.
         -5   -1    0    0    0  501 -0.00000000000E+00 -0.00000000000E+00 -0.37693144273E+02  0.37985038176E+02  0.47000000000E+01 0.  1.
          6    1    1    2  502    0  0.77222171220E+01  0.80517998804E+02  0.18232530594E+04  0.18331335192E+04  0.17200000000E+03 0. -1.
         -6    1    1    2    0  502 -0.77222171220E+01 -0.80517998804E+02  0.24160570853E+03  0.30740868427E+03  0.17200000000E+03 0.  1.
</event>
<event>
 4    1 -0.6901648E-004  0.1852343E+03  0.7818608E-02  0.1162831E+00
          5   -1    0    0  501    0  0.00000000000E+00  0.00000000000E+00  0.71213732264E+02  0.71368660230E+02  0.47000000000E+01 0. -1.
         -5   -1    0    0    0  501 -0.00000000000E+00 -0.00000000000E+00 -0.70952336939E+03  0.70953893601E+03  0.47000000000E+01 0.  1.
          6    1    1    2  502    0  0.31449400457E+02  0.61144660098E+02 -0.97651156004E+02  0.20939790476E+03  0.17200000000E+03 0. -1.
         -6    1    1    2    0  502 -0.31449400457E+02 -0.61144660098E+02 -0.54065848112E+03  0.57150969148E+03  0.17200000000E+03 0.  1.
</event>
<event>
 4    1 -0.6901648E-004  0.1965505E+03  0.7818608E-02  0.1152682E+00
          5   -1    0    0  501    0  0.00000000000E+00  0.00000000000E+00  0.39277638941E+03  0.39280450873E+03  0.47000000000E+01 0. -1.
         -5   -1    0    0    0  501 -0.00000000000E+00 -0.00000000000E+00 -0.48098510281E+03  0.48100806555E+03  0.47000000000E+01 0.  1.
          6    1    1    2  502    0 -0.35332548026E+02  0.88315914690E+02  0.34558435113E+03  0.39756840101E+03  0.17200000000E+03 0. -1.
         -6    1    1    2    0  502  0.35332548026E+02 -0.88315914690E+02 -0.43379306453E+03  0.47624417327E+03  0.17200000000E+03 0.  1.
</event>
<event>
 4    1 -0.6901648E-004  0.1932514E+03  0.7818608E-02  0.1155561E+00
         -5   -1    0    0    0  501 -0.00000000000E+00  0.00000000000E+00  0.21097940257E+04  0.21097992608E+04  0.47000000000E+01 0.  1.
          5   -1    0    0  501    0  0.00000000000E+00 -0.00000000000E+00 -0.35978319071E+02  0.36284010847E+02  0.47000000000E+01 0. -1.
          6    1    1    2  502    0 -0.84280394134E+02 -0.25669107000E+02  0.27048721496E+03  0.33242957351E+03  0.17200000000E+03 0. -1.
         -6    1    1    2    0  502  0.84280394134E+02  0.25669107000E+02  0.18033284917E+04  0.18136536981E+04  0.17200000000E+03 0.  1.
</event>
<event>
 4    1 -0.6901648E-004  0.1879265E+03  0.7818608E-02  0.1160345E+00
         -5   -1    0    0    0  501 -0.00000000000E+00  0.00000000000E+00  0.22521272967E+03  0.22526176685E+03  0.47000000000E+01 0.  1.
          5   -1    0    0  501    0  0.00000000000E+00 -0.00000000000E+00 -0.17325697266E+03  0.17332071017E+03  0.47000000000E+01 0. -1.
          6    1    1    2  502    0 -0.43168612874E+02  0.62199931063E+02 -0.35586623259E+02  0.19126622367E+03  0.17200000000E+03 0. -1.
         -6    1    1    2    0  502  0.43168612874E+02 -0.62199931063E+02  0.87542380268E+02  0.20731625335E+03  0.17200000000E+03 0.  1.
</event>
<event>
 4    1 -0.6901648E-004  0.2442381E+03  0.7818608E-02  0.1117001E+00
         -5   -1    0    0    0  501 -0.00000000000E+00  0.00000000000E+00  0.20743542561E+03  0.20748866426E+03  0.47000000000E+01 0.  1.
          5   -1    0    0  501    0  0.00000000000E+00 -0.00000000000E+00 -0.56395691089E+03  0.56397649538E+03  0.47000000000E+01 0. -1.
          6    1    1    2  502    0  0.17160435277E+03  0.24903414011E+02 -0.44833066323E+03  0.51054149441E+03  0.17200000000E+03 0. -1.
         -6    1    1    2    0  502 -0.17160435277E+03 -0.24903414011E+02  0.91809177955E+02  0.26092366523E+03  0.17200000000E+03 0.  1.
</event>
<event>
 4    1 -0.6901648E-004  0.1803270E+03  0.7818608E-02  0.1167487E+00
         -5   -1    0    0    0  501 -0.00000000000E+00  0.00000000000E+00  0.95586160294E+03  0.95587315789E+03  0.47000000000E+01 0.  1.
          5   -1    0    0  501    0  0.00000000000E+00 -0.00000000000E+00 -0.15105543424E+03  0.15112853540E+03  0.47000000000E+01 0. -1.
          6    1    1    2  502    0 -0.16074657359E+02 -0.51724522824E+02 -0.84822875896E+02  0.19928055888E+03  0.17200000000E+03 0. -1.
         -6    1    1    2    0  502  0.16074657359E+02  0.51724522824E+02  0.88962904459E+03  0.90772113441E+03  0.17200000000E+03 0.  1.
</event>
<event>
 4    1 -0.6901648E-004  0.2019201E+03  0.7818608E-02  0.1148129E+00
          5   -1    0    0  501    0  0.00000000000E+00  0.00000000000E+00  0.12973052194E+03  0.12981563205E+03  0.47000000000E+01 0. -1.
         -5   -1    0    0    0  501 -0.00000000000E+00 -0.00000000000E+00 -0.46153512915E+03  0.46155905954E+03  0.47000000000E+01 0.  1.
          6    1    1    2  502    0 -0.45099715615E+02 -0.95675124479E+02  0.12124417706E+01  0.20192370789E+03  0.17200000000E+03 0. -1.
         -6    1    1    2    0  502  0.45099715615E+02  0.95675124479E+02 -0.33301704898E+03  0.38945098370E+03  0.17200000000E+03 0.  1.
</event>
<event>
 4    1 -0.6901648E-004  0.1843843E+03  0.7818608E-02  0.1163626E+00
         -5   -1    0    0    0  501 -0.00000000000E+00  0.00000000000E+00  0.14791836464E+03  0.14799301537E+03  0.47000000000E+01 0.  1.
          5   -1    0    0  501    0  0.00000000000E+00 -0.00000000000E+00 -0.31007005584E+03  0.31010567478E+03  0.47000000000E+01 0. -1.
          6    1    1    2  502    0  0.32441719226E+02 -0.57975137084E+02 -0.19767873284E+03  0.27032288671E+03  0.17200000000E+03 0. -1.
         -6    1    1    2    0  502 -0.32441719226E+02  0.57975137084E+02  0.35527041638E+02  0.18777580343E+03  0.17200000000E+03 0.  1.
</event>
<event>
 4    1 -0.6901648E-004  0.2692839E+03  0.7818608E-02  0.1101690E+00
         -5   -1    0    0    0  501 -0.00000000000E+00  0.00000000000E+00  0.53468446641E+03  0.53470512305E+03  0.47000000000E+01 0.  1.
          5   -1    0    0  501    0  0.00000000000E+00 -0.00000000000E+00 -0.36723592745E+03  0.36726600226E+03  0.47000000000E+01 0. -1.
          6    1    1    2  502    0 -0.20195327848E+03 -0.46310715017E+02 -0.27444576872E+03  0.38449224828E+03  0.17200000000E+03 0. -1.
         -6    1    1    2    0  502  0.20195327848E+03  0.46310715017E+02  0.44189430768E+03  0.51747887703E+03  0.17200000000E+03 0.  1.
</event>
<event>
 4    1 -0.6901648E-004  0.1881486E+03  0.7818608E-02  0.1160142E+00
         -5   -1    0    0    0  501 -0.00000000000E+00  0.00000000000E+00  0.82665818583E+03  0.82667154675E+03  0.47000000000E+01 0.  1.
          5   -1    0    0  501    0  0.00000000000E+00 -0.00000000000E+00 -0.58845526069E+02  0.59032922495E+02  0.47000000000E+01 0. -1.
          6    1    1    2  502    0  0.68672481212E+02 -0.33165777957E+02  0.15226001877E+03  0.24203923611E+03  0.17200000000E+03 0. -1.
         -6    1    1    2    0  502 -0.68672481212E+02  0.33165777957E+02  0.61555264099E+03  0.64366523313E+03  0.17200000000E+03 0.  1.
</event>
<event>
 4    1 -0.6901648E-004  0.2981145E+03  0.7818608E-02  0.1086187E+00
         -5   -1    0    0    0  501 -0.00000000000E+00  0.00000000000E+00  0.24951945877E+03  0.24956371993E+03  0.47000000000E+01 0.  1.
          5   -1    0    0  501    0  0.00000000000E+00 -0.00000000000E+00 -0.56686469492E+03  0.56688417895E+03  0.47000000000E+01 0. -1.
          6    1    1    2  502    0 -0.24039329888E+03 -0.38721063906E+02 -0.40758661197E+03  0.50497436093E+03  0.17200000000E+03 0.  1.
         -6    1    1    2    0  502  0.24039329888E+03  0.38721063906E+02  0.90241375821E+02  0.31147353796E+03  0.17200000000E+03 0.  1.
</event>
<event>
 4    1 -0.6901648E-004  0.2052717E+03  0.7818608E-02  0.1145366E+00
          5   -1    0    0  501    0  0.00000000000E+00  0.00000000000E+00  0.36751124694E+03  0.36754129922E+03  0.47000000000E+01 0. -1.
         -5   -1    0    0    0  501 -0.00000000000E+00 -0.00000000000E+00 -0.31318386410E+03  0.31321912894E+03  0.47000000000E+01 0.  1.
          6    1    1    2  502    0 -0.10740573028E+03  0.31882001435E+02  0.29818428827E+03  0.36200873288E+03  0.17200000000E+03 0. -1.
         -6    1    1    2    0  502  0.10740573028E+03 -0.31882001435E+02 -0.24385690543E+03  0.31875169527E+03  0.17200000000E+03 0.  1.
</event>
<event>
 4    1 -0.6901648E-004  0.1956278E+03  0.7818608E-02  0.1153481E+00
         -5   -1    0    0    0  501 -0.00000000000E+00  0.00000000000E+00  0.98259192207E+02  0.98371534771E+02  0.47000000000E+01 0.  1.
          5   -1    0    0  501    0  0.00000000000E+00 -0.00000000000E+00 -0.48194576366E+03  0.48196868063E+03  0.47000000000E+01 0. -1.
          6    1    1    2  502    0 -0.90394579368E+02  0.22695086610E+02 -0.31916251214E+03  0.37434603790E+03  0.17200000000E+03 0.  1.
         -6    1    1    2    0  502  0.90394579368E+02 -0.22695086610E+02 -0.64524059314E+02  0.20599417750E+03  0.17200000000E+03 0.  1.
</event>
<event>
 4    1 -0.6901648E-004  0.2881502E+03  0.7818608E-02  0.1091319E+00
          5   -1    0    0  501    0  0.00000000000E+00  0.00000000000E+00  0.15720408556E+03  0.15727432885E+03  0.47000000000E+01 0. -1.
         -5   -1    0    0    0  501 -0.00000000000E+00 -0.00000000000E+00 -0.54187081988E+03  0.54189120258E+03  0.47000000000E+01 0.  1.
          6    1    1    2  502    0 -0.27479210041E+02  0.22954607963E+03 -0.13634954720E+03  0.31878160029E+03  0.17200000000E+03 0. -1.
         -6    1    1    2    0  502  0.27479210041E+02 -0.22954607963E+03 -0.24831718712E+03  0.38038393115E+03  0.17200000000E+03 0.  1.
</event>
<event>
 4    1 -0.6901648E-004  0.3378956E+03  0.7818608E-02  0.1067696E+00
         -5   -1    0    0    0  501 -0.00000000000E+00  0.00000000000E+00  0.26740553883E+03  0.26744683995E+03  0.47000000000E+01 0.  1.
          5   -1    0    0  501    0  0.00000000000E+00 -0.00000000000E+00 -0.17774403406E+04  0.17774465546E+04  0.47000000000E+01 0. -1.
          6    1    1    2  502    0 -0.27536749924E+03 -0.93606441735E+02 -0.16462542470E+04  0.16805732567E+04  0.17200000000E+03 0. -1.
         -6    1    1    2    0  502  0.27536749924E+03  0.93606441735E+02  0.13621944518E+03  0.36432013782E+03  0.17200000000E+03 0.  1.
</event>
<event>
 4    1 -0.6901648E-004  0.2263968E+03  0.7818608E-02  0.1129202E+00
         -5   -1    0    0    0  501 -0.00000000000E+00  0.00000000000E+00  0.76003568586E+03  0.76005021793E+03  0.47000000000E+01 0.  1.
          5   -1    0    0  501    0  0.00000000000E+00 -0.00000000000E+00 -0.17366154667E+03  0.17372513575E+03  0.47000000000E+01 0. -1.
          6    1    1    2  502    0 -0.14411137571E+03  0.30056782310E+02 -0.71994194900E+02  0.23756822782E+03  0.17200000000E+03 0. -1.
         -6    1    1    2    0  502  0.14411137571E+03 -0.30056782310E+02  0.65836833408E+03  0.69620712586E+03  0.17200000000E+03 0.  1.
</event>
<event>
 4    1 -0.6901648E-004  0.1821637E+03  0.7818608E-02  0.1165725E+00
         -5   -1    0    0    0  501 -0.00000000000E+00  0.00000000000E+00  0.28033209374E+04  0.28033248774E+04  0.47000000000E+01 0.  1.
          5   -1    0    0  501    0  0.00000000000E+00 -0.00000000000E+00 -0.64007129951E+02  0.64179456873E+02  0.47000000000E+01 0. -1.
          6    1    1    2  502    0 -0.46621699214E+02 -0.37763017769E+02  0.75046516388E+02  0.19701677079E+03  0.17200000000E+03 0. -1.
         -6    1    1    2    0  502  0.46621699214E+02  0.37763017769E+02  0.26642672911E+04  0.26704875635E+04  0.17200000000E+03 0.  1.
</event>
<event>
 4    1 -0.6901648E-004  0.2023495E+03  0.7818608E-02  0.1147772E+00
         -5   -1    0    0    0  501 -0.00000000000E+00  0.00000000000E+00  0.73099275239E+02  0.73250215293E+02  0.47000000000E+01 0.  1.
          5   -1    0    0  501    0  0.00000000000E+00 -0.00000000000E+00 -0.17346310226E+04  0.17346373899E+04  0.47000000000E+01 0. -1.
          6    1    1    2  502    0  0.52049270923E-01 -0.10658941302E+03 -0.15747780067E+04  0.15877251261E+04  0.17200000000E+03 0. -1.
         -6    1    1    2    0  502 -0.52049270923E-01  0.10658941302E+03 -0.86753740592E+02  0.22016247906E+03  0.17200000000E+03 0.  1.
</event>
<event>
 4    1 -0.6901648E-004  0.1926592E+03  0.7818608E-02  0.1156085E+00
          5   -1    0    0  501    0  0.00000000000E+00  0.00000000000E+00  0.59739977255E+03  0.59741826072E+03  0.47000000000E+01 0. -1.
         -5   -1    0    0    0  501 -0.00000000000E+00 -0.00000000000E+00 -0.34862479410E+03  0.34865647428E+03  0.47000000000E+01 0.  1.
          6    1    1    2  502    0 -0.68921689330E+02 -0.52757509163E+02  0.55321105418E+03  0.58579862111E+03  0.17200000000E+03 0. -1.
         -6    1    1    2    0  502  0.68921689330E+02  0.52757509163E+02 -0.30443607573E+03  0.36027611389E+03  0.17200000000E+03 0.  1.
</event>
<event>
 4    1 -0.6901648E-004  0.1934381E+03  0.7818608E-02  0.1155396E+00
          5   -1    0    0  501    0  0.00000000000E+00  0.00000000000E+00  0.21885319064E+03  0.21890365245E+03  0.47000000000E+01 0. -1.
         -5   -1    0    0    0  501 -0.00000000000E+00 -0.00000000000E+00 -0.30665931813E+03  0.30669533318E+03  0.47000000000E+01 0.  1.
          6    1    1    2  502    0  0.85921826642E+02 -0.21253737507E+02  0.13094261661E+03  0.23358991951E+03  0.17200000000E+03 0. -1.
         -6    1    1    2    0  502 -0.85921826642E+02  0.21253737507E+02 -0.21874874410E+03  0.29200906612E+03  0.17200000000E+03 0.  1.
</event>
<event>
 4    1 -0.6901648E-004  0.1794862E+03  0.7818608E-02  0.1168301E+00
          5   -1    0    0  501    0  0.00000000000E+00  0.00000000000E+00  0.10086039346E+04  0.10086148853E+04  0.47000000000E+01 0. -1.
         -5   -1    0    0    0  501 -0.00000000000E+00 -0.00000000000E+00 -0.17766868019E+03  0.17773083560E+03  0.47000000000E+01 0.  1.
          6    1    1    2  502    0 -0.48636411883E+02  0.16303060743E+02  0.95269626340E+03  0.96945627062E+03  0.17200000000E+03 0. -1.
         -6    1    1    2    0  502  0.48636411883E+02 -0.16303060743E+02 -0.12176100898E+03  0.21688945031E+03  0.17200000000E+03 0.  1.
</event>
<event>
 4    1 -0.6901648E-004  0.1725031E+03  0.7818608E-02  0.1175262E+00
          5   -1    0    0  501    0  0.00000000000E+00  0.00000000000E+00  0.97988089632E+03  0.97989216803E+03  0.47000000000E+01 0. -1.
         -5   -1    0    0    0  501 -0.00000000000E+00 -0.00000000000E+00 -0.16583728805E+03  0.16590387610E+03  0.47000000000E+01 0.  1.
          6    1    1    2  502    0 -0.13165030792E+02  0.11088988178E+00  0.92483070121E+03  0.94078114152E+03  0.17200000000E+03 0. -1.
         -6    1    1    2    0  502  0.13165030792E+02 -0.11088988178E+00 -0.11078709294E+03  0.20501490262E+03  0.17200000000E+03 0.  1.
</event>
<event>
 4    1 -0.6901648E-004  0.2126720E+03  0.7818608E-02  0.1139467E+00
         -5   -1    0    0    0  501 -0.00000000000E+00  0.00000000000E+00  0.17515702991E+04  0.17515766049E+04  0.47000000000E+01 0.  1.
          5   -1    0    0  501    0  0.00000000000E+00 -0.00000000000E+00 -0.45550239180E+02  0.45792076710E+02  0.47000000000E+01 0. -1.
          6    1    1    2  502    0  0.10989792204E+03 -0.59731184285E+02  0.26050135086E+03  0.33628904449E+03  0.17200000000E+03 0. -1.
         -6    1    1    2    0  502 -0.10989792204E+03  0.59731184285E+02  0.14455187091E+04  0.14610796371E+04  0.17200000000E+03 0.  1.
</event>
<event>
 4    1 -0.6901648E-004  0.2523917E+03  0.7818608E-02  0.1111803E+00
          5   -1    0    0  501    0  0.00000000000E+00  0.00000000000E+00  0.39290320052E+03  0.39293131077E+03  0.47000000000E+01 0. -1.
         -5   -1    0    0    0  501 -0.00000000000E+00 -0.00000000000E+00 -0.78760770196E+03  0.78762172531E+03  0.47000000000E+01 0.  1.
          6    1    1    2  502    0  0.16862226226E+03 -0.75392916995E+02  0.32867812632E+03  0.41440423500E+03  0.17200000000E+03 0. -1.
         -6    1    1    2    0  502 -0.16862226226E+03  0.75392916995E+02 -0.72338262775E+03  0.76614880108E+03  0.17200000000E+03 0.  1.
</event>
<event>
 4    1 -0.6901648E-004  0.2527129E+03  0.7818608E-02  0.1111602E+00
          5   -1    0    0  501    0  0.00000000000E+00  0.00000000000E+00  0.41133175271E+03  0.41135860364E+03  0.47000000000E+01 0. -1.
         -5   -1    0    0    0  501 -0.00000000000E+00 -0.00000000000E+00 -0.70595090312E+03  0.70596654851E+03  0.47000000000E+01 0.  1.
          6    1    1    2  502    0  0.21289314603E+02 -0.18392006742E+03  0.34611508127E+03  0.42855510217E+03  0.17200000000E+03 0. -1.
         -6    1    1    2    0  502 -0.21289314603E+02  0.18392006742E+03 -0.64073423167E+03  0.68877004998E+03  0.17200000000E+03 0.  1.
</event>
<event>
 4    1 -0.6901648E-004  0.1743243E+03  0.7818608E-02  0.1173412E+00
         -5   -1    0    0    0  501 -0.00000000000E+00  0.00000000000E+00  0.92593818534E+02  0.92713026219E+02  0.47000000000E+01 0.  1.
          5   -1    0    0  501    0  0.00000000000E+00 -0.00000000000E+00 -0.52667736163E+03  0.52669833231E+03  0.47000000000E+01 0. -1.
          6    1    1    2  502    0  0.14453848554E+02  0.24414137595E+02 -0.40730518977E+03  0.44304230212E+03  0.17200000000E+03 0. -1.
         -6    1    1    2    0  502 -0.14453848554E+02 -0.24414137595E+02 -0.26778353332E+02  0.17636905641E+03  0.17200000000E+03 0.  1.
</event>
<event>
 4    1 -0.6901648E-004  0.5620912E+03  0.7818608E-02  0.9987334E-01
         -5   -1    0    0    0  501 -0.00000000000E+00  0.00000000000E+00  0.14305487485E+03  0.14313206216E+03  0.47000000000E+01 0.  1.
          5   -1    0    0  501    0  0.00000000000E+00 -0.00000000000E+00 -0.22512987994E+04  0.22513037055E+04  0.47000000000E+01 0. -1.
          6    1    1    2  502    0  0.48774380907E+03  0.22015566066E+03 -0.12203560998E+04  0.13435831007E+04  0.17200000000E+03 0. -1.
         -6    1    1    2    0  502 -0.48774380907E+03 -0.22015566066E+03 -0.88788782480E+03  0.10508526669E+04  0.17200000000E+03 0.  1.
</event>
<event>
 4    1 -0.6901648E-004  0.2067580E+03  0.7818608E-02  0.1144159E+00
          5   -1    0    0  501    0  0.00000000000E+00  0.00000000000E+00  0.26546687106E+03  0.26550847374E+03  0.47000000000E+01 0. -1.
         -5   -1    0    0    0  501 -0.00000000000E+00 -0.00000000000E+00 -0.22534204174E+03  0.22539105079E+03  0.47000000000E+01 0.  1.
          6    1    1    2  502    0  0.15162528467E+02 -0.11373206259E+03  0.15124616139E+03  0.25617237491E+03  0.17200000000E+03 0. -1.
         -6    1    1    2    0  502 -0.15162528467E+02  0.11373206259E+03 -0.11112133208E+03  0.23472714963E+03  0.17200000000E+03 0.  1.
</event>
<event>
 4    1 -0.6901648E-004  0.1803639E+03  0.7818608E-02  0.1167451E+00
          5   -1    0    0  501    0  0.00000000000E+00  0.00000000000E+00  0.45567548756E+03  0.45569972566E+03  0.47000000000E+01 0. -1.
         -5   -1    0    0    0  501 -0.00000000000E+00 -0.00000000000E+00 -0.11672355241E+03  0.11681813937E+03  0.47000000000E+01 0.  1.
          6    1    1    2  502    0 -0.54246171566E+02 -0.21158761885E+01  0.34796163922E+03  0.39192910893E+03  0.17200000000E+03 0. -1.
         -6    1    1    2    0  502  0.54246171566E+02  0.21158761885E+01 -0.90097040626E+01  0.18058875610E+03  0.17200000000E+03 0.  1.
</event>
<event>
 4    1 -0.6901648E-004  0.2586389E+03  0.7818608E-02  0.1107964E+00
          5   -1    0    0  501    0  0.00000000000E+00  0.00000000000E+00  0.18923562914E+03  0.18929398653E+03  0.47000000000E+01 0. -1.
         -5   -1    0    0    0  501 -0.00000000000E+00 -0.00000000000E+00 -0.48107200469E+03  0.48109496328E+03  0.47000000000E+01 0.  1.
          6    1    1    2  502    0 -0.19034765167E+03  0.32830810941E+02  0.26767300553E+02  0.26002034348E+03  0.17200000000E+03 0. -1.
         -6    1    1    2    0  502  0.19034765167E+03 -0.32830810941E+02 -0.31860367610E+03  0.41036860634E+03  0.17200000000E+03 0.  1.
</event>
<event>
 4    1 -0.6901648E-004  0.4600389E+03  0.7818608E-02  0.1024770E+00
          5   -1    0    0  501    0  0.00000000000E+00  0.00000000000E+00  0.15998875762E+04  0.15998944798E+04  0.47000000000E+01 0. -1.
         -5   -1    0    0    0  501 -0.00000000000E+00 -0.00000000000E+00 -0.33806436813E+03  0.33809703784E+03  0.47000000000E+01 0.  1.
          6    1    1    2  502    0 -0.38750894020E+03 -0.17857376778E+03  0.13869372387E+04  0.14612428523E+04  0.17200000000E+03 0. -1.
         -6    1    1    2    0  502  0.38750894020E+03  0.17857376778E+03 -0.12511403060E+03  0.47674866537E+03  0.17200000000E+03 0.  1.
</event>
<event>
 4    1 -0.6901648E-004  0.2116635E+03  0.7818608E-02  0.1140255E+00
          5   -1    0    0  501    0  0.00000000000E+00  0.00000000000E+00  0.36152866970E+02  0.36457095196E+02  0.47000000000E+01 0. -1.
         -5   -1    0    0    0  501 -0.00000000000E+00 -0.00000000000E+00 -0.20443784553E+04  0.20443838579E+04  0.47000000000E+01 0.  1.
          6    1    1    2  502    0  0.12203022498E+03  0.18057638438E+02 -0.34900367135E+03  0.40817277804E+03  0.17200000000E+03 0. -1.
         -6    1    1    2    0  502 -0.12203022498E+03 -0.18057638438E+02 -0.16592219170E+04  0.16726681751E+04  0.17200000000E+03 0.  1.
</event>
<event>
 4    1 -0.6901648E-004  0.2108196E+03  0.7818608E-02  0.1140919E+00
          5   -1    0    0  501    0  0.00000000000E+00  0.00000000000E+00  0.87273519813E+03  0.87274785366E+03  0.47000000000E+01 0. -1.
         -5   -1    0    0    0  501 -0.00000000000E+00 -0.00000000000E+00 -0.15056491364E+03  0.15063825284E+03  0.47000000000E+01 0.  1.
          6    1    1    2  502    0  0.10353577531E+03  0.64352550536E+02  0.77737831115E+03  0.80545760048E+03  0.17200000000E+03 0. -1.
         -6    1    1    2    0  502 -0.10353577531E+03 -0.64352550536E+02 -0.55208026649E+02  0.21792850602E+03  0.17200000000E+03 0.  1.
</event>
<event>
 4    1 -0.6901648E-004  0.2216717E+03  0.7818608E-02  0.1132643E+00
          5   -1    0    0  501    0  0.00000000000E+00  0.00000000000E+00  0.17433086361E+03  0.17439420864E+03  0.47000000000E+01 0. -1.
         -5   -1    0    0    0  501 -0.00000000000E+00 -0.00000000000E+00 -0.61814007466E+03  0.61815794252E+03  0.47000000000E+01 0.  1.
          6    1    1    2  502    0 -0.12212803817E+03 -0.68110926421E+02  0.70412278473E+02  0.23258599477E+03  0.17200000000E+03 0. -1.
         -6    1    1    2    0  502  0.12212803817E+03  0.68110926421E+02 -0.51422148953E+03  0.55996615638E+03  0.17200000000E+03 0.  1.
</event>
<event>
 4    1 -0.6901648E-004  0.1745929E+03  0.7818608E-02  0.1173141E+00
         -5   -1    0    0    0  501 -0.00000000000E+00  0.00000000000E+00  0.18135919425E+03  0.18142008527E+03  0.47000000000E+01 0.  1.
          5   -1    0    0  501    0  0.00000000000E+00 -0.00000000000E+00 -0.19420473008E+03  0.19426159473E+03  0.47000000000E+01 0. -1.
          6    1    1    2  502    0  0.19253913379E+02 -0.22977300981E+02 -0.75457770491E+02  0.19020132667E+03  0.17200000000E+03 0.  1.
         -6    1    1    2    0  502 -0.19253913379E+02  0.22977300981E+02  0.62612234660E+02  0.18548035333E+03  0.17200000000E+03 0.  1.
</event>
<event>
 4    1 -0.6901648E-004  0.1822233E+03  0.7818608E-02  0.1165669E+00
          5   -1    0    0  501    0  0.00000000000E+00  0.00000000000E+00  0.53350956797E+03  0.53353027010E+03  0.47000000000E+01 0. -1.
         -5   -1    0    0    0  501 -0.00000000000E+00 -0.00000000000E+00 -0.10768368344E+03  0.10778620356E+03  0.47000000000E+01 0.  1.
          6    1    1    2  502    0  0.43179395436E+02 -0.41914998600E+02  0.42131944078E+03  0.45903746957E+03  0.17200000000E+03 0. -1.
         -6    1    1    2    0  502 -0.43179395436E+02  0.41914998600E+02  0.45064437599E+01  0.18227900409E+03  0.17200000000E+03 0.  1.
</event>
<event>
 4    1 -0.6901648E-004  0.2010047E+03  0.7818608E-02  0.1148894E+00
          5   -1    0    0  501    0  0.00000000000E+00  0.00000000000E+00  0.18404222710E+03  0.18410223072E+03  0.47000000000E+01 0. -1.
         -5   -1    0    0    0  501 -0.00000000000E+00 -0.00000000000E+00 -0.35904279079E+03  0.35907355182E+03  0.47000000000E+01 0.  1.
          6    1    1    2  502    0  0.10395958911E+03 -0.33629120084E+01  0.81844067037E+02  0.21702846969E+03  0.17200000000E+03 0. -1.
         -6    1    1    2    0  502 -0.10395958911E+03  0.33629120084E+01 -0.25684463073E+03  0.32614731285E+03  0.17200000000E+03 0.  1.
</event>
<event>
 4    1 -0.6901648E-004  0.2109647E+03  0.7818608E-02  0.1140804E+00
         -5   -1    0    0    0  501 -0.00000000000E+00  0.00000000000E+00  0.25171291900E+03  0.25175679453E+03  0.47000000000E+01 0.  1.
          5   -1    0    0  501    0  0.00000000000E+00 -0.00000000000E+00 -0.24398945196E+03  0.24403471611E+03  0.47000000000E+01 0. -1.
          6    1    1    2  502    0  0.11965133448E+02 -0.12156868679E+03 -0.12627431953E+03  0.24586848883E+03  0.17200000000E+03 0. -1.
         -6    1    1    2    0  502 -0.11965133448E+02  0.12156868679E+03  0.13399778657E+03  0.24992302181E+03  0.17200000000E+03 0.  1.
</event>
<event>
 4    1 -0.6901648E-004  0.1769448E+03  0.7818608E-02  0.1170793E+00
         -5   -1    0    0    0  501 -0.00000000000E+00  0.00000000000E+00  0.22150721446E+03  0.22155707178E+03  0.47000000000E+01 0.  1.
          5   -1    0    0  501    0  0.00000000000E+00 -0.00000000000E+00 -0.15617157589E+03  0.15624228338E+03  0.47000000000E+01 0. -1.
          6    1    1    2  502    0 -0.89622880533E+01  0.40560118806E+02 -0.25713615093E+02  0.17880334406E+03  0.17200000000E+03 0. -1.
         -6    1    1    2    0  502  0.89622880533E+01 -0.40560118806E+02  0.91049253660E+02  0.19899601111E+03  0.17200000000E+03 0.  1.
</event>
<event>
 4    1 -0.6901648E-004  0.2358764E+03  0.7818608E-02  0.1122571E+00
         -5   -1    0    0    0  501 -0.00000000000E+00  0.00000000000E+00  0.78961887678E+03  0.78963286442E+03  0.47000000000E+01 0.  1.
          5   -1    0    0  501    0  0.00000000000E+00 -0.00000000000E+00 -0.20866633353E+03  0.20871925822E+03  0.47000000000E+01 0. -1.
          6    1    1    2  502    0 -0.16110009173E+03 -0.10021407347E+02 -0.11579090279E+03  0.26276453591E+03  0.17200000000E+03 0. -1.
         -6    1    1    2    0  502  0.16110009173E+03  0.10021407347E+02  0.69674344603E+03  0.73558758673E+03  0.17200000000E+03 0.  1.
</event>
<event>
 4    1 -0.6901648E-004  0.2133868E+03  0.7818608E-02  0.1138912E+00
          5   -1    0    0  501    0  0.00000000000E+00  0.00000000000E+00  0.78779350920E+02  0.78919428098E+02  0.47000000000E+01 0. -1.
         -5   -1    0    0    0  501 -0.00000000000E+00 -0.00000000000E+00 -0.74020456071E+03  0.74021948211E+03  0.47000000000E+01 0.  1.
          6    1    1    2  502    0 -0.13604222956E+02  0.12555807780E+03 -0.13861036521E+03  0.25445380548E+03  0.17200000000E+03 0. -1.
         -6    1    1    2    0  502  0.13604222956E+02 -0.12555807780E+03 -0.52281484458E+03  0.56468510472E+03  0.17200000000E+03 0.  1.
</event>
<event>
 4    1 -0.6901648E-004  0.1733576E+03  0.7818608E-02  0.1174391E+00
         -5   -1    0    0    0  501 -0.00000000000E+00  0.00000000000E+00  0.65896667032E+03  0.65898343120E+03  0.47000000000E+01 0.  1.
          5   -1    0    0  501    0  0.00000000000E+00 -0.00000000000E+00 -0.32015137236E+03  0.32018586980E+03  0.47000000000E+01 0. -1.
          6    1    1    2  502    0 -0.18812799465E+02 -0.10720574545E+02 -0.28397139421E+03  0.33270498173E+03  0.17200000000E+03 0. -1.
         -6    1    1    2    0  502  0.18812799465E+02  0.10720574545E+02  0.62278669217E+03  0.64646431927E+03  0.17200000000E+03 0.  1.
</event>
<event>
 4    1 -0.6901648E-004  0.2210029E+03  0.7818608E-02  0.1133138E+00
          5   -1    0    0  501    0  0.00000000000E+00  0.00000000000E+00  0.38282305588E+03  0.38285190624E+03  0.47000000000E+01 0. -1.
         -5   -1    0    0    0  501 -0.00000000000E+00 -0.00000000000E+00 -0.12259073217E+04  0.12259163313E+04  0.47000000000E+01 0.  1.
          6    1    1    2  502    0  0.10774025554E+03 -0.87466064041E+02  0.33983760590E+03  0.40537867902E+03  0.17200000000E+03 0. -1.
         -6    1    1    2    0  502 -0.10774025554E+03  0.87466064041E+02 -0.11829218717E+04  0.12033895585E+04  0.17200000000E+03 0.  1.
</event>
<event>
 4    1 -0.6901648E-004  0.1749536E+03  0.7818608E-02  0.1172778E+00
         -5   -1    0    0    0  501 -0.00000000000E+00  0.00000000000E+00  0.28245422592E+02  0.28633789435E+02  0.47000000000E+01 0.  1.
          5   -1    0    0  501    0  0.00000000000E+00 -0.00000000000E+00 -0.11920128274E+04  0.11920220932E+04  0.47000000000E+01 0. -1.
          6    1    1    2  502    0  0.31849787107E+02 -0.32149358918E+01 -0.39141172806E+03  0.42873288376E+03  0.17200000000E+03 0.  1.
         -6    1    1    2    0  502 -0.31849787107E+02  0.32149358918E+01 -0.77235567671E+03  0.79192299885E+03  0.17200000000E+03 0. -1.
</event>
<event>
 4    1 -0.6901648E-004  0.2719002E+03  0.7818608E-02  0.1100197E+00
          5   -1    0    0  501    0  0.00000000000E+00  0.00000000000E+00  0.12825167899E+04  0.12825254018E+04  0.47000000000E+01 0. -1.
         -5   -1    0    0    0  501 -0.00000000000E+00 -0.00000000000E+00 -0.31961551785E+03  0.31965007313E+03  0.47000000000E+01 0.  1.
          6    1    1    2  502    0  0.68126075512E+02  0.19925995606E+03  0.12067161606E+04  0.12369695164E+04  0.17200000000E+03 0. -1.
         -6    1    1    2    0  502 -0.68126075512E+02 -0.19925995606E+03 -0.24381488858E+03  0.36520595853E+03  0.17200000000E+03 0.  1.
</event>
<event>
 4    1 -0.6901648E-004  0.3273721E+03  0.7818608E-02  0.1072306E+00
         -5   -1    0    0    0  501 -0.00000000000E+00  0.00000000000E+00  0.69349973637E+03  0.69351566266E+03  0.47000000000E+01 0.  1.
          5   -1    0    0  501    0  0.00000000000E+00 -0.00000000000E+00 -0.28786388388E+03  0.28790225016E+03  0.47000000000E+01 0. -1.
          6    1    1    2  502    0 -0.24415839487E+03 -0.13407139689E+03 -0.13116193130E+03  0.35266969458E+03  0.17200000000E+03 0. -1.
         -6    1    1    2    0  502  0.24415839487E+03  0.13407139689E+03  0.53679778379E+03  0.62874821824E+03  0.17200000000E+03 0. -1.
</event>
<event>
 4    1 -0.6901648E-004  0.2487782E+03  0.7818608E-02  0.1114079E+00
          5   -1    0    0  501    0  0.00000000000E+00  0.00000000000E+00  0.24179263111E+03  0.24183830644E+03  0.47000000000E+01 0. -1.
         -5   -1    0    0    0  501 -0.00000000000E+00 -0.00000000000E+00 -0.37946951436E+03  0.37949861967E+03  0.47000000000E+01 0.  1.
          6    1    1    2  502    0 -0.36742973198E+02  0.17594477727E+03  0.10844283192E+03  0.27138617968E+03  0.17200000000E+03 0. -1.
         -6    1    1    2    0  502  0.36742973198E+02 -0.17594477727E+03 -0.24611971517E+03  0.34995074643E+03  0.17200000000E+03 0.  1.
</event>
<event>
 4    1 -0.6901648E-004  0.1947157E+03  0.7818608E-02  0.1154276E+00
          5   -1    0    0  501    0  0.00000000000E+00  0.00000000000E+00  0.42874317458E+03  0.42876893515E+03  0.47000000000E+01 0. -1.
         -5   -1    0    0    0  501 -0.00000000000E+00 -0.00000000000E+00 -0.58857282845E+03  0.58859159388E+03  0.47000000000E+01 0.  1.
          6    1    1    2  502    0  0.36690954559E+02  0.83570253567E+02  0.38900089305E+03  0.43501253801E+03  0.17200000000E+03 0. -1.
         -6    1    1    2    0  502 -0.36690954559E+02 -0.83570253567E+02 -0.54883054692E+03  0.58234799103E+03  0.17200000000E+03 0.  1.
</event>
<event>
 4    1 -0.6901648E-004  0.2172895E+03  0.7818608E-02  0.1135920E+00
         -5   -1    0    0    0  501 -0.00000000000E+00  0.00000000000E+00  0.11119866580E+04  0.11119965906E+04  0.47000000000E+01 0.  1.
          5   -1    0    0  501    0  0.00000000000E+00 -0.00000000000E+00 -0.13421347345E+03  0.13429574251E+03  0.47000000000E+01 0. -1.
          6    1    1    2  502    0 -0.49308569307E+02  0.12328577376E+03 -0.26392231917E+02  0.21888642472E+03  0.17200000000E+03 0. -1.
         -6    1    1    2    0  502  0.49308569307E+02 -0.12328577376E+03  0.10041654164E+04  0.10274059084E+04  0.17200000000E+03 0.  1.
</event>
<event>
 4    1 -0.6901648E-004  0.1824429E+03  0.7818608E-02  0.1165460E+00
          5   -1    0    0  501    0  0.00000000000E+00  0.00000000000E+00  0.70608271048E+03  0.70609835295E+03  0.47000000000E+01 0. -1.
         -5   -1    0    0    0  501 -0.00000000000E+00 -0.00000000000E+00 -0.11625118142E+03  0.11634615242E+03  0.47000000000E+01 0.  1.
          6    1    1    2  502    0 -0.60830116415E+02  0.10494697736E+01  0.61204124034E+03  0.63865474580E+03  0.17200000000E+03 0. -1.
         -6    1    1    2    0  502  0.60830116415E+02 -0.10494697736E+01 -0.22209711280E+02  0.18378975958E+03  0.17200000000E+03 0.  1.
</event>
<event>
 4    1 -0.6901648E-004  0.2411279E+03  0.7818608E-02  0.1119044E+00
          5   -1    0    0  501    0  0.00000000000E+00  0.00000000000E+00  0.15267702355E+04  0.15267774697E+04  0.47000000000E+01 0. -1.
         -5   -1    0    0    0  501 -0.00000000000E+00 -0.00000000000E+00 -0.19089567165E+03  0.19095352171E+03  0.47000000000E+01 0.  1.
          6    1    1    2  502    0 -0.33639949229E+02 -0.16561101207E+03  0.14363922458E+04  0.14564907612E+04  0.17200000000E+03 0. -1.
         -6    1    1    2    0  502  0.33639949229E+02  0.16561101207E+03 -0.10051768199E+03  0.26124023024E+03  0.17200000000E+03 0.  1.
</event>
<event>
 4    1 -0.6901648E-004  0.2073411E+03  0.7818608E-02  0.1143689E+00
         -5   -1    0    0    0  501 -0.00000000000E+00  0.00000000000E+00  0.23573395830E+03  0.23578080731E+03  0.47000000000E+01 0.  1.
          5   -1    0    0  501    0  0.00000000000E+00 -0.00000000000E+00 -0.18289711052E+03  0.18295748970E+03  0.47000000000E+01 0. -1.
          6    1    1    2  502    0 -0.11186090431E+03 -0.29890865533E+02  0.38648009168E+02  0.21091229070E+03  0.17200000000E+03 0. -1.
         -6    1    1    2    0  502  0.11186090431E+03  0.29890865533E+02  0.14188838605E+02  0.20782600631E+03  0.17200000000E+03 0.  1.
</event>
<event>
 4    1 -0.6901648E-004  0.2295842E+03  0.7818608E-02  0.1126933E+00
         -5   -1    0    0    0  501 -0.00000000000E+00  0.00000000000E+00  0.14996065918E+03  0.15003429375E+03  0.47000000000E+01 0.  1.
          5   -1    0    0  501    0  0.00000000000E+00 -0.00000000000E+00 -0.44574245033E+03  0.44576722852E+03  0.47000000000E+01 0. -1.
          6    1    1    2  502    0 -0.48306271781E+02 -0.14419232699E+03 -0.28499236780E+03  0.36596389543E+03  0.17200000000E+03 0. -1.
         -6    1    1    2    0  502  0.48306271781E+02  0.14419232699E+03 -0.10789423352E+02  0.22983762684E+03  0.17200000000E+03 0.  1.
</event>
<event>
 4    1 -0.6901648E-004  0.1844280E+03  0.7818608E-02  0.1163585E+00
         -5   -1    0    0    0  501 -0.00000000000E+00  0.00000000000E+00  0.78827850926E+03  0.78829252068E+03  0.47000000000E+01 0.  1.
          5   -1    0    0  501    0  0.00000000000E+00 -0.00000000000E+00 -0.47602080149E+02  0.47833545076E+02  0.47000000000E+01 0. -1.
          6    1    1    2  502    0 -0.66347626567E+02 -0.52595268780E+01  0.24079696445E+03  0.30330982223E+03  0.17200000000E+03 0. -1.
         -6    1    1    2    0  502  0.66347626567E+02  0.52595268780E+01  0.49987946466E+03  0.53281624352E+03  0.17200000000E+03 0.  1.
</event>
<event>
 4    1 -0.6901648E-004  0.2080331E+03  0.7818608E-02  0.1143133E+00
          5   -1    0    0  501    0  0.00000000000E+00  0.00000000000E+00  0.97208899524E+02  0.97322454483E+02  0.47000000000E+01 0. -1.
         -5   -1    0    0    0  501 -0.00000000000E+00 -0.00000000000E+00 -0.69706190042E+03  0.69707774531E+03  0.47000000000E+01 0.  1.
          6    1    1    2  502    0  0.11162254766E+03  0.35130843848E+02 -0.61012075620E+02  0.21679539365E+03  0.17200000000E+03 0. -1.
         -6    1    1    2    0  502 -0.11162254766E+03 -0.35130843848E+02 -0.53884092527E+03  0.57760480615E+03  0.17200000000E+03 0.  1.
</event>
<event>
 4    1 -0.6901648E-004  0.1815646E+03  0.7818608E-02  0.1166297E+00
          5   -1    0    0  501    0  0.00000000000E+00  0.00000000000E+00  0.82699992354E+03  0.82701327893E+03  0.47000000000E+01 0. -1.
         -5   -1    0    0    0  501 -0.00000000000E+00 -0.00000000000E+00 -0.15261154084E+03  0.15268389698E+03  0.47000000000E+01 0.  1.
          6    1    1    2  502    0 -0.27326989906E+02  0.51331583031E+02  0.75826147499E+03  0.77969619740E+03  0.17200000000E+03 0. -1.
         -6    1    1    2    0  502  0.27326989906E+02 -0.51331583031E+02 -0.83873092289E+02  0.20000097851E+03  0.17200000000E+03 0.  1.
</event>
<event>
 4    1 -0.6901648E-004  0.2662071E+03  0.7818608E-02  0.1103470E+00
          5   -1    0    0  501    0  0.00000000000E+00  0.00000000000E+00  0.12337528788E+03  0.12346477903E+03  0.47000000000E+01 0. -1.
         -5   -1    0    0    0  501 -0.00000000000E+00 -0.00000000000E+00 -0.13392099433E+04  0.13392181907E+04  0.47000000000E+01 0.  1.
          6    1    1    2  502    0 -0.31854029857E+01  0.20315534452E+03 -0.55147466657E+02  0.27185930897E+03  0.17200000000E+03 0. -1.
         -6    1    1    2    0  502  0.31854029857E+01 -0.20315534452E+03 -0.11606871888E+04  0.11908236607E+04  0.17200000000E+03 0.  1.
</event>
<event>
 4    1 -0.6901648E-004  0.2140773E+03  0.7818608E-02  0.1138377E+00
         -5   -1    0    0    0  501 -0.00000000000E+00  0.00000000000E+00  0.56396504585E+03  0.56398463006E+03  0.47000000000E+01 0.  1.
          5   -1    0    0  501    0  0.00000000000E+00 -0.00000000000E+00 -0.25705238278E+03  0.25709534708E+03  0.47000000000E+01 0. -1.
          6    1    1    2  502    0 -0.93715304689E+02  0.86385852902E+02 -0.18605921089E+03  0.28363198669E+03  0.17200000000E+03 0. -1.
         -6    1    1    2    0  502  0.93715304689E+02 -0.86385852902E+02  0.49297187397E+03  0.53744799045E+03  0.17200000000E+03 0.  1.
</event>
<event>
 4    1 -0.6901648E-004  0.1828079E+03  0.7818608E-02  0.1165113E+00
          5   -1    0    0  501    0  0.00000000000E+00  0.00000000000E+00  0.13066656485E+03  0.13075106565E+03  0.47000000000E+01 0. -1.
         -5   -1    0    0    0  501 -0.00000000000E+00 -0.00000000000E+00 -0.37481356404E+03  0.37484303087E+03  0.47000000000E+01 0.  1.
          6    1    1    2  502    0 -0.61918172560E+02 -0.93631954967E+00  0.20492900415E+02  0.18395297158E+03  0.17200000000E+03 0. -1.
         -6    1    1    2    0  502  0.61918172560E+02  0.93631954967E+00 -0.26463989961E+03  0.32164112494E+03  0.17200000000E+03 0.  1.
</event>
<event>
 4    1 -0.6901648E-004  0.1875567E+03  0.7818608E-02  0.1160684E+00
         -5   -1    0    0    0  501 -0.00000000000E+00  0.00000000000E+00  0.28147937833E+03  0.28151861471E+03  0.47000000000E+01 0.  1.
          5   -1    0    0  501    0  0.00000000000E+00 -0.00000000000E+00 -0.50672549880E+03  0.50674729514E+03  0.47000000000E+01 0. -1.
          6    1    1    2  502    0  0.48856957151E+02  0.56626054425E+02 -0.45472766221E+03  0.49188897028E+03  0.17200000000E+03 0. -1.
         -6    1    1    2    0  502 -0.48856957151E+02 -0.56626054425E+02  0.22948154175E+03  0.29637693957E+03  0.17200000000E+03 0.  1.
</event>
<event>
 4    1 -0.6901648E-004  0.1942788E+03  0.7818608E-02  0.1154658E+00
         -5   -1    0    0    0  501 -0.00000000000E+00  0.00000000000E+00  0.60491926694E+02  0.60674238316E+02  0.47000000000E+01 0.  1.
          5   -1    0    0  501    0  0.00000000000E+00 -0.00000000000E+00 -0.12076003902E+04  0.12076095365E+04  0.47000000000E+01 0. -1.
          6    1    1    2  502    0 -0.90248992038E+02  0.39216970337E+01 -0.10148035483E+04  0.10332330337E+04  0.17200000000E+03 0. -1.
         -6    1    1    2    0  502  0.90248992038E+02 -0.39216970337E+01 -0.13230491522E+03  0.23505074104E+03  0.17200000000E+03 0.  1.
</event>
<event>
 4    1 -0.6901648E-004  0.1915960E+03  0.7818608E-02  0.1157030E+00
          5   -1    0    0  501    0  0.00000000000E+00  0.00000000000E+00  0.32169986936E+03  0.32173420078E+03  0.47000000000E+01 0. -1.
         -5   -1    0    0    0  501 -0.00000000000E+00 -0.00000000000E+00 -0.75620614253E+03  0.75622074819E+03  0.47000000000E+01 0.  1.
          6    1    1    2  502    0 -0.66634426178E+02  0.51815743807E+02  0.27940195314E+03  0.33878380935E+03  0.17200000000E+03 0. -1.
         -6    1    1    2    0  502  0.66634426178E+02 -0.51815743807E+02 -0.71390822631E+03  0.73917113962E+03  0.17200000000E+03 0.  1.
</event>
<event>
 4    1 -0.6901648E-004  0.1796255E+03  0.7818608E-02  0.1168166E+00
          5   -1    0    0  501    0  0.00000000000E+00  0.00000000000E+00  0.38404299705E+03  0.38407175577E+03  0.47000000000E+01 0. -1.
         -5   -1    0    0    0  501 -0.00000000000E+00 -0.00000000000E+00 -0.25709128866E+03  0.25713424647E+03  0.47000000000E+01 0.  1.
          6    1    1    2  502    0 -0.16906373069E+02  0.48943635281E+02  0.32654350616E+03  0.37268749147E+03  0.17200000000E+03 0. -1.
         -6    1    1    2    0  502  0.16906373069E+02 -0.48943635281E+02 -0.19959179778E+03  0.26851851077E+03  0.17200000000E+03 0.  1.
</event>
<event>
 4    1 -0.6901648E-004  0.1724231E+03  0.7818608E-02  0.1175344E+00
          5   -1    0    0  501    0  0.00000000000E+00  0.00000000000E+00  0.12711304410E+04  0.12711391301E+04  0.47000000000E+01 0. -1.
         -5   -1    0    0    0  501 -0.00000000000E+00 -0.00000000000E+00 -0.27187420466E+02  0.27590683782E+02  0.47000000000E+01 0.  1.
          6    1    1    2  502    0  0.83173943693E+01  0.87491165920E+01  0.87038289786E+03  0.88729708383E+03  0.17200000000E+03 0. -1.
         -6    1    1    2    0  502 -0.83173943693E+01 -0.87491165920E+01  0.37356012264E+03  0.41143273000E+03  0.17200000000E+03 0.  1.
</event>
<event>
 4    1 -0.6901648E-004  0.1724471E+03  0.7818608E-02  0.1175320E+00
          5   -1    0    0  501    0  0.00000000000E+00  0.00000000000E+00  0.75922782604E+02  0.76068120250E+02  0.47000000000E+01 0. -1.
         -5   -1    0    0    0  501 -0.00000000000E+00 -0.00000000000E+00 -0.60230737741E+03  0.60232571495E+03  0.47000000000E+01 0.  1.
          6    1    1    2  502    0  0.10358226553E+02 -0.68352771346E+01 -0.62384102678E+02  0.18338426906E+03  0.17200000000E+03 0. -1.
         -6    1    1    2    0  502 -0.10358226553E+02  0.68352771346E+01 -0.46400049213E+03  0.49500956614E+03  0.17200000000E+03 0.  1.
</event>
<event>
 4    1 -0.6901648E-004  0.1876385E+03  0.7818608E-02  0.1160609E+00
          5   -1    0    0  501    0  0.00000000000E+00  0.00000000000E+00  0.88057875388E+02  0.88183215058E+02  0.47000000000E+01 0. -1.
         -5   -1    0    0    0  501 -0.00000000000E+00 -0.00000000000E+00 -0.40839939827E+03  0.40842644198E+03  0.47000000000E+01 0.  1.
          6    1    1    2  502    0  0.33350026577E+02  0.67171289708E+02 -0.12333201886E+03  0.22454174069E+03  0.17200000000E+03 0.  1.
         -6    1    1    2    0  502 -0.33350026577E+02 -0.67171289708E+02 -0.19700950402E+03  0.27206791635E+03  0.17200000000E+03 0.  1.
</event>
<event>
 4    1 -0.6901648E-004  0.1963931E+03  0.7818608E-02  0.1152818E+00
         -5   -1    0    0    0  501 -0.00000000000E+00  0.00000000000E+00  0.12808161033E+03  0.12816781540E+03  0.47000000000E+01 0.  1.
          5   -1    0    0  501    0  0.00000000000E+00 -0.00000000000E+00 -0.13145257427E+04  0.13145341450E+04  0.47000000000E+01 0. -1.
          6    1    1    2  502    0  0.31277203821E+02 -0.89487305456E+02 -0.12266191246E+04  0.12422418114E+04  0.17200000000E+03 0. -1.
         -6    1    1    2    0  502 -0.31277203821E+02  0.89487305456E+02  0.40174992174E+02  0.20046014894E+03  0.17200000000E+03 0.  1.
</event>
<event>
 4    1 -0.6901648E-004  0.2192358E+03  0.7818608E-02  0.1134454E+00
         -5   -1    0    0    0  501 -0.00000000000E+00  0.00000000000E+00  0.41144385507E+02  0.41411960334E+02  0.47000000000E+01 0.  1.
          5   -1    0    0  501    0  0.00000000000E+00 -0.00000000000E+00 -0.17089809226E+04  0.17089873855E+04  0.47000000000E+01 0. -1.
          6    1    1    2  502    0  0.13449037069E+03  0.19815708325E+02 -0.13280504427E+04  0.13460246285E+04  0.17200000000E+03 0.  1.
         -6    1    1    2    0  502 -0.13449037069E+03 -0.19815708325E+02 -0.33978609444E+03  0.40437471741E+03  0.17200000000E+03 0.  1.
</event>
<event>
 4    1 -0.6901648E-004  0.1750649E+03  0.7818608E-02  0.1172667E+00
          5   -1    0    0  501    0  0.00000000000E+00  0.00000000000E+00  0.38891498152E+03  0.38894338001E+03  0.47000000000E+01 0. -1.
         -5   -1    0    0    0  501 -0.00000000000E+00 -0.00000000000E+00 -0.19065645996E+03  0.19071438258E+03  0.47000000000E+01 0.  1.
          6    1    1    2  502    0 -0.32552913993E+02  0.20070494884E+01  0.32114917709E+03  0.36576565504E+03  0.17200000000E+03 0. -1.
         -6    1    1    2    0  502  0.32552913993E+02 -0.20070494884E+01 -0.12289065553E+03  0.21389210755E+03  0.17200000000E+03 0.  1.
</event>
<event>
 4    1 -0.6901648E-004  0.2804572E+03  0.7818608E-02  0.1095439E+00
         -5   -1    0    0    0  501 -0.00000000000E+00  0.00000000000E+00  0.21317018464E+03  0.21322199141E+03  0.47000000000E+01 0.  1.
          5   -1    0    0  501    0  0.00000000000E+00 -0.00000000000E+00 -0.36993867334E+03  0.36996852844E+03  0.47000000000E+01 0. -1.
          6    1    1    2  502    0 -0.18304670692E+03 -0.12476443225E+03 -0.94041850569E+02  0.29580420911E+03  0.17200000000E+03 0.  1.
         -6    1    1    2    0  502  0.18304670692E+03  0.12476443225E+03 -0.62726638131E+02  0.28738631074E+03  0.17200000000E+03 0.  1.
</event>
<event>
 4    1 -0.6901648E-004  0.1728443E+03  0.7818608E-02  0.1174914E+00
         -5   -1    0    0    0  501 -0.00000000000E+00  0.00000000000E+00  0.46887445313E+02  0.47122420651E+02  0.47000000000E+01 0.  1.
          5   -1    0    0  501    0  0.00000000000E+00 -0.00000000000E+00 -0.11160009996E+04  0.11160108965E+04  0.47000000000E+01 0. -1.
          6    1    1    2  502    0  0.17046879327E+02 -0.74033862724E+00 -0.91618664322E+03  0.93234816963E+03  0.17200000000E+03 0. -1.
         -6    1    1    2    0  502 -0.17046879327E+02  0.74033862724E+00 -0.15292691112E+03  0.23078514757E+03  0.17200000000E+03 0.  1.
</event>
<event>
 4    1 -0.6901648E-004  0.1897125E+03  0.7818608E-02  0.1158721E+00
         -5   -1    0    0    0  501 -0.00000000000E+00  0.00000000000E+00  0.15525614161E+03  0.15532726582E+03  0.47000000000E+01 0.  1.
          5   -1    0    0  501    0  0.00000000000E+00 -0.00000000000E+00 -0.92606566927E+03  0.92607759600E+03  0.47000000000E+01 0. -1.
          6    1    1    2  502    0  0.62884466828E+01  0.79795400895E+02 -0.85359022379E+03  0.87441816124E+03  0.17200000000E+03 0. -1.
         -6    1    1    2    0  502 -0.62884466828E+01 -0.79795400895E+02  0.82780696126E+02  0.20698670058E+03  0.17200000000E+03 0.  1.
</event>
<event>
 4    1 -0.6901648E-004  0.1863363E+03  0.7818608E-02  0.1161808E+00
          5   -1    0    0  501    0  0.00000000000E+00  0.00000000000E+00  0.25356165977E+04  0.25356209537E+04  0.47000000000E+01 0. -1.
         -5   -1    0    0    0  501 -0.00000000000E+00 -0.00000000000E+00 -0.18718726767E+02  0.19299759889E+02  0.47000000000E+01 0.  1.
          6    1    1    2  502    0 -0.69412095653E+02 -0.17865208711E+02  0.19341892395E+04  0.19431441581E+04  0.17200000000E+03 0. -1.
         -6    1    1    2    0  502  0.69412095653E+02  0.17865208711E+02  0.58270863143E+03  0.61177655549E+03  0.17200000000E+03 0.  1.
</event>
<event>
 4    1 -0.6901648E-004  0.1815873E+03  0.7818608E-02  0.1166276E+00
         -5   -1    0    0    0  501 -0.00000000000E+00  0.00000000000E+00  0.53294000333E+03  0.53296072759E+03  0.47000000000E+01 0.  1.
          5   -1    0    0  501    0  0.00000000000E+00 -0.00000000000E+00 -0.86990098531E+02  0.87116974479E+02  0.47000000000E+01 0. -1.
          6    1    1    2  502    0  0.30855637475E+02 -0.49374730210E+02  0.56172113589E+02  0.19007693361E+03  0.17200000000E+03 0. -1.
         -6    1    1    2    0  502 -0.30855637475E+02  0.49374730210E+02  0.38977779121E+03  0.43000076845E+03  0.17200000000E+03 0. -1.
</event>
<event>
 4    1 -0.6901648E-004  0.2052502E+03  0.7818608E-02  0.1145383E+00
          5   -1    0    0  501    0  0.00000000000E+00  0.00000000000E+00  0.24212255594E+03  0.24216816903E+03  0.47000000000E+01 0. -1.
         -5   -1    0    0    0  501 -0.00000000000E+00 -0.00000000000E+00 -0.36540270382E+03  0.36543292949E+03  0.47000000000E+01 0.  1.
          6    1    1    2  502    0  0.49761557035E+02  0.10033667531E+03  0.15826532275E+03  0.25918250975E+03  0.17200000000E+03 0. -1.
         -6    1    1    2    0  502 -0.49761557035E+02 -0.10033667531E+03 -0.28154547063E+03  0.34841858878E+03  0.17200000000E+03 0.  1.
</event>
<event>
 4    1 -0.6901648E-004  0.2511884E+03  0.7818608E-02  0.1112556E+00
          5   -1    0    0  501    0  0.00000000000E+00  0.00000000000E+00  0.45386183653E+03  0.45388617148E+03  0.47000000000E+01 0. -1.
         -5   -1    0    0    0  501 -0.00000000000E+00 -0.00000000000E+00 -0.32428501504E+03  0.32431907279E+03  0.47000000000E+01 0.  1.
          6    1    1    2  502    0 -0.16593861452E+03 -0.77304441339E+02  0.35890754266E+03  0.43807559236E+03  0.17200000000E+03 0. -1.
         -6    1    1    2    0  502  0.16593861452E+03  0.77304441339E+02 -0.22933072117E+03  0.34012965191E+03  0.17200000000E+03 0.  1.
</event>
<event>
 4    1 -0.6901648E-004  0.1998369E+03  0.7818608E-02  0.1149877E+00
          5   -1    0    0  501    0  0.00000000000E+00  0.00000000000E+00  0.27479411346E+03  0.27483430425E+03  0.47000000000E+01 0. -1.
         -5   -1    0    0    0  501 -0.00000000000E+00 -0.00000000000E+00 -0.17719724036E+03  0.17725956107E+03  0.47000000000E+01 0.  1.
          6    1    1    2  502    0 -0.12342206258E+02 -0.10098744537E+03  0.14476908593E+03  0.24676483221E+03  0.17200000000E+03 0. -1.
         -6    1    1    2    0  502  0.12342206258E+02  0.10098744537E+03 -0.47172212820E+02  0.20532903311E+03  0.17200000000E+03 0.  1.
</event>
<event>
 4    1 -0.6901648E-004  0.1933738E+03  0.7818608E-02  0.1155453E+00
          5   -1    0    0  501    0  0.00000000000E+00  0.00000000000E+00  0.18177455052E+04  0.18177515814E+04  0.47000000000E+01 0. -1.
         -5   -1    0    0    0  501 -0.00000000000E+00 -0.00000000000E+00 -0.22256478632E+02  0.22747326020E+02  0.47000000000E+01 0.  1.
          6    1    1    2  502    0  0.66243356177E+02 -0.58491416135E+02  0.11676846896E+04  0.11835881726E+04  0.17200000000E+03 0. -1.
         -6    1    1    2    0  502 -0.66243356177E+02  0.58491416135E+02  0.62780433697E+03  0.65691073482E+03  0.17200000000E+03 0. -1.
</event>
<event>
 4    1 -0.6901648E-004  0.1775693E+03  0.7818608E-02  0.1170176E+00
         -5   -1    0    0    0  501 -0.00000000000E+00  0.00000000000E+00  0.10768749165E+04  0.10768851730E+04  0.47000000000E+01 0.  1.
          5   -1    0    0  501    0  0.00000000000E+00 -0.00000000000E+00 -0.33305682961E+02  0.33635673287E+02  0.47000000000E+01 0. -1.
          6    1    1    2  502    0  0.42759851956E+02  0.10883186746E+02  0.32509543121E+03  0.37042932941E+03  0.17200000000E+03 0. -1.
         -6    1    1    2    0  502 -0.42759851956E+02 -0.10883186746E+02  0.71847380231E+03  0.74009151684E+03  0.17200000000E+03 0.  1.
</event>
<event>
 4    1 -0.6901648E-004  0.1817053E+03  0.7818608E-02  0.1166163E+00
          5   -1    0    0  501    0  0.00000000000E+00  0.00000000000E+00  0.20205774453E+03  0.20211239973E+03  0.47000000000E+01 0. -1.
         -5   -1    0    0    0  501 -0.00000000000E+00 -0.00000000000E+00 -0.19182333936E+03  0.19188090974E+03  0.47000000000E+01 0.  1.
          6    1    1    2  502    0 -0.51592163205E+02  0.27768175285E+02  0.81068277182E+02  0.19896956659E+03  0.17200000000E+03 0. -1.
         -6    1    1    2    0  502  0.51592163205E+02 -0.27768175285E+02 -0.70833872013E+02  0.19502374288E+03  0.17200000000E+03 0.  1.
</event>
<event>
 4    1 -0.6901648E-004  0.2026242E+03  0.7818608E-02  0.1147544E+00
          5   -1    0    0  501    0  0.00000000000E+00  0.00000000000E+00  0.12182073206E+04  0.12182163871E+04  0.47000000000E+01 0. -1.
         -5   -1    0    0    0  501 -0.00000000000E+00 -0.00000000000E+00 -0.82061870400E+02  0.82196353773E+02  0.47000000000E+01 0.  1.
          6    1    1    2  502    0 -0.91973374396E+02  0.54894976109E+02  0.10673734643E+04  0.10864357654E+04  0.17200000000E+03 0. -1.
         -6    1    1    2    0  502  0.91973374396E+02 -0.54894976109E+02  0.68771985808E+02  0.21397697547E+03  0.17200000000E+03 0.  1.
</event>
<event>
 4    1 -0.6901648E-004  0.2279968E+03  0.7818608E-02  0.1128058E+00
          5   -1    0    0  501    0  0.00000000000E+00  0.00000000000E+00  0.24591221590E+03  0.24595712620E+03  0.47000000000E+01 0. -1.
         -5   -1    0    0    0  501 -0.00000000000E+00 -0.00000000000E+00 -0.10556195903E+04  0.10556300533E+04  0.47000000000E+01 0.  1.
          6    1    1    2  502    0  0.27576607853E+02  0.14709887886E+03  0.17715336852E+03  0.28873147636E+03  0.17200000000E+03 0. -1.
         -6    1    1    2    0  502 -0.27576607853E+02 -0.14709887886E+03 -0.98686074292E+03  0.10128557031E+04  0.17200000000E+03 0.  1.
</event>
<event>
 4    1 -0.6901648E-004  0.2077777E+03  0.7818608E-02  0.1143338E+00
          5   -1    0    0  501    0  0.00000000000E+00  0.00000000000E+00  0.39281234895E+03  0.39284046570E+03  0.47000000000E+01 0. -1.
         -5   -1    0    0    0  501 -0.00000000000E+00 -0.00000000000E+00 -0.32886512014E+03  0.32889870362E+03  0.47000000000E+01 0.  1.
          6    1    1    2  502    0  0.85369175506E+02  0.79370561445E+02  0.32644549111E+03  0.38696025741E+03  0.17200000000E+03 0. -1.
         -6    1    1    2    0  502 -0.85369175506E+02 -0.79370561445E+02 -0.26249826229E+03  0.33477891191E+03  0.17200000000E+03 0.  1.
</event>
<event>
 4    1 -0.6901648E-004  0.1839082E+03  0.7818608E-02  0.1164073E+00
         -5   -1    0    0    0  501 -0.00000000000E+00  0.00000000000E+00  0.71305095892E+02  0.71459825778E+02  0.47000000000E+01 0.  1.
          5   -1    0    0  501    0  0.00000000000E+00 -0.00000000000E+00 -0.68993216220E+03  0.68994817083E+03  0.47000000000E+01 0. -1.
          6    1    1    2  502    0  0.66796028646E+01  0.64758201530E+02 -0.52244071726E+03  0.55386509622E+03  0.17200000000E+03 0. -1.
         -6    1    1    2    0  502 -0.66796028646E+01 -0.64758201530E+02 -0.96186349048E+02  0.20754290039E+03  0.17200000000E+03 0.  1.
</event>
<event>
 4    1 -0.6901648E-004  0.1823888E+03  0.7818608E-02  0.1165511E+00
         -5   -1    0    0    0  501 -0.00000000000E+00  0.00000000000E+00  0.30594129115E+02  0.30953040824E+02  0.47000000000E+01 0.  1.
          5   -1    0    0  501    0  0.00000000000E+00 -0.00000000000E+00 -0.12743588578E+04  0.12743675249E+04  0.47000000000E+01 0. -1.
          6    1    1    2  502    0 -0.12249910115E+02  0.59427346155E+02 -0.87632506867E+03  0.89510406979E+03  0.17200000000E+03 0. -1.
         -6    1    1    2    0  502  0.12249910115E+02 -0.59427346155E+02 -0.36743966005E+03  0.41021649595E+03  0.17200000000E+03 0.  1.
</event>
<event>
 4    1 -0.6901648E-004  0.1918126E+03  0.7818608E-02  0.1156837E+00
         -5   -1    0    0    0  501 -0.00000000000E+00  0.00000000000E+00  0.26866385860E+03  0.26870496630E+03  0.47000000000E+01 0.  1.
          5   -1    0    0  501    0  0.00000000000E+00 -0.00000000000E+00 -0.28324465311E+03  0.28328364498E+03  0.47000000000E+01 0. -1.
          6    1    1    2  502    0 -0.77360428925E+02 -0.34977578259E+02 -0.20567159616E+03  0.28123455053E+03  0.17200000000E+03 0. -1.
         -6    1    1    2    0  502  0.77360428925E+02  0.34977578259E+02  0.19109080164E+03  0.27075406076E+03  0.17200000000E+03 0.  1.
</event>
<event>
 4    1 -0.6901648E-004  0.3676606E+03  0.7818608E-02  0.1055591E+00
          5   -1    0    0  501    0  0.00000000000E+00  0.00000000000E+00  0.96846457526E+03  0.96847597984E+03  0.47000000000E+01 0. -1.
         -5   -1    0    0    0  501 -0.00000000000E+00 -0.00000000000E+00 -0.18694592601E+03  0.18700499794E+03  0.47000000000E+01 0.  1.
          6    1    1    2  502    0  0.26525821848E+02 -0.32386213800E+03  0.68167724483E+03  0.77450511281E+03  0.17200000000E+03 0. -1.
         -6    1    1    2    0  502 -0.26525821848E+02  0.32386213800E+03  0.99841404415E+02  0.38097586497E+03  0.17200000000E+03 0.  1.
</event>
<event>
 4    1 -0.6901648E-004  0.1722976E+03  0.7818608E-02  0.1175473E+00
          5   -1    0    0  501    0  0.00000000000E+00  0.00000000000E+00  0.53063121221E+03  0.53065202663E+03  0.47000000000E+01 0. -1.
         -5   -1    0    0    0  501 -0.00000000000E+00 -0.00000000000E+00 -0.63623701692E+02  0.63797064329E+02  0.47000000000E+01 0.  1.
          6    1    1    2  502    0 -0.94914137010E+01  0.35191511665E+01  0.33739663446E+03  0.37884424280E+03  0.17200000000E+03 0. -1.
         -6    1    1    2    0  502  0.94914137010E+01 -0.35191511665E+01  0.12961087606E+03  0.21560484817E+03  0.17200000000E+03 0.  1.
</event>
<event>
 4    1 -0.6901648E-004  0.3676047E+03  0.7818608E-02  0.1055613E+00
          5   -1    0    0  501    0  0.00000000000E+00  0.00000000000E+00  0.52005836754E+03  0.52007960510E+03  0.47000000000E+01 0. -1.
         -5   -1    0    0    0  501 -0.00000000000E+00 -0.00000000000E+00 -0.78216415753E+03  0.78217827848E+03  0.47000000000E+01 0.  1.
          6    1    1    2  502    0  0.21818988292E+03 -0.24071229160E+03  0.40104703526E+03  0.54403304755E+03  0.17200000000E+03 0. -1.
         -6    1    1    2    0  502 -0.21818988292E+03  0.24071229160E+03 -0.66315282525E+03  0.75822483603E+03  0.17200000000E+03 0.  1.
</event>
<event>
 4    1 -0.6901648E-004  0.1838155E+03  0.7818608E-02  0.1164161E+00
          5   -1    0    0  501    0  0.00000000000E+00  0.00000000000E+00  0.97088484286E+03  0.97089621901E+03  0.47000000000E+01 0. -1.
         -5   -1    0    0    0  501 -0.00000000000E+00 -0.00000000000E+00 -0.12552753364E+03  0.12561549149E+03  0.47000000000E+01 0.  1.
          6    1    1    2  502    0 -0.64595306832E+02 -0.56204966955E+01  0.88881954596E+03  0.90762785817E+03  0.17200000000E+03 0. -1.
         -6    1    1    2    0  502  0.64595306832E+02  0.56204966955E+01 -0.43462236741E+02  0.18888385233E+03  0.17200000000E+03 0.  1.
</event>
<event>
 4    1 -0.6901648E-004  0.1726651E+03  0.7818608E-02  0.1175097E+00
          5   -1    0    0  501    0  0.00000000000E+00  0.00000000000E+00  0.14369129188E+03  0.14376813750E+03  0.47000000000E+01 0. -1.
         -5   -1    0    0    0  501 -0.00000000000E+00 -0.00000000000E+00 -0.46931803284E+03  0.46934156640E+03  0.47000000000E+01 0.  1.
          6    1    1    2  502    0 -0.89484627294E+01  0.12213255929E+02  0.66203997913E+02  0.18492216726E+03  0.17200000000E+03 0. -1.
         -6    1    1    2    0  502  0.89484627294E+01 -0.12213255929E+02 -0.39183073887E+03  0.42818753664E+03  0.17200000000E+03 0.  1.
</event>
<event>
 4    1 -0.6901648E-004  0.1757958E+03  0.7818608E-02  0.1171935E+00
         -5   -1    0    0    0  501 -0.00000000000E+00  0.00000000000E+00  0.38592163305E+03  0.38595025179E+03  0.47000000000E+01 0.  1.
          5   -1    0    0  501    0  0.00000000000E+00 -0.00000000000E+00 -0.89885014645E+02  0.90007809982E+02  0.47000000000E+01 0. -1.
          6    1    1    2  502    0 -0.31170557486E+02 -0.18670159566E+02  0.69082208546E+02  0.18888231799E+03  0.17200000000E+03 0. -1.
         -6    1    1    2    0  502  0.31170557486E+02  0.18670159566E+02  0.22695440986E+03  0.28707574378E+03  0.17200000000E+03 0.  1.
</event>
<event>
 4    1 -0.6901648E-004  0.2297525E+03  0.7818608E-02  0.1126814E+00
         -5   -1    0    0    0  501 -0.00000000000E+00  0.00000000000E+00  0.16308535123E+04  0.16308602848E+04  0.47000000000E+01 0.  1.
          5   -1    0    0  501    0  0.00000000000E+00 -0.00000000000E+00 -0.76324450518E+02  0.76469024755E+02  0.47000000000E+01 0. -1.
          6    1    1    2  502    0  0.14935728032E+03  0.29910374714E+02  0.12917316174E+03  0.26357528984E+03  0.17200000000E+03 0. -1.
         -6    1    1    2    0  502 -0.14935728032E+03 -0.29910374714E+02  0.14253559001E+04  0.14437540198E+04  0.17200000000E+03 0.  1.
</event>
<event>
 4    1 -0.6901648E-004  0.2040354E+03  0.7818608E-02  0.1146378E+00
         -5   -1    0    0    0  501 -0.00000000000E+00  0.00000000000E+00  0.42305634888E+03  0.42308245571E+03  0.47000000000E+01 0.  1.
          5   -1    0    0  501    0  0.00000000000E+00 -0.00000000000E+00 -0.41669554393E+03  0.41672204925E+03  0.47000000000E+01 0. -1.
          6    1    1    2  502    0  0.53655702931E+02 -0.95747173210E+02 -0.36381422640E+03  0.41712258026E+03  0.17200000000E+03 0. -1.
         -6    1    1    2    0  502 -0.53655702931E+02  0.95747173210E+02  0.37017503134E+03  0.42268192470E+03  0.17200000000E+03 0.  1.
</event>
<event>
 4    1 -0.6901648E-004  0.1806283E+03  0.7818608E-02  0.1167196E+00
          5   -1    0    0  501    0  0.00000000000E+00  0.00000000000E+00  0.29287435424E+03  0.29291206423E+03  0.47000000000E+01 0. -1.
         -5   -1    0    0    0  501 -0.00000000000E+00 -0.00000000000E+00 -0.12151566562E+03  0.12160652528E+03  0.47000000000E+01 0.  1.
          6    1    1    2  502    0 -0.51157489017E+02  0.20627578359E+02  0.14572048188E+03  0.23207982357E+03  0.17200000000E+03 0. -1.
         -6    1    1    2    0  502  0.51157489017E+02 -0.20627578359E+02  0.25638206738E+02  0.18243876594E+03  0.17200000000E+03 0.  1.
</event>
<event>
 4    1 -0.6901648E-004  0.1971338E+03  0.7818608E-02  0.1152180E+00
          5   -1    0    0  501    0  0.00000000000E+00  0.00000000000E+00  0.40918956410E+03  0.40921655558E+03  0.47000000000E+01 0. -1.
         -5   -1    0    0    0  501 -0.00000000000E+00 -0.00000000000E+00 -0.13733952615E+03  0.13741992375E+03  0.47000000000E+01 0.  1.
          6    1    1    2  502    0  0.14980689898E+02 -0.95148841765E+02  0.28781851200E+03  0.34885701800E+03  0.17200000000E+03 0. -1.
         -6    1    1    2    0  502 -0.14980689898E+02  0.95148841765E+02 -0.15968474056E+02  0.19777946133E+03  0.17200000000E+03 0.  1.
</event>
<event>
 4    1 -0.6901648E-004  0.1776451E+03  0.7818608E-02  0.1170102E+00
         -5   -1    0    0    0  501 -0.00000000000E+00  0.00000000000E+00  0.17997704587E+04  0.17997765956E+04  0.47000000000E+01 0.  1.
          5   -1    0    0  501    0  0.00000000000E+00 -0.00000000000E+00 -0.25621906911E+02  0.26049416764E+02  0.47000000000E+01 0. -1.
          6    1    1    2  502    0  0.23902387449E+02 -0.37449270179E+02  0.36946371459E+03  0.40995269040E+03  0.17200000000E+03 0. -1.
         -6    1    1    2    0  502 -0.23902387449E+02  0.37449270179E+02  0.14046848372E+04  0.14158733219E+04  0.17200000000E+03 0.  1.
</event>
<event>
 4    1 -0.6901648E-004  0.2070203E+03  0.7818608E-02  0.1143948E+00
         -5   -1    0    0    0  501 -0.00000000000E+00  0.00000000000E+00  0.22023677528E+03  0.22028692015E+03  0.47000000000E+01 0.  1.
          5   -1    0    0  501    0  0.00000000000E+00 -0.00000000000E+00 -0.37280687678E+03  0.37283650220E+03  0.47000000000E+01 0. -1.
          6    1    1    2  502    0 -0.13837099539E+02 -0.11437638491E+03 -0.28135746857E+03  0.34931282237E+03  0.17200000000E+03 0. -1.
         -6    1    1    2    0  502  0.13837099539E+02  0.11437638491E+03  0.12878736707E+03  0.24381059999E+03  0.17200000000E+03 0.  1.
</event>
<event>
 4    1 -0.6901648E-004  0.1767359E+03  0.7818608E-02  0.1171000E+00
         -5   -1    0    0    0  501 -0.00000000000E+00  0.00000000000E+00  0.20690681316E+03  0.20696018780E+03  0.47000000000E+01 0.  1.
          5   -1    0    0  501    0  0.00000000000E+00 -0.00000000000E+00 -0.49528612223E+03  0.49530842197E+03  0.47000000000E+01 0. -1.
          6    1    1    2  502    0  0.38870992498E+02  0.11857788713E+02 -0.43697684653E+03  0.47136432365E+03  0.17200000000E+03 0. -1.
         -6    1    1    2    0  502 -0.38870992498E+02 -0.11857788713E+02  0.14859753745E+03  0.23090428612E+03  0.17200000000E+03 0.  1.
</event>
<event>
 4    1 -0.6901648E-004  0.1757105E+03  0.7818608E-02  0.1172020E+00
         -5   -1    0    0    0  501 -0.00000000000E+00  0.00000000000E+00  0.11698198030E+03  0.11707635848E+03  0.47000000000E+01 0.  1.
          5   -1    0    0  501    0  0.00000000000E+00 -0.00000000000E+00 -0.26857603564E+03  0.26861715679E+03  0.47000000000E+01 0. -1.
          6    1    1    2  502    0  0.22330441204E+02 -0.28134024709E+02 -0.49821128881E+02  0.18263711790E+03  0.17200000000E+03 0. -1.
         -6    1    1    2    0  502 -0.22330441204E+02  0.28134024709E+02 -0.10177292646E+03  0.20305639737E+03  0.17200000000E+03 0. -1.
</event>
<event>
 4    1 -0.6901648E-004  0.2091882E+03  0.7818608E-02  0.1142210E+00
         -5   -1    0    0    0  501 -0.00000000000E+00  0.00000000000E+00  0.53998978760E+03  0.54001024130E+03  0.47000000000E+01 0.  1.
          5   -1    0    0  501    0  0.00000000000E+00 -0.00000000000E+00 -0.10628125387E+03  0.10638512548E+03  0.47000000000E+01 0. -1.
          6    1    1    2  502    0 -0.37378494203E+02  0.11304218803E+03  0.59165856019E+02  0.21739431138E+03  0.17200000000E+03 0. -1.
         -6    1    1    2    0  502  0.37378494203E+02 -0.11304218803E+03  0.37454267771E+03  0.42900105540E+03  0.17200000000E+03 0.  1.
</event>
<event>
 4    1 -0.6901648E-004  0.1782763E+03  0.7818608E-02  0.1169482E+00
          5   -1    0    0  501    0  0.00000000000E+00  0.00000000000E+00  0.18551123627E+03  0.18557076489E+03  0.47000000000E+01 0. -1.
         -5   -1    0    0    0  501 -0.00000000000E+00 -0.00000000000E+00 -0.91802717483E+03  0.91803920598E+03  0.47000000000E+01 0.  1.
          6    1    1    2  502    0  0.38143959297E+02  0.27266680756E+02  0.13141441833E+03  0.22147727391E+03  0.17200000000E+03 0. -1.
         -6    1    1    2    0  502 -0.38143959297E+02 -0.27266680756E+02 -0.86393035689E+03  0.88213269697E+03  0.17200000000E+03 0.  1.
</event>
<event>
 4    1 -0.6901648E-004  0.1841168E+03  0.7818608E-02  0.1163877E+00
          5   -1    0    0  501    0  0.00000000000E+00  0.00000000000E+00  0.12985668671E+03  0.12994171417E+03  0.47000000000E+01 0. -1.
         -5   -1    0    0    0  501 -0.00000000000E+00 -0.00000000000E+00 -0.76293441038E+03  0.76294888724E+03  0.47000000000E+01 0.  1.
          6    1    1    2  502    0 -0.11482286938E+02 -0.64677218111E+02  0.45601942654E+02  0.18968005333E+03  0.17200000000E+03 0. -1.
         -6    1    1    2    0  502  0.11482286938E+02  0.64677218111E+02 -0.67867966633E+03  0.70321054809E+03  0.17200000000E+03 0.  1.
</event>
<event>
 4    1 -0.6901648E-004  0.2891919E+03  0.7818608E-02  0.1090772E+00
         -5   -1    0    0    0  501 -0.00000000000E+00  0.00000000000E+00  0.82103837820E+03  0.82105183057E+03  0.47000000000E+01 0.  1.
          5   -1    0    0  501    0  0.00000000000E+00 -0.00000000000E+00 -0.23651573904E+03  0.23656243323E+03  0.47000000000E+01 0. -1.
          6    1    1    2  502    0 -0.16330339670E+03 -0.16546895554E+03 -0.10676784370E+03  0.30827154761E+03  0.17200000000E+03 0. -1.
         -6    1    1    2    0  502  0.16330339670E+03  0.16546895554E+03  0.69129048285E+03  0.74934271619E+03  0.17200000000E+03 0.  1.
</event>
<event>
 4    1 -0.6901648E-004  0.1848431E+03  0.7818608E-02  0.1163196E+00
         -5   -1    0    0    0  501 -0.00000000000E+00  0.00000000000E+00  0.30339578373E+03  0.30343218614E+03  0.47000000000E+01 0.  1.
          5   -1    0    0  501    0  0.00000000000E+00 -0.00000000000E+00 -0.45389155120E+03  0.45391588455E+03  0.47000000000E+01 0. -1.
          6    1    1    2  502    0  0.67669047488E+02 -0.19721185786E+01 -0.40361111010E+03  0.44392445014E+03  0.17200000000E+03 0. -1.
         -6    1    1    2    0  502 -0.67669047488E+02  0.19721185786E+01  0.25311534263E+03  0.31342362055E+03  0.17200000000E+03 0.  1.
</event>
<event>
 4    1 -0.6901648E-004  0.2143801E+03  0.7818608E-02  0.1138144E+00
          5   -1    0    0  501    0  0.00000000000E+00  0.00000000000E+00  0.29339319590E+03  0.29343083921E+03  0.47000000000E+01 0. -1.
         -5   -1    0    0    0  501 -0.00000000000E+00 -0.00000000000E+00 -0.16188548382E+03  0.16195369669E+03  0.47000000000E+01 0.  1.
          6    1    1    2  502    0 -0.10350421526E+03 -0.75244374421E+02  0.10702635807E+03  0.23961110112E+03  0.17200000000E+03 0. -1.
         -6    1    1    2    0  502  0.10350421526E+03  0.75244374421E+02  0.24481354005E+02  0.21577343477E+03  0.17200000000E+03 0.  1.
</event>
<event>
 4    1 -0.6901648E-004  0.2420179E+03  0.7818608E-02  0.1118456E+00
         -5   -1    0    0    0  501 -0.00000000000E+00  0.00000000000E+00  0.14369530998E+04  0.14369607862E+04  0.47000000000E+01 0.  1.
          5   -1    0    0  501    0  0.00000000000E+00 -0.00000000000E+00 -0.62662093886E+03  0.62663856490E+03  0.47000000000E+01 0. -1.
          6    1    1    2  502    0  0.85918321310E+02 -0.14699225673E+03 -0.59251102771E+03  0.64003281122E+03  0.17200000000E+03 0. -1.
         -6    1    1    2    0  502 -0.85918321310E+02  0.14699225673E+03  0.14028431886E+04  0.14235665398E+04  0.17200000000E+03 0.  1.
</event>
<event>
 4    1 -0.6901648E-004  0.2105684E+03  0.7818608E-02  0.1141117E+00
          5   -1    0    0  501    0  0.00000000000E+00  0.00000000000E+00  0.61885171698E+03  0.61886956429E+03  0.47000000000E+01 0. -1.
         -5   -1    0    0    0  501 -0.00000000000E+00 -0.00000000000E+00 -0.23402371084E+03  0.23407090215E+03  0.47000000000E+01 0.  1.
          6    1    1    2  502    0 -0.60645579469E+02  0.10524815541E+03  0.54766769036E+03  0.58675289483E+03  0.17200000000E+03 0. -1.
         -6    1    1    2    0  502  0.60645579469E+02 -0.10524815541E+03 -0.16283968422E+03  0.26618757162E+03  0.17200000000E+03 0.  1.
</event>
<event>
 4    1 -0.6901648E-004  0.1962322E+03  0.7818608E-02  0.1152957E+00
          5   -1    0    0  501    0  0.00000000000E+00  0.00000000000E+00  0.18365388550E+03  0.18371401596E+03  0.47000000000E+01 0. -1.
         -5   -1    0    0    0  501 -0.00000000000E+00 -0.00000000000E+00 -0.24770776633E+03  0.24775235115E+03  0.47000000000E+01 0.  1.
          6    1    1    2  502    0 -0.71731079020E+02  0.61463365196E+02  0.52624817930E+02  0.20316610057E+03  0.17200000000E+03 0. -1.
         -6    1    1    2    0  502  0.71731079020E+02 -0.61463365196E+02 -0.11667869876E+03  0.22830026654E+03  0.17200000000E+03 0.  1.
</event>
<event>
 4    1 -0.6901648E-004  0.5365657E+03  0.7818608E-02  0.1004652E+00
         -5   -1    0    0    0  501 -0.00000000000E+00  0.00000000000E+00  0.13850444369E+04  0.13850524113E+04  0.47000000000E+01 0.  1.
          5   -1    0    0  501    0  0.00000000000E+00 -0.00000000000E+00 -0.64960698591E+03  0.64962398827E+03  0.47000000000E+01 0. -1.
          6    1    1    2  502    0 -0.41535124249E+03 -0.29291998655E+03 -0.47121383886E+03  0.71410451272E+03  0.17200000000E+03 0. -1.
         -6    1    1    2    0  502  0.41535124249E+03  0.29291998655E+03  0.12066512898E+04  0.13205718869E+04  0.17200000000E+03 0.  1.
</event>
<event>
 4    1 -0.6901648E-004  0.2279727E+03  0.7818608E-02  0.1128075E+00
         -5   -1    0    0    0  501 -0.00000000000E+00  0.00000000000E+00  0.10530192344E+04  0.10530297233E+04  0.47000000000E+01 0.  1.
          5   -1    0    0  501    0  0.00000000000E+00 -0.00000000000E+00 -0.25690753406E+03  0.25695052258E+03  0.47000000000E+01 0. -1.
          6    1    1    2  502    0 -0.58583886925E+02 -0.13767898268E+03 -0.19067558353E+03  0.29720153471E+03  0.17200000000E+03 0. -1.
         -6    1    1    2    0  502  0.58583886925E+02  0.13767898268E+03  0.98678728389E+03  0.10127787111E+04  0.17200000000E+03 0.  1.
</event>
<event>
 4    1 -0.6901648E-004  0.1925449E+03  0.7818608E-02  0.1156186E+00
         -5   -1    0    0    0  501 -0.00000000000E+00  0.00000000000E+00  0.87245068087E+03  0.87246334051E+03  0.47000000000E+01 0.  1.
          5   -1    0    0  501    0  0.00000000000E+00 -0.00000000000E+00 -0.12244930581E+03  0.12253947321E+03  0.47000000000E+01 0. -1.
          6    1    1    2  502    0 -0.50436162522E+02  0.70325810990E+02 -0.27064288967E+02  0.19443765561E+03  0.17200000000E+03 0. -1.
         -6    1    1    2    0  502  0.50436162522E+02 -0.70325810990E+02  0.77706566402E+03  0.80056515811E+03  0.17200000000E+03 0.  1.
</event>
<event>
 4    1 -0.6901648E-004  0.2009328E+03  0.7818608E-02  0.1148954E+00
         -5   -1    0    0    0  501 -0.00000000000E+00  0.00000000000E+00  0.13065013035E+04  0.13065097573E+04  0.47000000000E+01 0.  1.
          5   -1    0    0  501    0  0.00000000000E+00 -0.00000000000E+00 -0.51285889571E+02  0.51500800665E+02  0.47000000000E+01 0. -1.
          6    1    1    2  502    0 -0.46244273509E+02  0.93013243423E+02  0.19880664073E+03  0.28266247838E+03  0.17200000000E+03 0. -1.
         -6    1    1    2    0  502  0.46244273509E+02 -0.93013243423E+02  0.10564087732E+04  0.10753480796E+04  0.17200000000E+03 0.  1.
</event>
<event>
 4    1 -0.6901648E-004  0.1860109E+03  0.7818608E-02  0.1162109E+00
          5   -1    0    0  501    0  0.00000000000E+00  0.00000000000E+00  0.86828067090E+03  0.86829339135E+03  0.47000000000E+01 0. -1.
         -5   -1    0    0    0  501 -0.00000000000E+00 -0.00000000000E+00 -0.17510534909E+03  0.17516841405E+03  0.47000000000E+01 0.  1.
          6    1    1    2  502    0 -0.69023758102E+02 -0.15867577463E+02  0.80514370559E+03  0.82635128477E+03  0.17200000000E+03 0. -1.
         -6    1    1    2    0  502  0.69023758102E+02  0.15867577463E+02 -0.11196838378E+03  0.21711052062E+03  0.17200000000E+03 0.  1.
</event>
<event>
 4    1 -0.6901648E-004  0.1957247E+03  0.7818608E-02  0.1153397E+00
          5   -1    0    0  501    0  0.00000000000E+00  0.00000000000E+00  0.25920529011E+03  0.25924789762E+03  0.47000000000E+01 0. -1.
         -5   -1    0    0    0  501 -0.00000000000E+00 -0.00000000000E+00 -0.24579816109E+03  0.24584309222E+03  0.47000000000E+01 0.  1.
          6    1    1    2  502    0  0.86417090555E+02  0.35443705778E+02  0.16621546645E+03  0.25677957688E+03  0.17200000000E+03 0. -1.
         -6    1    1    2    0  502 -0.86417090555E+02 -0.35443705778E+02 -0.15280833742E+03  0.24831141296E+03  0.17200000000E+03 0.  1.
</event>
<event>
 4    1 -0.6901648E-004  0.1931556E+03  0.7818608E-02  0.1155646E+00
         -5   -1    0    0    0  501 -0.00000000000E+00  0.00000000000E+00  0.72596705766E+03  0.72598227169E+03  0.47000000000E+01 0.  1.
          5   -1    0    0  501    0  0.00000000000E+00 -0.00000000000E+00 -0.53164325808E+03  0.53166403289E+03  0.47000000000E+01 0. -1.
          6    1    1    2  502    0 -0.86653718726E+02  0.14704981451E+02 -0.50049764358E+03  0.53647646237E+03  0.17200000000E+03 0. -1.
         -6    1    1    2    0  502  0.86653718726E+02 -0.14704981451E+02  0.69482144315E+03  0.72116984221E+03  0.17200000000E+03 0.  1.
</event>
<event>
 4    1 -0.6901648E-004  0.1790314E+03  0.7818608E-02  0.1168744E+00
         -5   -1    0    0    0  501 -0.00000000000E+00  0.00000000000E+00  0.20445739993E+03  0.20451141383E+03  0.47000000000E+01 0.  1.
          5   -1    0    0  501    0  0.00000000000E+00 -0.00000000000E+00 -0.33169156165E+03  0.33172485899E+03  0.47000000000E+01 0. -1.
          6    1    1    2  502    0 -0.95500678619E+01  0.48754945785E+02 -0.25835523904E+03  0.31432416082E+03  0.17200000000E+03 0. -1.
         -6    1    1    2    0  502  0.95500678619E+01 -0.48754945785E+02  0.13112107732E+03  0.22191211200E+03  0.17200000000E+03 0.  1.
</event>
<event>
 4    1 -0.6901648E-004  0.1720774E+03  0.7818608E-02  0.1175699E+00
         -5   -1    0    0    0  501 -0.00000000000E+00  0.00000000000E+00  0.39802726052E+02  0.40079258990E+02  0.47000000000E+01 0.  1.
          5   -1    0    0  501    0  0.00000000000E+00 -0.00000000000E+00 -0.10351189611E+04  0.10351296313E+04  0.47000000000E+01 0. -1.
          6    1    1    2  502    0 -0.50500858935E+01  0.10608067340E+01 -0.78415038064E+03  0.80280909819E+03  0.17200000000E+03 0. -1.
         -6    1    1    2    0  502  0.50500858935E+01 -0.10608067340E+01 -0.21116585442E+03  0.27239979213E+03  0.17200000000E+03 0.  1.
</event>
<event>
 4    1 -0.6901648E-004  0.2213649E+03  0.7818608E-02  0.1132870E+00
          5   -1    0    0  501    0  0.00000000000E+00  0.00000000000E+00  0.40024294999E+02  0.40299307565E+02  0.47000000000E+01 0. -1.
         -5   -1    0    0    0  501 -0.00000000000E+00 -0.00000000000E+00 -0.27282335855E+04  0.27282376339E+04  0.47000000000E+01 0.  1.
          6    1    1    2  502    0 -0.13081534518E+03 -0.48018343690E+02 -0.31487164596E+03  0.38489812847E+03  0.17200000000E+03 0. -1.
         -6    1    1    2    0  502  0.13081534518E+03  0.48018343690E+02 -0.23733376445E+04  0.23836388130E+04  0.17200000000E+03 0.  1.
</event>
<event>
 4    1 -0.6901648E-004  0.2119800E+03  0.7818608E-02  0.1140008E+00
          5   -1    0    0  501    0  0.00000000000E+00  0.00000000000E+00  0.14340504036E+03  0.14348203930E+03  0.47000000000E+01 0. -1.
         -5   -1    0    0    0  501 -0.00000000000E+00 -0.00000000000E+00 -0.11218474291E+04  0.11218572744E+04  0.47000000000E+01 0.  1.
          6    1    1    2  502    0  0.11537637197E+03 -0.45164132473E+02  0.47908331763E+02  0.21732628539E+03  0.17200000000E+03 0. -1.
         -6    1    1    2    0  502 -0.11537637197E+03  0.45164132473E+02 -0.10263507205E+04  0.10480130283E+04  0.17200000000E+03 0.  1.
</event>
<event>
 4    1 -0.6901648E-004  0.2799227E+03  0.7818608E-02  0.1095731E+00
         -5   -1    0    0    0  501 -0.00000000000E+00  0.00000000000E+00  0.15945747086E+03  0.15952672194E+03  0.47000000000E+01 0.  1.
          5   -1    0    0  501    0  0.00000000000E+00 -0.00000000000E+00 -0.49242922817E+03  0.49245165728E+03  0.47000000000E+01 0. -1.
          6    1    1    2  502    0 -0.21720210385E+03  0.39949337761E+02 -0.18271554881E+03  0.33427784145E+03  0.17200000000E+03 0. -1.
         -6    1    1    2    0  502  0.21720210385E+03 -0.39949337761E+02 -0.15025620850E+03  0.31770053777E+03  0.17200000000E+03 0. -1.
</event>
<event>
 4    1 -0.6901648E-004  0.1731722E+03  0.7818608E-02  0.1174580E+00
         -5   -1    0    0    0  501 -0.00000000000E+00  0.00000000000E+00  0.47312156170E+02  0.47545032563E+02  0.47000000000E+01 0.  1.
          5   -1    0    0  501    0  0.00000000000E+00 -0.00000000000E+00 -0.92587348610E+03  0.92588541530E+03  0.47000000000E+01 0. -1.
          6    1    1    2  502    0  0.18616086380E+02 -0.76199077803E+01 -0.71342897252E+03  0.73414543552E+03  0.17200000000E+03 0. -1.
         -6    1    1    2    0  502 -0.18616086380E+02  0.76199077803E+01 -0.16513235741E+03  0.23928501234E+03  0.17200000000E+03 0.  1.
</event>
<event>
 4    1 -0.6901648E-004  0.1811223E+03  0.7818608E-02  0.1166721E+00
         -5   -1    0    0    0  501 -0.00000000000E+00  0.00000000000E+00  0.43909120949E+03  0.43911636300E+03  0.47000000000E+01 0.  1.
          5   -1    0    0  501    0  0.00000000000E+00 -0.00000000000E+00 -0.42051890193E+03  0.42054516628E+03  0.47000000000E+01 0. -1.
          6    1    1    2  502    0 -0.41446340369E+02  0.38775074576E+02 -0.38050079050E+03  0.42140972593E+03  0.17200000000E+03 0. -1.
         -6    1    1    2    0  502  0.41446340369E+02 -0.38775074576E+02  0.39907309806E+03  0.43825180334E+03  0.17200000000E+03 0.  1.
</event>
<event>
 4    1 -0.6901648E-004  0.1800302E+03  0.7818608E-02  0.1167774E+00
          5   -1    0    0  501    0  0.00000000000E+00  0.00000000000E+00  0.74360893658E+03  0.74362378967E+03  0.47000000000E+01 0. -1.
         -5   -1    0    0    0  501 -0.00000000000E+00 -0.00000000000E+00 -0.29610331880E+03  0.29614061762E+03  0.47000000000E+01 0.  1.
          6    1    1    2  502    0  0.12527956702E+02  0.51671365834E+02  0.70385488219E+03  0.72651398812E+03  0.17200000000E+03 0. -1.
         -6    1    1    2    0  502 -0.12527956702E+02 -0.51671365834E+02 -0.25634926441E+03  0.31325041917E+03  0.17200000000E+03 0.  1.
</event>
<event>
 4    1 -0.6901648E-004  0.1802703E+03  0.7818608E-02  0.1167542E+00
          5   -1    0    0  501    0  0.00000000000E+00  0.00000000000E+00  0.60053660657E+03  0.60055499818E+03  0.47000000000E+01 0. -1.
         -5   -1    0    0    0  501 -0.00000000000E+00 -0.00000000000E+00 -0.16023791395E+03  0.16030682788E+03  0.47000000000E+01 0.  1.
          6    1    1    2  502    0 -0.24546000823E+02 -0.48071567127E+02  0.52977588513E+03  0.55960688897E+03  0.17200000000E+03 0. -1.
         -6    1    1    2    0  502  0.24546000823E+02  0.48071567127E+02 -0.89477192502E+02  0.20125493708E+03  0.17200000000E+03 0.  1.
</event>
<event>
 4    1 -0.6901648E-004  0.2685539E+03  0.7818608E-02  0.1102110E+00
          5   -1    0    0  501    0  0.00000000000E+00  0.00000000000E+00  0.98438681296E+03  0.98439803308E+03  0.47000000000E+01 0. -1.
         -5   -1    0    0    0  501 -0.00000000000E+00 -0.00000000000E+00 -0.73636302251E+02  0.73786143748E+02  0.47000000000E+01 0.  1.
          6    1    1    2  502    0  0.69495016412E+02  0.19418461283E+03  0.49706601589E+03  0.56497419881E+03  0.17200000000E+03 0. -1.
         -6    1    1    2    0  502 -0.69495016412E+02 -0.19418461283E+03  0.41368449482E+03  0.49320997802E+03  0.17200000000E+03 0.  1.
</event>
<event>
 4    1 -0.6901648E-004  0.1757833E+03  0.7818608E-02  0.1171948E+00
         -5   -1    0    0    0  501 -0.00000000000E+00  0.00000000000E+00  0.12231761594E+03  0.12240788034E+03  0.47000000000E+01 0.  1.
          5   -1    0    0  501    0  0.00000000000E+00 -0.00000000000E+00 -0.27056609839E+03  0.27060691713E+03  0.47000000000E+01 0. -1.
          6    1    1    2  502    0  0.36256553151E+02  0.11027499183E+01 -0.12501080956E+03  0.21570223970E+03  0.17200000000E+03 0. -1.
         -6    1    1    2    0  502 -0.36256553151E+02 -0.11027499183E+01 -0.23237672898E+02  0.17731255778E+03  0.17200000000E+03 0.  1.
</event>
<event>
 4    1 -0.6901648E-004  0.3324371E+03  0.7818608E-02  0.1070064E+00
         -5   -1    0    0    0  501 -0.00000000000E+00  0.00000000000E+00  0.30227476386E+03  0.30231130125E+03  0.47000000000E+01 0.  1.
          5   -1    0    0  501    0  0.00000000000E+00 -0.00000000000E+00 -0.77050068237E+03  0.77051501707E+03  0.47000000000E+01 0. -1.
          6    1    1    2  502    0  0.16106271670E+03 -0.23449775546E+03 -0.62298370040E+03  0.70613248543E+03  0.17200000000E+03 0. -1.
         -6    1    1    2    0  502 -0.16106271670E+03  0.23449775546E+03  0.15475778189E+03  0.36669383289E+03  0.17200000000E+03 0.  1.
</event>
<event>
 4    1 -0.6901648E-004  0.2282589E+03  0.7818608E-02  0.1127871E+00
          5   -1    0    0  501    0  0.00000000000E+00  0.00000000000E+00  0.42398189672E+03  0.42400794656E+03  0.47000000000E+01 0. -1.
         -5   -1    0    0    0  501 -0.00000000000E+00 -0.00000000000E+00 -0.12570025480E+03  0.12578809187E+03  0.47000000000E+01 0.  1.
          6    1    1    2  502    0  0.94052627005E+02  0.11692837938E+03  0.19078521186E+03  0.29749141099E+03  0.17200000000E+03 0.  1.
         -6    1    1    2    0  502 -0.94052627005E+02 -0.11692837938E+03  0.10749643006E+03  0.25230462743E+03  0.17200000000E+03 0.  1.
</event>
<event>
 4    1 -0.6901648E-004  0.1847315E+03  0.7818608E-02  0.1163301E+00
         -5   -1    0    0    0  501 -0.00000000000E+00  0.00000000000E+00  0.55454296314E+02  0.55653112937E+02  0.47000000000E+01 0.  1.
          5   -1    0    0  501    0  0.00000000000E+00 -0.00000000000E+00 -0.10502158768E+04  0.10502263936E+04  0.47000000000E+01 0. -1.
          6    1    1    2  502    0  0.27775298588E+02  0.61402331106E+02 -0.85367406460E+03  0.87343295223E+03  0.17200000000E+03 0. -1.
         -6    1    1    2    0  502 -0.27775298588E+02 -0.61402331106E+02 -0.14108751585E+03  0.23244655430E+03  0.17200000000E+03 0.  1.
</event>
<event>
 4    1 -0.6901648E-004  0.2587190E+03  0.7818608E-02  0.1107915E+00
          5   -1    0    0  501    0  0.00000000000E+00  0.00000000000E+00  0.10547679274E+03  0.10558145579E+03  0.47000000000E+01 0. -1.
         -5   -1    0    0    0  501 -0.00000000000E+00 -0.00000000000E+00 -0.10747427552E+04  0.10747530321E+04  0.47000000000E+01 0.  1.
          6    1    1    2  502    0  0.70147974706E+02 -0.18008548026E+03 -0.10679378024E+03  0.27989360489E+03  0.17200000000E+03 0. -1.
         -6    1    1    2    0  502 -0.70147974706E+02  0.18008548026E+03 -0.86247218226E+03  0.90044088298E+03  0.17200000000E+03 0.  1.
</event>
<event>
 4    1 -0.6901648E-004  0.2303113E+03  0.7818608E-02  0.1126421E+00
         -5   -1    0    0    0  501 -0.00000000000E+00  0.00000000000E+00  0.12823567656E+03  0.12832177813E+03  0.47000000000E+01 0.  1.
          5   -1    0    0  501    0  0.00000000000E+00 -0.00000000000E+00 -0.65012561003E+03  0.65014259883E+03  0.47000000000E+01 0. -1.
          6    1    1    2  502    0  0.63620024169E+02  0.13932621757E+03 -0.49579781761E+03  0.54667977677E+03  0.17200000000E+03 0. -1.
         -6    1    1    2    0  502 -0.63620024169E+02 -0.13932621757E+03 -0.26092115865E+02  0.23178460020E+03  0.17200000000E+03 0.  1.
</event>
<event>
 4    1 -0.6901648E-004  0.1994716E+03  0.7818608E-02  0.1150186E+00
         -5   -1    0    0    0  501 -0.00000000000E+00  0.00000000000E+00  0.49918528897E+03  0.49920741453E+03  0.47000000000E+01 0.  1.
          5   -1    0    0  501    0  0.00000000000E+00 -0.00000000000E+00 -0.17449645941E+03  0.17455974435E+03  0.47000000000E+01 0. -1.
          6    1    1    2  502    0  0.44538137419E+02  0.90671146210E+02 -0.85983349334E+02  0.21721426933E+03  0.17200000000E+03 0. -1.
         -6    1    1    2    0  502 -0.44538137419E+02 -0.90671146210E+02  0.41067217889E+03  0.45655288955E+03  0.17200000000E+03 0.  1.
</event>
<event>
 4    1 -0.6901648E-004  0.1865660E+03  0.7818608E-02  0.1161596E+00
          5   -1    0    0  501    0  0.00000000000E+00  0.00000000000E+00  0.74214560661E+03  0.74216048898E+03  0.47000000000E+01 0. -1.
         -5   -1    0    0    0  501 -0.00000000000E+00 -0.00000000000E+00 -0.13846867938E+03  0.13854842175E+03  0.47000000000E+01 0.  1.
          6    1    1    2  502    0 -0.15283921211E-01 -0.72269407003E+02  0.65997151663E+03  0.68583472512E+03  0.17200000000E+03 0. -1.
         -6    1    1    2    0  502  0.15283921211E-01  0.72269407003E+02 -0.56294589398E+02  0.19487418561E+03  0.17200000000E+03 0.  1.
</event>
<event>
 4    1 -0.6901648E-004  0.1801419E+03  0.7818608E-02  0.1167666E+00
          5   -1    0    0  501    0  0.00000000000E+00  0.00000000000E+00  0.73328344637E+03  0.73329850861E+03  0.47000000000E+01 0. -1.
         -5   -1    0    0    0  501 -0.00000000000E+00 -0.00000000000E+00 -0.93906954432E+02  0.94024497291E+02  0.47000000000E+01 0.  1.
          6    1    1    2  502    0 -0.47619400739E+02  0.24484781492E+02  0.62058704515E+03  0.64620383197E+03  0.17200000000E+03 0. -1.
         -6    1    1    2    0  502  0.47619400739E+02 -0.24484781492E+02  0.18789446790E+02  0.18111917392E+03  0.17200000000E+03 0.  1.
</event>
<event>
 4    1 -0.6901648E-004  0.2048706E+03  0.7818608E-02  0.1145694E+00
         -5   -1    0    0    0  501 -0.00000000000E+00  0.00000000000E+00  0.13270364916E+03  0.13278685364E+03  0.47000000000E+01 0.  1.
          5   -1    0    0  501    0  0.00000000000E+00 -0.00000000000E+00 -0.87310375943E+03  0.87311640961E+03  0.47000000000E+01 0. -1.
          6    1    1    2  502    0 -0.93835935479E+02 -0.59856351695E+02 -0.77190032672E+03  0.79862511858E+03  0.17200000000E+03 0. -1.
         -6    1    1    2    0  502  0.93835935479E+02  0.59856351695E+02  0.31500216450E+02  0.20727814468E+03  0.17200000000E+03 0.  1.
</event>
<event>
 4    1 -0.6901648E-004  0.2650747E+03  0.7818608E-02  0.1104132E+00
          5   -1    0    0  501    0  0.00000000000E+00  0.00000000000E+00  0.77677056629E+03  0.77678478528E+03  0.47000000000E+01 0. -1.
         -5   -1    0    0    0  501 -0.00000000000E+00 -0.00000000000E+00 -0.14867699056E+03  0.14875126057E+03  0.47000000000E+01 0.  1.
          6    1    1    2  502    0 -0.18748795361E+03  0.74356501777E+02  0.60371157150E+03  0.65934231145E+03  0.17200000000E+03 0. -1.
         -6    1    1    2    0  502  0.18748795361E+03 -0.74356501777E+02  0.24382004220E+02  0.26619373440E+03  0.17200000000E+03 0.  1.
</event>
<event>
 4    1 -0.6901648E-004  0.2911636E+03  0.7818608E-02  0.1089743E+00
          5   -1    0    0  501    0  0.00000000000E+00  0.00000000000E+00  0.76162470582E+02  0.76307351711E+02  0.47000000000E+01 0. -1.
         -5   -1    0    0    0  501 -0.00000000000E+00 -0.00000000000E+00 -0.11877787849E+04  0.11877880838E+04  0.47000000000E+01 0.  1.
          6    1    1    2  502    0 -0.21540512842E+03  0.93770370432E+02 -0.39605739942E+03  0.49156659300E+03  0.17200000000E+03 0. -1.
         -6    1    1    2    0  502  0.21540512842E+03 -0.93770370432E+02 -0.71555891492E+03  0.77252884247E+03  0.17200000000E+03 0.  1.
</event>
<event>
 4    1 -0.6901648E-004  0.1756684E+03  0.7818608E-02  0.1172062E+00
         -5   -1    0    0    0  501 -0.00000000000E+00  0.00000000000E+00  0.23016517000E+03  0.23021315228E+03  0.47000000000E+01 0.  1.
          5   -1    0    0  501    0  0.00000000000E+00 -0.00000000000E+00 -0.22922336398E+03  0.22927154336E+03  0.47000000000E+01 0. -1.
          6    1    1    2  502    0 -0.35209657805E+02 -0.59710611559E+01 -0.14759004105E+03  0.22943886722E+03  0.17200000000E+03 0. -1.
         -6    1    1    2    0  502  0.35209657805E+02  0.59710611559E+01  0.14853184707E+03  0.23004582841E+03  0.17200000000E+03 0.  1.
</event>
<event>
 4    1 -0.6901648E-004  0.1839421E+03  0.7818608E-02  0.1164042E+00
          5   -1    0    0  501    0  0.00000000000E+00  0.00000000000E+00  0.46925119997E+02  0.47159907620E+02  0.47000000000E+01 0. -1.
         -5   -1    0    0    0  501 -0.00000000000E+00 -0.00000000000E+00 -0.14804538920E+04  0.14804613525E+04  0.47000000000E+01 0.  1.
          6    1    1    2  502    0  0.59450074897E+02  0.26765195188E+02 -0.16902283014E+03  0.24980673367E+03  0.17200000000E+03 0. -1.
         -6    1    1    2    0  502 -0.59450074897E+02 -0.26765195188E+02 -0.12645059418E+04  0.12778145264E+04  0.17200000000E+03 0.  1.
</event>
<event>
 4    1 -0.6901648E-004  0.1870535E+03  0.7818608E-02  0.1161146E+00
         -5   -1    0    0    0  501 -0.00000000000E+00  0.00000000000E+00  0.39346398905E+03  0.39349205923E+03  0.47000000000E+01 0.  1.
          5   -1    0    0  501    0  0.00000000000E+00 -0.00000000000E+00 -0.14492260261E+03  0.14499879567E+03  0.47000000000E+01 0. -1.
          6    1    1    2  502    0 -0.62274154777E+02 -0.39076299434E+02 -0.43158893264E+02  0.19196801191E+03  0.17200000000E+03 0. -1.
         -6    1    1    2    0  502  0.62274154777E+02  0.39076299434E+02  0.29170027971E+03  0.34652284299E+03  0.17200000000E+03 0.  1.
</event>
<event>
 4    1 -0.6901648E-004  0.2066017E+03  0.7818608E-02  0.1144286E+00
         -5   -1    0    0    0  501 -0.00000000000E+00  0.00000000000E+00  0.71644998364E+03  0.71646539976E+03  0.47000000000E+01 0.  1.
          5   -1    0    0  501    0  0.00000000000E+00 -0.00000000000E+00 -0.11594901771E+03  0.11604423599E+03  0.47000000000E+01 0. -1.
          6    1    1    2  502    0  0.71558337245E+02 -0.89328907440E+02  0.99264584525E+01  0.20683999592E+03  0.17200000000E+03 0. -1.
         -6    1    1    2    0  502 -0.71558337245E+02  0.89328907440E+02  0.59057450748E+03  0.62566963984E+03  0.17200000000E+03 0.  1.
</event>
<event>
 4    1 -0.6901648E-004  0.2753923E+03  0.7818608E-02  0.1098232E+00
         -5   -1    0    0    0  501 -0.00000000000E+00  0.00000000000E+00  0.69431046866E+03  0.69432637635E+03  0.47000000000E+01 0.  1.
          5   -1    0    0  501    0  0.00000000000E+00 -0.00000000000E+00 -0.22019112121E+03  0.22024127646E+03  0.47000000000E+01 0. -1.
          6    1    1    2  502    0 -0.20962161672E+03 -0.48121957253E+02 -0.87585987841E+02  0.28898486160E+03  0.17200000000E+03 0. -1.
         -6    1    1    2    0  502  0.20962161672E+03  0.48121957253E+02  0.56170533530E+03  0.62558279122E+03  0.17200000000E+03 0.  1.
</event>
<event>
 4    1 -0.6901648E-004  0.1817142E+03  0.7818608E-02  0.1166154E+00
         -5   -1    0    0    0  501 -0.00000000000E+00  0.00000000000E+00  0.33170743490E+03  0.33174073064E+03  0.47000000000E+01 0.  1.
          5   -1    0    0  501    0  0.00000000000E+00 -0.00000000000E+00 -0.15553298963E+03  0.15560398730E+03  0.47000000000E+01 0. -1.
          6    1    1    2  502    0  0.29078353901E+02 -0.50896914507E+02 -0.58174182682E+02  0.19079906211E+03  0.17200000000E+03 0. -1.
         -6    1    1    2    0  502 -0.29078353901E+02  0.50896914507E+02  0.23434862795E+03  0.29654565583E+03  0.17200000000E+03 0.  1.
</event>
<event>
 4    1 -0.6901648E-004  0.1763660E+03  0.7818608E-02  0.1171367E+00
          5   -1    0    0  501    0  0.00000000000E+00  0.00000000000E+00  0.19408932222E+03  0.19414622067E+03  0.47000000000E+01 0. -1.
         -5   -1    0    0    0  501 -0.00000000000E+00 -0.00000000000E+00 -0.24016148944E+03  0.24020747493E+03  0.47000000000E+01 0.  1.
          6    1    1    2  502    0 -0.30056325466E+02 -0.24851420566E+02  0.10229094394E+03  0.20388333187E+03  0.17200000000E+03 0. -1.
         -6    1    1    2    0  502  0.30056325466E+02  0.24851420566E+02 -0.14836311115E+03  0.23047036373E+03  0.17200000000E+03 0.  1.
</event>
<event>
 4    1 -0.6901648E-004  0.1943209E+03  0.7818608E-02  0.1154621E+00
          5   -1    0    0  501    0  0.00000000000E+00  0.00000000000E+00  0.11852674705E+03  0.11861989616E+03  0.47000000000E+01 0. -1.
         -5   -1    0    0    0  501 -0.00000000000E+00 -0.00000000000E+00 -0.43124535123E+03  0.43127096234E+03  0.47000000000E+01 0.  1.
          6    1    1    2  502    0 -0.88816040745E+02  0.16979779459E+02 -0.15700994891E+02  0.19495415678E+03  0.17200000000E+03 0. -1.
         -6    1    1    2    0  502  0.88816040745E+02 -0.16979779459E+02 -0.29701760929E+03  0.35493670172E+03  0.17200000000E+03 0.  1.
</event>
<event>
 4    1 -0.6901648E-004  0.2802828E+03  0.7818608E-02  0.1095535E+00
          5   -1    0    0  501    0  0.00000000000E+00  0.00000000000E+00  0.16156304198E+04  0.16156372561E+04  0.47000000000E+01 0. -1.
         -5   -1    0    0    0  501 -0.00000000000E+00 -0.00000000000E+00 -0.34818390617E+03  0.34821562647E+03  0.47000000000E+01 0.  1.
          6    1    1    2  502    0 -0.15548582415E+03  0.15747574855E+03  0.15445144142E+04  0.15697398601E+04  0.17200000000E+03 0. -1.
         -6    1    1    2    0  502  0.15548582415E+03 -0.15747574855E+03 -0.27706790060E+03  0.39411302241E+03  0.17200000000E+03 0.  1.
</event>
<event>
 4    1 -0.6901648E-004  0.1776410E+03  0.7818608E-02  0.1170106E+00
         -5   -1    0    0    0  501 -0.00000000000E+00  0.00000000000E+00  0.39054506968E+02  0.39336300214E+02  0.47000000000E+01 0.  1.
          5   -1    0    0  501    0  0.00000000000E+00 -0.00000000000E+00 -0.17847065264E+04  0.17847127151E+04  0.47000000000E+01 0. -1.
          6    1    1    2  502    0  0.30198429411E+02 -0.32563740583E+02 -0.15485614942E+04  0.15587171147E+04  0.17200000000E+03 0. -1.
         -6    1    1    2    0  502 -0.30198429411E+02  0.32563740583E+02 -0.19709052525E+03  0.26533190061E+03  0.17200000000E+03 0.  1.
</event>
<event>
 4    1 -0.6901648E-004  0.2811856E+03  0.7818608E-02  0.1095043E+00
         -5   -1    0    0    0  501 -0.00000000000E+00  0.00000000000E+00  0.15014575820E+04  0.15014649382E+04  0.47000000000E+01 0.  1.
          5   -1    0    0  501    0  0.00000000000E+00 -0.00000000000E+00 -0.32102905361E+03  0.32106345675E+03  0.47000000000E+01 0. -1.
          6    1    1    2  502    0  0.38188806479E+01  0.22241121990E+03 -0.24297273630E+03  0.37161954358E+03  0.17200000000E+03 0. -1.
         -6    1    1    2    0  502 -0.38188806479E+01 -0.22241121990E+03  0.14234012647E+04  0.14509088514E+04  0.17200000000E+03 0.  1.
</event>
<event>
 4    1 -0.6901648E-004  0.2439012E+03  0.7818608E-02  0.1117221E+00
         -5   -1    0    0    0  501 -0.00000000000E+00  0.00000000000E+00  0.47775795754E+03  0.47778107538E+03  0.47000000000E+01 0.  1.
          5   -1    0    0  501    0  0.00000000000E+00 -0.00000000000E+00 -0.29883437510E+03  0.29887133308E+03  0.47000000000E+01 0. -1.
          6    1    1    2  502    0 -0.57807450912E+02 -0.16297886788E+03 -0.20714436525E+03  0.31999468873E+03  0.17200000000E+03 0. -1.
         -6    1    1    2    0  502  0.57807450912E+02  0.16297886788E+03  0.38606794770E+03  0.45665771974E+03  0.17200000000E+03 0.  1.
</event>
<event>
 4    1 -0.6901648E-004  0.2673107E+03  0.7818608E-02  0.1102829E+00
          5   -1    0    0  501    0  0.00000000000E+00  0.00000000000E+00  0.30486640321E+03  0.30490263004E+03  0.47000000000E+01 0. -1.
         -5   -1    0    0    0  501 -0.00000000000E+00 -0.00000000000E+00 -0.42038319756E+03  0.42040947039E+03  0.47000000000E+01 0.  1.
          6    1    1    2  502    0 -0.14552304838E+03  0.14385424270E+03  0.18349822999E+03  0.32423232591E+03  0.17200000000E+03 0. -1.
         -6    1    1    2    0  502  0.14552304838E+03 -0.14385424270E+03 -0.29901502434E+03  0.40107977452E+03  0.17200000000E+03 0.  1.
</event>
<event>
 4    1 -0.6901648E-004  0.2417699E+03  0.7818608E-02  0.1118619E+00
         -5   -1    0    0    0  501 -0.00000000000E+00  0.00000000000E+00  0.13186298996E+03  0.13194672456E+03  0.47000000000E+01 0.  1.
          5   -1    0    0  501    0  0.00000000000E+00 -0.00000000000E+00 -0.45051766357E+03  0.45054217914E+03  0.47000000000E+01 0. -1.
          6    1    1    2  502    0 -0.39526427292E+02  0.16524629093E+03 -0.19682839890E+03  0.31175967304E+03  0.17200000000E+03 0.  1.
         -6    1    1    2    0  502  0.39526427292E+02 -0.16524629093E+03 -0.12182627471E+03  0.27072923065E+03  0.17200000000E+03 0. -1.
</event>
<event>
 4    1 -0.6901648E-004  0.1887707E+03  0.7818608E-02  0.1159575E+00
          5   -1    0    0  501    0  0.00000000000E+00  0.00000000000E+00  0.24627574917E+02  0.25072045116E+02  0.47000000000E+01 0. -1.
         -5   -1    0    0    0  501 -0.00000000000E+00 -0.00000000000E+00 -0.15277437807E+04  0.15277510103E+04  0.47000000000E+01 0.  1.
          6    1    1    2  502    0  0.19623305104E+02 -0.75268189753E+02 -0.55879084066E+03  0.58981486765E+03  0.17200000000E+03 0.  1.
         -6    1    1    2    0  502 -0.19623305104E+02  0.75268189753E+02 -0.94432536512E+03  0.96300818776E+03  0.17200000000E+03 0.  1.
</event>
<event>
 4    1 -0.6901648E-004  0.1803298E+03  0.7818608E-02  0.1167484E+00
         -5   -1    0    0    0  501 -0.00000000000E+00  0.00000000000E+00  0.43316361586E+03  0.43318911355E+03  0.47000000000E+01 0.  1.
          5   -1    0    0  501    0  0.00000000000E+00 -0.00000000000E+00 -0.14118062877E+03  0.14125884022E+03  0.47000000000E+01 0. -1.
          6    1    1    2  502    0 -0.52123332421E+02 -0.14764813857E+02 -0.50606608586E+02  0.18729621017E+03  0.17200000000E+03 0. -1.
         -6    1    1    2    0  502  0.52123332421E+02  0.14764813857E+02  0.34258959567E+03  0.38715174360E+03  0.17200000000E+03 0. -1.
</event>
<event>
 4    1 -0.6901648E-004  0.5339305E+03  0.7818608E-02  0.1005283E+00
         -5   -1    0    0    0  501 -0.00000000000E+00  0.00000000000E+00  0.34278983794E+03  0.34282205733E+03  0.47000000000E+01 0.  1.
          5   -1    0    0  501    0  0.00000000000E+00 -0.00000000000E+00 -0.83694921053E+03  0.83696240717E+03  0.47000000000E+01 0. -1.
          6    1    1    2  502    0 -0.45335911796E+03  0.22352472548E+03 -0.29435277982E+03  0.60969283392E+03  0.17200000000E+03 0. -1.
         -6    1    1    2    0  502  0.45335911796E+03 -0.22352472548E+03 -0.19980659277E+03  0.57009163058E+03  0.17200000000E+03 0.  1.
</event>
<event>
 4    1 -0.6901648E-004  0.2165355E+03  0.7818608E-02  0.1136493E+00
          5   -1    0    0  501    0  0.00000000000E+00  0.00000000000E+00  0.18991787669E+03  0.18997602450E+03  0.47000000000E+01 0. -1.
         -5   -1    0    0    0  501 -0.00000000000E+00 -0.00000000000E+00 -0.24711309344E+03  0.24715778553E+03  0.47000000000E+01 0.  1.
          6    1    1    2  502    0  0.12725891963E+03 -0.33298776184E+02 -0.20401408614E+02  0.21749450244E+03  0.17200000000E+03 0. -1.
         -6    1    1    2    0  502 -0.12725891963E+03  0.33298776184E+02 -0.36793808136E+02  0.21963930759E+03  0.17200000000E+03 0.  1.
</event>
<event>
 4    1 -0.6901648E-004  0.2172144E+03  0.7818608E-02  0.1135977E+00
          5   -1    0    0  501    0  0.00000000000E+00  0.00000000000E+00  0.15546867102E+03  0.15553969805E+03  0.47000000000E+01 0. -1.
         -5   -1    0    0    0  501 -0.00000000000E+00 -0.00000000000E+00 -0.49717352438E+03  0.49719573947E+03  0.47000000000E+01 0.  1.
          6    1    1    2  502    0  0.10839801298E+03  0.76471947352E+02  0.32918073871E+02  0.21969453234E+03  0.17200000000E+03 0. -1.
         -6    1    1    2    0  502 -0.10839801298E+03 -0.76471947352E+02 -0.37462292723E+03  0.43304090518E+03  0.17200000000E+03 0.  1.
</event>
<event>
 4    1 -0.6901648E-004  0.3601580E+03  0.7818608E-02  0.1058521E+00
         -5   -1    0    0    0  501 -0.00000000000E+00  0.00000000000E+00  0.15982451318E+03  0.15989360529E+03  0.47000000000E+01 0.  1.
          5   -1    0    0  501    0  0.00000000000E+00 -0.00000000000E+00 -0.10727539925E+04  0.10727642883E+04  0.47000000000E+01 0. -1.
          6    1    1    2  502    0  0.17338694054E+03 -0.26470129337E+03 -0.76069476205E+03  0.84164738868E+03  0.17200000000E+03 0. -1.
         -6    1    1    2    0  502 -0.17338694054E+03  0.26470129337E+03 -0.15223471724E+03  0.39101050497E+03  0.17200000000E+03 0.  1.
</event>
<event>
 4    1 -0.6901648E-004  0.2662648E+03  0.7818608E-02  0.1103437E+00
         -5   -1    0    0    0  501 -0.00000000000E+00  0.00000000000E+00  0.10454321499E+04  0.10454427148E+04  0.47000000000E+01 0.  1.
          5   -1    0    0  501    0  0.00000000000E+00 -0.00000000000E+00 -0.24328470502E+03  0.24333010027E+03  0.47000000000E+01 0. -1.
          6    1    1    2  502    0  0.20324494072E+03  0.21124523577E+01 -0.14619517745E+03  0.30375977069E+03  0.17200000000E+03 0. -1.
         -6    1    1    2    0  502 -0.20324494072E+03 -0.21124523577E+01  0.94834262229E+03  0.98501304440E+03  0.17200000000E+03 0.  1.
</event>
<event>
 4    1 -0.6901648E-004  0.2599038E+03  0.7818608E-02  0.1107201E+00
          5   -1    0    0  501    0  0.00000000000E+00  0.00000000000E+00  0.25839717351E+03  0.25843991425E+03  0.47000000000E+01 0. -1.
         -5   -1    0    0    0  501 -0.00000000000E+00 -0.00000000000E+00 -0.35416943702E+03  0.35420062128E+03  0.47000000000E+01 0.  1.
          6    1    1    2  502    0 -0.25187859189E+01 -0.19483238435E+03  0.10892571469E+03  0.28180634058E+03  0.17200000000E+03 0. -1.
         -6    1    1    2    0  502  0.25187859189E+01  0.19483238435E+03 -0.20469797819E+03  0.33083419495E+03  0.17200000000E+03 0.  1.
</event>
<event>
 4    1 -0.6901648E-004  0.3222943E+03  0.7818608E-02  0.1074598E+00
         -5   -1    0    0    0  501 -0.00000000000E+00  0.00000000000E+00  0.14139883115E+04  0.14139961228E+04  0.47000000000E+01 0.  1.
          5   -1    0    0  501    0  0.00000000000E+00 -0.00000000000E+00 -0.74256454101E+02  0.74405046709E+02  0.47000000000E+01 0. -1.
          6    1    1    2  502    0  0.13358438141E+03  0.23758115354E+03  0.58901822781E+03  0.67142837605E+03  0.17200000000E+03 0.  1.
         -6    1    1    2    0  502 -0.13358438141E+03 -0.23758115354E+03  0.75071362963E+03  0.81697279341E+03  0.17200000000E+03 0.  1.
</event>
<event>
 4    1 -0.6901648E-004  0.1966851E+03  0.7818608E-02  0.1152566E+00
         -5   -1    0    0    0  501 -0.00000000000E+00  0.00000000000E+00  0.92993480037E+02  0.93112176053E+02  0.47000000000E+01 0.  1.
          5   -1    0    0  501    0  0.00000000000E+00 -0.00000000000E+00 -0.73676920025E+03  0.73678419123E+03  0.47000000000E+01 0. -1.
          6    1    1    2  502    0 -0.91320320941E+02  0.27597276071E+02 -0.59582705066E+03  0.62745110165E+03  0.17200000000E+03 0. -1.
         -6    1    1    2    0  502  0.91320320941E+02 -0.27597276071E+02 -0.47948669554E+02  0.20244526563E+03  0.17200000000E+03 0.  1.
</event>
<event>
 4    1 -0.6901648E-004  0.2194794E+03  0.7818608E-02  0.1134272E+00
          5   -1    0    0  501    0  0.00000000000E+00  0.00000000000E+00  0.38185023468E+03  0.38187915854E+03  0.47000000000E+01 0. -1.
         -5   -1    0    0    0  501 -0.00000000000E+00 -0.00000000000E+00 -0.77774428831E+03  0.77775848951E+03  0.47000000000E+01 0.  1.
          6    1    1    2  502    0  0.12099373797E+03  0.62831072100E+02  0.33277284908E+03  0.39863391393E+03  0.17200000000E+03 0. -1.
         -6    1    1    2    0  502 -0.12099373797E+03 -0.62831072100E+02 -0.72866690270E+03  0.76100373412E+03  0.17200000000E+03 0.  1.
</event>
<event>
 4    1 -0.6901648E-004  0.4818920E+03  0.7818608E-02  0.1018616E+00
         -5   -1    0    0    0  501 -0.00000000000E+00  0.00000000000E+00  0.51764486036E+03  0.51766619695E+03  0.47000000000E+01 0.  1.
          5   -1    0    0  501    0  0.00000000000E+00 -0.00000000000E+00 -0.68302226129E+03  0.68303843187E+03  0.47000000000E+01 0. -1.
          6    1    1    2  502    0  0.45006505426E+03 -0.87932029201E+01 -0.43441657981E+03  0.64879707020E+03  0.17200000000E+03 0. -1.
         -6    1    1    2    0  502 -0.45006505426E+03  0.87932029201E+01  0.26903917888E+03  0.55190755862E+03  0.17200000000E+03 0.  1.
</event>
<event>
 4    1 -0.6901648E-004  0.3923515E+03  0.7818608E-02  0.1046461E+00
         -5   -1    0    0    0  501 -0.00000000000E+00  0.00000000000E+00  0.81752443257E+03  0.81753794276E+03  0.47000000000E+01 0.  1.
          5   -1    0    0  501    0  0.00000000000E+00 -0.00000000000E+00 -0.28923083037E+03  0.28926901534E+03  0.47000000000E+01 0. -1.
          6    1    1    2  502    0  0.13848185015E+03  0.32431227284E+03 -0.62802930508E+02  0.39734604719E+03  0.17200000000E+03 0. -1.
         -6    1    1    2    0  502 -0.13848185015E+03 -0.32431227284E+03  0.59109653271E+03  0.70946091091E+03  0.17200000000E+03 0.  1.
</event>
<event>
 4    1 -0.6901648E-004  0.2602060E+03  0.7818608E-02  0.1107020E+00
         -5   -1    0    0    0  501 -0.00000000000E+00  0.00000000000E+00  0.10864327789E+03  0.10874489335E+03  0.47000000000E+01 0.  1.
          5   -1    0    0  501    0  0.00000000000E+00 -0.00000000000E+00 -0.68869439608E+03  0.68871043348E+03  0.47000000000E+01 0. -1.
          6    1    1    2  502    0 -0.12454846399E+03 -0.15036902404E+03 -0.41334612051E+03  0.48842827377E+03  0.17200000000E+03 0. -1.
         -6    1    1    2    0  502  0.12454846399E+03  0.15036902404E+03 -0.16670499768E+03  0.30902705306E+03  0.17200000000E+03 0.  1.
</event>
<event>
 4    1 -0.6901648E-004  0.1723205E+03  0.7818608E-02  0.1175449E+00
          5   -1    0    0  501    0  0.00000000000E+00  0.00000000000E+00  0.25821009636E+04  0.25821052411E+04  0.47000000000E+01 0. -1.
         -5   -1    0    0    0  501 -0.00000000000E+00 -0.00000000000E+00 -0.48521073807E+02  0.48748175386E+02  0.47000000000E+01 0.  1.
          6    1    1    2  502    0  0.57191383681E+01  0.88122263905E+01  0.24162368121E+04  0.24223737730E+04  0.17200000000E+03 0. -1.
         -6    1    1    2    0  502 -0.57191383681E+01 -0.88122263905E+01  0.11734307767E+03  0.20847964350E+03  0.17200000000E+03 0.  1.
</event>
<event>
 4    1 -0.6901648E-004  0.2271554E+03  0.7818608E-02  0.1128658E+00
          5   -1    0    0  501    0  0.00000000000E+00  0.00000000000E+00  0.31519064803E+02  0.31867561031E+02  0.47000000000E+01 0. -1.
         -5   -1    0    0    0  501 -0.00000000000E+00 -0.00000000000E+00 -0.22476834180E+04  0.22476883319E+04  0.47000000000E+01 0.  1.
          6    1    1    2  502    0  0.27290163669E+01  0.14835130535E+03 -0.50953934490E+03  0.55787982696E+03  0.17200000000E+03 0. -1.
         -6    1    1    2    0  502 -0.27290163669E+01 -0.14835130535E+03 -0.17066250083E+04  0.17216760660E+04  0.17200000000E+03 0.  1.
</event>
<event>
 4    1 -0.6901648E-004  0.1815118E+03  0.7818608E-02  0.1166348E+00
          5   -1    0    0  501    0  0.00000000000E+00  0.00000000000E+00  0.12048068538E+03  0.12057232497E+03  0.47000000000E+01 0. -1.
         -5   -1    0    0    0  501 -0.00000000000E+00 -0.00000000000E+00 -0.66760553233E+03  0.66762207632E+03  0.47000000000E+01 0.  1.
          6    1    1    2  502    0  0.57987384755E+02 -0.22644393664E-01  0.29304602509E+02  0.18386216857E+03  0.17200000000E+03 0. -1.
         -6    1    1    2    0  502 -0.57987384755E+02  0.22644393664E-01 -0.57642944946E+03  0.60433223272E+03  0.17200000000E+03 0.  1.
</event>
<event>
 4    1 -0.6901648E-004  0.2093648E+03  0.7818608E-02  0.1142070E+00
          5   -1    0    0  501    0  0.00000000000E+00  0.00000000000E+00  0.48542794949E+03  0.48545070207E+03  0.47000000000E+01 0. -1.
         -5   -1    0    0    0  501 -0.00000000000E+00 -0.00000000000E+00 -0.12501394715E+03  0.12510226610E+03  0.47000000000E+01 0.  1.
          6    1    1    2  502    0 -0.36387848829E+02  0.11369057701E+03  0.34119295786E+03  0.40030770332E+03  0.17200000000E+03 0. -1.
         -6    1    1    2    0  502  0.36387848829E+02 -0.11369057701E+03  0.19221044471E+02  0.21024526485E+03  0.17200000000E+03 0.  1.
</event>
<event>
 4    1 -0.6901648E-004  0.2410090E+03  0.7818608E-02  0.1119122E+00
         -5   -1    0    0    0  501 -0.00000000000E+00  0.00000000000E+00  0.93132038093E+02  0.93250557743E+02  0.47000000000E+01 0.  1.
          5   -1    0    0  501    0  0.00000000000E+00 -0.00000000000E+00 -0.14262206069E+04  0.14262283511E+04  0.47000000000E+01 0. -1.
          6    1    1    2  502    0 -0.10200818297E+03 -0.13452011878E+03 -0.12366093494E+04  0.12598761902E+04  0.17200000000E+03 0. -1.
         -6    1    1    2    0  502  0.10200818297E+03  0.13452011878E+03 -0.96479219465E+02  0.25960271867E+03  0.17200000000E+03 0.  1.
</event>
<event>
 4    1 -0.6901648E-004  0.3010443E+03  0.7818608E-02  0.1084720E+00
          5   -1    0    0  501    0  0.00000000000E+00  0.00000000000E+00  0.24691181337E+03  0.24695654189E+03  0.47000000000E+01 0. -1.
         -5   -1    0    0    0  501 -0.00000000000E+00 -0.00000000000E+00 -0.54642070637E+03  0.54644091936E+03  0.47000000000E+01 0.  1.
          6    1    1    2  502    0 -0.13728450852E+03  0.20541814935E+03  0.77579514268E+02  0.31087977322E+03  0.17200000000E+03 0. -1.
         -6    1    1    2    0  502  0.13728450852E+03 -0.20541814935E+03 -0.37708840727E+03  0.48251768803E+03  0.17200000000E+03 0.  1.
</event>
<event>
 4    1 -0.6901648E-004  0.2071531E+03  0.7818608E-02  0.1143840E+00
         -5   -1    0    0    0  501 -0.00000000000E+00  0.00000000000E+00  0.90972243809E+02  0.91093573559E+02  0.47000000000E+01 0.  1.
          5   -1    0    0  501    0  0.00000000000E+00 -0.00000000000E+00 -0.55016082784E+03  0.55018090342E+03  0.47000000000E+01 0. -1.
          6    1    1    2  502    0  0.12050822378E+02 -0.11481797322E+03 -0.35100308965E+03  0.40757276434E+03  0.17200000000E+03 0.  1.
         -6    1    1    2    0  502 -0.12050822378E+02  0.11481797322E+03 -0.10818549439E+03  0.23370171264E+03  0.17200000000E+03 0.  1.
</event>
<event>
 4    1 -0.6901648E-004  0.1765467E+03  0.7818608E-02  0.1171188E+00
          5   -1    0    0  501    0  0.00000000000E+00  0.00000000000E+00  0.19547561804E+03  0.19553211309E+03  0.47000000000E+01 0. -1.
         -5   -1    0    0    0  501 -0.00000000000E+00 -0.00000000000E+00 -0.50834838903E+03  0.50837011580E+03  0.47000000000E+01 0.  1.
          6    1    1    2  502    0  0.19251478736E+02  0.34844298719E+02  0.13515727877E+03  0.22234260633E+03  0.17200000000E+03 0. -1.
         -6    1    1    2    0  502 -0.19251478736E+02 -0.34844298719E+02 -0.44803004976E+03  0.48155962255E+03  0.17200000000E+03 0.  1.
</event>
<event>
 4    1 -0.6901648E-004  0.1893436E+03  0.7818608E-02  0.1159055E+00
         -5   -1    0    0    0  501 -0.00000000000E+00  0.00000000000E+00  0.56034556031E+03  0.56036527101E+03  0.47000000000E+01 0.  1.
          5   -1    0    0  501    0  0.00000000000E+00 -0.00000000000E+00 -0.17021137762E+03  0.17027625516E+03  0.47000000000E+01 0. -1.
          6    1    1    2  502    0  0.79071384156E+02  0.38362211897E+01 -0.93567573564E+02  0.21120106820E+03  0.17200000000E+03 0. -1.
         -6    1    1    2    0  502 -0.79071384156E+02 -0.38362211897E+01  0.48370175625E+03  0.51944045798E+03  0.17200000000E+03 0.  1.
</event>
<event>
 4    1 -0.6901648E-004  0.1722082E+03  0.7818608E-02  0.1175564E+00
          5   -1    0    0  501    0  0.00000000000E+00  0.00000000000E+00  0.66402851143E+03  0.66404514454E+03  0.47000000000E+01 0. -1.
         -5   -1    0    0    0  501 -0.00000000000E+00 -0.00000000000E+00 -0.66378694378E+02  0.66544880099E+02  0.47000000000E+01 0.  1.
          6    1    1    2  502    0  0.84352321998E+01 -0.71290194459E+00  0.50810041605E+03  0.53649016222E+03  0.17200000000E+03 0. -1.
         -6    1    1    2    0  502 -0.84352321998E+01  0.71290194459E+00  0.89549401001E+02  0.19409986242E+03  0.17200000000E+03 0.  1.
</event>
<event>
 4    1 -0.6901648E-004  0.1955322E+03  0.7818608E-02  0.1153564E+00
         -5   -1    0    0    0  501 -0.00000000000E+00  0.00000000000E+00  0.78148596800E+03  0.78150010120E+03  0.47000000000E+01 0.  1.
          5   -1    0    0  501    0  0.00000000000E+00 -0.00000000000E+00 -0.42971562923E+03  0.42974133151E+03  0.47000000000E+01 0. -1.
          6    1    1    2  502    0  0.41332005954E+02  0.83309627172E+02 -0.39422170703E+03  0.44004952334E+03  0.17200000000E+03 0. -1.
         -6    1    1    2    0  502 -0.41332005954E+02 -0.83309627172E+02  0.74599204579E+03  0.77119190937E+03  0.17200000000E+03 0.  1.
</event>
<event>
 4    1 -0.6901648E-004  0.1744027E+03  0.7818608E-02  0.1173333E+00
         -5   -1    0    0    0  501 -0.00000000000E+00  0.00000000000E+00  0.22182620455E+04  0.22182670246E+04  0.47000000000E+01 0.  1.
          5   -1    0    0  501    0  0.00000000000E+00 -0.00000000000E+00 -0.10708029217E+03  0.10718338943E+03  0.47000000000E+01 0. -1.
          6    1    1    2  502    0  0.15660158826E+02 -0.24229466176E+02 -0.30183049108E+02  0.17699526564E+03  0.17200000000E+03 0. -1.
         -6    1    1    2    0  502 -0.15660158826E+02  0.24229466176E+02  0.21413648024E+04  0.21484551484E+04  0.17200000000E+03 0.  1.
</event>
<event>
 4    1 -0.6901648E-004  0.2434575E+03  0.7818608E-02  0.1117511E+00
          5   -1    0    0  501    0  0.00000000000E+00  0.00000000000E+00  0.15153621532E+03  0.15160908466E+03  0.47000000000E+01 0. -1.
         -5   -1    0    0    0  501 -0.00000000000E+00 -0.00000000000E+00 -0.39516467607E+03  0.39519262546E+03  0.47000000000E+01 0.  1.
          6    1    1    2  502    0  0.16240551560E+03  0.57549791990E+02 -0.93604964466E+02  0.26083216717E+03  0.17200000000E+03 0.  1.
         -6    1    1    2    0  502 -0.16240551560E+03 -0.57549791990E+02 -0.15002349629E+03  0.28596954295E+03  0.17200000000E+03 0.  1.
</event>
<event>
 4    1 -0.6901648E-004  0.1857927E+03  0.7818608E-02  0.1162312E+00
         -5   -1    0    0    0  501 -0.00000000000E+00  0.00000000000E+00  0.22050454951E+03  0.22055463349E+03  0.47000000000E+01 0.  1.
          5   -1    0    0  501    0  0.00000000000E+00 -0.00000000000E+00 -0.20981171292E+03  0.20986434876E+03  0.47000000000E+01 0. -1.
          6    1    1    2  502    0  0.57687756756E+01 -0.70011905550E+02 -0.10316561907E+03  0.21251374226E+03  0.17200000000E+03 0. -1.
         -6    1    1    2    0  502 -0.57687756756E+01  0.70011905550E+02  0.11385845566E+03  0.21790523999E+03  0.17200000000E+03 0.  1.
</event>
