<event>
 4    1  0.4440728E+000  0.2098676E+03  0.7818608E-02  0.1141671E+00
         21   -1    0    0  501  502  0.00000000000E+00  0.00000000000E+00  0.34208503648E+03  0.34208503648E+03  0.00000000000E+00 0.  1.
         21   -1    0    0  502  503 -0.00000000000E+00 -0.00000000000E+00 -0.12876593178E+03  0.12876593178E+03  0.00000000000E+00 0.  1.
          6    1    1    2  501    0 -0.10174105326E+03  0.64102772009E+02  0.10428235232E+03  0.23434849328E+03  0.17200000000E+03 0. -1.
         -6    1    1    2    0  503  0.10174105326E+03 -0.64102772009E+02  0.10903675238E+03  0.23650247497E+03  0.17200000000E+03 0. -1.
</event>
<event>
 4    1  0.4440728E+000  0.1760688E+03  0.7818608E-02  0.1171663E+00
         21   -1    0    0  501  502  0.00000000000E+00  0.00000000000E+00  0.60979962481E+03  0.60979962481E+03  0.00000000000E+00 0.  1.
         21   -1    0    0  502  503 -0.00000000000E+00 -0.00000000000E+00 -0.54173590861E+02  0.54173590861E+02  0.00000000000E+00 0. -1.
          6    1    1    2  501    0 -0.26072195673E+02  0.27138068077E+02  0.36020674910E+03  0.40093532673E+03  0.17200000000E+03 0. -1.
         -6    1    1    2    0  503  0.26072195673E+02 -0.27138068077E+02  0.19541928485E+03  0.26303788894E+03  0.17200000000E+03 0. -1.
</event>
<event>
 4    1  0.4440728E+000  0.1956967E+03  0.7818608E-02  0.1153421E+00
         21   -1    0    0  503  502  0.00000000000E+00  0.00000000000E+00  0.83251663754E+02  0.83251663754E+02  0.00000000000E+00 0.  1.
         21   -1    0    0  501  503 -0.00000000000E+00 -0.00000000000E+00 -0.63351243496E+03  0.63351243496E+03  0.00000000000E+00 0.  1.
          6    1    1    2  501    0  0.89962259379E+02 -0.24899953331E+02 -0.46267827182E+03  0.50236281610E+03  0.17200000000E+03 0. -1.
         -6    1    1    2    0  502 -0.89962259379E+02  0.24899953331E+02 -0.87582499394E+02  0.21440128262E+03  0.17200000000E+03 0. -1.
</event>
<event>
 4    1  0.4440728E+000  0.2491017E+03  0.7818608E-02  0.1113874E+00
         21   -1    0    0  503  502  0.00000000000E+00  0.00000000000E+00  0.80297083437E+03  0.80297083437E+03  0.00000000000E+00 0.  1.
         21   -1    0    0  501  503 -0.00000000000E+00 -0.00000000000E+00 -0.10524836928E+03  0.10524836928E+03  0.00000000000E+00 0. -1.
          6    1    1    2  501    0  0.13949410360E+03  0.11405727741E+03  0.11475923463E+03  0.27426510789E+03  0.17200000000E+03 0. -1.
         -6    1    1    2    0  502 -0.13949410360E+03 -0.11405727741E+03  0.58296323045E+03  0.63395409576E+03  0.17200000000E+03 0.  1.
</event>
<event>
 4    1  0.4440728E+000  0.2257710E+03  0.7818608E-02  0.1129652E+00
         21   -1    0    0  501  502  0.00000000000E+00  0.00000000000E+00  0.44446844362E+02  0.44446844362E+02  0.00000000000E+00 0. -1.
         21   -1    0    0  502  503 -0.00000000000E+00 -0.00000000000E+00 -0.20811509069E+04  0.20811509069E+04  0.00000000000E+00 0. -1.
          6    1    1    2  501    0  0.71809362129E+02  0.12740474842E+03 -0.30623802107E+03  0.38046587226E+03  0.17200000000E+03 0. -1.
         -6    1    1    2    0  503 -0.71809362129E+02 -0.12740474842E+03 -0.17304660414E+04  0.17451318790E+04  0.17200000000E+03 0. -1.
</event>
<event>
 4    1  0.4440728E+000  0.3417002E+03  0.7818608E-02  0.1066074E+00
         21   -1    0    0  503  502  0.00000000000E+00  0.00000000000E+00  0.36539686814E+03  0.36539686814E+03  0.00000000000E+00 0. -1.
         21   -1    0    0  501  503 -0.00000000000E+00 -0.00000000000E+00 -0.34584163499E+03  0.34584163499E+03  0.00000000000E+00 0. -1.
          6    1    1    2  501    0 -0.27751730223E+03 -0.10079275904E+03 -0.88292192845E+02  0.35292285931E+03  0.17200000000E+03 0. -1.
         -6    1    1    2    0  502  0.27751730223E+03  0.10079275904E+03  0.10784742600E+03  0.35831564382E+03  0.17200000000E+03 0. -1.
</event>
<event>
 4    1  0.4440728E+000  0.1827555E+03  0.7818608E-02  0.1165163E+00
         21   -1    0    0  501  502  0.00000000000E+00  0.00000000000E+00  0.40859228861E+03  0.40859228861E+03  0.00000000000E+00 0. -1.
         21   -1    0    0  502  503 -0.00000000000E+00 -0.00000000000E+00 -0.92101670165E+02  0.92101670165E+02  0.00000000000E+00 0. -1.
          6    1    1    2  501    0 -0.13183322635E+02  0.60347181849E+02  0.24220279607E+03  0.30341683667E+03  0.17200000000E+03 0. -1.
         -6    1    1    2    0  503  0.13183322635E+02 -0.60347181849E+02  0.74287822382E+02  0.19727712211E+03  0.17200000000E+03 0. -1.
</event>
<event>
 4    1  0.4440728E+000  0.1965526E+03  0.7818608E-02  0.1152681E+00
         21   -1    0    0  501  502  0.00000000000E+00  0.00000000000E+00  0.37792857381E+03  0.37792857381E+03  0.00000000000E+00 0. -1.
         21   -1    0    0  502  503 -0.00000000000E+00 -0.00000000000E+00 -0.30630756598E+03  0.30630756598E+03  0.00000000000E+00 0. -1.
          6    1    1    2  501    0 -0.54425120051E+02  0.78018083325E+02  0.31506646380E+03  0.37134861200E+03  0.17200000000E+03 0. -1.
         -6    1    1    2    0  503  0.54425120051E+02 -0.78018083325E+02 -0.24344545597E+03  0.31288752780E+03  0.17200000000E+03 0. -1.
</event>
<event>
 4    1  0.4440728E+000  0.2088598E+03  0.7818608E-02  0.1142472E+00
         21   -1    0    0  503  502  0.00000000000E+00  0.00000000000E+00  0.11452947575E+03  0.11452947575E+03  0.00000000000E+00 0. -1.
         21   -1    0    0  501  503 -0.00000000000E+00 -0.00000000000E+00 -0.76152757585E+03  0.76152757585E+03  0.00000000000E+00 0.  1.
          6    1    1    2  501    0 -0.10908485394E+03  0.46248552285E+02 -0.63318313247E+03  0.66674081410E+03  0.17200000000E+03 0.  1.
         -6    1    1    2    0  502  0.10908485394E+03 -0.46248552285E+02 -0.13814967633E+02  0.20931623750E+03  0.17200000000E+03 0. -1.
</event>
<event>
 4    1  0.4440728E+000  0.3096656E+03  0.7818608E-02  0.1080506E+00
         21   -1    0    0  503  502  0.00000000000E+00  0.00000000000E+00  0.42482528302E+02  0.42482528302E+02  0.00000000000E+00 0. -1.
         21   -1    0    0  501  503 -0.00000000000E+00 -0.00000000000E+00 -0.24329455233E+04  0.24329455233E+04  0.00000000000E+00 0. -1.
          6    1    1    2  501    0  0.21334913343E+03 -0.14419068971E+03 -0.15278604491E+04  0.15589260276E+04  0.17200000000E+03 0. -1.
         -6    1    1    2    0  502 -0.21334913343E+03  0.14419068971E+03 -0.86260254594E+03  0.91650202400E+03  0.17200000000E+03 0. -1.
</event>
<event>
 4    1  0.4440728E+000  0.1827220E+03  0.7818608E-02  0.1165194E+00
         21   -1    0    0  501  502  0.00000000000E+00  0.00000000000E+00  0.21316947972E+03  0.21316947972E+03  0.00000000000E+00 0. -1.
         21   -1    0    0  502  503 -0.00000000000E+00 -0.00000000000E+00 -0.20017171127E+03  0.20017171127E+03  0.00000000000E+00 0.  1.
          6    1    1    2  501    0 -0.48249151832E+01 -0.61482004100E+02  0.10289583157E+03  0.20970185690E+03  0.17200000000E+03 0. -1.
         -6    1    1    2    0  503  0.48249151832E+01  0.61482004100E+02 -0.89898063125E+02  0.20363933409E+03  0.17200000000E+03 0.  1.
</event>
<event>
 4    1  0.4440728E+000  0.2062206E+03  0.7818608E-02  0.1144594E+00
         21   -1    0    0  503  502  0.00000000000E+00  0.00000000000E+00  0.74134892549E+03  0.74134892549E+03  0.00000000000E+00 0.  1.
         21   -1    0    0  501  503 -0.00000000000E+00 -0.00000000000E+00 -0.58615281459E+02  0.58615281459E+02  0.00000000000E+00 0.  1.
          6    1    1    2  501    0 -0.53808040679E+02  0.10023791894E+03  0.28293298031E+03  0.35011143509E+03  0.17200000000E+03 0.  1.
         -6    1    1    2    0  502  0.53808040679E+02 -0.10023791894E+03  0.39980066372E+03  0.44985277185E+03  0.17200000000E+03 0.  1.
</event>
<event>
 4    1  0.4440728E+000  0.1805065E+03  0.7818608E-02  0.1167314E+00
         21   -1    0    0  501  502  0.00000000000E+00  0.00000000000E+00  0.43610038448E+03  0.43610038448E+03  0.00000000000E+00 0.  1.
         21   -1    0    0  502  503 -0.00000000000E+00 -0.00000000000E+00 -0.16060870491E+03  0.16060870491E+03  0.00000000000E+00 0.  1.
          6    1    1    2  501    0  0.11263078012E+01 -0.54747761916E+02  0.35593470221E+03  0.39908908560E+03  0.17200000000E+03 0.  1.
         -6    1    1    2    0  503 -0.11263078012E+01  0.54747761916E+02 -0.80443022647E+02  0.19762000379E+03  0.17200000000E+03 0.  1.
</event>
<event>
 4    1  0.4440728E+000  0.3288931E+03  0.7818608E-02  0.1071628E+00
         21   -1    0    0  503  502  0.00000000000E+00  0.00000000000E+00  0.23951026474E+04  0.23951026474E+04  0.00000000000E+00 0. -1.
         21   -1    0    0  501  503 -0.00000000000E+00 -0.00000000000E+00 -0.13491009497E+03  0.13491009497E+03  0.00000000000E+00 0. -1.
          6    1    1    2  501    0  0.69109524722E+02  0.27168098179E+03  0.98333107665E+02  0.34327843267E+03  0.17200000000E+03 0. -1.
         -6    1    1    2    0  502 -0.69109524722E+02 -0.27168098179E+03  0.21618594447E+04  0.21867343097E+04  0.17200000000E+03 0. -1.
</event>
<event>
 4    1  0.4440728E+000  0.1945525E+03  0.7818608E-02  0.1154418E+00
         21   -1    0    0  503  502  0.00000000000E+00  0.00000000000E+00  0.71888554380E+02  0.71888554380E+02  0.00000000000E+00 0. -1.
         21   -1    0    0  501  503 -0.00000000000E+00 -0.00000000000E+00 -0.55817519309E+03  0.55817519309E+03  0.00000000000E+00 0.  1.
          6    1    1    2  501    0  0.15860207862E+01 -0.90907511067E+02 -0.31816701489E+03  0.37293557137E+03  0.17200000000E+03 0.  1.
         -6    1    1    2    0  502 -0.15860207862E+01  0.90907511067E+02 -0.16811962382E+03  0.25712817610E+03  0.17200000000E+03 0.  1.
</event>
<event>
 4    1  0.4440728E+000  0.1855292E+03  0.7818608E-02  0.1162557E+00
         21   -1    0    0  503  502  0.00000000000E+00  0.00000000000E+00  0.99047450786E+02  0.99047450786E+02  0.00000000000E+00 0. -1.
         21   -1    0    0  501  503 -0.00000000000E+00 -0.00000000000E+00 -0.35301028054E+03  0.35301028054E+03  0.00000000000E+00 0.  1.
          6    1    1    2  501    0  0.25491553499E+02  0.64709163966E+02 -0.15516638219E+03  0.24186298056E+03  0.17200000000E+03 0. -1.
         -6    1    1    2    0  502 -0.25491553499E+02 -0.64709163966E+02 -0.98796447568E+02  0.21019475077E+03  0.17200000000E+03 0.  1.
</event>
<event>
 4    1  0.4440728E+000  0.1893581E+03  0.7818608E-02  0.1159042E+00
         21   -1    0    0  503  502  0.00000000000E+00  0.00000000000E+00  0.55868327926E+02  0.55868327926E+02  0.00000000000E+00 0. -1.
         21   -1    0    0  501  503 -0.00000000000E+00 -0.00000000000E+00 -0.66475482124E+03  0.66475482124E+03  0.00000000000E+00 0.  1.
          6    1    1    2  501    0 -0.78806285584E+02  0.78777107436E+01 -0.37139334428E+03  0.41688068455E+03  0.17200000000E+03 0.  1.
         -6    1    1    2    0  502  0.78806285584E+02 -0.78777107436E+01 -0.23749314903E+03  0.30374246462E+03  0.17200000000E+03 0. -1.
</event>
<event>
 4    1  0.4440728E+000  0.2374516E+03  0.7818608E-02  0.1121502E+00
         21   -1    0    0  501  502  0.00000000000E+00  0.00000000000E+00  0.11007301863E+04  0.11007301863E+04  0.00000000000E+00 0.  1.
         21   -1    0    0  502  503 -0.00000000000E+00 -0.00000000000E+00 -0.88440257624E+03  0.88440257624E+03  0.00000000000E+00 0.  1.
          6    1    1    2  501    0  0.13841402222E+03 -0.87411716986E+02  0.10715573675E+04  0.10975511112E+04  0.17200000000E+03 0.  1.
         -6    1    1    2    0  503 -0.13841402222E+03  0.87411716986E+02 -0.85522975744E+03  0.88758165135E+03  0.17200000000E+03 0.  1.
</event>
<event>
 4    1  0.4440728E+000  0.2181894E+03  0.7818608E-02  0.1135240E+00
         21   -1    0    0  501  502  0.00000000000E+00  0.00000000000E+00  0.85409935746E+02  0.85409935746E+02  0.00000000000E+00 0. -1.
         21   -1    0    0  502  503 -0.00000000000E+00 -0.00000000000E+00 -0.85410744483E+03  0.85410744483E+03  0.00000000000E+00 0.  1.
          6    1    1    2  501    0 -0.50928023273E+02  0.12421330163E+03 -0.10746949810E+03  0.24322068349E+03  0.17200000000E+03 0. -1.
         -6    1    1    2    0  503  0.50928023273E+02 -0.12421330163E+03 -0.66122801099E+03  0.69629669709E+03  0.17200000000E+03 0.  1.
</event>
<event>
 4    1  0.4440728E+000  0.2230227E+03  0.7818608E-02  0.1131649E+00
         21   -1    0    0  501  502  0.00000000000E+00  0.00000000000E+00  0.80597614025E+03  0.80597614025E+03  0.00000000000E+00 0. -1.
         21   -1    0    0  502  503 -0.00000000000E+00 -0.00000000000E+00 -0.95674421810E+02  0.95674421810E+02  0.00000000000E+00 0. -1.
          6    1    1    2  501    0  0.77635951634E+02 -0.11886040017E+03  0.62374950877E+03  0.66242175795E+03  0.17200000000E+03 0. -1.
         -6    1    1    2    0  503 -0.77635951634E+02  0.11886040017E+03  0.86552209667E+02  0.23922880411E+03  0.17200000000E+03 0. -1.
</event>
<event>
 4    1  0.4440728E+000  0.1769835E+03  0.7818608E-02  0.1170755E+00
         21   -1    0    0  501  502  0.00000000000E+00  0.00000000000E+00  0.97944346895E+02  0.97944346895E+02  0.00000000000E+00 0.  1.
         21   -1    0    0  502  503 -0.00000000000E+00 -0.00000000000E+00 -0.43569727653E+03  0.43569727653E+03  0.00000000000E+00 0.  1.
          6    1    1    2  501    0  0.39686276539E+02 -0.12813088283E+02 -0.31265537945E+02  0.17972398182E+03  0.17200000000E+03 0.  1.
         -6    1    1    2    0  503 -0.39686276539E+02  0.12813088283E+02 -0.30648739169E+03  0.35391764161E+03  0.17200000000E+03 0.  1.
</event>
<event>
 4    1  0.4440728E+000  0.2137829E+03  0.7818608E-02  0.1138605E+00
         21   -1    0    0  503  502  0.00000000000E+00  0.00000000000E+00  0.81120561074E+03  0.81120561074E+03  0.00000000000E+00 0. -1.
         21   -1    0    0  501  503 -0.00000000000E+00 -0.00000000000E+00 -0.28767683207E+03  0.28767683207E+03  0.00000000000E+00 0. -1.
          6    1    1    2  501    0  0.65963678010E+02 -0.10848002606E+03 -0.23094565973E+03  0.31470465617E+03  0.17200000000E+03 0. -1.
         -6    1    1    2    0  502 -0.65963678010E+02  0.10848002606E+03  0.75447443840E+03  0.78417778664E+03  0.17200000000E+03 0. -1.
</event>
<event>
 4    1  0.4440728E+000  0.2178779E+03  0.7818608E-02  0.1135475E+00
         21   -1    0    0  501  502  0.00000000000E+00  0.00000000000E+00  0.14500644694E+04  0.14500644694E+04  0.00000000000E+00 0. -1.
         21   -1    0    0  502  503 -0.00000000000E+00 -0.00000000000E+00 -0.41703818138E+02  0.41703818138E+02  0.00000000000E+00 0. -1.
          6    1    1    2  501    0 -0.80090865694E+02 -0.10710857850E+03  0.10500417151E+04  0.10724077573E+04  0.17200000000E+03 0. -1.
         -6    1    1    2    0  503  0.80090865694E+02  0.10710857850E+03  0.35831893617E+03  0.41936053030E+03  0.17200000000E+03 0. -1.
</event>
<event>
 4    1  0.4440728E+000  0.2386315E+03  0.7818608E-02  0.1120708E+00
         21   -1    0    0  501  502  0.00000000000E+00  0.00000000000E+00  0.10995166228E+03  0.10995166228E+03  0.00000000000E+00 0. -1.
         21   -1    0    0  502  503 -0.00000000000E+00 -0.00000000000E+00 -0.58844715304E+03  0.58844715304E+03  0.00000000000E+00 0.  1.
          6    1    1    2  501    0  0.51119761201E+02  0.15731414401E+03 -0.11834632497E+03  0.26636595602E+03  0.17200000000E+03 0. -1.
         -6    1    1    2    0  503 -0.51119761201E+02 -0.15731414401E+03 -0.36014916579E+03  0.43203285930E+03  0.17200000000E+03 0.  1.
</event>
<event>
 4    1  0.4440728E+000  0.1869602E+03  0.7818608E-02  0.1161232E+00
         21   -1    0    0  501  502  0.00000000000E+00  0.00000000000E+00  0.36952458827E+03  0.36952458827E+03  0.00000000000E+00 0.  1.
         21   -1    0    0  502  503 -0.00000000000E+00 -0.00000000000E+00 -0.10654298266E+03  0.10654298266E+03  0.00000000000E+00 0.  1.
          6    1    1    2  501    0  0.50889587894E+02  0.52729235134E+02  0.21121229199E+03  0.28207225081E+03  0.17200000000E+03 0.  1.
         -6    1    1    2    0  503 -0.50889587894E+02 -0.52729235134E+02  0.51769313624E+02  0.19399532012E+03  0.17200000000E+03 0.  1.
</event>
<event>
 4    1  0.4440728E+000  0.1993571E+03  0.7818608E-02  0.1150283E+00
         21   -1    0    0  503  502  0.00000000000E+00  0.00000000000E+00  0.49310814244E+03  0.49310814244E+03  0.00000000000E+00 0. -1.
         21   -1    0    0  501  503 -0.00000000000E+00 -0.00000000000E+00 -0.24280049530E+03  0.24280049530E+03  0.00000000000E+00 0.  1.
          6    1    1    2  501    0 -0.99502708756E+02 -0.16076430549E+02 -0.17559135378E+03  0.26566061844E+03  0.17200000000E+03 0.  1.
         -6    1    1    2    0  502  0.99502708756E+02  0.16076430549E+02  0.42589900092E+03  0.47024801929E+03  0.17200000000E+03 0. -1.
</event>
<event>
 4    1  0.4440728E+000  0.2023845E+03  0.7818608E-02  0.1147743E+00
         21   -1    0    0  503  502  0.00000000000E+00  0.00000000000E+00  0.65041204711E+03  0.65041204711E+03  0.00000000000E+00 0. -1.
         21   -1    0    0  501  503 -0.00000000000E+00 -0.00000000000E+00 -0.21246897244E+03  0.21246897244E+03  0.00000000000E+00 0. -1.
          6    1    1    2  501    0  0.10210150113E+03  0.30834686828E+02 -0.14292585927E+03  0.24776459734E+03  0.17200000000E+03 0. -1.
         -6    1    1    2    0  502 -0.10210150113E+03 -0.30834686828E+02  0.58086893395E+03  0.61511642221E+03  0.17200000000E+03 0. -1.
</event>
<event>
 4    1  0.4440728E+000  0.1944998E+03  0.7818608E-02  0.1154464E+00
         21   -1    0    0  501  502  0.00000000000E+00  0.00000000000E+00  0.19213745421E+03  0.19213745421E+03  0.00000000000E+00 0. -1.
         21   -1    0    0  502  503 -0.00000000000E+00 -0.00000000000E+00 -0.22312449546E+03  0.22312449546E+03  0.00000000000E+00 0. -1.
          6    1    1    2  501    0  0.97232433293E+01  0.90286334717E+02  0.55700805426E+02  0.20231842087E+03  0.17200000000E+03 0. -1.
         -6    1    1    2    0  503 -0.97232433293E+01 -0.90286334717E+02 -0.86687846682E+02  0.21294352880E+03  0.17200000000E+03 0. -1.
</event>
<event>
 4    1  0.4440728E+000  0.3404107E+03  0.7818608E-02  0.1066621E+00
         21   -1    0    0  503  502  0.00000000000E+00  0.00000000000E+00  0.38324558461E+03  0.38324558461E+03  0.00000000000E+00 0. -1.
         21   -1    0    0  501  503 -0.00000000000E+00 -0.00000000000E+00 -0.40536993873E+03  0.40536993873E+03  0.00000000000E+00 0.  1.
          6    1    1    2  501    0  0.16133962582E+03 -0.24548920790E+03 -0.20982814092E+03  0.39988407667E+03  0.17200000000E+03 0.  1.
         -6    1    1    2    0  502 -0.16133962582E+03  0.24548920790E+03  0.18770378680E+03  0.38873144667E+03  0.17200000000E+03 0. -1.
</event>
<event>
 4    1  0.4440728E+000  0.2119132E+03  0.7818608E-02  0.1140060E+00
         21   -1    0    0  501  502  0.00000000000E+00  0.00000000000E+00  0.47948958877E+03  0.47948958877E+03  0.00000000000E+00 0.  1.
         21   -1    0    0  502  503 -0.00000000000E+00 -0.00000000000E+00 -0.10155130861E+03  0.10155130861E+03  0.00000000000E+00 0. -1.
          6    1    1    2  501    0 -0.78456042891E+02 -0.95748944943E+02  0.10796433121E+03  0.23783083891E+03  0.17200000000E+03 0.  1.
         -6    1    1    2    0  503  0.78456042891E+02  0.95748944943E+02  0.26997394894E+03  0.34321005846E+03  0.17200000000E+03 0.  1.
</event>
<event>
 4    1  0.4440728E+000  0.1923543E+03  0.7818608E-02  0.1156355E+00
         21   -1    0    0  501  502  0.00000000000E+00  0.00000000000E+00  0.51304089177E+03  0.51304089177E+03  0.00000000000E+00 0. -1.
         21   -1    0    0  502  503 -0.00000000000E+00 -0.00000000000E+00 -0.86973982294E+02  0.86973982294E+02  0.00000000000E+00 0. -1.
          6    1    1    2  501    0 -0.85377930465E+02  0.11260677042E+02  0.33701806375E+03  0.38804815313E+03  0.17200000000E+03 0. -1.
         -6    1    1    2    0  503  0.85377930465E+02 -0.11260677042E+02  0.89048845734E+02  0.21196672094E+03  0.17200000000E+03 0. -1.
</event>
<event>
 4    1  0.4440728E+000  0.2083406E+03  0.7818608E-02  0.1142887E+00
         21   -1    0    0  501  502  0.00000000000E+00  0.00000000000E+00  0.56722497513E+03  0.56722497513E+03  0.00000000000E+00 0. -1.
         21   -1    0    0  502  503 -0.00000000000E+00 -0.00000000000E+00 -0.38162624227E+03  0.38162624227E+03  0.00000000000E+00 0. -1.
          6    1    1    2  501    0 -0.10961207582E+03 -0.42509025714E+02  0.51700099791E+03  0.55740098338E+03  0.17200000000E+03 0. -1.
         -6    1    1    2    0  503  0.10961207582E+03  0.42509025714E+02 -0.33140226505E+03  0.39145023402E+03  0.17200000000E+03 0. -1.
</event>
<event>
 4    1  0.4440728E+000  0.2023644E+03  0.7818608E-02  0.1147759E+00
         21   -1    0    0  501  502  0.00000000000E+00  0.00000000000E+00  0.86029702514E+02  0.86029702514E+02  0.00000000000E+00 0.  1.
         21   -1    0    0  502  503 -0.00000000000E+00 -0.00000000000E+00 -0.77881467293E+03  0.77881467293E+03  0.00000000000E+00 0.  1.
          6    1    1    2  501    0 -0.37804028277E+02 -0.99690509602E+02 -0.76761791097E+02  0.21643408888E+03  0.17200000000E+03 0.  1.
         -6    1    1    2    0  503  0.37804028277E+02  0.99690509602E+02 -0.61602317931E+03  0.64841028656E+03  0.17200000000E+03 0.  1.
</event>
<event>
 4    1  0.4440728E+000  0.3346451E+03  0.7818608E-02  0.1069100E+00
         21   -1    0    0  503  502  0.00000000000E+00  0.00000000000E+00  0.84319817548E+03  0.84319817548E+03  0.00000000000E+00 0.  1.
         21   -1    0    0  501  503 -0.00000000000E+00 -0.00000000000E+00 -0.16984972422E+03  0.16984972422E+03  0.00000000000E+00 0.  1.
          6    1    1    2  501    0  0.17179192641E+03 -0.22998010759E+03  0.10014414895E+03  0.34930812536E+03  0.17200000000E+03 0.  1.
         -6    1    1    2    0  502 -0.17179192641E+03  0.22998010759E+03  0.57320430231E+03  0.66373977435E+03  0.17200000000E+03 0.  1.
</event>
<event>
 4    1  0.4440728E+000  0.1767153E+03  0.7818608E-02  0.1171020E+00
         21   -1    0    0  501  502  0.00000000000E+00  0.00000000000E+00  0.18426996684E+04  0.18426996684E+04  0.00000000000E+00 0. -1.
         21   -1    0    0  502  503 -0.00000000000E+00 -0.00000000000E+00 -0.49447611460E+02  0.49447611460E+02  0.00000000000E+00 0. -1.
          6    1    1    2  501    0 -0.84052885529E+01  0.39669445619E+02  0.16636302420E+04  0.16729895086E+04  0.17200000000E+03 0. -1.
         -6    1    1    2    0  503  0.84052885529E+01 -0.39669445619E+02  0.12962181492E+03  0.21915777124E+03  0.17200000000E+03 0. -1.
</event>
<event>
 4    1  0.4440728E+000  0.1760174E+03  0.7818608E-02  0.1171714E+00
         21   -1    0    0  503  502  0.00000000000E+00  0.00000000000E+00  0.84819372194E+02  0.84819372194E+02  0.00000000000E+00 0. -1.
         21   -1    0    0  501  503 -0.00000000000E+00 -0.00000000000E+00 -0.42523024710E+03  0.42523024710E+03  0.00000000000E+00 0.  1.
          6    1    1    2  501    0 -0.37312927191E+02  0.24239705447E+01 -0.26596790203E+03  0.31893738426E+03  0.17200000000E+03 0.  1.
         -6    1    1    2    0  502  0.37312927191E+02 -0.24239705447E+01 -0.74442972878E+02  0.19111223503E+03  0.17200000000E+03 0. -1.
</event>
<event>
 4    1  0.4440728E+000  0.3962169E+03  0.7818608E-02  0.1045098E+00
         21   -1    0    0  501  502  0.00000000000E+00  0.00000000000E+00  0.47599392364E+03  0.47599392364E+03  0.00000000000E+00 0. -1.
         21   -1    0    0  502  503 -0.00000000000E+00 -0.00000000000E+00 -0.33297957411E+03  0.33297957411E+03  0.00000000000E+00 0.  1.
          6    1    1    2  501    0  0.11158704380E+03  0.33904590906E+03  0.11096755723E+03  0.41146275111E+03  0.17200000000E+03 0.  1.
         -6    1    1    2    0  503 -0.11158704380E+03 -0.33904590906E+03  0.32046792301E+02  0.39751074663E+03  0.17200000000E+03 0. -1.
</event>
<event>
 4    1  0.4440728E+000  0.2485499E+03  0.7818608E-02  0.1114225E+00
         21   -1    0    0  503  502  0.00000000000E+00  0.00000000000E+00  0.11139578298E+04  0.11139578298E+04  0.00000000000E+00 0.  1.
         21   -1    0    0  501  503 -0.00000000000E+00 -0.00000000000E+00 -0.58300864394E+02  0.58300864394E+02  0.00000000000E+00 0.  1.
          6    1    1    2  501    0 -0.12726813061E+02  0.17897223665E+03  0.39838158800E+03  0.46955822101E+03  0.17200000000E+03 0.  1.
         -6    1    1    2    0  502  0.12726813061E+02 -0.17897223665E+03  0.65727537738E+03  0.70270047315E+03  0.17200000000E+03 0.  1.
</event>
<event>
 4    1  0.4440728E+000  0.2240967E+03  0.7818608E-02  0.1130865E+00
         21   -1    0    0  501  502  0.00000000000E+00  0.00000000000E+00  0.64874785382E+03  0.64874785382E+03  0.00000000000E+00 0.  1.
         21   -1    0    0  502  503 -0.00000000000E+00 -0.00000000000E+00 -0.12351240634E+03  0.12351240634E+03  0.00000000000E+00 0.  1.
          6    1    1    2  501    0  0.68364640671E+02 -0.12633931557E+03  0.49852526690E+03  0.54657733990E+03  0.17200000000E+03 0.  1.
         -6    1    1    2    0  503 -0.68364640671E+02  0.12633931557E+03  0.26710180577E+02  0.22568292027E+03  0.17200000000E+03 0.  1.
</event>
<event>
 4    1  0.4440728E+000  0.2108183E+03  0.7818608E-02  0.1140920E+00
         21   -1    0    0  503  502  0.00000000000E+00  0.00000000000E+00  0.17606537116E+04  0.17606537116E+04  0.00000000000E+00 0. -1.
         21   -1    0    0  501  503 -0.00000000000E+00 -0.00000000000E+00 -0.30045639931E+02  0.30045639931E+02  0.00000000000E+00 0. -1.
          6    1    1    2  501    0 -0.11719574614E+03 -0.33548379930E+02  0.50734116450E+03  0.54939912077E+03  0.17200000000E+03 0. -1.
         -6    1    1    2    0  502  0.11719574614E+03  0.33548379930E+02  0.12232669072E+04  0.12413002307E+04  0.17200000000E+03 0. -1.
</event>
<event>
 4    1  0.4440728E+000  0.2531393E+03  0.7818608E-02  0.1111337E+00
         21   -1    0    0  501  502  0.00000000000E+00  0.00000000000E+00  0.23715591233E+03  0.23715591233E+03  0.00000000000E+00 0. -1.
         21   -1    0    0  502  503 -0.00000000000E+00 -0.00000000000E+00 -0.28039242558E+03  0.28039242558E+03  0.00000000000E+00 0.  1.
          6    1    1    2  501    0  0.12572511694E+03 -0.13670659397E+03 -0.70955993166E+02  0.26289589352E+03  0.17200000000E+03 0.  1.
         -6    1    1    2    0  503 -0.12572511694E+03  0.13670659397E+03  0.27719479918E+02  0.25465244439E+03  0.17200000000E+03 0. -1.
</event>
<event>
 4    1  0.4440728E+000  0.1895344E+03  0.7818608E-02  0.1158882E+00
         21   -1    0    0  501  502  0.00000000000E+00  0.00000000000E+00  0.14328803662E+03  0.14328803662E+03  0.00000000000E+00 0.  1.
         21   -1    0    0  502  503 -0.00000000000E+00 -0.00000000000E+00 -0.35038120520E+03  0.35038120520E+03  0.00000000000E+00 0. -1.
          6    1    1    2  501    0 -0.62688391937E+02  0.49086351291E+02  0.28105338532E+02  0.19160692686E+03  0.17200000000E+03 0.  1.
         -6    1    1    2    0  503  0.62688391937E+02 -0.49086351291E+02 -0.23519850711E+03  0.30206231495E+03  0.17200000000E+03 0. -1.
</event>
<event>
 4    1  0.4440728E+000  0.2045517E+03  0.7818608E-02  0.1145955E+00
         21   -1    0    0  503  502  0.00000000000E+00  0.00000000000E+00  0.17574157128E+03  0.17574157128E+03  0.00000000000E+00 0.  1.
         21   -1    0    0  501  503 -0.00000000000E+00 -0.00000000000E+00 -0.24058009640E+03  0.24058009640E+03  0.00000000000E+00 0. -1.
          6    1    1    2  501    0 -0.93704312734E+02  0.58965380151E+02 -0.53618566914E+02  0.21146244347E+03  0.17200000000E+03 0.  1.
         -6    1    1    2    0  502  0.93704312734E+02 -0.58965380151E+02 -0.11219958202E+02  0.20485922421E+03  0.17200000000E+03 0. -1.
</event>
<event>
 4    1  0.4440728E+000  0.1893964E+03  0.7818608E-02  0.1159007E+00
         21   -1    0    0  503  502  0.00000000000E+00  0.00000000000E+00  0.13936715131E+03  0.13936715131E+03  0.00000000000E+00 0.  1.
         21   -1    0    0  501  503 -0.00000000000E+00 -0.00000000000E+00 -0.31382870634E+03  0.31382870634E+03  0.00000000000E+00 0. -1.
          6    1    1    2  501    0  0.59821882580E+02 -0.52041859538E+02  0.88678986164E+01  0.18960393563E+03  0.17200000000E+03 0.  1.
         -6    1    1    2    0  502 -0.59821882580E+02  0.52041859538E+02 -0.18332945365E+03  0.26359192202E+03  0.17200000000E+03 0. -1.
</event>
<event>
 4    1  0.4440728E+000  0.1744562E+03  0.7818608E-02  0.1173279E+00
         21   -1    0    0  501  502  0.00000000000E+00  0.00000000000E+00  0.19678537656E+03  0.19678537656E+03  0.00000000000E+00 0.  1.
         21   -1    0    0  502  503 -0.00000000000E+00 -0.00000000000E+00 -0.16392029880E+03  0.16392029880E+03  0.00000000000E+00 0. -1.
          6    1    1    2  501    0 -0.37281777004E+01 -0.28931901407E+02  0.59297641856E+02  0.18425841787E+03  0.17200000000E+03 0.  1.
         -6    1    1    2    0  503  0.37281777004E+01  0.28931901407E+02 -0.26432564091E+02  0.17644725748E+03  0.17200000000E+03 0. -1.
</event>
<event>
 4    1  0.4440728E+000  0.1952905E+03  0.7818608E-02  0.1153774E+00
         21   -1    0    0  503  502  0.00000000000E+00  0.00000000000E+00  0.61773234138E+02  0.61773234138E+02  0.00000000000E+00 0.  1.
         21   -1    0    0  501  503 -0.00000000000E+00 -0.00000000000E+00 -0.70313067687E+03  0.70313067687E+03  0.00000000000E+00 0.  1.
          6    1    1    2  501    0 -0.50302546985E+02  0.77614668883E+02 -0.18712872845E+03  0.27047281577E+03  0.17200000000E+03 0.  1.
         -6    1    1    2    0  502  0.50302546985E+02 -0.77614668883E+02 -0.45422871429E+03  0.49443109524E+03  0.17200000000E+03 0.  1.
</event>
<event>
 4    1  0.4440728E+000  0.2327565E+03  0.7818608E-02  0.1124715E+00
         21   -1    0    0  503  502  0.00000000000E+00  0.00000000000E+00  0.73113600550E+02  0.73113600550E+02  0.00000000000E+00 0. -1.
         21   -1    0    0  501  503 -0.00000000000E+00 -0.00000000000E+00 -0.75154243764E+03  0.75154243764E+03  0.00000000000E+00 0.  1.
          6    1    1    2  501    0 -0.44512127160E+00 -0.15681637497E+03 -0.29032800949E+03  0.37211010022E+03  0.17200000000E+03 0. -1.
         -6    1    1    2    0  502  0.44512127160E+00  0.15681637497E+03 -0.38810082760E+03  0.45254593797E+03  0.17200000000E+03 0.  1.
</event>
<event>
 4    1  0.4440728E+000  0.2212959E+03  0.7818608E-02  0.1132921E+00
         21   -1    0    0  501  502  0.00000000000E+00  0.00000000000E+00  0.23125342571E+03  0.23125342571E+03  0.00000000000E+00 0.  1.
         21   -1    0    0  502  503 -0.00000000000E+00 -0.00000000000E+00 -0.61098616659E+03  0.61098616659E+03  0.00000000000E+00 0. -1.
          6    1    1    2  501    0  0.13551462117E+03  0.31994785932E+02  0.15053835396E+03  0.26764468030E+03  0.17200000000E+03 0.  1.
         -6    1    1    2    0  503 -0.13551462117E+03 -0.31994785932E+02 -0.53027109484E+03  0.57459491200E+03  0.17200000000E+03 0. -1.
</event>
<event>
 4    1  0.4440728E+000  0.2224283E+03  0.7818608E-02  0.1132085E+00
         21   -1    0    0  501  502  0.00000000000E+00  0.00000000000E+00  0.62622613965E+03  0.62622613965E+03  0.00000000000E+00 0. -1.
         21   -1    0    0  502  503 -0.00000000000E+00 -0.00000000000E+00 -0.17075394526E+03  0.17075394526E+03  0.00000000000E+00 0.  1.
          6    1    1    2  501    0 -0.10878329183E+03 -0.89758313547E+02  0.51983844443E+03  0.56542582868E+03  0.17200000000E+03 0. -1.
         -6    1    1    2    0  503  0.10878329183E+03  0.89758313547E+02 -0.64366250036E+02  0.23155425623E+03  0.17200000000E+03 0.  1.
</event>
<event>
 4    1  0.4440728E+000  0.1941370E+03  0.7818608E-02  0.1154782E+00
         21   -1    0    0  501  502  0.00000000000E+00  0.00000000000E+00  0.27819461027E+03  0.27819461027E+03  0.00000000000E+00 0. -1.
         21   -1    0    0  502  503 -0.00000000000E+00 -0.00000000000E+00 -0.27354895578E+03  0.27354895578E+03  0.00000000000E+00 0.  1.
          6    1    1    2  501    0 -0.24999707087E+02 -0.86488174450E+02  0.19831614042E+03  0.27752203737E+03  0.17200000000E+03 0. -1.
         -6    1    1    2    0  503  0.24999707087E+02  0.86488174450E+02 -0.19367048593E+03  0.27422152869E+03  0.17200000000E+03 0.  1.
</event>
<event>
 4    1  0.4440728E+000  0.2029478E+03  0.7818608E-02  0.1147275E+00
         21   -1    0    0  503  502  0.00000000000E+00  0.00000000000E+00  0.13935221508E+03  0.13935221508E+03  0.00000000000E+00 0.  1.
         21   -1    0    0  501  503 -0.00000000000E+00 -0.00000000000E+00 -0.78795230306E+03  0.78795230306E+03  0.00000000000E+00 0.  1.
          6    1    1    2  501    0  0.86237076368E+02  0.64552211957E+02 -0.69081800014E+03  0.72001203512E+03  0.17200000000E+03 0.  1.
         -6    1    1    2    0  502 -0.86237076368E+02 -0.64552211957E+02  0.42217912155E+02  0.20729248302E+03  0.17200000000E+03 0.  1.
</event>
<event>
 4    1  0.4440728E+000  0.1961613E+03  0.7818608E-02  0.1153019E+00
         21   -1    0    0  503  502  0.00000000000E+00  0.00000000000E+00  0.17713104390E+03  0.17713104390E+03  0.00000000000E+00 0.  1.
         21   -1    0    0  501  503 -0.00000000000E+00 -0.00000000000E+00 -0.22961150417E+03  0.22961150417E+03  0.00000000000E+00 0. -1.
          6    1    1    2  501    0 -0.72255966328E+02  0.60616228691E+02 -0.73454470826E+02  0.20946314983E+03  0.17200000000E+03 0. -1.
         -6    1    1    2    0  502  0.72255966328E+02 -0.60616228691E+02  0.20974010556E+02  0.19727939824E+03  0.17200000000E+03 0.  1.
</event>
<event>
 4    1  0.4440728E+000  0.2098913E+03  0.7818608E-02  0.1141652E+00
         21   -1    0    0  501  502  0.00000000000E+00  0.00000000000E+00  0.92313487216E+03  0.92313487216E+03  0.00000000000E+00 0. -1.
         21   -1    0    0  502  503 -0.00000000000E+00 -0.00000000000E+00 -0.82645212890E+02  0.82645212890E+02  0.00000000000E+00 0. -1.
          6    1    1    2  501    0 -0.47112275548E+02 -0.11068320809E+03  0.74714709883E+03  0.77606902164E+03  0.17200000000E+03 0. -1.
         -6    1    1    2    0  503  0.47112275548E+02  0.11068320809E+03  0.93342560435E+02  0.22971106340E+03  0.17200000000E+03 0. -1.
</event>
<event>
 4    1  0.4440728E+000  0.2050282E+03  0.7818608E-02  0.1145565E+00
         21   -1    0    0  501  502  0.00000000000E+00  0.00000000000E+00  0.31893311923E+03  0.31893311923E+03  0.00000000000E+00 0.  1.
         21   -1    0    0  502  503 -0.00000000000E+00 -0.00000000000E+00 -0.32171450472E+03  0.32171450472E+03  0.00000000000E+00 0. -1.
          6    1    1    2  501    0 -0.73512478550E+02 -0.83955322837E+02  0.24471898083E+03  0.31925532151E+03  0.17200000000E+03 0.  1.
         -6    1    1    2    0  503  0.73512478550E+02  0.83955322837E+02 -0.24750036633E+03  0.32139230244E+03  0.17200000000E+03 0. -1.
</event>
<event>
 4    1  0.4440728E+000  0.2178228E+03  0.7818608E-02  0.1135517E+00
         21   -1    0    0  501  502  0.00000000000E+00  0.00000000000E+00  0.13553137160E+03  0.13553137160E+03  0.00000000000E+00 0. -1.
         21   -1    0    0  502  503 -0.00000000000E+00 -0.00000000000E+00 -0.37277764810E+03  0.37277764810E+03  0.00000000000E+00 0. -1.
          6    1    1    2  501    0 -0.13348088502E+03  0.67562337301E+01 -0.55909011468E+02  0.22488354969E+03  0.17200000000E+03 0. -1.
         -6    1    1    2    0  503  0.13348088502E+03 -0.67562337301E+01 -0.18133726503E+03  0.28342547000E+03  0.17200000000E+03 0. -1.
</event>
<event>
 4    1  0.4440728E+000  0.2200558E+03  0.7818608E-02  0.1133841E+00
         21   -1    0    0  501  502  0.00000000000E+00  0.00000000000E+00  0.23899637287E+03  0.23899637287E+03  0.00000000000E+00 0.  1.
         21   -1    0    0  502  503 -0.00000000000E+00 -0.00000000000E+00 -0.27739949277E+03  0.27739949277E+03  0.00000000000E+00 0. -1.
          6    1    1    2  501    0  0.12647002016E+03  0.53346937492E+02  0.11485927485E+03  0.24822815062E+03  0.17200000000E+03 0.  1.
         -6    1    1    2    0  503 -0.12647002016E+03 -0.53346937492E+02 -0.15326239476E+03  0.26816771503E+03  0.17200000000E+03 0. -1.
</event>
<event>
 4    1  0.4440728E+000  0.1831237E+03  0.7818608E-02  0.1164814E+00
         21   -1    0    0  503  502  0.00000000000E+00  0.00000000000E+00  0.55116790604E+03  0.55116790604E+03  0.00000000000E+00 0. -1.
         21   -1    0    0  501  503 -0.00000000000E+00 -0.00000000000E+00 -0.96833752126E+02  0.96833752126E+02  0.00000000000E+00 0. -1.
          6    1    1    2  501    0 -0.28047080292E+02 -0.56246314241E+02  0.29637185238E+02  0.18550646708E+03  0.17200000000E+03 0. -1.
         -6    1    1    2    0  502  0.28047080292E+02  0.56246314241E+02  0.42469696868E+03  0.46249519109E+03  0.17200000000E+03 0. -1.
</event>
<event>
 4    1  0.4440728E+000  0.2163787E+03  0.7818608E-02  0.1136612E+00
         21   -1    0    0  501  502  0.00000000000E+00  0.00000000000E+00  0.11678332116E+03  0.11678332116E+03  0.00000000000E+00 0. -1.
         21   -1    0    0  502  503 -0.00000000000E+00 -0.00000000000E+00 -0.51253229064E+03  0.51253229064E+03  0.00000000000E+00 0.  1.
          6    1    1    2  501    0  0.72203368381E+02  0.10964681075E+03 -0.51032282179E+02  0.22231518917E+03  0.17200000000E+03 0. -1.
         -6    1    1    2    0  503 -0.72203368381E+02 -0.10964681075E+03 -0.34471668730E+03  0.40700042263E+03  0.17200000000E+03 0.  1.
</event>
<event>
 4    1  0.4440728E+000  0.1778801E+03  0.7818608E-02  0.1169871E+00
         21   -1    0    0  503  502  0.00000000000E+00  0.00000000000E+00  0.19581327036E+02  0.19581327036E+02  0.00000000000E+00 0.  1.
         21   -1    0    0  501  503 -0.00000000000E+00 -0.00000000000E+00 -0.16489868322E+04  0.16489868322E+04  0.00000000000E+00 0.  1.
          6    1    1    2  501    0 -0.37090770480E+02 -0.26107554862E+02 -0.69651328868E+03  0.71886861872E+03  0.17200000000E+03 0.  1.
         -6    1    1    2    0  502  0.37090770480E+02  0.26107554862E+02 -0.93289221646E+03  0.94969954049E+03  0.17200000000E+03 0.  1.
</event>
<event>
 4    1  0.4440728E+000  0.2012536E+03  0.7818608E-02  0.1148686E+00
         21   -1    0    0  501  502  0.00000000000E+00  0.00000000000E+00  0.33544538948E+03  0.33544538948E+03  0.00000000000E+00 0. -1.
         21   -1    0    0  502  503 -0.00000000000E+00 -0.00000000000E+00 -0.17415265911E+03  0.17415265911E+03  0.00000000000E+00 0. -1.
          6    1    1    2  501    0  0.78415372743E+02  0.69065539187E+02  0.22175010597E+03  0.29945972831E+03  0.17200000000E+03 0. -1.
         -6    1    1    2    0  503 -0.78415372743E+02 -0.69065539187E+02 -0.60457375600E+02  0.21013832028E+03  0.17200000000E+03 0. -1.
</event>
<event>
 4    1  0.4440728E+000  0.2212379E+03  0.7818608E-02  0.1132963E+00
         21   -1    0    0  501  502  0.00000000000E+00  0.00000000000E+00  0.25175669441E+03  0.25175669441E+03  0.00000000000E+00 0.  1.
         21   -1    0    0  502  503 -0.00000000000E+00 -0.00000000000E+00 -0.22725890013E+03  0.22725890013E+03  0.00000000000E+00 0.  1.
          6    1    1    2  501    0  0.75672075405E+02 -0.11677307441E+03  0.10329513009E+03  0.24416407967E+03  0.17200000000E+03 0.  1.
         -6    1    1    2    0  503 -0.75672075405E+02  0.11677307441E+03 -0.78797335805E+02  0.23485151486E+03  0.17200000000E+03 0.  1.
</event>
<event>
 4    1  0.4440728E+000  0.1994215E+03  0.7818608E-02  0.1150228E+00
         21   -1    0    0  503  502  0.00000000000E+00  0.00000000000E+00  0.29949955840E+03  0.29949955840E+03  0.00000000000E+00 0. -1.
         21   -1    0    0  501  503 -0.00000000000E+00 -0.00000000000E+00 -0.21782505663E+03  0.21782505663E+03  0.00000000000E+00 0. -1.
          6    1    1    2  501    0 -0.19821491820E+02  0.98954667949E+02 -0.12078163816E+03  0.23314613864E+03  0.17200000000E+03 0. -1.
         -6    1    1    2    0  502  0.19821491820E+02 -0.98954667949E+02  0.20245613993E+03  0.28417847639E+03  0.17200000000E+03 0. -1.
</event>
<event>
 4    1  0.4440728E+000  0.3543252E+03  0.7818608E-02  0.1060854E+00
         21   -1    0    0  503  502  0.00000000000E+00  0.00000000000E+00  0.28067100941E+03  0.28067100941E+03  0.00000000000E+00 0. -1.
         21   -1    0    0  501  503 -0.00000000000E+00 -0.00000000000E+00 -0.44743496522E+03  0.44743496522E+03  0.00000000000E+00 0.  1.
          6    1    1    2  501    0 -0.12522941896E+03 -0.28333711405E+03 -0.77244228209E+02  0.36264720923E+03  0.17200000000E+03 0. -1.
         -6    1    1    2    0  502  0.12522941896E+03  0.28333711405E+03 -0.89519727607E+02  0.36545876539E+03  0.17200000000E+03 0.  1.
</event>
<event>
 4    1  0.4440728E+000  0.1975023E+03  0.7818608E-02  0.1151864E+00
         21   -1    0    0  503  502  0.00000000000E+00  0.00000000000E+00  0.47306914997E+03  0.47306914997E+03  0.00000000000E+00 0.  1.
         21   -1    0    0  501  503 -0.00000000000E+00 -0.00000000000E+00 -0.22654044656E+03  0.22654044656E+03  0.00000000000E+00 0.  1.
          6    1    1    2  501    0 -0.61034103049E+02  0.75485195184E+02 -0.15570861278E+03  0.25150019587E+03  0.17200000000E+03 0.  1.
         -6    1    1    2    0  502  0.61034103049E+02 -0.75485195184E+02  0.40223731619E+03  0.44810940066E+03  0.17200000000E+03 0.  1.
</event>
<event>
 4    1  0.4440728E+000  0.2983623E+03  0.7818608E-02  0.1086062E+00
         21   -1    0    0  501  502  0.00000000000E+00  0.00000000000E+00  0.58800122666E+03  0.58800122666E+03  0.00000000000E+00 0. -1.
         21   -1    0    0  502  503 -0.00000000000E+00 -0.00000000000E+00 -0.16721173582E+03  0.16721173582E+03  0.00000000000E+00 0. -1.
          6    1    1    2  501    0  0.21526703416E+03 -0.11443850398E+03  0.32653247469E+03  0.44231609084E+03  0.17200000000E+03 0. -1.
         -6    1    1    2    0  503 -0.21526703416E+03  0.11443850398E+03  0.94257016147E+02  0.31289687164E+03  0.17200000000E+03 0. -1.
</event>
<event>
 4    1  0.4440728E+000  0.1891405E+03  0.7818608E-02  0.1159239E+00
         21   -1    0    0  501  502  0.00000000000E+00  0.00000000000E+00  0.83785913473E+02  0.83785913473E+02  0.00000000000E+00 0. -1.
         21   -1    0    0  502  503 -0.00000000000E+00 -0.00000000000E+00 -0.47150463618E+03  0.47150463618E+03  0.00000000000E+00 0. -1.
          6    1    1    2  501    0  0.26906230553E+02  0.73933751445E+02 -0.10853127858E+03  0.21806692385E+03  0.17200000000E+03 0.  1.
         -6    1    1    2    0  503 -0.26906230553E+02 -0.73933751445E+02 -0.27918744412E+03  0.33722362581E+03  0.17200000000E+03 0.  1.
</event>
<event>
 4    1  0.4440728E+000  0.1745609E+03  0.7818608E-02  0.1173173E+00
         21   -1    0    0  501  502  0.00000000000E+00  0.00000000000E+00  0.41650818265E+03  0.41650818265E+03  0.00000000000E+00 0. -1.
         21   -1    0    0  502  503 -0.00000000000E+00 -0.00000000000E+00 -0.96196407554E+02  0.96196407554E+02  0.00000000000E+00 0. -1.
          6    1    1    2  501    0 -0.20941969254E+02 -0.21188396368E+02  0.28560576428E+03  0.33472700341E+03  0.17200000000E+03 0. -1.
         -6    1    1    2    0  503  0.20941969254E+02  0.21188396368E+02  0.34706010816E+02  0.17797758680E+03  0.17200000000E+03 0. -1.
</event>
<event>
 4    1  0.4440728E+000  0.1743205E+03  0.7818608E-02  0.1173416E+00
         21   -1    0    0  501  502  0.00000000000E+00  0.00000000000E+00  0.28578126888E+02  0.28578126888E+02  0.00000000000E+00 0. -1.
         21   -1    0    0  502  503 -0.00000000000E+00 -0.00000000000E+00 -0.29118845021E+04  0.29118845021E+04  0.00000000000E+00 0. -1.
          6    1    1    2  501    0  0.12633436983E+01  0.28320588138E+02 -0.27022391110E+03  0.32157209748E+03  0.17200000000E+03 0. -1.
         -6    1    1    2    0  503 -0.12633436983E+01 -0.28320588138E+02 -0.26130824642E+04  0.26188905315E+04  0.17200000000E+03 0. -1.
</event>
<event>
 4    1  0.4440728E+000  0.1891052E+03  0.7818608E-02  0.1159271E+00
         21   -1    0    0  501  502  0.00000000000E+00  0.00000000000E+00  0.77535868724E+03  0.77535868724E+03  0.00000000000E+00 0.  1.
         21   -1    0    0  502  503 -0.00000000000E+00 -0.00000000000E+00 -0.72256119338E+02  0.72256119338E+02  0.00000000000E+00 0. -1.
          6    1    1    2  501    0 -0.66188030773E+02 -0.42378176712E+02  0.60643299457E+03  0.63523361229E+03  0.17200000000E+03 0.  1.
         -6    1    1    2    0  503  0.66188030773E+02  0.42378176712E+02  0.96669573332E+02  0.21238119429E+03  0.17200000000E+03 0. -1.
</event>
<event>
 4    1  0.4440728E+000  0.1935879E+03  0.7818608E-02  0.1155265E+00
         21   -1    0    0  501  502  0.00000000000E+00  0.00000000000E+00  0.32666298620E+03  0.32666298620E+03  0.00000000000E+00 0.  1.
         21   -1    0    0  502  503 -0.00000000000E+00 -0.00000000000E+00 -0.15611699866E+03  0.15611699866E+03  0.00000000000E+00 0. -1.
          6    1    1    2  501    0  0.31508182087E+02 -0.83063276292E+02  0.20956825580E+03  0.28529831273E+03  0.17200000000E+03 0.  1.
         -6    1    1    2    0  503 -0.31508182087E+02  0.83063276292E+02 -0.39022268263E+02  0.19748167213E+03  0.17200000000E+03 0. -1.
</event>
<event>
 4    1  0.4440728E+000  0.2106839E+03  0.7818608E-02  0.1141026E+00
         21   -1    0    0  503  502  0.00000000000E+00  0.00000000000E+00  0.62713905877E+02  0.62713905877E+02  0.00000000000E+00 0.  1.
         21   -1    0    0  501  503 -0.00000000000E+00 -0.00000000000E+00 -0.13398199753E+04  0.13398199753E+04  0.00000000000E+00 0.  1.
          6    1    1    2  501    0  0.12087181155E+03  0.13917322321E+02 -0.11202037448E+04  0.11398439001E+04  0.17200000000E+03 0.  1.
         -6    1    1    2    0  502 -0.12087181155E+03 -0.13917322321E+02 -0.15690232459E+03  0.26268998106E+03  0.17200000000E+03 0.  1.
</event>
<event>
 4    1  0.4440728E+000  0.1920123E+03  0.7818608E-02  0.1156659E+00
         21   -1    0    0  501  502  0.00000000000E+00  0.00000000000E+00  0.46273702339E+03  0.46273702339E+03  0.00000000000E+00 0. -1.
         21   -1    0    0  502  503 -0.00000000000E+00 -0.00000000000E+00 -0.80164666675E+02  0.80164666675E+02  0.00000000000E+00 0. -1.
          6    1    1    2  501    0  0.64925899808E+02  0.55401644516E+02  0.17007750414E+03  0.25650550110E+03  0.17200000000E+03 0. -1.
         -6    1    1    2    0  503 -0.64925899808E+02 -0.55401644516E+02  0.21249485258E+03  0.28639618896E+03  0.17200000000E+03 0. -1.
</event>
<event>
 4    1  0.4440728E+000  0.1764575E+03  0.7818608E-02  0.1171276E+00
         21   -1    0    0  501  502  0.00000000000E+00  0.00000000000E+00  0.55405881225E+03  0.55405881225E+03  0.00000000000E+00 0.  1.
         21   -1    0    0  502  503 -0.00000000000E+00 -0.00000000000E+00 -0.56259999511E+02  0.56259999511E+02  0.00000000000E+00 0. -1.
          6    1    1    2  501    0  0.25689662912E+02  0.29888214807E+02  0.25899022543E+03  0.31338985471E+03  0.17200000000E+03 0. -1.
         -6    1    1    2    0  503 -0.25689662912E+02 -0.29888214807E+02  0.23880858731E+03  0.29692895705E+03  0.17200000000E+03 0.  1.
</event>
<event>
 4    1  0.4440728E+000  0.1761955E+03  0.7818608E-02  0.1171537E+00
         21   -1    0    0  503  502  0.00000000000E+00  0.00000000000E+00  0.21184998676E+03  0.21184998676E+03  0.00000000000E+00 0.  1.
         21   -1    0    0  501  503 -0.00000000000E+00 -0.00000000000E+00 -0.14665563808E+03  0.14665563808E+03  0.00000000000E+00 0.  1.
          6    1    1    2  501    0  0.20776822808E+01 -0.38164490847E+02  0.27599595195E+02  0.17834400125E+03  0.17200000000E+03 0. -1.
         -6    1    1    2    0  502 -0.20776822808E+01  0.38164490847E+02  0.37594753481E+02  0.18016162359E+03  0.17200000000E+03 0. -1.
</event>
<event>
 4    1  0.4440728E+000  0.1835902E+03  0.7818608E-02  0.1164373E+00
         21   -1    0    0  503  502  0.00000000000E+00  0.00000000000E+00  0.21955293418E+02  0.21955293418E+02  0.00000000000E+00 0.  1.
         21   -1    0    0  501  503 -0.00000000000E+00 -0.00000000000E+00 -0.20814494781E+04  0.20814494781E+04  0.00000000000E+00 0.  1.
          6    1    1    2  501    0 -0.33653165162E+02  0.54670300848E+02 -0.15685283569E+04  0.15792360760E+04  0.17200000000E+03 0.  1.
         -6    1    1    2    0  502  0.33653165162E+02 -0.54670300848E+02 -0.49096582782E+03  0.52416869556E+03  0.17200000000E+03 0.  1.
</event>
<event>
 4    1  0.4440728E+000  0.2894574E+03  0.7818608E-02  0.1090633E+00
         21   -1    0    0  503  502  0.00000000000E+00  0.00000000000E+00  0.70043847795E+03  0.70043847795E+03  0.00000000000E+00 0. -1.
         21   -1    0    0  501  503 -0.00000000000E+00 -0.00000000000E+00 -0.22539138536E+03  0.22539138536E+03  0.00000000000E+00 0.  1.
          6    1    1    2  501    0  0.22153256226E+03  0.71588324506E+02 -0.79593236865E+02  0.30020101216E+03  0.17200000000E+03 0.  1.
         -6    1    1    2    0  502 -0.22153256226E+03 -0.71588324506E+02  0.55464032945E+03  0.62562885115E+03  0.17200000000E+03 0. -1.
</event>
<event>
 4    1  0.4440728E+000  0.2078215E+03  0.7818608E-02  0.1143303E+00
         21   -1    0    0  501  502  0.00000000000E+00  0.00000000000E+00  0.11519863724E+04  0.11519863724E+04  0.00000000000E+00 0. -1.
         21   -1    0    0  502  503 -0.00000000000E+00 -0.00000000000E+00 -0.38412415129E+02  0.38412415129E+02  0.00000000000E+00 0. -1.
          6    1    1    2  501    0  0.92129399905E+02 -0.71539818115E+02  0.64894245781E+03  0.68140742985E+03  0.17200000000E+03 0. -1.
         -6    1    1    2    0  503 -0.92129399905E+02  0.71539818115E+02  0.46463149945E+03  0.50899135767E+03  0.17200000000E+03 0. -1.
</event>
<event>
 4    1  0.4440728E+000  0.1747294E+03  0.7818608E-02  0.1173004E+00
         21   -1    0    0  501  502  0.00000000000E+00  0.00000000000E+00  0.12426674230E+03  0.12426674230E+03  0.00000000000E+00 0.  1.
         21   -1    0    0  502  503 -0.00000000000E+00 -0.00000000000E+00 -0.24652972355E+03  0.24652972355E+03  0.00000000000E+00 0.  1.
          6    1    1    2  501    0  0.59996692101E+01  0.30172579509E+02 -0.71988809775E+02  0.18897822445E+03  0.17200000000E+03 0. -1.
         -6    1    1    2    0  503 -0.59996692101E+01 -0.30172579509E+02 -0.50274171478E+02  0.18181824139E+03  0.17200000000E+03 0. -1.
</event>
<event>
 4    1  0.4440728E+000  0.2461201E+03  0.7818608E-02  0.1115782E+00
         21   -1    0    0  501  502  0.00000000000E+00  0.00000000000E+00  0.91953446532E+03  0.91953446532E+03  0.00000000000E+00 0.  1.
         21   -1    0    0  502  503 -0.00000000000E+00 -0.00000000000E+00 -0.67139698558E+02  0.67139698558E+02  0.00000000000E+00 0. -1.
          6    1    1    2  501    0 -0.15603644648E+03  0.81509051192E+02  0.49388428893E+03  0.55181227687E+03  0.17200000000E+03 0.  1.
         -6    1    1    2    0  503  0.15603644648E+03 -0.81509051192E+02  0.35851047783E+03  0.43486188701E+03  0.17200000000E+03 0. -1.
</event>
<event>
 4    1  0.4440728E+000  0.1951892E+03  0.7818608E-02  0.1153863E+00
         21   -1    0    0  503  502  0.00000000000E+00  0.00000000000E+00  0.25803712073E+03  0.25803712073E+03  0.00000000000E+00 0.  1.
         21   -1    0    0  501  503 -0.00000000000E+00 -0.00000000000E+00 -0.14788654782E+03  0.14788654782E+03  0.00000000000E+00 0. -1.
          6    1    1    2  501    0  0.83244283543E+02 -0.39814878855E+02  0.63215492331E+02  0.20517074302E+03  0.17200000000E+03 0.  1.
         -6    1    1    2    0  502 -0.83244283543E+02  0.39814878855E+02  0.46935080583E+02  0.20075292553E+03  0.17200000000E+03 0. -1.
</event>
<event>
 4    1  0.4440728E+000  0.1741285E+03  0.7818608E-02  0.1173610E+00
         21   -1    0    0  503  502  0.00000000000E+00  0.00000000000E+00  0.45635217627E+03  0.45635217627E+03  0.00000000000E+00 0.  1.
         21   -1    0    0  501  503 -0.00000000000E+00 -0.00000000000E+00 -0.16188017676E+03  0.16188017676E+03  0.00000000000E+00 0.  1.
          6    1    1    2  501    0 -0.25267824061E+02  0.99134048424E+01 -0.90112792307E+02  0.19606390251E+03  0.17200000000E+03 0.  1.
         -6    1    1    2    0  502  0.25267824061E+02 -0.99134048424E+01  0.38458479181E+03  0.42216845053E+03  0.17200000000E+03 0.  1.
</event>
<event>
 4    1  0.4440728E+000  0.2069916E+03  0.7818608E-02  0.1143971E+00
         21   -1    0    0  503  502  0.00000000000E+00  0.00000000000E+00  0.89058582967E+02  0.89058582967E+02  0.00000000000E+00 0.  1.
         21   -1    0    0  501  503 -0.00000000000E+00 -0.00000000000E+00 -0.57201092362E+03  0.57201092362E+03  0.00000000000E+00 0.  1.
          6    1    1    2  501    0 -0.81063591933E+02  0.81793658503E+02 -0.37325281469E+03  0.42680577806E+03  0.17200000000E+03 0.  1.
         -6    1    1    2    0  502  0.81063591933E+02 -0.81793658503E+02 -0.10969952596E+03  0.23426372853E+03  0.17200000000E+03 0.  1.
</event>
<event>
 4    1  0.4440728E+000  0.1951770E+03  0.7818608E-02  0.1153873E+00
         21   -1    0    0  503  502  0.00000000000E+00  0.00000000000E+00  0.97734546960E+02  0.97734546960E+02  0.00000000000E+00 0. -1.
         21   -1    0    0  501  503 -0.00000000000E+00 -0.00000000000E+00 -0.39973222743E+03  0.39973222743E+03  0.00000000000E+00 0. -1.
          6    1    1    2  501    0  0.34154333219E+00  0.92249436724E+02 -0.11173347024E+03  0.22489651754E+03  0.17200000000E+03 0. -1.
         -6    1    1    2    0  502 -0.34154333219E+00 -0.92249436724E+02 -0.19026421023E+03  0.27257025685E+03  0.17200000000E+03 0. -1.
</event>
<event>
 4    1  0.4440728E+000  0.2984599E+03  0.7818608E-02  0.1086013E+00
         21   -1    0    0  503  502  0.00000000000E+00  0.00000000000E+00  0.31134745737E+03  0.31134745737E+03  0.00000000000E+00 0. -1.
         21   -1    0    0  501  503 -0.00000000000E+00 -0.00000000000E+00 -0.28909802027E+03  0.28909802027E+03  0.00000000000E+00 0. -1.
          6    1    1    2  501    0 -0.48970983749E+02  0.23894806208E+03  0.41667816433E+02  0.30135450975E+03  0.17200000000E+03 0. -1.
         -6    1    1    2    0  502  0.48970983749E+02 -0.23894806208E+03 -0.19418379328E+02  0.29909096789E+03  0.17200000000E+03 0. -1.
</event>
<event>
 4    1  0.4440728E+000  0.1775250E+03  0.7818608E-02  0.1170220E+00
         21   -1    0    0  501  502  0.00000000000E+00  0.00000000000E+00  0.29426309380E+02  0.29426309380E+02  0.00000000000E+00 0. -1.
         21   -1    0    0  502  503 -0.00000000000E+00 -0.00000000000E+00 -0.16103172487E+04  0.16103172487E+04  0.00000000000E+00 0. -1.
          6    1    1    2  501    0  0.41541151778E+02 -0.14334359478E+02 -0.31596500237E+03  0.36242105882E+03  0.17200000000E+03 0. -1.
         -6    1    1    2    0  503 -0.41541151778E+02  0.14334359478E+02 -0.12649259370E+04  0.12773224993E+04  0.17200000000E+03 0. -1.
</event>
<event>
 4    1  0.4440728E+000  0.1887006E+03  0.7818608E-02  0.1159639E+00
         21   -1    0    0  503  502  0.00000000000E+00  0.00000000000E+00  0.28184569243E+03  0.28184569243E+03  0.00000000000E+00 0. -1.
         21   -1    0    0  501  503 -0.00000000000E+00 -0.00000000000E+00 -0.15306068842E+03  0.15306068842E+03  0.00000000000E+00 0.  1.
          6    1    1    2  501    0  0.44114442573E+02  0.63857839590E+02 -0.26467246214E+02  0.19054769178E+03  0.17200000000E+03 0.  1.
         -6    1    1    2    0  502 -0.44114442573E+02 -0.63857839590E+02  0.15525225023E+03  0.24435868906E+03  0.17200000000E+03 0.  1.
</event>
<event>
 4    1  0.4440728E+000  0.1959458E+03  0.7818608E-02  0.1153205E+00
         21   -1    0    0  503  502  0.00000000000E+00  0.00000000000E+00  0.46278476757E+03  0.46278476757E+03  0.00000000000E+00 0.  1.
         21   -1    0    0  501  503 -0.00000000000E+00 -0.00000000000E+00 -0.83589602607E+02  0.83589602607E+02  0.00000000000E+00 0. -1.
          6    1    1    2  501    0 -0.73912243824E+02  0.57859514420E+02  0.21322044723E+03  0.28958194404E+03  0.17200000000E+03 0.  1.
         -6    1    1    2    0  502  0.73912243824E+02 -0.57859514420E+02  0.16597471774E+03  0.25679242614E+03  0.17200000000E+03 0. -1.
</event>
<event>
 4    1  0.4440728E+000  0.1873018E+03  0.7818608E-02  0.1160918E+00
         21   -1    0    0  503  502  0.00000000000E+00  0.00000000000E+00  0.81101686340E+02  0.81101686340E+02  0.00000000000E+00 0.  1.
         21   -1    0    0  501  503 -0.00000000000E+00 -0.00000000000E+00 -0.59022799557E+03  0.59022799557E+03  0.00000000000E+00 0.  1.
          6    1    1    2  501    0  0.55643266528E+02  0.49008020290E+02 -0.42804630580E+03  0.46723184723E+03  0.17200000000E+03 0.  1.
         -6    1    1    2    0  502 -0.55643266528E+02 -0.49008020290E+02 -0.81080003431E+02  0.20409783467E+03  0.17200000000E+03 0.  1.
</event>
<event>
 4    1  0.4440728E+000  0.2787445E+03  0.7818608E-02  0.1096377E+00
         21   -1    0    0  503  502  0.00000000000E+00  0.00000000000E+00  0.25784922088E+03  0.25784922088E+03  0.00000000000E+00 0.  1.
         21   -1    0    0  501  503 -0.00000000000E+00 -0.00000000000E+00 -0.30345708787E+03  0.30345708787E+03  0.00000000000E+00 0. -1.
          6    1    1    2  501    0 -0.21752082136E+03 -0.28270285890E+02  0.67577227088E+00  0.27874535594E+03  0.17200000000E+03 0. -1.
         -6    1    1    2    0  502  0.21752082136E+03  0.28270285890E+02 -0.46283639268E+02  0.28256095281E+03  0.17200000000E+03 0. -1.
</event>
<event>
 4    1  0.4440728E+000  0.1955930E+03  0.7818608E-02  0.1153511E+00
         21   -1    0    0  501  502  0.00000000000E+00  0.00000000000E+00  0.90926620504E+02  0.90926620504E+02  0.00000000000E+00 0. -1.
         21   -1    0    0  502  503 -0.00000000000E+00 -0.00000000000E+00 -0.44462190844E+03  0.44462190844E+03  0.00000000000E+00 0. -1.
          6    1    1    2  501    0  0.41638437918E+02  0.83299800294E+02 -0.23890495122E+03  0.30875911639E+03  0.17200000000E+03 0. -1.
         -6    1    1    2    0  503 -0.41638437918E+02 -0.83299800294E+02 -0.11479033672E+03  0.22678941255E+03  0.17200000000E+03 0. -1.
</event>
<event>
 4    1  0.4440728E+000  0.2525927E+03  0.7818608E-02  0.1111677E+00
         21   -1    0    0  503  502  0.00000000000E+00  0.00000000000E+00  0.10655327397E+04  0.10655327397E+04  0.00000000000E+00 0.  1.
         21   -1    0    0  501  503 -0.00000000000E+00 -0.00000000000E+00 -0.63918957297E+02  0.63918957297E+02  0.00000000000E+00 0. -1.
          6    1    1    2  501    0 -0.17304412831E+03  0.65381957664E+02  0.35883269891E+03  0.43882112134E+03  0.17200000000E+03 0. -1.
         -6    1    1    2    0  502  0.17304412831E+03 -0.65381957664E+02  0.64278108353E+03  0.69063057569E+03  0.17200000000E+03 0.  1.
</event>
<event>
 4    1  0.4440728E+000  0.1820378E+03  0.7818608E-02  0.1165845E+00
         21   -1    0    0  503  502  0.00000000000E+00  0.00000000000E+00  0.66151391677E+03  0.66151391677E+03  0.00000000000E+00 0. -1.
         21   -1    0    0  501  503 -0.00000000000E+00 -0.00000000000E+00 -0.77752985191E+02  0.77752985191E+02  0.00000000000E+00 0. -1.
          6    1    1    2  501    0 -0.17942367595E+02 -0.56849333048E+02  0.71419313319E+02  0.19554665310E+03  0.17200000000E+03 0. -1.
         -6    1    1    2    0  502  0.17942367595E+02  0.56849333048E+02  0.51234161826E+03  0.54372024887E+03  0.17200000000E+03 0. -1.
</event>
<event>
 4    1  0.4440728E+000  0.1892167E+03  0.7818608E-02  0.1159170E+00
         21   -1    0    0  503  502  0.00000000000E+00  0.00000000000E+00  0.66925868216E+03  0.66925868216E+03  0.00000000000E+00 0. -1.
         21   -1    0    0  501  503 -0.00000000000E+00 -0.00000000000E+00 -0.47996262230E+03  0.47996262230E+03  0.00000000000E+00 0. -1.
          6    1    1    2  501    0 -0.14663626773E+02 -0.77485194229E+02 -0.44699386370E+03  0.48539313084E+03  0.17200000000E+03 0. -1.
         -6    1    1    2    0  502  0.14663626773E+02  0.77485194229E+02  0.63628992356E+03  0.66382817363E+03  0.17200000000E+03 0. -1.
</event>
<event>
 4    1  0.4440728E+000  0.1834313E+03  0.7818608E-02  0.1164523E+00
         21   -1    0    0  501  502  0.00000000000E+00  0.00000000000E+00  0.15296065213E+03  0.15296065213E+03  0.00000000000E+00 0. -1.
         21   -1    0    0  502  503 -0.00000000000E+00 -0.00000000000E+00 -0.22502879564E+03  0.22502879564E+03  0.00000000000E+00 0. -1.
          6    1    1    2  501    0  0.60705632013E+02 -0.19438798685E+02 -0.77022875598E+01  0.18359293528E+03  0.17200000000E+03 0. -1.
         -6    1    1    2    0  503 -0.60705632013E+02  0.19438798685E+02 -0.64365855949E+02  0.19439651248E+03  0.17200000000E+03 0. -1.
</event>
<event>
 4    1  0.4440728E+000  0.1766786E+03  0.7818608E-02  0.1171057E+00
         21   -1    0    0  503  502  0.00000000000E+00  0.00000000000E+00  0.11933026183E+03  0.11933026183E+03  0.00000000000E+00 0.  1.
         21   -1    0    0  501  503 -0.00000000000E+00 -0.00000000000E+00 -0.37659028068E+03  0.37659028068E+03  0.00000000000E+00 0.  1.
          6    1    1    2  501    0 -0.80800371104E+01  0.39573382948E+02 -0.26565543818E+03  0.31904255433E+03  0.17200000000E+03 0.  1.
         -6    1    1    2    0  502  0.80800371104E+01 -0.39573382948E+02  0.83954193307E+01  0.17687798818E+03  0.17200000000E+03 0.  1.
</event>
<event>
 4    1  0.4440728E+000  0.1769370E+03  0.7818608E-02  0.1170801E+00
         21   -1    0    0  503  502  0.00000000000E+00  0.00000000000E+00  0.16260999849E+03  0.16260999849E+03  0.00000000000E+00 0.  1.
         21   -1    0    0  501  503 -0.00000000000E+00 -0.00000000000E+00 -0.19425693677E+03  0.19425693677E+03  0.00000000000E+00 0.  1.
          6    1    1    2  501    0  0.10618794197E+01 -0.41491774245E+02 -0.32665558856E+02  0.17992702313E+03  0.17200000000E+03 0.  1.
         -6    1    1    2    0  502 -0.10618794197E+01  0.41491774245E+02  0.10186205788E+01  0.17693991213E+03  0.17200000000E+03 0.  1.
</event>
<event>
 4    1  0.4440728E+000  0.2005339E+03  0.7818608E-02  0.1149289E+00
         21   -1    0    0  501  502  0.00000000000E+00  0.00000000000E+00  0.29720963735E+03  0.29720963735E+03  0.00000000000E+00 0.  1.
         21   -1    0    0  502  503 -0.00000000000E+00 -0.00000000000E+00 -0.13765925973E+03  0.13765925973E+03  0.00000000000E+00 0. -1.
          6    1    1    2  501    0 -0.86513517205E+02  0.56082494556E+02  0.51337876403E+02  0.20700099615E+03  0.17200000000E+03 0. -1.
         -6    1    1    2    0  503  0.86513517205E+02 -0.56082494556E+02  0.10821250121E+03  0.22786790093E+03  0.17200000000E+03 0.  1.
</event>
<event>
 4    1  0.4440728E+000  0.2155215E+03  0.7818608E-02  0.1137267E+00
         21   -1    0    0  501  502  0.00000000000E+00  0.00000000000E+00  0.20139542662E+03  0.20139542662E+03  0.00000000000E+00 0. -1.
         21   -1    0    0  502  503 -0.00000000000E+00 -0.00000000000E+00 -0.26441794620E+03  0.26441794620E+03  0.00000000000E+00 0.  1.
          6    1    1    2  501    0 -0.10503632494E+03  0.76373453380E+02 -0.11475717268E+03  0.24416949568E+03  0.17200000000E+03 0.  1.
         -6    1    1    2    0  503  0.10503632494E+03 -0.76373453380E+02  0.51734653099E+02  0.22164387713E+03  0.17200000000E+03 0. -1.
</event>
<event>
 4    1  0.4440728E+000  0.1936414E+03  0.7818608E-02  0.1155217E+00
         21   -1    0    0  503  502  0.00000000000E+00  0.00000000000E+00  0.21437776306E+03  0.21437776306E+03  0.00000000000E+00 0. -1.
         21   -1    0    0  501  503 -0.00000000000E+00 -0.00000000000E+00 -0.20169990458E+03  0.20169990458E+03  0.00000000000E+00 0. -1.
          6    1    1    2  501    0 -0.22211560900E+02 -0.86137274441E+02 -0.69478797655E+02  0.20572867279E+03  0.17200000000E+03 0. -1.
         -6    1    1    2    0  502  0.22211560900E+02  0.86137274441E+02  0.82156656141E+02  0.21034899485E+03  0.17200000000E+03 0. -1.
</event>
<event>
 4    1  0.4440728E+000  0.2073056E+03  0.7818608E-02  0.1143718E+00
         21   -1    0    0  503  502  0.00000000000E+00  0.00000000000E+00  0.37063785122E+03  0.37063785122E+03  0.00000000000E+00 0. -1.
         21   -1    0    0  501  503 -0.00000000000E+00 -0.00000000000E+00 -0.21327143979E+03  0.21327143979E+03  0.00000000000E+00 0. -1.
          6    1    1    2  501    0  0.11502801693E+03  0.12656454150E+02 -0.11853739117E+03  0.23880272950E+03  0.17200000000E+03 0. -1.
         -6    1    1    2    0  502 -0.11502801693E+03 -0.12656454150E+02  0.27590380259E+03  0.34510656151E+03  0.17200000000E+03 0. -1.
</event>
<event>
 4    1  0.4440728E+000  0.1864231E+03  0.7818608E-02  0.1161728E+00
         21   -1    0    0  501  502  0.00000000000E+00  0.00000000000E+00  0.38033732783E+03  0.38033732783E+03  0.00000000000E+00 0. -1.
         21   -1    0    0  502  503 -0.00000000000E+00 -0.00000000000E+00 -0.10767389652E+03  0.10767389652E+03  0.00000000000E+00 0. -1.
          6    1    1    2  501    0  0.47394542909E+02  0.54067853970E+02  0.23126420458E+03  0.29704664255E+03  0.17200000000E+03 0. -1.
         -6    1    1    2    0  503 -0.47394542909E+02 -0.54067853970E+02  0.41399226728E+02  0.19096458181E+03  0.17200000000E+03 0. -1.
</event>
<event>
 4    1  0.4440728E+000  0.1849065E+03  0.7818608E-02  0.1163137E+00
         21   -1    0    0  501  502  0.00000000000E+00  0.00000000000E+00  0.10545120346E+04  0.10545120346E+04  0.00000000000E+00 0.  1.
         21   -1    0    0  502  503 -0.00000000000E+00 -0.00000000000E+00 -0.33601116287E+02  0.33601116287E+02  0.00000000000E+00 0.  1.
          6    1    1    2  501    0 -0.32887031398E+02  0.59370583448E+02  0.40858109615E+03  0.44847400721E+03  0.17200000000E+03 0.  1.
         -6    1    1    2    0  503  0.32887031398E+02 -0.59370583448E+02  0.61232982218E+03  0.63963914370E+03  0.17200000000E+03 0.  1.
</event>
<event>
 4    1  0.4440728E+000  0.2306927E+03  0.7818608E-02  0.1126153E+00
         21   -1    0    0  503  502  0.00000000000E+00  0.00000000000E+00  0.66130460444E+02  0.66130460444E+02  0.00000000000E+00 0.  1.
         21   -1    0    0  501  503 -0.00000000000E+00 -0.00000000000E+00 -0.83532893575E+03  0.83532893575E+03  0.00000000000E+00 0.  1.
          6    1    1    2  501    0  0.14929427061E+03 -0.36692373698E+02 -0.47082396870E+03  0.52430365155E+03  0.17200000000E+03 0.  1.
         -6    1    1    2    0  502 -0.14929427061E+03  0.36692373698E+02 -0.29837450660E+03  0.37715574464E+03  0.17200000000E+03 0.  1.
</event>
<event>
 4    1  0.4440728E+000  0.2017648E+03  0.7818608E-02  0.1148259E+00
         21   -1    0    0  501  502  0.00000000000E+00  0.00000000000E+00  0.56863935765E+03  0.56863935765E+03  0.00000000000E+00 0. -1.
         21   -1    0    0  502  503 -0.00000000000E+00 -0.00000000000E+00 -0.16836536587E+03  0.16836536587E+03  0.00000000000E+00 0.  1.
          6    1    1    2  501    0  0.96378651326E+02  0.42850692169E+02  0.47951729378E+03  0.52023635137E+03  0.17200000000E+03 0. -1.
         -6    1    1    2    0  503 -0.96378651326E+02 -0.42850692169E+02 -0.79243302003E+02  0.21676837215E+03  0.17200000000E+03 0.  1.
</event>
<event>
 4    1  0.4440728E+000  0.2452083E+03  0.7818608E-02  0.1116371E+00
         21   -1    0    0  501  502  0.00000000000E+00  0.00000000000E+00  0.18199249271E+03  0.18199249271E+03  0.00000000000E+00 0. -1.
         21   -1    0    0  502  503 -0.00000000000E+00 -0.00000000000E+00 -0.36380266745E+03  0.36380266745E+03  0.00000000000E+00 0. -1.
          6    1    1    2  501    0 -0.54789493919E+02  0.16595553407E+03 -0.81925587066E+01  0.24534515677E+03  0.17200000000E+03 0. -1.
         -6    1    1    2    0  503  0.54789493919E+02 -0.16595553407E+03 -0.17361761604E+03  0.30045000338E+03  0.17200000000E+03 0. -1.
</event>
<event>
 4    1  0.4440728E+000  0.2207808E+03  0.7818608E-02  0.1133302E+00
         21   -1    0    0  501  502  0.00000000000E+00  0.00000000000E+00  0.94774180940E+03  0.94774180940E+03  0.00000000000E+00 0. -1.
         21   -1    0    0  502  503 -0.00000000000E+00 -0.00000000000E+00 -0.10146577926E+03  0.10146577926E+03  0.00000000000E+00 0. -1.
          6    1    1    2  501    0  0.12388091716E+03 -0.61754957630E+02  0.79152454626E+03  0.82173917015E+03  0.17200000000E+03 0. -1.
         -6    1    1    2    0  503 -0.12388091716E+03  0.61754957630E+02  0.54751483879E+02  0.22746841850E+03  0.17200000000E+03 0. -1.
</event>
<event>
 4    1  0.4440728E+000  0.2540127E+03  0.7818608E-02  0.1110795E+00
         21   -1    0    0  503  502  0.00000000000E+00  0.00000000000E+00  0.38702938057E+03  0.38702938057E+03  0.00000000000E+00 0. -1.
         21   -1    0    0  501  503 -0.00000000000E+00 -0.00000000000E+00 -0.18634793167E+03  0.18634793167E+03  0.00000000000E+00 0.  1.
          6    1    1    2  501    0 -0.13363433350E+03 -0.13069169323E+03  0.19340299469E+03  0.31926035164E+03  0.17200000000E+03 0. -1.
         -6    1    1    2    0  502  0.13363433350E+03  0.13069169323E+03  0.72784542077E+01  0.25411696060E+03  0.17200000000E+03 0.  1.
</event>
<event>
 4    1  0.4440728E+000  0.2024160E+03  0.7818608E-02  0.1147716E+00
         21   -1    0    0  501  502  0.00000000000E+00  0.00000000000E+00  0.29561349202E+03  0.29561349202E+03  0.00000000000E+00 0. -1.
         21   -1    0    0  502  503 -0.00000000000E+00 -0.00000000000E+00 -0.18988209528E+03  0.18988209528E+03  0.00000000000E+00 0.  1.
          6    1    1    2  501    0 -0.37890105420E+02  0.99762615807E+02 -0.73286017438E+02  0.21527442940E+03  0.17200000000E+03 0.  1.
         -6    1    1    2    0  503  0.37890105420E+02 -0.99762615807E+02  0.17901741418E+03  0.27022115791E+03  0.17200000000E+03 0. -1.
</event>
<event>
 4    1  0.4440728E+000  0.1735207E+03  0.7818608E-02  0.1174225E+00
         21   -1    0    0  503  502  0.00000000000E+00  0.00000000000E+00  0.25716262893E+03  0.25716262893E+03  0.00000000000E+00 0.  1.
         21   -1    0    0  501  503 -0.00000000000E+00 -0.00000000000E+00 -0.17299182746E+03  0.17299182746E+03  0.00000000000E+00 0.  1.
          6    1    1    2  501    0 -0.22302549006E+02  0.52945478173E+01 -0.80184867638E+02  0.19115190014E+03  0.17200000000E+03 0. -1.
         -6    1    1    2    0  502  0.22302549006E+02 -0.52945478173E+01  0.16435566911E+03  0.23900255626E+03  0.17200000000E+03 0. -1.
</event>
<event>
 4    1  0.4440728E+000  0.1780917E+03  0.7818608E-02  0.1169663E+00
         21   -1    0    0  503  502  0.00000000000E+00  0.00000000000E+00  0.90977529232E+02  0.90977529232E+02  0.00000000000E+00 0.  1.
         21   -1    0    0  501  503 -0.00000000000E+00 -0.00000000000E+00 -0.35290488470E+03  0.35290488470E+03  0.00000000000E+00 0.  1.
          6    1    1    2  501    0  0.59845248737E+01  0.45791280422E+02 -0.15541711267E+03  0.23637075710E+03  0.17200000000E+03 0.  1.
         -6    1    1    2    0  502 -0.59845248737E+01 -0.45791280422E+02 -0.10651024280E+03  0.20751165683E+03  0.17200000000E+03 0.  1.
</event>
<event>
 4    1  0.4440728E+000  0.1905569E+03  0.7818608E-02  0.1157960E+00
         21   -1    0    0  501  502  0.00000000000E+00  0.00000000000E+00  0.17000015134E+02  0.17000015134E+02  0.00000000000E+00 0.  1.
         21   -1    0    0  502  503 -0.00000000000E+00 -0.00000000000E+00 -0.23707245713E+04  0.23707245713E+04  0.00000000000E+00 0.  1.
          6    1    1    2  501    0  0.55857066673E+02  0.60065808688E+02 -0.80119839682E+03  0.82354768188E+03  0.17200000000E+03 0.  1.
         -6    1    1    2    0  503 -0.55857066673E+02 -0.60065808688E+02 -0.15525261593E+04  0.15641769045E+04  0.17200000000E+03 0.  1.
</event>
<event>
 4    1  0.4440728E+000  0.2309793E+03  0.7818608E-02  0.1125952E+00
         21   -1    0    0  501  502  0.00000000000E+00  0.00000000000E+00  0.86240919725E+03  0.86240919725E+03  0.00000000000E+00 0. -1.
         21   -1    0    0  502  503 -0.00000000000E+00 -0.00000000000E+00 -0.85111222425E+02  0.85111222425E+02  0.00000000000E+00 0.  1.
          6    1    1    2  501    0  0.11566548927E+03  0.10192613800E+03  0.14104500201E+03  0.27063838532E+03  0.17200000000E+03 0.  1.
         -6    1    1    2    0  503 -0.11566548927E+03 -0.10192613800E+03  0.63625297281E+03  0.67688203435E+03  0.17200000000E+03 0. -1.
</event>
<event>
 4    1  0.4440728E+000  0.2041880E+03  0.7818608E-02  0.1146253E+00
         21   -1    0    0  501  502  0.00000000000E+00  0.00000000000E+00  0.11287826653E+04  0.11287826653E+04  0.00000000000E+00 0. -1.
         21   -1    0    0  502  503 -0.00000000000E+00 -0.00000000000E+00 -0.37244558914E+02  0.37244558914E+02  0.00000000000E+00 0. -1.
          6    1    1    2  501    0 -0.20312955730E+02  0.10814859460E+03  0.49270443996E+03  0.53333891649E+03  0.17200000000E+03 0. -1.
         -6    1    1    2    0  503  0.20312955730E+02 -0.10814859460E+03  0.59883366639E+03  0.63268830769E+03  0.17200000000E+03 0. -1.
</event>
<event>
 4    1  0.4440728E+000  0.1878059E+03  0.7818608E-02  0.1160455E+00
         21   -1    0    0  501  502  0.00000000000E+00  0.00000000000E+00  0.74879151694E+03  0.74879151694E+03  0.00000000000E+00 0.  1.
         21   -1    0    0  502  503 -0.00000000000E+00 -0.00000000000E+00 -0.18271991077E+03  0.18271991077E+03  0.00000000000E+00 0.  1.
          6    1    1    2  501    0 -0.18243048806E+02 -0.73172789646E+02  0.68429093261E+03  0.70959505806E+03  0.17200000000E+03 0.  1.
         -6    1    1    2    0  503  0.18243048806E+02  0.73172789646E+02 -0.11821932644E+03  0.22191636965E+03  0.17200000000E+03 0.  1.
</event>
<event>
 4    1  0.4440728E+000  0.2105465E+03  0.7818608E-02  0.1141134E+00
         21   -1    0    0  501  502  0.00000000000E+00  0.00000000000E+00  0.16762604332E+03  0.16762604332E+03  0.00000000000E+00 0.  1.
         21   -1    0    0  502  503 -0.00000000000E+00 -0.00000000000E+00 -0.29847832244E+03  0.29847832244E+03  0.00000000000E+00 0. -1.
          6    1    1    2  501    0  0.34439680902E+01 -0.12138353281E+03  0.13255710989E+02  0.21096335423E+03  0.17200000000E+03 0.  1.
         -6    1    1    2    0  503 -0.34439680902E+01  0.12138353281E+03 -0.14410799011E+03  0.25514101153E+03  0.17200000000E+03 0. -1.
</event>
<event>
 4    1  0.4440728E+000  0.1813474E+03  0.7818608E-02  0.1166505E+00
         21   -1    0    0  501  502  0.00000000000E+00  0.00000000000E+00  0.38604483352E+03  0.38604483352E+03  0.00000000000E+00 0.  1.
         21   -1    0    0  502  503 -0.00000000000E+00 -0.00000000000E+00 -0.14637360641E+03  0.14637360641E+03  0.00000000000E+00 0. -1.
          6    1    1    2  501    0 -0.56201800326E+02 -0.12010100855E+02  0.29194785715E+03  0.34368653767E+03  0.17200000000E+03 0.  1.
         -6    1    1    2    0  503  0.56201800326E+02  0.12010100855E+02 -0.52276630044E+02  0.18873190226E+03  0.17200000000E+03 0. -1.
</event>
<event>
 4    1  0.4440728E+000  0.1801284E+03  0.7818608E-02  0.1167679E+00
         21   -1    0    0  501  502  0.00000000000E+00  0.00000000000E+00  0.66161472993E+02  0.66161472993E+02  0.00000000000E+00 0. -1.
         21   -1    0    0  502  503 -0.00000000000E+00 -0.00000000000E+00 -0.49231680844E+03  0.49231680844E+03  0.00000000000E+00 0. -1.
          6    1    1    2  501    0 -0.53422262357E+02 -0.28813016506E+01 -0.19569881161E+03  0.26597794059E+03  0.17200000000E+03 0. -1.
         -6    1    1    2    0  503  0.53422262357E+02  0.28813016506E+01 -0.23045652384E+03  0.29250034084E+03  0.17200000000E+03 0. -1.
</event>
<event>
 4    1  0.4440728E+000  0.2306583E+03  0.7818608E-02  0.1126177E+00
         21   -1    0    0  501  502  0.00000000000E+00  0.00000000000E+00  0.29109079086E+03  0.29109079086E+03  0.00000000000E+00 0. -1.
         21   -1    0    0  502  503 -0.00000000000E+00 -0.00000000000E+00 -0.21805418368E+03  0.21805418368E+03  0.00000000000E+00 0.  1.
          6    1    1    2  501    0  0.12115299187E+03  0.94557940684E+02  0.13891993243E+03  0.26926195278E+03  0.17200000000E+03 0. -1.
         -6    1    1    2    0  503 -0.12115299187E+03 -0.94557940684E+02 -0.65883325246E+02  0.23988302176E+03  0.17200000000E+03 0.  1.
</event>
<event>
 4    1  0.4440728E+000  0.1725409E+03  0.7818608E-02  0.1175224E+00
         21   -1    0    0  501  502  0.00000000000E+00  0.00000000000E+00  0.95042646390E+02  0.95042646390E+02  0.00000000000E+00 0.  1.
         21   -1    0    0  502  503 -0.00000000000E+00 -0.00000000000E+00 -0.65525066720E+03  0.65525066720E+03  0.00000000000E+00 0.  1.
          6    1    1    2  501    0  0.21219681307E+00  0.13650392258E+02 -0.90708787636E+01  0.17277922062E+03  0.17200000000E+03 0.  1.
         -6    1    1    2    0  503 -0.21219681307E+00 -0.13650392258E+02 -0.55113714204E+03  0.57751409297E+03  0.17200000000E+03 0.  1.
</event>
<event>
 4    1  0.4440728E+000  0.1766018E+03  0.7818608E-02  0.1171133E+00
         21   -1    0    0  501  502  0.00000000000E+00  0.00000000000E+00  0.50656435911E+02  0.50656435911E+02  0.00000000000E+00 0. -1.
         21   -1    0    0  502  503 -0.00000000000E+00 -0.00000000000E+00 -0.63376011595E+03  0.63376011595E+03  0.00000000000E+00 0. -1.
          6    1    1    2  501    0  0.32512903543E+02 -0.23390461654E+02 -0.23375324925E+03  0.29296549990E+03  0.17200000000E+03 0. -1.
         -6    1    1    2    0  503 -0.32512903543E+02  0.23390461654E+02 -0.34935043079E+03  0.39145105196E+03  0.17200000000E+03 0. -1.
</event>
<event>
 4    1  0.4440728E+000  0.2092188E+03  0.7818608E-02  0.1142186E+00
         21   -1    0    0  503  502  0.00000000000E+00  0.00000000000E+00  0.18633462134E+03  0.18633462134E+03  0.00000000000E+00 0.  1.
         21   -1    0    0  501  503 -0.00000000000E+00 -0.00000000000E+00 -0.23526079784E+03  0.23526079784E+03  0.00000000000E+00 0.  1.
          6    1    1    2  501    0 -0.29819599583E+02  0.11532249367E+03 -0.32564291179E+02  0.21173785473E+03  0.17200000000E+03 0.  1.
         -6    1    1    2    0  502  0.29819599583E+02 -0.11532249367E+03 -0.16361885317E+02  0.20985756445E+03  0.17200000000E+03 0.  1.
</event>
<event>
 4    1  0.4440728E+000  0.1831243E+03  0.7818608E-02  0.1164813E+00
         21   -1    0    0  503  502  0.00000000000E+00  0.00000000000E+00  0.11685157521E+03  0.11685157521E+03  0.00000000000E+00 0.  1.
         21   -1    0    0  501  503 -0.00000000000E+00 -0.00000000000E+00 -0.34912523879E+03  0.34912523879E+03  0.00000000000E+00 0.  1.
          6    1    1    2  501    0 -0.61030647183E+02  0.15025870002E+02 -0.21443244014E+03  0.28198543943E+03  0.17200000000E+03 0.  1.
         -6    1    1    2    0  502  0.61030647183E+02 -0.15025870002E+02 -0.17841223440E+02  0.18399137458E+03  0.17200000000E+03 0.  1.
</event>
<event>
 4    1  0.4440728E+000  0.1981978E+03  0.7818608E-02  0.1151269E+00
         21   -1    0    0  501  502  0.00000000000E+00  0.00000000000E+00  0.30738739455E+02  0.30738739455E+02  0.00000000000E+00 0. -1.
         21   -1    0    0  502  503 -0.00000000000E+00 -0.00000000000E+00 -0.13217681179E+04  0.13217681179E+04  0.00000000000E+00 0. -1.
          6    1    1    2  501    0  0.43264186781E+01  0.98385166465E+02 -0.76865296673E+03  0.79379452136E+03  0.17200000000E+03 0. -1.
         -6    1    1    2    0  503 -0.43264186781E+01 -0.98385166465E+02 -0.52237641175E+03  0.55871233603E+03  0.17200000000E+03 0. -1.
</event>
<event>
 4    1  0.4440728E+000  0.2280890E+03  0.7818608E-02  0.1127992E+00
         21   -1    0    0  503  502  0.00000000000E+00  0.00000000000E+00  0.20320005579E+03  0.20320005579E+03  0.00000000000E+00 0.  1.
         21   -1    0    0  501  503 -0.00000000000E+00 -0.00000000000E+00 -0.87057904257E+03  0.87057904257E+03  0.00000000000E+00 0.  1.
          6    1    1    2  501    0 -0.14685693563E+03 -0.29557038394E+02 -0.78477657796E+03  0.81725079099E+03  0.17200000000E+03 0.  1.
         -6    1    1    2    0  502  0.14685693563E+03  0.29557038394E+02  0.11739759119E+03  0.25652830736E+03  0.17200000000E+03 0.  1.
</event>
<event>
 4    1  0.4440728E+000  0.2509206E+03  0.7818608E-02  0.1112724E+00
         21   -1    0    0  501  502  0.00000000000E+00  0.00000000000E+00  0.25946049136E+03  0.25946049136E+03  0.00000000000E+00 0. -1.
         21   -1    0    0  502  503 -0.00000000000E+00 -0.00000000000E+00 -0.28077540810E+03  0.28077540810E+03  0.00000000000E+00 0. -1.
          6    1    1    2  501    0  0.12079509715E+03 -0.13706092432E+03  0.88863347900E+02  0.26619137302E+03  0.17200000000E+03 0. -1.
         -6    1    1    2    0  503 -0.12079509715E+03  0.13706092432E+03 -0.11017826464E+03  0.27404452644E+03  0.17200000000E+03 0. -1.
</event>
<event>
 4    1  0.4440728E+000  0.2064912E+03  0.7818608E-02  0.1144375E+00
         21   -1    0    0  503  502  0.00000000000E+00  0.00000000000E+00  0.75233024290E+03  0.75233024290E+03  0.00000000000E+00 0. -1.
         21   -1    0    0  501  503 -0.00000000000E+00 -0.00000000000E+00 -0.85891572257E+02  0.85891572257E+02  0.00000000000E+00 0.  1.
          6    1    1    2  501    0  0.58079308125E+02 -0.98394250250E+02  0.88783330370E+02  0.22476902426E+03  0.17200000000E+03 0.  1.
         -6    1    1    2    0  502 -0.58079308125E+02  0.98394250250E+02  0.57765534027E+03  0.61345279089E+03  0.17200000000E+03 0. -1.
</event>
<event>
 4    1  0.4440728E+000  0.1829100E+03  0.7818608E-02  0.1165016E+00
         21   -1    0    0  501  502  0.00000000000E+00  0.00000000000E+00  0.56059725326E+02  0.56059725326E+02  0.00000000000E+00 0. -1.
         21   -1    0    0  502  503 -0.00000000000E+00 -0.00000000000E+00 -0.11219450775E+04  0.11219450775E+04  0.00000000000E+00 0. -1.
          6    1    1    2  501    0 -0.32176503884E+02 -0.53260904951E+02 -0.12997165798E+03  0.22438512267E+03  0.17200000000E+03 0. -1.
         -6    1    1    2    0  503  0.32176503884E+02  0.53260904951E+02 -0.93591369420E+03  0.95361968016E+03  0.17200000000E+03 0. -1.
</event>
<event>
 4    1  0.4440728E+000  0.2115404E+03  0.7818608E-02  0.1140352E+00
         21   -1    0    0  503  502  0.00000000000E+00  0.00000000000E+00  0.10190740261E+03  0.10190740261E+03  0.00000000000E+00 0.  1.
         21   -1    0    0  501  503 -0.00000000000E+00 -0.00000000000E+00 -0.86934145498E+03  0.86934145498E+03  0.00000000000E+00 0.  1.
          6    1    1    2  501    0 -0.99577346509E+00 -0.12314364235E+03 -0.72534427541E+03  0.75556182149E+03  0.17200000000E+03 0.  1.
         -6    1    1    2    0  502  0.99577346509E+00  0.12314364235E+03 -0.42089776967E+02  0.21568703610E+03  0.17200000000E+03 0.  1.
</event>
<event>
 4    1  0.4440728E+000  0.2128140E+03  0.7818608E-02  0.1139357E+00
         21   -1    0    0  503  502  0.00000000000E+00  0.00000000000E+00  0.78411035724E+03  0.78411035724E+03  0.00000000000E+00 0. -1.
         21   -1    0    0  501  503 -0.00000000000E+00 -0.00000000000E+00 -0.94599283525E+02  0.94599283525E+02  0.00000000000E+00 0. -1.
          6    1    1    2  501    0  0.41938410553E+02 -0.11809723842E+03  0.70579014380E+02  0.22421236646E+03  0.17200000000E+03 0.  1.
         -6    1    1    2    0  502 -0.41938410553E+02  0.11809723842E+03  0.61893205933E+03  0.65449727430E+03  0.17200000000E+03 0.  1.
</event>
<event>
 4    1  0.4440728E+000  0.2058148E+03  0.7818608E-02  0.1144924E+00
         21   -1    0    0  503  502  0.00000000000E+00  0.00000000000E+00  0.54052632199E+03  0.54052632199E+03  0.00000000000E+00 0.  1.
         21   -1    0    0  501  503 -0.00000000000E+00 -0.00000000000E+00 -0.15004632207E+03  0.15004632207E+03  0.00000000000E+00 0. -1.
          6    1    1    2  501    0  0.64185642618E+02 -0.93037283688E+02 -0.43410266599E+02  0.21034301538E+03  0.17200000000E+03 0. -1.
         -6    1    1    2    0  502 -0.64185642618E+02  0.93037283688E+02  0.43389026652E+03  0.48022962867E+03  0.17200000000E+03 0.  1.
</event>
<event>
 4    1  0.4440728E+000  0.1779811E+03  0.7818608E-02  0.1169771E+00
         21   -1    0    0  501  502  0.00000000000E+00  0.00000000000E+00  0.24719233496E+03  0.24719233496E+03  0.00000000000E+00 0. -1.
         21   -1    0    0  502  503 -0.00000000000E+00 -0.00000000000E+00 -0.18574019305E+03  0.18574019305E+03  0.00000000000E+00 0. -1.
          6    1    1    2  501    0 -0.40614339741E+02 -0.21065714112E+02  0.15126234939E+03  0.23357565637E+03  0.17200000000E+03 0. -1.
         -6    1    1    2    0  503  0.40614339741E+02  0.21065714112E+02 -0.89810207489E+02  0.19935687165E+03  0.17200000000E+03 0. -1.
</event>
<event>
 4    1  0.4440728E+000  0.2886661E+03  0.7818608E-02  0.1091048E+00
         21   -1    0    0  501  502  0.00000000000E+00  0.00000000000E+00  0.31321183276E+04  0.31321183276E+04  0.00000000000E+00 0.  1.
         21   -1    0    0  502  503 -0.00000000000E+00 -0.00000000000E+00 -0.32886706491E+02  0.32886706491E+02  0.00000000000E+00 0. -1.
          6    1    1    2  501    0 -0.13167908667E+03  0.19080031311E+03  0.22412773712E+04  0.22597903434E+04  0.17200000000E+03 0.  1.
         -6    1    1    2    0  503  0.13167908667E+03 -0.19080031311E+03  0.85795424989E+03  0.90521469070E+03  0.17200000000E+03 0. -1.
</event>
<event>
 4    1  0.4440728E+000  0.6089384E+03  0.7818608E-02  0.9887033E-01
         21   -1    0    0  503  502  0.00000000000E+00  0.00000000000E+00  0.18078976535E+03  0.18078976535E+03  0.00000000000E+00 0.  1.
         21   -1    0    0  501  503 -0.00000000000E+00 -0.00000000000E+00 -0.22007837835E+04  0.22007837835E+04  0.00000000000E+00 0. -1.
          6    1    1    2  501    0 -0.43994464649E+03 -0.38427947688E+03 -0.13206159914E+04  0.14542464045E+04  0.17200000000E+03 0.  1.
         -6    1    1    2    0  502  0.43994464649E+03  0.38427947688E+03 -0.69937802677E+03  0.92732714435E+03  0.17200000000E+03 0. -1.
</event>
<event>
 4    1  0.4440728E+000  0.2499650E+03  0.7818608E-02  0.1113327E+00
         21   -1    0    0  501  502  0.00000000000E+00  0.00000000000E+00  0.10312956051E+03  0.10312956051E+03  0.00000000000E+00 0. -1.
         21   -1    0    0  502  503 -0.00000000000E+00 -0.00000000000E+00 -0.11636293325E+04  0.11636293325E+04  0.00000000000E+00 0.  1.
          6    1    1    2  501    0  0.13499917344E+03 -0.12113511067E+03 -0.91736979371E+02  0.26626709382E+03  0.17200000000E+03 0. -1.
         -6    1    1    2    0  503 -0.13499917344E+03  0.12113511067E+03 -0.96876279262E+03  0.10004917992E+04  0.17200000000E+03 0.  1.
</event>
<event>
 4    1  0.4440728E+000  0.1801320E+03  0.7818608E-02  0.1167675E+00
         21   -1    0    0  501  502  0.00000000000E+00  0.00000000000E+00  0.40567663766E+02  0.40567663766E+02  0.00000000000E+00 0. -1.
         21   -1    0    0  502  503 -0.00000000000E+00 -0.00000000000E+00 -0.11244437689E+04  0.11244437689E+04  0.00000000000E+00 0. -1.
          6    1    1    2  501    0 -0.38479492282E+02 -0.37187144462E+02 -0.22896315669E+03  0.29132744835E+03  0.17200000000E+03 0. -1.
         -6    1    1    2    0  503  0.38479492282E+02  0.37187144462E+02 -0.85491294847E+03  0.87368398434E+03  0.17200000000E+03 0. -1.
</event>
<event>
 4    1  0.4440728E+000  0.1748033E+03  0.7818608E-02  0.1172929E+00
         21   -1    0    0  501  502  0.00000000000E+00  0.00000000000E+00  0.10947649794E+03  0.10947649794E+03  0.00000000000E+00 0. -1.
         21   -1    0    0  502  503 -0.00000000000E+00 -0.00000000000E+00 -0.34504107185E+03  0.34504107185E+03  0.00000000000E+00 0. -1.
          6    1    1    2  501    0 -0.26841571552E+02  0.15865750259E+02 -0.18442291887E+02  0.17577346252E+03  0.17200000000E+03 0. -1.
         -6    1    1    2    0  503  0.26841571552E+02 -0.15865750259E+02 -0.21712228202E+03  0.27874410728E+03  0.17200000000E+03 0. -1.
</event>
<event>
 4    1  0.4440728E+000  0.2069211E+03  0.7818608E-02  0.1144028E+00
         21   -1    0    0  501  502  0.00000000000E+00  0.00000000000E+00  0.28449677518E+04  0.28449677518E+04  0.00000000000E+00 0.  1.
         21   -1    0    0  502  503 -0.00000000000E+00 -0.00000000000E+00 -0.28993703608E+02  0.28993703608E+02  0.00000000000E+00 0. -1.
          6    1    1    2  501    0 -0.11496007234E+03 -0.40630409267E+01  0.24045174561E+04  0.24134043431E+04  0.17200000000E+03 0.  1.
         -6    1    1    2    0  503  0.11496007234E+03  0.40630409267E+01  0.41145659209E+03  0.46055711232E+03  0.17200000000E+03 0. -1.
</event>
<event>
 4    1  0.4440728E+000  0.2327837E+03  0.7818608E-02  0.1124696E+00
         21   -1    0    0  503  502  0.00000000000E+00  0.00000000000E+00  0.78344099379E+03  0.78344099379E+03  0.00000000000E+00 0. -1.
         21   -1    0    0  501  503 -0.00000000000E+00 -0.00000000000E+00 -0.74508151408E+02  0.74508151408E+02  0.00000000000E+00 0.  1.
          6    1    1    2  501    0  0.15662389314E+03  0.85548155434E+01  0.46932115197E+03  0.52388030356E+03  0.17200000000E+03 0. -1.
         -6    1    1    2    0  502 -0.15662389314E+03 -0.85548155434E+01  0.23961169040E+03  0.33406884163E+03  0.17200000000E+03 0.  1.
</event>
<event>
 4    1  0.4440728E+000  0.1824316E+03  0.7818608E-02  0.1165470E+00
         21   -1    0    0  501  502  0.00000000000E+00  0.00000000000E+00  0.27904722343E+02  0.27904722343E+02  0.00000000000E+00 0. -1.
         21   -1    0    0  502  503 -0.00000000000E+00 -0.00000000000E+00 -0.11993180066E+04  0.11993180066E+04  0.00000000000E+00 0. -1.
          6    1    1    2  501    0 -0.54048201679E+02 -0.27857935580E+02 -0.54003998361E+03  0.57002145273E+03  0.17200000000E+03 0. -1.
         -6    1    1    2    0  503  0.54048201679E+02  0.27857935580E+02 -0.63137330062E+03  0.65720127618E+03  0.17200000000E+03 0. -1.
</event>
<event>
 4    1  0.4440728E+000  0.1727340E+03  0.7818608E-02  0.1175026E+00
         21   -1    0    0  503  502  0.00000000000E+00  0.00000000000E+00  0.30280417748E+02  0.30280417748E+02  0.00000000000E+00 0. -1.
         21   -1    0    0  501  503 -0.00000000000E+00 -0.00000000000E+00 -0.11309363715E+04  0.11309363715E+04  0.00000000000E+00 0. -1.
          6    1    1    2  501    0 -0.13690102716E+02 -0.81003714377E+01 -0.75863959291E+03  0.77805595355E+03  0.17200000000E+03 0. -1.
         -6    1    1    2    0  502  0.13690102716E+02  0.81003714377E+01 -0.34201636088E+03  0.38316083573E+03  0.17200000000E+03 0. -1.
</event>
<event>
 4    1  0.4440728E+000  0.1914620E+03  0.7818608E-02  0.1157149E+00
         21   -1    0    0  501  502  0.00000000000E+00  0.00000000000E+00  0.15687148328E+03  0.15687148328E+03  0.00000000000E+00 0.  1.
         21   -1    0    0  502  503 -0.00000000000E+00 -0.00000000000E+00 -0.33207085572E+03  0.33207085572E+03  0.00000000000E+00 0.  1.
          6    1    1    2  501    0 -0.18922958723E+02 -0.81948899692E+02  0.45473338322E+02  0.19678802053E+03  0.17200000000E+03 0.  1.
         -6    1    1    2    0  503  0.18922958723E+02  0.81948899692E+02 -0.22067271076E+03  0.29215431847E+03  0.17200000000E+03 0.  1.
</event>
<event>
 4    1  0.4440728E+000  0.2034721E+03  0.7818608E-02  0.1146842E+00
         21   -1    0    0  503  502  0.00000000000E+00  0.00000000000E+00  0.96099909884E+03  0.96099909884E+03  0.00000000000E+00 0. -1.
         21   -1    0    0  501  503 -0.00000000000E+00 -0.00000000000E+00 -0.11768808922E+03  0.11768808922E+03  0.00000000000E+00 0. -1.
          6    1    1    2  501    0 -0.22670500302E+02  0.10631523803E+03 -0.77712283902E+01  0.20362041502E+03  0.17200000000E+03 0. -1.
         -6    1    1    2    0  502  0.22670500302E+02 -0.10631523803E+03  0.85108223801E+03  0.87506677304E+03  0.17200000000E+03 0. -1.
</event>
<event>
 4    1  0.4440728E+000  0.2238037E+03  0.7818608E-02  0.1131079E+00
         21   -1    0    0  501  502  0.00000000000E+00  0.00000000000E+00  0.10141818698E+03  0.10141818698E+03  0.00000000000E+00 0.  1.
         21   -1    0    0  502  503 -0.00000000000E+00 -0.00000000000E+00 -0.49435793160E+03  0.49435793160E+03  0.00000000000E+00 0.  1.
          6    1    1    2  501    0  0.58529611005E+02 -0.13068422884E+03 -0.18717606370E+03  0.29175839637E+03  0.17200000000E+03 0.  1.
         -6    1    1    2    0  503 -0.58529611005E+02  0.13068422884E+03 -0.20576368092E+03  0.30401772221E+03  0.17200000000E+03 0.  1.
</event>
<event>
 4    1  0.4440728E+000  0.2296526E+03  0.7818608E-02  0.1126885E+00
         21   -1    0    0  501  502  0.00000000000E+00  0.00000000000E+00  0.76670613032E+02  0.76670613032E+02  0.00000000000E+00 0. -1.
         21   -1    0    0  502  503 -0.00000000000E+00 -0.00000000000E+00 -0.88624135911E+03  0.88624135911E+03  0.00000000000E+00 0.  1.
          6    1    1    2  501    0 -0.14381664301E+03  0.49729998516E+02 -0.17700965054E+03  0.28995295470E+03  0.17200000000E+03 0. -1.
         -6    1    1    2    0  503  0.14381664301E+03 -0.49729998516E+02 -0.63256109554E+03  0.67295901744E+03  0.17200000000E+03 0.  1.
</event>
<event>
 4    1  0.4440728E+000  0.2070487E+03  0.7818608E-02  0.1143925E+00
         21   -1    0    0  503  502  0.00000000000E+00  0.00000000000E+00  0.27178479768E+04  0.27178479768E+04  0.00000000000E+00 0.  1.
         21   -1    0    0  501  503 -0.00000000000E+00 -0.00000000000E+00 -0.15963032196E+02  0.15963032196E+02  0.00000000000E+00 0.  1.
          6    1    1    2  501    0  0.11178853643E+03 -0.28079715303E+02  0.12018790936E+04  0.12195829217E+04  0.17200000000E+03 0.  1.
         -6    1    1    2    0  502 -0.11178853643E+03  0.28079715303E+02  0.15000058511E+04  0.15142280873E+04  0.17200000000E+03 0.  1.
</event>
<event>
 4    1  0.4440728E+000  0.2645222E+03  0.7818608E-02  0.1104456E+00
         21   -1    0    0  501  502  0.00000000000E+00  0.00000000000E+00  0.29172671099E+03  0.29172671099E+03  0.00000000000E+00 0. -1.
         21   -1    0    0  502  503 -0.00000000000E+00 -0.00000000000E+00 -0.26111140624E+03  0.26111140624E+03  0.00000000000E+00 0.  1.
          6    1    1    2  501    0  0.13900512374E+03 -0.14513980519E+03  0.94176279700E+02  0.28078667905E+03  0.17200000000E+03 0.  1.
         -6    1    1    2    0  503 -0.13900512374E+03  0.14513980519E+03 -0.63560974959E+02  0.27205143818E+03  0.17200000000E+03 0. -1.
</event>
<event>
 4    1  0.4440728E+000  0.1772158E+03  0.7818608E-02  0.1170525E+00
         21   -1    0    0  501  502  0.00000000000E+00  0.00000000000E+00  0.89175853412E+02  0.89175853412E+02  0.00000000000E+00 0.  1.
         21   -1    0    0  502  503 -0.00000000000E+00 -0.00000000000E+00 -0.35461884863E+03  0.35461884863E+03  0.00000000000E+00 0. -1.
          6    1    1    2  501    0 -0.32302125389E+02 -0.27893114984E+02 -0.11429846287E+03  0.21087814439E+03  0.17200000000E+03 0. -1.
         -6    1    1    2    0  503  0.32302125389E+02  0.27893114984E+02 -0.15114453234E+03  0.23291655765E+03  0.17200000000E+03 0. -1.
</event>
<event>
 4    1  0.4440728E+000  0.2398196E+03  0.7818608E-02  0.1119913E+00
         21   -1    0    0  501  502  0.00000000000E+00  0.00000000000E+00  0.83811453947E+02  0.83811453947E+02  0.00000000000E+00 0.  1.
         21   -1    0    0  502  503 -0.00000000000E+00 -0.00000000000E+00 -0.69815158762E+03  0.69815158762E+03  0.00000000000E+00 0.  1.
          6    1    1    2  501    0 -0.15849077210E+03 -0.53010697593E+02 -0.35827368524E+03  0.43113048191E+03  0.17200000000E+03 0.  1.
         -6    1    1    2    0  503  0.15849077210E+03  0.53010697593E+02 -0.25606644844E+03  0.35083255966E+03  0.17200000000E+03 0.  1.
</event>
<event>
 4    1  0.4440728E+000  0.1814770E+03  0.7818608E-02  0.1166381E+00
         21   -1    0    0  503  502  0.00000000000E+00  0.00000000000E+00  0.39651782354E+03  0.39651782354E+03  0.00000000000E+00 0. -1.
         21   -1    0    0  501  503 -0.00000000000E+00 -0.00000000000E+00 -0.49241022105E+03  0.49241022105E+03  0.00000000000E+00 0. -1.
          6    1    1    2  501    0  0.24673332572E+02 -0.52355616630E+02 -0.45319504144E+03  0.48817991511E+03  0.17200000000E+03 0. -1.
         -6    1    1    2    0  502 -0.24673332572E+02  0.52355616630E+02  0.35730264392E+03  0.40074812949E+03  0.17200000000E+03 0. -1.
</event>
<event>
 4    1  0.4440728E+000  0.1949221E+03  0.7818608E-02  0.1154095E+00
         21   -1    0    0  501  502  0.00000000000E+00  0.00000000000E+00  0.99099368525E+03  0.99099368525E+03  0.00000000000E+00 0. -1.
         21   -1    0    0  502  503 -0.00000000000E+00 -0.00000000000E+00 -0.59602806198E+02  0.59602806198E+02  0.00000000000E+00 0. -1.
          6    1    1    2  501    0 -0.90717466397E+02  0.13453078235E+02  0.77944522838E+03  0.80344850990E+03  0.17200000000E+03 0. -1.
         -6    1    1    2    0  503  0.90717466397E+02 -0.13453078235E+02  0.15194565068E+03  0.24714798155E+03  0.17200000000E+03 0. -1.
</event>
<event>
 4    1  0.4440728E+000  0.1820986E+03  0.7818608E-02  0.1165787E+00
         21   -1    0    0  503  502  0.00000000000E+00  0.00000000000E+00  0.44690783487E+03  0.44690783487E+03  0.00000000000E+00 0.  1.
         21   -1    0    0  501  503 -0.00000000000E+00 -0.00000000000E+00 -0.84320963201E+02  0.84320963201E+02  0.00000000000E+00 0.  1.
          6    1    1    2  501    0  0.10663691813E+02  0.58840301860E+02  0.89264007486E+02  0.20280029211E+03  0.17200000000E+03 0.  1.
         -6    1    1    2    0  502 -0.10663691813E+02 -0.58840301860E+02  0.27332286419E+03  0.32842850597E+03  0.17200000000E+03 0.  1.
</event>
<event>
 4    1  0.4440728E+000  0.2001050E+03  0.7818608E-02  0.1149650E+00
         21   -1    0    0  501  502  0.00000000000E+00  0.00000000000E+00  0.19906827531E+03  0.19906827531E+03  0.00000000000E+00 0. -1.
         21   -1    0    0  502  503 -0.00000000000E+00 -0.00000000000E+00 -0.22671274277E+03  0.22671274277E+03  0.00000000000E+00 0. -1.
          6    1    1    2  501    0 -0.10015499102E+03 -0.20664181033E+02 -0.85312292659E+02  0.21753210771E+03  0.17200000000E+03 0. -1.
         -6    1    1    2    0  503  0.10015499102E+03  0.20664181033E+02  0.57667825199E+02  0.20824891036E+03  0.17200000000E+03 0. -1.
</event>
<event>
 4    1  0.4440728E+000  0.2094705E+03  0.7818608E-02  0.1141986E+00
         21   -1    0    0  501  502  0.00000000000E+00  0.00000000000E+00  0.33110279092E+03  0.33110279092E+03  0.00000000000E+00 0.  1.
         21   -1    0    0  502  503 -0.00000000000E+00 -0.00000000000E+00 -0.15119160387E+03  0.15119160387E+03  0.00000000000E+00 0.  1.
          6    1    1    2  501    0  0.11767459125E+03 -0.21132824736E+02  0.17469851635E+03  0.27275900961E+03  0.17200000000E+03 0.  1.
         -6    1    1    2    0  503 -0.11767459125E+03  0.21132824736E+02  0.52126706899E+01  0.20953538518E+03  0.17200000000E+03 0.  1.
</event>
<event>
 4    1  0.4440728E+000  0.2860143E+03  0.7818608E-02  0.1092449E+00
         21   -1    0    0  501  502  0.00000000000E+00  0.00000000000E+00  0.11230639681E+03  0.11230639681E+03  0.00000000000E+00 0. -1.
         21   -1    0    0  502  503 -0.00000000000E+00 -0.00000000000E+00 -0.73567393571E+03  0.73567393571E+03  0.00000000000E+00 0. -1.
          6    1    1    2  501    0 -0.18669868475E+03 -0.13177176768E+03 -0.35383786894E+03  0.45497849964E+03  0.17200000000E+03 0. -1.
         -6    1    1    2    0  503  0.18669868475E+03  0.13177176768E+03 -0.26952966997E+03  0.39300183287E+03  0.17200000000E+03 0. -1.
</event>
<event>
 4    1  0.4440728E+000  0.2139378E+03  0.7818608E-02  0.1138485E+00
         21   -1    0    0  503  502  0.00000000000E+00  0.00000000000E+00  0.21535372601E+03  0.21535372601E+03  0.00000000000E+00 0.  1.
         21   -1    0    0  501  503 -0.00000000000E+00 -0.00000000000E+00 -0.21945448110E+03  0.21945448110E+03  0.00000000000E+00 0. -1.
          6    1    1    2  501    0 -0.12542649219E+03 -0.21297520794E+02 -0.40664927753E+02  0.21776828438E+03  0.17200000000E+03 0. -1.
         -6    1    1    2    0  502  0.12542649219E+03  0.21297520794E+02  0.36564172666E+02  0.21703992273E+03  0.17200000000E+03 0.  1.
</event>
<event>
 4    1  0.4440728E+000  0.2804275E+03  0.7818608E-02  0.1095456E+00
         21   -1    0    0  501  502  0.00000000000E+00  0.00000000000E+00  0.62085050761E+02  0.62085050761E+02  0.00000000000E+00 0. -1.
         21   -1    0    0  502  503 -0.00000000000E+00 -0.00000000000E+00 -0.13065986418E+04  0.13065986418E+04  0.00000000000E+00 0. -1.
          6    1    1    2  501    0 -0.40229168189E+02 -0.21780080831E+03 -0.74192878987E+03  0.79315692477E+03  0.17200000000E+03 0. -1.
         -6    1    1    2    0  503  0.40229168189E+02  0.21780080831E+03 -0.50258480114E+03  0.57552676776E+03  0.17200000000E+03 0. -1.
</event>
<event>
 4    1  0.4440728E+000  0.1815413E+03  0.7818608E-02  0.1166320E+00
         21   -1    0    0  501  502  0.00000000000E+00  0.00000000000E+00  0.21308070090E+04  0.21308070090E+04  0.00000000000E+00 0. -1.
         21   -1    0    0  502  503 -0.00000000000E+00 -0.00000000000E+00 -0.15488122129E+02  0.15488122129E+02  0.00000000000E+00 0. -1.
          6    1    1    2  501    0  0.57635025496E+02  0.71736892578E+01  0.10972608279E+04  0.11121774060E+04  0.17200000000E+03 0. -1.
         -6    1    1    2    0  503 -0.57635025496E+02 -0.71736892578E+01  0.10180580589E+04  0.10341177251E+04  0.17200000000E+03 0. -1.
</event>
<event>
 4    1  0.4440728E+000  0.3093479E+03  0.7818608E-02  0.1080659E+00
         21   -1    0    0  501  502  0.00000000000E+00  0.00000000000E+00  0.19605993444E+03  0.19605993444E+03  0.00000000000E+00 0. -1.
         21   -1    0    0  502  503 -0.00000000000E+00 -0.00000000000E+00 -0.71798356830E+03  0.71798356830E+03  0.00000000000E+00 0. -1.
          6    1    1    2  501    0 -0.12362964483E+03  0.22545030112E+03 -0.23567181243E+01  0.30935688367E+03  0.17200000000E+03 0. -1.
         -6    1    1    2    0  503  0.12362964483E+03 -0.22545030112E+03 -0.51956691574E+03  0.60468661907E+03  0.17200000000E+03 0. -1.
</event>
<event>
 4    1  0.4440728E+000  0.1745927E+03  0.7818608E-02  0.1173141E+00
         21   -1    0    0  503  502  0.00000000000E+00  0.00000000000E+00  0.80269400824E+02  0.80269400824E+02  0.00000000000E+00 0. -1.
         21   -1    0    0  501  503 -0.00000000000E+00 -0.00000000000E+00 -0.38123559131E+03  0.38123559131E+03  0.00000000000E+00 0. -1.
          6    1    1    2  501    0  0.12925105662E+02  0.27047505266E+02 -0.16486823749E+03  0.24013363286E+03  0.17200000000E+03 0. -1.
         -6    1    1    2    0  502 -0.12925105662E+02 -0.27047505266E+02 -0.13609795299E+03  0.22137135927E+03  0.17200000000E+03 0. -1.
</event>
<event>
 4    1  0.4440728E+000  0.1767465E+03  0.7818608E-02  0.1170989E+00
         21   -1    0    0  503  502  0.00000000000E+00  0.00000000000E+00  0.46431540832E+03  0.46431540832E+03  0.00000000000E+00 0. -1.
         21   -1    0    0  501  503 -0.00000000000E+00 -0.00000000000E+00 -0.96224231452E+02  0.96224231452E+02  0.00000000000E+00 0. -1.
          6    1    1    2  501    0  0.36760853406E+02  0.17434417223E+02  0.30332009402E+02  0.17933028200E+03  0.17200000000E+03 0.  1.
         -6    1    1    2    0  502 -0.36760853406E+02 -0.17434417223E+02  0.33775916747E+03  0.38120935777E+03  0.17200000000E+03 0.  1.
</event>
<event>
 4    1  0.4440728E+000  0.2025413E+03  0.7818608E-02  0.1147612E+00
         21   -1    0    0  503  502  0.00000000000E+00  0.00000000000E+00  0.53012952253E+03  0.53012952253E+03  0.00000000000E+00 0.  1.
         21   -1    0    0  501  503 -0.00000000000E+00 -0.00000000000E+00 -0.11194570352E+03  0.11194570352E+03  0.00000000000E+00 0.  1.
          6    1    1    2  501    0  0.63629143327E+02 -0.85966805814E+02  0.30707585530E+02  0.20485584051E+03  0.17200000000E+03 0.  1.
         -6    1    1    2    0  502 -0.63629143327E+02  0.85966805814E+02  0.38747623348E+03  0.43721938554E+03  0.17200000000E+03 0.  1.
</event>
<event>
 4    1  0.4440728E+000  0.1837993E+03  0.7818608E-02  0.1164176E+00
         21   -1    0    0  503  502  0.00000000000E+00  0.00000000000E+00  0.97185715400E+02  0.97185715400E+02  0.00000000000E+00 0.  1.
         21   -1    0    0  501  503 -0.00000000000E+00 -0.00000000000E+00 -0.36958502173E+03  0.36958502173E+03  0.00000000000E+00 0.  1.
          6    1    1    2  501    0 -0.33853999805E+02 -0.55245711355E+02 -0.79283378317E+02  0.20017001774E+03  0.17200000000E+03 0.  1.
         -6    1    1    2    0  502  0.33853999805E+02  0.55245711355E+02 -0.19311592802E+03  0.26660071939E+03  0.17200000000E+03 0.  1.
</event>
<event>
 4    1  0.4440728E+000  0.1907105E+03  0.7818608E-02  0.1157822E+00
         21   -1    0    0  503  502  0.00000000000E+00  0.00000000000E+00  0.14461636253E+03  0.14461636253E+03  0.00000000000E+00 0. -1.
         21   -1    0    0  501  503 -0.00000000000E+00 -0.00000000000E+00 -0.21339905109E+04  0.21339905109E+04  0.00000000000E+00 0. -1.
          6    1    1    2  501    0 -0.78239842263E+02  0.25788140240E+02 -0.20647516162E+04  0.20735403873E+04  0.17200000000E+03 0. -1.
         -6    1    1    2    0  502  0.78239842263E+02 -0.25788140240E+02  0.75377467808E+02  0.20506648616E+03  0.17200000000E+03 0. -1.
</event>
<event>
 4    1  0.4440728E+000  0.3037218E+03  0.7818608E-02  0.1083395E+00
         21   -1    0    0  503  502  0.00000000000E+00  0.00000000000E+00  0.20468245267E+04  0.20468245267E+04  0.00000000000E+00 0. -1.
         21   -1    0    0  501  503 -0.00000000000E+00 -0.00000000000E+00 -0.58478270729E+02  0.58478270729E+02  0.00000000000E+00 0. -1.
          6    1    1    2  501    0 -0.24395886550E+03 -0.56098172009E+02  0.49009137179E+03  0.57657305318E+03  0.17200000000E+03 0. -1.
         -6    1    1    2    0  502  0.24395886550E+03  0.56098172009E+02  0.14982548842E+04  0.15287297442E+04  0.17200000000E+03 0. -1.
</event>
<event>
 4    1  0.4440728E+000  0.1817615E+03  0.7818608E-02  0.1166109E+00
         21   -1    0    0  503  502  0.00000000000E+00  0.00000000000E+00  0.30536099208E+03  0.30536099208E+03  0.00000000000E+00 0. -1.
         21   -1    0    0  501  503 -0.00000000000E+00 -0.00000000000E+00 -0.24766844127E+03  0.24766844127E+03  0.00000000000E+00 0. -1.
          6    1    1    2  501    0 -0.19386048895E+02  0.55474576806E+02 -0.17866190613E+03  0.25486726794E+03  0.17200000000E+03 0. -1.
         -6    1    1    2    0  502  0.19386048895E+02 -0.55474576806E+02  0.23635445694E+03  0.29816216541E+03  0.17200000000E+03 0. -1.
</event>
<event>
 4    1  0.4440728E+000  0.1984405E+03  0.7818608E-02  0.1151061E+00
         21   -1    0    0  503  502  0.00000000000E+00  0.00000000000E+00  0.43137703180E+03  0.43137703180E+03  0.00000000000E+00 0.  1.
         21   -1    0    0  501  503 -0.00000000000E+00 -0.00000000000E+00 -0.91306792205E+02  0.91306792205E+02  0.00000000000E+00 0. -1.
          6    1    1    2  501    0 -0.21167380304E+02 -0.96677691733E+02  0.16608048226E+03  0.25876893294E+03  0.17200000000E+03 0.  1.
         -6    1    1    2    0  502  0.21167380304E+02  0.96677691733E+02  0.17398975733E+03  0.26391489106E+03  0.17200000000E+03 0.  1.
</event>
<event>
 4    1  0.4440728E+000  0.2381988E+03  0.7818608E-02  0.1120999E+00
         21   -1    0    0  501  502  0.00000000000E+00  0.00000000000E+00  0.12176904144E+03  0.12176904144E+03  0.00000000000E+00 0.  1.
         21   -1    0    0  502  503 -0.00000000000E+00 -0.00000000000E+00 -0.47228538165E+03  0.47228538165E+03  0.00000000000E+00 0. -1.
          6    1    1    2  501    0 -0.86983926727E+02  0.13995877076E+03 -0.20965151938E+03  0.31732069047E+03  0.17200000000E+03 0. -1.
         -6    1    1    2    0  503  0.86983926727E+02 -0.13995877076E+03 -0.14086482083E+03  0.27673373262E+03  0.17200000000E+03 0. -1.
</event>
<event>
 4    1  0.4440728E+000  0.2366267E+03  0.7818608E-02  0.1122061E+00
         21   -1    0    0  503  502  0.00000000000E+00  0.00000000000E+00  0.37688520418E+03  0.37688520418E+03  0.00000000000E+00 0.  1.
         21   -1    0    0  501  503 -0.00000000000E+00 -0.00000000000E+00 -0.15233905898E+03  0.15233905898E+03  0.00000000000E+00 0. -1.
          6    1    1    2  501    0  0.99724542575E+02 -0.12830906627E+03  0.70627368399E+02  0.24694215121E+03  0.17200000000E+03 0.  1.
         -6    1    1    2    0  502 -0.99724542575E+02  0.12830906627E+03  0.15391877680E+03  0.28228211196E+03  0.17200000000E+03 0. -1.
</event>
<event>
 4    1  0.4440728E+000  0.2840021E+03  0.7818608E-02  0.1093523E+00
         21   -1    0    0  503  502  0.00000000000E+00  0.00000000000E+00  0.24064211481E+03  0.24064211481E+03  0.00000000000E+00 0.  1.
         21   -1    0    0  501  503 -0.00000000000E+00 -0.00000000000E+00 -0.56275035274E+03  0.56275035274E+03  0.00000000000E+00 0. -1.
          6    1    1    2  501    0  0.19841513856E+03  0.10818780673E+03 -0.41650222720E+03  0.50411434615E+03  0.17200000000E+03 0. -1.
         -6    1    1    2    0  502 -0.19841513856E+03 -0.10818780673E+03  0.94393989269E+02  0.29927812139E+03  0.17200000000E+03 0.  1.
</event>
<event>
 4    1  0.4440728E+000  0.2044135E+03  0.7818608E-02  0.1146068E+00
         21   -1    0    0  503  502  0.00000000000E+00  0.00000000000E+00  0.11556969570E+03  0.11556969570E+03  0.00000000000E+00 0. -1.
         21   -1    0    0  501  503 -0.00000000000E+00 -0.00000000000E+00 -0.36261755501E+03  0.36261755501E+03  0.00000000000E+00 0. -1.
          6    1    1    2  501    0  0.98630138325E+02 -0.49728854151E+02 -0.13646320643E+03  0.24577849749E+03  0.17200000000E+03 0. -1.
         -6    1    1    2    0  502 -0.98630138325E+02  0.49728854151E+02 -0.11058465288E+03  0.23240875322E+03  0.17200000000E+03 0. -1.
</event>
<event>
 4    1  0.4440728E+000  0.2021558E+03  0.7818608E-02  0.1147933E+00
         21   -1    0    0  501  502  0.00000000000E+00  0.00000000000E+00  0.23743057026E+03  0.23743057026E+03  0.00000000000E+00 0. -1.
         21   -1    0    0  502  503 -0.00000000000E+00 -0.00000000000E+00 -0.18937054414E+03  0.18937054414E+03  0.00000000000E+00 0.  1.
          6    1    1    2  501    0 -0.46251290291E+02  0.95623228109E+02  0.88434738341E+02  0.22065286437E+03  0.17200000000E+03 0. -1.
         -6    1    1    2    0  503  0.46251290291E+02 -0.95623228109E+02 -0.40374712217E+02  0.20614825004E+03  0.17200000000E+03 0.  1.
</event>
<event>
 4    1  0.4440728E+000  0.1772316E+03  0.7818608E-02  0.1170510E+00
         21   -1    0    0  503  502  0.00000000000E+00  0.00000000000E+00  0.54917758013E+02  0.54917758013E+02  0.00000000000E+00 0.  1.
         21   -1    0    0  501  503 -0.00000000000E+00 -0.00000000000E+00 -0.78200738376E+03  0.78200738376E+03  0.00000000000E+00 0.  1.
          6    1    1    2  501    0  0.98572926933E+01  0.41591704283E+02 -0.14667223113E+03  0.23005168869E+03  0.17200000000E+03 0. -1.
         -6    1    1    2    0  502 -0.98572926933E+01 -0.41591704283E+02 -0.58041739461E+03  0.60687345308E+03  0.17200000000E+03 0. -1.
</event>
<event>
 4    1  0.4440728E+000  0.1856457E+03  0.7818608E-02  0.1162448E+00
         21   -1    0    0  501  502  0.00000000000E+00  0.00000000000E+00  0.38701298073E+03  0.38701298073E+03  0.00000000000E+00 0.  1.
         21   -1    0    0  502  503 -0.00000000000E+00 -0.00000000000E+00 -0.11024217174E+03  0.11024217174E+03  0.00000000000E+00 0. -1.
          6    1    1    2  501    0 -0.68940706780E+02 -0.11292332458E+02  0.29381733993E+02  0.18795644207E+03  0.17200000000E+03 0.  1.
         -6    1    1    2    0  503  0.68940706780E+02  0.11292332458E+02  0.24738907500E+03  0.30929871040E+03  0.17200000000E+03 0. -1.
</event>
<event>
 4    1  0.4440728E+000  0.2067787E+03  0.7818608E-02  0.1144143E+00
         21   -1    0    0  501  502  0.00000000000E+00  0.00000000000E+00  0.12563808891E+03  0.12563808891E+03  0.00000000000E+00 0. -1.
         21   -1    0    0  502  503 -0.00000000000E+00 -0.00000000000E+00 -0.41710985435E+03  0.41710985435E+03  0.00000000000E+00 0. -1.
          6    1    1    2  501    0  0.10911275148E+03 -0.35606615002E+02 -0.29299466605E+02  0.20884415795E+03  0.17200000000E+03 0. -1.
         -6    1    1    2    0  503 -0.10911275148E+03  0.35606615002E+02 -0.26217229884E+03  0.33390378531E+03  0.17200000000E+03 0. -1.
</event>
<event>
 4    1  0.4440728E+000  0.1947297E+03  0.7818608E-02  0.1154263E+00
         21   -1    0    0  501  502  0.00000000000E+00  0.00000000000E+00  0.60514835227E+02  0.60514835227E+02  0.00000000000E+00 0.  1.
         21   -1    0    0  502  503 -0.00000000000E+00 -0.00000000000E+00 -0.72735146837E+03  0.72735146837E+03  0.00000000000E+00 0. -1.
          6    1    1    2  501    0 -0.80160027101E+02  0.43704030236E+02 -0.18681705045E+03  0.26985233470E+03  0.17200000000E+03 0.  1.
         -6    1    1    2    0  503  0.80160027101E+02 -0.43704030236E+02 -0.48001958270E+03  0.51801396890E+03  0.17200000000E+03 0. -1.
</event>
<event>
 4    1  0.4440728E+000  0.1910447E+03  0.7818608E-02  0.1157522E+00
         21   -1    0    0  503  502  0.00000000000E+00  0.00000000000E+00  0.94251755014E+02  0.94251755014E+02  0.00000000000E+00 0.  1.
         21   -1    0    0  501  503 -0.00000000000E+00 -0.00000000000E+00 -0.42853121078E+03  0.42853121078E+03  0.00000000000E+00 0.  1.
          6    1    1    2  501    0  0.78296638858E+02 -0.27994828720E+02 -0.24827835342E+03  0.31327338678E+03  0.17200000000E+03 0.  1.
         -6    1    1    2    0  502 -0.78296638858E+02  0.27994828720E+02 -0.86001102347E+02  0.20950957901E+03  0.17200000000E+03 0.  1.
</event>
<event>
 4    1  0.4440728E+000  0.4970242E+03  0.7818608E-02  0.1014559E+00
         21   -1    0    0  501  502  0.00000000000E+00  0.00000000000E+00  0.10973203258E+04  0.10973203258E+04  0.00000000000E+00 0. -1.
         21   -1    0    0  502  503 -0.00000000000E+00 -0.00000000000E+00 -0.45283926421E+03  0.45283926421E+03  0.00000000000E+00 0.  1.
          6    1    1    2  501    0  0.39791405386E+03 -0.24313266301E+03  0.87187061634E+03  0.10035892874E+04  0.17200000000E+03 0. -1.
         -6    1    1    2    0  503 -0.39791405386E+03  0.24313266301E+03 -0.22738955477E+03  0.54657030261E+03  0.17200000000E+03 0.  1.
</event>
<event>
 4    1  0.4440728E+000  0.1866216E+03  0.7818608E-02  0.1161544E+00
         21   -1    0    0  503  502  0.00000000000E+00  0.00000000000E+00  0.10890623932E+04  0.10890623932E+04  0.00000000000E+00 0. -1.
         21   -1    0    0  501  503 -0.00000000000E+00 -0.00000000000E+00 -0.53400206140E+02  0.53400206140E+02  0.00000000000E+00 0. -1.
          6    1    1    2  501    0  0.56198366686E+02  0.45665697439E+02  0.15603992198E+03  0.24326131956E+03  0.17200000000E+03 0. -1.
         -6    1    1    2    0  502 -0.56198366686E+02 -0.45665697439E+02  0.87962226507E+03  0.89920127977E+03  0.17200000000E+03 0. -1.
</event>
<event>
 4    1  0.4440728E+000  0.2989548E+03  0.7818608E-02  0.1085764E+00
         21   -1    0    0  503  502  0.00000000000E+00  0.00000000000E+00  0.11538931965E+04  0.11538931965E+04  0.00000000000E+00 0.  1.
         21   -1    0    0  501  503 -0.00000000000E+00 -0.00000000000E+00 -0.12911483397E+03  0.12911483397E+03  0.00000000000E+00 0. -1.
          6    1    1    2  501    0  0.16903948301E+03 -0.17667941165E+03  0.10660897588E+03  0.31739476217E+03  0.17200000000E+03 0. -1.
         -6    1    1    2    0  502 -0.16903948301E+03  0.17667941165E+03  0.91816938663E+03  0.96561326827E+03  0.17200000000E+03 0.  1.
</event>
<event>
 4    1  0.4440728E+000  0.2534208E+03  0.7818608E-02  0.1111162E+00
         21   -1    0    0  501  502  0.00000000000E+00  0.00000000000E+00  0.90918091993E+03  0.90918091993E+03  0.00000000000E+00 0. -1.
         21   -1    0    0  502  503 -0.00000000000E+00 -0.00000000000E+00 -0.12188484306E+03  0.12188484306E+03  0.00000000000E+00 0.  1.
          6    1    1    2  501    0 -0.13292414571E+03 -0.13026616604E+03  0.72793386552E+03  0.77078519387E+03  0.17200000000E+03 0. -1.
         -6    1    1    2    0  503  0.13292414571E+03  0.13026616604E+03  0.59362211351E+02  0.26028056912E+03  0.17200000000E+03 0.  1.
</event>
<event>
 4    1  0.4440728E+000  0.1897558E+03  0.7818608E-02  0.1158682E+00
         21   -1    0    0  501  502  0.00000000000E+00  0.00000000000E+00  0.19777814143E+02  0.19777814143E+02  0.00000000000E+00 0.  1.
         21   -1    0    0  502  503 -0.00000000000E+00 -0.00000000000E+00 -0.20593178137E+04  0.20593178137E+04  0.00000000000E+00 0.  1.
          6    1    1    2  501    0 -0.73970752172E+02  0.30847642386E+02 -0.66582466105E+03  0.69233642723E+03  0.17200000000E+03 0.  1.
         -6    1    1    2    0  503  0.73970752172E+02 -0.30847642386E+02 -0.13737153386E+04  0.13867592007E+04  0.17200000000E+03 0.  1.
</event>
<event>
 4    1  0.4440728E+000  0.1923517E+03  0.7818608E-02  0.1156357E+00
         21   -1    0    0  503  502  0.00000000000E+00  0.00000000000E+00  0.70599332803E+03  0.70599332803E+03  0.00000000000E+00 0.  1.
         21   -1    0    0  501  503 -0.00000000000E+00 -0.00000000000E+00 -0.12633230039E+03  0.12633230039E+03  0.00000000000E+00 0.  1.
          6    1    1    2  501    0  0.76955261509E+02 -0.38640067870E+02 -0.28517314306E+02  0.19445411884E+03  0.17200000000E+03 0.  1.
         -6    1    1    2    0  502 -0.76955261509E+02  0.38640067870E+02  0.60817834194E+03  0.63787150958E+03  0.17200000000E+03 0.  1.
</event>
<event>
 4    1  0.4440728E+000  0.2590361E+03  0.7818608E-02  0.1107724E+00
         21   -1    0    0  501  502  0.00000000000E+00  0.00000000000E+00  0.68657969387E+03  0.68657969387E+03  0.00000000000E+00 0. -1.
         21   -1    0    0  502  503 -0.00000000000E+00 -0.00000000000E+00 -0.99417780610E+02  0.99417780610E+02  0.00000000000E+00 0. -1.
          6    1    1    2  501    0 -0.16428825299E+03  0.10259168443E+03  0.24238092724E+03  0.35475089524E+03  0.17200000000E+03 0. -1.
         -6    1    1    2    0  503  0.16428825299E+03 -0.10259168443E+03  0.34478098602E+03  0.43124657924E+03  0.17200000000E+03 0. -1.
</event>
<event>
 4    1  0.4440728E+000  0.1849049E+03  0.7818608E-02  0.1163139E+00
         21   -1    0    0  501  502  0.00000000000E+00  0.00000000000E+00  0.14909711718E+03  0.14909711718E+03  0.00000000000E+00 0.  1.
         21   -1    0    0  502  503 -0.00000000000E+00 -0.00000000000E+00 -0.26196885798E+03  0.26196885798E+03  0.00000000000E+00 0. -1.
          6    1    1    2  501    0  0.83882173117E+01 -0.67345781975E+02  0.16131484911E+02  0.18560722331E+03  0.17200000000E+03 0.  1.
         -6    1    1    2    0  503 -0.83882173117E+01  0.67345781975E+02 -0.12900322572E+03  0.22545875185E+03  0.17200000000E+03 0. -1.
</event>
<event>
 4    1  0.4440728E+000  0.1741553E+03  0.7818608E-02  0.1173583E+00
         21   -1    0    0  501  502  0.00000000000E+00  0.00000000000E+00  0.11119190318E+04  0.11119190318E+04  0.00000000000E+00 0. -1.
         21   -1    0    0  502  503 -0.00000000000E+00 -0.00000000000E+00 -0.19154855430E+03  0.19154855430E+03  0.00000000000E+00 0. -1.
          6    1    1    2  501    0 -0.60431588207E+01 -0.26637185587E+02  0.10637330705E+04  0.10778952197E+04  0.17200000000E+03 0. -1.
         -6    1    1    2    0  503  0.60431588207E+01  0.26637185587E+02 -0.14336259297E+03  0.22557236641E+03  0.17200000000E+03 0. -1.
</event>
<event>
 4    1  0.4440728E+000  0.2262481E+03  0.7818608E-02  0.1129309E+00
         21   -1    0    0  501  502  0.00000000000E+00  0.00000000000E+00  0.10668415205E+04  0.10668415205E+04  0.00000000000E+00 0.  1.
         21   -1    0    0  502  503 -0.00000000000E+00 -0.00000000000E+00 -0.60418461646E+02  0.60418461646E+02  0.00000000000E+00 0. -1.
          6    1    1    2  501    0 -0.32350406788E+02 -0.14337947385E+03  0.75893672180E+03  0.79194265578E+03  0.17200000000E+03 0.  1.
         -6    1    1    2    0  503  0.32350406788E+02  0.14337947385E+03  0.24748633709E+03  0.33531732640E+03  0.17200000000E+03 0. -1.
</event>
<event>
 4    1  0.4440728E+000  0.1768991E+03  0.7818608E-02  0.1170838E+00
         21   -1    0    0  503  502  0.00000000000E+00  0.00000000000E+00  0.22286060747E+02  0.22286060747E+02  0.00000000000E+00 0. -1.
         21   -1    0    0  501  503 -0.00000000000E+00 -0.00000000000E+00 -0.14147119102E+04  0.14147119102E+04  0.00000000000E+00 0. -1.
          6    1    1    2  501    0  0.26265504439E+02  0.31928374976E+02 -0.75825163470E+03  0.77861340816E+03  0.17200000000E+03 0. -1.
         -6    1    1    2    0  502 -0.26265504439E+02 -0.31928374976E+02 -0.63417421480E+03  0.65838456283E+03  0.17200000000E+03 0. -1.
</event>
<event>
 4    1  0.4440728E+000  0.1975453E+03  0.7818608E-02  0.1151827E+00
         21   -1    0    0  501  502  0.00000000000E+00  0.00000000000E+00  0.24340499889E+03  0.24340499889E+03  0.00000000000E+00 0. -1.
         21   -1    0    0  502  503 -0.00000000000E+00 -0.00000000000E+00 -0.19532447774E+03  0.19532447774E+03  0.00000000000E+00 0. -1.
          6    1    1    2  501    0 -0.13073670541E+02  0.96276834455E+02  0.11689692170E+03  0.22954093321E+03  0.17200000000E+03 0. -1.
         -6    1    1    2    0  503  0.13073670541E+02 -0.96276834455E+02 -0.68816400553E+02  0.20918854342E+03  0.17200000000E+03 0. -1.
</event>
<event>
 4    1  0.4440728E+000  0.1934923E+03  0.7818608E-02  0.1155349E+00
         21   -1    0    0  501  502  0.00000000000E+00  0.00000000000E+00  0.59010457992E+02  0.59010457992E+02  0.00000000000E+00 0. -1.
         21   -1    0    0  502  503 -0.00000000000E+00 -0.00000000000E+00 -0.89511649170E+03  0.89511649170E+03  0.00000000000E+00 0.  1.
          6    1    1    2  501    0  0.78974266992E+02 -0.40228420920E+02 -0.16061189240E+03  0.25146657964E+03  0.17200000000E+03 0. -1.
         -6    1    1    2    0  503 -0.78974266992E+02  0.40228420920E+02 -0.67549414132E+03  0.70266037006E+03  0.17200000000E+03 0.  1.
</event>
<event>
 4    1  0.4440728E+000  0.2259349E+03  0.7818608E-02  0.1129534E+00
         21   -1    0    0  501  502  0.00000000000E+00  0.00000000000E+00  0.43884622913E+03  0.43884622913E+03  0.00000000000E+00 0. -1.
         21   -1    0    0  502  503 -0.00000000000E+00 -0.00000000000E+00 -0.18941577139E+03  0.18941577139E+03  0.00000000000E+00 0.  1.
          6    1    1    2  501    0  0.13367996737E+03 -0.59935341952E+02  0.31985642089E+03  0.39160529730E+03  0.17200000000E+03 0. -1.
         -6    1    1    2    0  503 -0.13367996737E+03  0.59935341952E+02 -0.70425963145E+02  0.23665670321E+03  0.17200000000E+03 0.  1.
</event>
<event>
 4    1  0.4440728E+000  0.1865428E+03  0.7818608E-02  0.1161617E+00
         21   -1    0    0  503  502  0.00000000000E+00  0.00000000000E+00  0.12210566424E+04  0.12210566424E+04  0.00000000000E+00 0.  1.
         21   -1    0    0  501  503 -0.00000000000E+00 -0.00000000000E+00 -0.12386973349E+03  0.12386973349E+03  0.00000000000E+00 0.  1.
          6    1    1    2  501    0 -0.72134776247E+02  0.32821640787E+01 -0.41464637136E+02  0.19109556426E+03  0.17200000000E+03 0.  1.
         -6    1    1    2    0  502  0.72134776247E+02 -0.32821640787E+01  0.11386515460E+04  0.11538308116E+04  0.17200000000E+03 0.  1.
</event>
<event>
 4    1  0.4440728E+000  0.2139267E+03  0.7818608E-02  0.1138494E+00
         21   -1    0    0  501  502  0.00000000000E+00  0.00000000000E+00  0.42614701750E+03  0.42614701750E+03  0.00000000000E+00 0.  1.
         21   -1    0    0  502  503 -0.00000000000E+00 -0.00000000000E+00 -0.45935541768E+03  0.45935541768E+03  0.00000000000E+00 0. -1.
          6    1    1    2  501    0 -0.14921937058E+02 -0.12632482651E+03  0.37095167916E+03  0.42821697102E+03  0.17200000000E+03 0.  1.
         -6    1    1    2    0  503  0.14921937058E+02  0.12632482651E+03 -0.40416007934E+03  0.45728546416E+03  0.17200000000E+03 0. -1.
</event>
<event>
 4    1  0.4440728E+000  0.2274807E+03  0.7818608E-02  0.1128426E+00
         21   -1    0    0  501  502  0.00000000000E+00  0.00000000000E+00  0.81342040563E+03  0.81342040563E+03  0.00000000000E+00 0.  1.
         21   -1    0    0  502  503 -0.00000000000E+00 -0.00000000000E+00 -0.65443155719E+02  0.65443155719E+02  0.00000000000E+00 0. -1.
          6    1    1    2  501    0 -0.32174525283E+02  0.14535559500E+03  0.44739201156E+03  0.50190343801E+03  0.17200000000E+03 0. -1.
         -6    1    1    2    0  503  0.32174525283E+02 -0.14535559500E+03  0.30058523835E+03  0.37696012334E+03  0.17200000000E+03 0.  1.
</event>
<event>
 4    1  0.4440728E+000  0.2032944E+03  0.7818608E-02  0.1146989E+00
         21   -1    0    0  503  502  0.00000000000E+00  0.00000000000E+00  0.27775134949E+03  0.27775134949E+03  0.00000000000E+00 0. -1.
         21   -1    0    0  501  503 -0.00000000000E+00 -0.00000000000E+00 -0.24371593236E+03  0.24371593236E+03  0.00000000000E+00 0.  1.
          6    1    1    2  501    0 -0.10787441052E+03 -0.10379540440E+02 -0.14569859575E+03  0.25011338250E+03  0.17200000000E+03 0.  1.
         -6    1    1    2    0  502  0.10787441052E+03  0.10379540440E+02  0.17973401288E+03  0.27135389935E+03  0.17200000000E+03 0. -1.
</event>
<event>
 4    1  0.4440728E+000  0.1886094E+03  0.7818608E-02  0.1159722E+00
         21   -1    0    0  501  502  0.00000000000E+00  0.00000000000E+00  0.47296841740E+03  0.47296841740E+03  0.00000000000E+00 0. -1.
         21   -1    0    0  502  503 -0.00000000000E+00 -0.00000000000E+00 -0.83804446960E+02  0.83804446960E+02  0.00000000000E+00 0.  1.
          6    1    1    2  501    0 -0.70294221622E+02  0.32376264997E+02  0.28371547833E+03  0.34068750017E+03  0.17200000000E+03 0. -1.
         -6    1    1    2    0  503  0.70294221622E+02 -0.32376264997E+02  0.10544849211E+03  0.21608536419E+03  0.17200000000E+03 0.  1.
</event>
<event>
 4    1  0.4440728E+000  0.1854462E+03  0.7818608E-02  0.1162634E+00
         21   -1    0    0  501  502  0.00000000000E+00  0.00000000000E+00  0.93060575707E+03  0.93060575707E+03  0.00000000000E+00 0.  1.
         21   -1    0    0  502  503 -0.00000000000E+00 -0.00000000000E+00 -0.40165711050E+02  0.40165711050E+02  0.00000000000E+00 0.  1.
          6    1    1    2  501    0  0.68163832353E+02  0.12648092449E+02  0.58245926465E+03  0.61126841671E+03  0.17200000000E+03 0.  1.
         -6    1    1    2    0  503 -0.68163832353E+02 -0.12648092449E+02  0.30798078136E+03  0.35950305141E+03  0.17200000000E+03 0.  1.
</event>
<event>
 4    1  0.4440728E+000  0.3617022E+03  0.7818608E-02  0.1057912E+00
         21   -1    0    0  503  502  0.00000000000E+00  0.00000000000E+00  0.31426064549E+03  0.31426064549E+03  0.00000000000E+00 0.  1.
         21   -1    0    0  501  503 -0.00000000000E+00 -0.00000000000E+00 -0.43110752085E+03  0.43110752085E+03  0.00000000000E+00 0. -1.
          6    1    1    2  501    0  0.24578682381E+03  0.20207248419E+03 -0.12748044955E+03  0.38350973474E+03  0.17200000000E+03 0. -1.
         -6    1    1    2    0  502 -0.24578682381E+03 -0.20207248419E+03  0.10633574180E+02  0.36185843160E+03  0.17200000000E+03 0.  1.
</event>
<event>
 4    1  0.4440728E+000  0.2146469E+03  0.7818608E-02  0.1137938E+00
         21   -1    0    0  501  502  0.00000000000E+00  0.00000000000E+00  0.47735135782E+03  0.47735135782E+03  0.00000000000E+00 0. -1.
         21   -1    0    0  502  503 -0.00000000000E+00 -0.00000000000E+00 -0.10241654285E+03  0.10241654285E+03  0.00000000000E+00 0. -1.
          6    1    1    2  501    0 -0.10216052120E+03  0.77797963933E+02  0.25703205419E+03  0.33487127701E+03  0.17200000000E+03 0. -1.
         -6    1    1    2    0  503  0.10216052120E+03 -0.77797963933E+02  0.11790276078E+03  0.24489662367E+03  0.17200000000E+03 0. -1.
</event>
<event>
 4    1  0.4440728E+000  0.1911749E+03  0.7818608E-02  0.1157406E+00
         21   -1    0    0  501  502  0.00000000000E+00  0.00000000000E+00  0.85439260640E+03  0.85439260640E+03  0.00000000000E+00 0.  1.
         21   -1    0    0  502  503 -0.00000000000E+00 -0.00000000000E+00 -0.43736798002E+02  0.43736798002E+02  0.00000000000E+00 0. -1.
          6    1    1    2  501    0  0.33612560950E+02  0.76380897374E+02  0.47187199618E+03  0.50912771140E+03  0.17200000000E+03 0. -1.
         -6    1    1    2    0  503 -0.33612560950E+02 -0.76380897374E+02  0.33878381222E+03  0.38900169300E+03  0.17200000000E+03 0. -1.
</event>
<event>
 4    1  0.4440728E+000  0.1840946E+03  0.7818608E-02  0.1163898E+00
         21   -1    0    0  503  502  0.00000000000E+00  0.00000000000E+00  0.40439199118E+03  0.40439199118E+03  0.00000000000E+00 0.  1.
         21   -1    0    0  501  503 -0.00000000000E+00 -0.00000000000E+00 -0.17609992284E+03  0.17609992284E+03  0.00000000000E+00 0.  1.
          6    1    1    2  501    0  0.44668757792E+02 -0.48078147827E+02 -0.95975819300E+02  0.20761060693E+03  0.17200000000E+03 0.  1.
         -6    1    1    2    0  502 -0.44668757792E+02  0.48078147827E+02  0.32426788764E+03  0.37288130709E+03  0.17200000000E+03 0.  1.
</event>
<event>
 4    1  0.4440728E+000  0.1858089E+03  0.7818608E-02  0.1162297E+00
         21   -1    0    0  501  502  0.00000000000E+00  0.00000000000E+00  0.34310470164E+03  0.34310470164E+03  0.00000000000E+00 0. -1.
         21   -1    0    0  502  503 -0.00000000000E+00 -0.00000000000E+00 -0.12444048312E+03  0.12444048312E+03  0.00000000000E+00 0. -1.
          6    1    1    2  501    0  0.70089904113E+02 -0.53250466655E+01  0.21160048984E+03  0.28160205625E+03  0.17200000000E+03 0. -1.
         -6    1    1    2    0  503 -0.70089904113E+02  0.53250466655E+01  0.70637286737E+01  0.18594312852E+03  0.17200000000E+03 0. -1.
</event>
<event>
 4    1  0.4440728E+000  0.3311147E+03  0.7818608E-02  0.1070645E+00
         21   -1    0    0  501  502  0.00000000000E+00  0.00000000000E+00  0.64009156557E+03  0.64009156557E+03  0.00000000000E+00 0.  1.
         21   -1    0    0  502  503 -0.00000000000E+00 -0.00000000000E+00 -0.47518203357E+03  0.47518203357E+03  0.00000000000E+00 0. -1.
          6    1    1    2  501    0 -0.27489424539E+03 -0.66978367442E+02  0.52840450963E+03  0.62357699897E+03  0.17200000000E+03 0.  1.
         -6    1    1    2    0  503  0.27489424539E+03  0.66978367442E+02 -0.36349497763E+03  0.49169660016E+03  0.17200000000E+03 0. -1.
</event>
<event>
 4    1  0.4440728E+000  0.1938378E+03  0.7818608E-02  0.1155045E+00
         21   -1    0    0  503  502  0.00000000000E+00  0.00000000000E+00  0.17090431434E+03  0.17090431434E+03  0.00000000000E+00 0.  1.
         21   -1    0    0  501  503 -0.00000000000E+00 -0.00000000000E+00 -0.35112431652E+03  0.35112431652E+03  0.00000000000E+00 0. -1.
          6    1    1    2  501    0 -0.10064118428E+02 -0.88813403082E+02 -0.24970738008E+03  0.31611213630E+03  0.17200000000E+03 0. -1.
         -6    1    1    2    0  502  0.10064118428E+02  0.88813403082E+02  0.69487377904E+02  0.20591649457E+03  0.17200000000E+03 0.  1.
</event>
<event>
 4    1  0.4440728E+000  0.2019459E+03  0.7818608E-02  0.1148108E+00
         21   -1    0    0  501  502  0.00000000000E+00  0.00000000000E+00  0.30680616676E+03  0.30680616676E+03  0.00000000000E+00 0. -1.
         21   -1    0    0  502  503 -0.00000000000E+00 -0.00000000000E+00 -0.16373925413E+03  0.16373925413E+03  0.00000000000E+00 0. -1.
          6    1    1    2  501    0 -0.10568785945E+03 -0.53133191647E+01  0.17359737499E+03  0.26630471944E+03  0.17200000000E+03 0. -1.
         -6    1    1    2    0  503  0.10568785945E+03  0.53133191647E+01 -0.30530462365E+02  0.20424070145E+03  0.17200000000E+03 0. -1.
</event>
<event>
 4    1  0.4440728E+000  0.1791214E+03  0.7818608E-02  0.1168656E+00
         21   -1    0    0  501  502  0.00000000000E+00  0.00000000000E+00  0.12653102039E+04  0.12653102039E+04  0.00000000000E+00 0. -1.
         21   -1    0    0  502  503 -0.00000000000E+00 -0.00000000000E+00 -0.34434445900E+02  0.34434445900E+02  0.00000000000E+00 0. -1.
          6    1    1    2  501    0 -0.49923204585E+02  0.28572721718E+01  0.94910465019E+03  0.96585926892E+03  0.17200000000E+03 0. -1.
         -6    1    1    2    0  503  0.49923204585E+02 -0.28572721718E+01  0.28177110777E+03  0.33388538084E+03  0.17200000000E+03 0. -1.
</event>
<event>
 4    1  0.4440728E+000  0.3088388E+03  0.7818608E-02  0.1080904E+00
         21   -1    0    0  503  502  0.00000000000E+00  0.00000000000E+00  0.23749512811E+03  0.23749512811E+03  0.00000000000E+00 0. -1.
         21   -1    0    0  501  503 -0.00000000000E+00 -0.00000000000E+00 -0.54684564463E+03  0.54684564463E+03  0.00000000000E+00 0.  1.
          6    1    1    2  501    0  0.16013983661E+03  0.20038120998E+03 -0.35677830818E+03  0.47188150819E+03  0.17200000000E+03 0.  1.
         -6    1    1    2    0  502 -0.16013983661E+03 -0.20038120998E+03  0.47427791657E+02  0.31245926455E+03  0.17200000000E+03 0. -1.
</event>
<event>
 4    1  0.4440728E+000  0.1903143E+03  0.7818608E-02  0.1158178E+00
         21   -1    0    0  501  502  0.00000000000E+00  0.00000000000E+00  0.12707247737E+03  0.12707247737E+03  0.00000000000E+00 0.  1.
         21   -1    0    0  502  503 -0.00000000000E+00 -0.00000000000E+00 -0.31400443163E+03  0.31400443163E+03  0.00000000000E+00 0.  1.
          6    1    1    2  501    0 -0.78707328476E+02 -0.20992913428E+02 -0.26474536762E+02  0.19214694134E+03  0.17200000000E+03 0.  1.
         -6    1    1    2    0  503  0.78707328476E+02  0.20992913428E+02 -0.16045741750E+03  0.24892996766E+03  0.17200000000E+03 0.  1.
</event>
<event>
 4    1  0.4440728E+000  0.2737732E+03  0.7818608E-02  0.1099139E+00
         21   -1    0    0  501  502  0.00000000000E+00  0.00000000000E+00  0.76438168186E+02  0.76438168186E+02  0.00000000000E+00 0.  1.
         21   -1    0    0  502  503 -0.00000000000E+00 -0.00000000000E+00 -0.11691209123E+04  0.11691209123E+04  0.00000000000E+00 0.  1.
          6    1    1    2  501    0  0.21055482652E+03  0.32162144782E+02 -0.29622762452E+03  0.40336403416E+03  0.17200000000E+03 0.  1.
         -6    1    1    2    0  503 -0.21055482652E+03 -0.32162144782E+02 -0.79645511959E+03  0.84219504632E+03  0.17200000000E+03 0.  1.
</event>
<event>
 4    1  0.4440728E+000  0.1964271E+03  0.7818608E-02  0.1152789E+00
         21   -1    0    0  501  502  0.00000000000E+00  0.00000000000E+00  0.33599426539E+03  0.33599426539E+03  0.00000000000E+00 0.  1.
         21   -1    0    0  502  503 -0.00000000000E+00 -0.00000000000E+00 -0.12196646338E+03  0.12196646338E+03  0.00000000000E+00 0.  1.
          6    1    1    2  501    0 -0.53281010256E+01 -0.94716432017E+02  0.16238657222E+03  0.25485876479E+03  0.17200000000E+03 0.  1.
         -6    1    1    2    0  503  0.53281010256E+01  0.94716432017E+02  0.51641229793E+02  0.20310196397E+03  0.17200000000E+03 0.  1.
</event>
<event>
 4    1  0.4440728E+000  0.2616046E+03  0.7818608E-02  0.1106183E+00
         21   -1    0    0  501  502  0.00000000000E+00  0.00000000000E+00  0.22019058251E+04  0.22019058251E+04  0.00000000000E+00 0. -1.
         21   -1    0    0  502  503 -0.00000000000E+00 -0.00000000000E+00 -0.79098033082E+02  0.79098033082E+02  0.00000000000E+00 0.  1.
          6    1    1    2  501    0 -0.78217900762E+02  0.18092792577E+03  0.19500151932E+04  0.19674847415E+04  0.17200000000E+03 0. -1.
         -6    1    1    2    0  503  0.78217900762E+02 -0.18092792577E+03  0.17279259883E+03  0.31351911670E+03  0.17200000000E+03 0.  1.
</event>
<event>
 4    1  0.4440728E+000  0.2401886E+03  0.7818608E-02  0.1119667E+00
         21   -1    0    0  501  502  0.00000000000E+00  0.00000000000E+00  0.91214560631E+02  0.91214560631E+02  0.00000000000E+00 0.  1.
         21   -1    0    0  502  503 -0.00000000000E+00 -0.00000000000E+00 -0.64317783952E+03  0.64317783952E+03  0.00000000000E+00 0.  1.
          6    1    1    2  501    0 -0.15966839753E+03 -0.51113061679E+02 -0.32335871067E+03  0.40280441658E+03  0.17200000000E+03 0.  1.
         -6    1    1    2    0  503  0.15966839753E+03  0.51113061679E+02 -0.22860456822E+03  0.33158798358E+03  0.17200000000E+03 0.  1.
</event>
<event>
 4    1  0.4440728E+000  0.1909765E+03  0.7818608E-02  0.1157583E+00
         21   -1    0    0  503  502  0.00000000000E+00  0.00000000000E+00  0.12681498951E+03  0.12681498951E+03  0.00000000000E+00 0. -1.
         21   -1    0    0  501  503 -0.00000000000E+00 -0.00000000000E+00 -0.10806760206E+04  0.10806760206E+04  0.00000000000E+00 0. -1.
          6    1    1    2  501    0  0.65764529597E+02 -0.50626736263E+02 -0.99413639950E+03  0.10123137955E+04  0.17200000000E+03 0. -1.
         -6    1    1    2    0  502 -0.65764529597E+02  0.50626736263E+02  0.40275368446E+02  0.19517721455E+03  0.17200000000E+03 0. -1.
</event>
<event>
 4    1  0.4440728E+000  0.1777933E+03  0.7818608E-02  0.1169956E+00
         21   -1    0    0  501  502  0.00000000000E+00  0.00000000000E+00  0.23054658001E+02  0.23054658001E+02  0.00000000000E+00 0. -1.
         21   -1    0    0  502  503 -0.00000000000E+00 -0.00000000000E+00 -0.14933581877E+04  0.14933581877E+04  0.00000000000E+00 0. -1.
          6    1    1    2  501    0 -0.45016096020E+02 -0.50544358273E-01 -0.51821744066E+03  0.54786838498E+03  0.17200000000E+03 0. -1.
         -6    1    1    2    0  503  0.45016096020E+02  0.50544358273E-01 -0.95208608906E+03  0.96854446075E+03  0.17200000000E+03 0. -1.
</event>
<event>
 4    1  0.4440728E+000  0.2424162E+03  0.7818608E-02  0.1118194E+00
         21   -1    0    0  503  502  0.00000000000E+00  0.00000000000E+00  0.55403260140E+03  0.55403260140E+03  0.00000000000E+00 0. -1.
         21   -1    0    0  501  503 -0.00000000000E+00 -0.00000000000E+00 -0.26340458264E+03  0.26340458264E+03  0.00000000000E+00 0.  1.
          6    1    1    2  501    0 -0.16057884251E+03  0.58275734939E+02 -0.17056906149E+03  0.29641091525E+03  0.17200000000E+03 0.  1.
         -6    1    1    2    0  502  0.16057884251E+03 -0.58275734939E+02  0.46119708024E+03  0.52102626879E+03  0.17200000000E+03 0. -1.
</event>
<event>
 4    1  0.4440728E+000  0.1831597E+03  0.7818608E-02  0.1164780E+00
         21   -1    0    0  503  502  0.00000000000E+00  0.00000000000E+00  0.30452771679E+04  0.30452771679E+04  0.00000000000E+00 0.  1.
         21   -1    0    0  501  503 -0.00000000000E+00 -0.00000000000E+00 -0.21381875756E+02  0.21381875756E+02  0.00000000000E+00 0.  1.
          6    1    1    2  501    0  0.52026044352E+02 -0.35451026447E+02  0.44434239013E+03  0.48061173960E+03  0.17200000000E+03 0.  1.
         -6    1    1    2    0  502 -0.52026044352E+02  0.35451026447E+02  0.25795529020E+04  0.25860473041E+04  0.17200000000E+03 0.  1.
</event>
<event>
 4    1  0.4440728E+000  0.1815474E+03  0.7818608E-02  0.1166314E+00
         21   -1    0    0  503  502  0.00000000000E+00  0.00000000000E+00  0.98398412308E+03  0.98398412308E+03  0.00000000000E+00 0. -1.
         21   -1    0    0  501  503 -0.00000000000E+00 -0.00000000000E+00 -0.37559541339E+02  0.37559541339E+02  0.00000000000E+00 0. -1.
          6    1    1    2  501    0  0.57098928406E+02  0.10731411787E+02  0.30520676799E+03  0.35512057396E+03  0.17200000000E+03 0. -1.
         -6    1    1    2    0  502 -0.57098928406E+02 -0.10731411787E+02  0.64121781375E+03  0.66642309046E+03  0.17200000000E+03 0. -1.
</event>
<event>
 4    1  0.4440728E+000  0.1994375E+03  0.7818608E-02  0.1150214E+00
         21   -1    0    0  501  502  0.00000000000E+00  0.00000000000E+00  0.34325364444E+03  0.34325364444E+03  0.00000000000E+00 0. -1.
         21   -1    0    0  502  503 -0.00000000000E+00 -0.00000000000E+00 -0.12712306987E+03  0.12712306987E+03  0.00000000000E+00 0. -1.
          6    1    1    2  501    0  0.98968470867E+02  0.19913810171E+02  0.17801686652E+03  0.26732998864E+03  0.17200000000E+03 0. -1.
         -6    1    1    2    0  503 -0.98968470867E+02 -0.19913810171E+02  0.38113708050E+02  0.20304672566E+03  0.17200000000E+03 0. -1.
</event>
<event>
 4    1  0.4440728E+000  0.1726172E+03  0.7818608E-02  0.1175146E+00
         21   -1    0    0  503  502  0.00000000000E+00  0.00000000000E+00  0.15840109370E+04  0.15840109370E+04  0.00000000000E+00 0. -1.
         21   -1    0    0  501  503 -0.00000000000E+00 -0.00000000000E+00 -0.18982340835E+02  0.18982340835E+02  0.00000000000E+00 0. -1.
          6    1    1    2  501    0 -0.14067609460E+02  0.38469292607E+01  0.70634782695E+03  0.72713406545E+03  0.17200000000E+03 0.  1.
         -6    1    1    2    0  502  0.14067609460E+02 -0.38469292607E+01  0.85868076923E+03  0.87585921240E+03  0.17200000000E+03 0.  1.
</event>
<event>
 4    1  0.4440728E+000  0.1739586E+03  0.7818608E-02  0.1173781E+00
         21   -1    0    0  503  502  0.00000000000E+00  0.00000000000E+00  0.49717743584E+02  0.49717743584E+02  0.00000000000E+00 0. -1.
         21   -1    0    0  501  503 -0.00000000000E+00 -0.00000000000E+00 -0.16513759459E+04  0.16513759459E+04  0.00000000000E+00 0. -1.
          6    1    1    2  501    0  0.25532073418E+02  0.50700733342E+01 -0.14766889270E+04  0.14869000570E+04  0.17200000000E+03 0. -1.
         -6    1    1    2    0  502 -0.25532073418E+02 -0.50700733342E+01 -0.12496927530E+03  0.21419363246E+03  0.17200000000E+03 0. -1.
</event>
<event>
 4    1  0.4440728E+000  0.1990202E+03  0.7818608E-02  0.1150568E+00
         21   -1    0    0  503  502  0.00000000000E+00  0.00000000000E+00  0.17262628605E+02  0.17262628605E+02  0.00000000000E+00 0.  1.
         21   -1    0    0  501  503 -0.00000000000E+00 -0.00000000000E+00 -0.27374919580E+04  0.27374919580E+04  0.00000000000E+00 0. -1.
          6    1    1    2  501    0  0.76727511883E+02 -0.64326779493E+02 -0.19141991576E+04  0.19245174617E+04  0.17200000000E+03 0. -1.
         -6    1    1    2    0  502 -0.76727511883E+02  0.64326779493E+02 -0.80603017183E+03  0.83023712488E+03  0.17200000000E+03 0. -1.
</event>
<event>
 4    1  0.4440728E+000  0.2525656E+03  0.7818608E-02  0.1111694E+00
         21   -1    0    0  503  502  0.00000000000E+00  0.00000000000E+00  0.24696350027E+03  0.24696350027E+03  0.00000000000E+00 0.  1.
         21   -1    0    0  501  503 -0.00000000000E+00 -0.00000000000E+00 -0.26590329788E+03  0.26590329788E+03  0.00000000000E+00 0. -1.
          6    1    1    2  501    0 -0.13268769719E+03 -0.12883852616E+03  0.33907335069E+02  0.25483150939E+03  0.17200000000E+03 0.  1.
         -6    1    1    2    0  502  0.13268769719E+03  0.12883852616E+03 -0.52847132677E+02  0.25803528875E+03  0.17200000000E+03 0. -1.
</event>
<event>
 4    1  0.4440728E+000  0.1837671E+03  0.7818608E-02  0.1164206E+00
         21   -1    0    0  503  502  0.00000000000E+00  0.00000000000E+00  0.92123592143E+02  0.92123592143E+02  0.00000000000E+00 0.  1.
         21   -1    0    0  501  503 -0.00000000000E+00 -0.00000000000E+00 -0.42107499202E+03  0.42107499202E+03  0.00000000000E+00 0.  1.
          6    1    1    2  501    0  0.31598003300E+02  0.56461697365E+02 -0.25678966501E+03  0.31577094410E+03  0.17200000000E+03 0.  1.
         -6    1    1    2    0  502 -0.31598003300E+02 -0.56461697365E+02 -0.72161734866E+02  0.19742764006E+03  0.17200000000E+03 0.  1.
</event>
<event>
 4    1  0.4440728E+000  0.2152346E+03  0.7818608E-02  0.1137487E+00
         21   -1    0    0  501  502  0.00000000000E+00  0.00000000000E+00  0.25309190868E+03  0.25309190868E+03  0.00000000000E+00 0.  1.
         21   -1    0    0  502  503 -0.00000000000E+00 -0.00000000000E+00 -0.19648584960E+03  0.19648584960E+03  0.00000000000E+00 0.  1.
          6    1    1    2  501    0  0.69519773190E+02  0.10912809120E+03  0.87106580162E+02  0.23219279804E+03  0.17200000000E+03 0.  1.
         -6    1    1    2    0  503 -0.69519773190E+02 -0.10912809120E+03 -0.30500521084E+02  0.21738496024E+03  0.17200000000E+03 0.  1.
</event>
<event>
 4    1  0.4440728E+000  0.1728494E+03  0.7818608E-02  0.1174909E+00
         21   -1    0    0  501  502  0.00000000000E+00  0.00000000000E+00  0.12020070006E+03  0.12020070006E+03  0.00000000000E+00 0.  1.
         21   -1    0    0  502  503 -0.00000000000E+00 -0.00000000000E+00 -0.25000348812E+03  0.25000348812E+03  0.00000000000E+00 0.  1.
          6    1    1    2  501    0  0.11560888817E+02  0.12620162549E+02 -0.50829607197E+02  0.18016817594E+03  0.17200000000E+03 0.  1.
         -6    1    1    2    0  503 -0.11560888817E+02 -0.12620162549E+02 -0.78973180863E+02  0.19003601224E+03  0.17200000000E+03 0.  1.
</event>
<event>
 4    1  0.4440728E+000  0.1811567E+03  0.7818608E-02  0.1166688E+00
         21   -1    0    0  503  502  0.00000000000E+00  0.00000000000E+00  0.20409071734E+02  0.20409071734E+02  0.00000000000E+00 0. -1.
         21   -1    0    0  501  503 -0.00000000000E+00 -0.00000000000E+00 -0.17662897057E+04  0.17662897057E+04  0.00000000000E+00 0. -1.
          6    1    1    2  501    0 -0.53181138271E+02  0.20137226642E+02 -0.11403762766E+04  0.11546756227E+04  0.17200000000E+03 0. -1.
         -6    1    1    2    0  502  0.53181138271E+02 -0.20137226642E+02 -0.60550435737E+03  0.63202315476E+03  0.17200000000E+03 0. -1.
</event>
<event>
 4    1  0.4440728E+000  0.2467989E+03  0.7818608E-02  0.1115345E+00
         21   -1    0    0  501  502  0.00000000000E+00  0.00000000000E+00  0.51918302256E+03  0.51918302256E+03  0.00000000000E+00 0.  1.
         21   -1    0    0  502  503 -0.00000000000E+00 -0.00000000000E+00 -0.11787800050E+03  0.11787800050E+03  0.00000000000E+00 0.  1.
          6    1    1    2  501    0 -0.65112663042E+02 -0.16457837094E+03  0.22260028504E+03  0.33235611318E+03  0.17200000000E+03 0.  1.
         -6    1    1    2    0  503  0.65112663042E+02  0.16457837094E+03  0.17870473702E+03  0.30470490988E+03  0.17200000000E+03 0.  1.
</event>
<event>
 4    1  0.4440728E+000  0.1760799E+03  0.7818608E-02  0.1171652E+00
         21   -1    0    0  501  502  0.00000000000E+00  0.00000000000E+00  0.33825164792E+03  0.33825164792E+03  0.00000000000E+00 0.  1.
         21   -1    0    0  502  503 -0.00000000000E+00 -0.00000000000E+00 -0.15512196762E+03  0.15512196762E+03  0.00000000000E+00 0.  1.
          6    1    1    2  501    0 -0.34875168830E+02  0.14277824216E+02  0.24935000375E+03  0.30525326867E+03  0.17200000000E+03 0.  1.
         -6    1    1    2    0  503  0.34875168830E+02 -0.14277824216E+02 -0.66220323457E+02  0.18812034686E+03  0.17200000000E+03 0.  1.
</event>
<event>
 4    1  0.4440728E+000  0.2344022E+03  0.7818608E-02  0.1123579E+00
         21   -1    0    0  501  502  0.00000000000E+00  0.00000000000E+00  0.38086595962E+03  0.38086595962E+03  0.00000000000E+00 0.  1.
         21   -1    0    0  502  503 -0.00000000000E+00 -0.00000000000E+00 -0.22323245782E+03  0.22323245782E+03  0.00000000000E+00 0. -1.
          6    1    1    2  501    0  0.92188723412E+02  0.12985233528E+03  0.25846874753E+03  0.34892761879E+03  0.17200000000E+03 0.  1.
         -6    1    1    2    0  503 -0.92188723412E+02 -0.12985233528E+03 -0.10083524574E+03  0.25517079865E+03  0.17200000000E+03 0. -1.
</event>
<event>
 4    1  0.4440728E+000  0.1830893E+03  0.7818608E-02  0.1164846E+00
         21   -1    0    0  503  502  0.00000000000E+00  0.00000000000E+00  0.95015328153E+03  0.95015328153E+03  0.00000000000E+00 0.  1.
         21   -1    0    0  501  503 -0.00000000000E+00 -0.00000000000E+00 -0.41498029955E+02  0.41498029955E+02  0.00000000000E+00 0. -1.
          6    1    1    2  501    0 -0.83131634033E+01 -0.62197828416E+02  0.26240255580E+03  0.31996371643E+03  0.17200000000E+03 0. -1.
         -6    1    1    2    0  502  0.83131634033E+01  0.62197828416E+02  0.64625269578E+03  0.67168759505E+03  0.17200000000E+03 0.  1.
</event>
<event>
 4    1  0.4440728E+000  0.2669088E+03  0.7818608E-02  0.1103062E+00
         21   -1    0    0  501  502  0.00000000000E+00  0.00000000000E+00  0.58089878827E+03  0.58089878827E+03  0.00000000000E+00 0. -1.
         21   -1    0    0  502  503 -0.00000000000E+00 -0.00000000000E+00 -0.12267927743E+03  0.12267927743E+03  0.00000000000E+00 0.  1.
          6    1    1    2  501    0  0.66711371405E+01  0.20398973183E+03  0.22266350378E+03  0.34759078049E+03  0.17200000000E+03 0. -1.
         -6    1    1    2    0  503 -0.66711371405E+01 -0.20398973183E+03  0.23555600706E+03  0.35598728520E+03  0.17200000000E+03 0.  1.
</event>
<event>
 4    1  0.4440728E+000  0.1890328E+03  0.7818608E-02  0.1159337E+00
         21   -1    0    0  501  502  0.00000000000E+00  0.00000000000E+00  0.12487794238E+04  0.12487794238E+04  0.00000000000E+00 0.  1.
         21   -1    0    0  502  503 -0.00000000000E+00 -0.00000000000E+00 -0.29202971685E+02  0.29202971685E+02  0.00000000000E+00 0.  1.
          6    1    1    2  501    0 -0.72295405421E+02  0.30377174053E+02  0.70048360743E+03  0.72554164775E+03  0.17200000000E+03 0.  1.
         -6    1    1    2    0  503  0.72295405421E+02 -0.30377174053E+02  0.51909284467E+03  0.55244074772E+03  0.17200000000E+03 0.  1.
</event>
<event>
 4    1  0.4440728E+000  0.2400669E+03  0.7818608E-02  0.1119748E+00
         21   -1    0    0  503  502  0.00000000000E+00  0.00000000000E+00  0.28128029365E+03  0.28128029365E+03  0.00000000000E+00 0. -1.
         21   -1    0    0  501  503 -0.00000000000E+00 -0.00000000000E+00 -0.25181024540E+03  0.25181024540E+03  0.00000000000E+00 0. -1.
          6    1    1    2  501    0 -0.57652809541E+02 -0.15723952503E+03 -0.10031974454E+03  0.26018486855E+03  0.17200000000E+03 0. -1.
         -6    1    1    2    0  502  0.57652809541E+02  0.15723952503E+03  0.12978979278E+03  0.27290567050E+03  0.17200000000E+03 0. -1.
</event>
<event>
 4    1  0.4440728E+000  0.2796329E+03  0.7818608E-02  0.1095890E+00
         21   -1    0    0  503  502  0.00000000000E+00  0.00000000000E+00  0.93128334537E+03  0.93128334537E+03  0.00000000000E+00 0. -1.
         21   -1    0    0  501  503 -0.00000000000E+00 -0.00000000000E+00 -0.12550285403E+03  0.12550285403E+03  0.00000000000E+00 0.  1.
          6    1    1    2  501    0  0.16973315460E+03 -0.14071676912E+03  0.98902531940E+02  0.29660792927E+03  0.17200000000E+03 0.  1.
         -6    1    1    2    0  502 -0.16973315460E+03  0.14071676912E+03  0.70687795941E+03  0.76017827013E+03  0.17200000000E+03 0. -1.
</event>
<event>
 4    1  0.4440728E+000  0.1968547E+03  0.7818608E-02  0.1152420E+00
         21   -1    0    0  503  502  0.00000000000E+00  0.00000000000E+00  0.93668576942E+02  0.93668576942E+02  0.00000000000E+00 0.  1.
         21   -1    0    0  501  503 -0.00000000000E+00 -0.00000000000E+00 -0.62084473215E+03  0.62084473215E+03  0.00000000000E+00 0.  1.
          6    1    1    2  501    0  0.75792352461E+02 -0.58508949101E+02 -0.46994241510E+03  0.50950726327E+03  0.17200000000E+03 0.  1.
         -6    1    1    2    0  502 -0.75792352461E+02  0.58508949101E+02 -0.57233740108E+02  0.20500604582E+03  0.17200000000E+03 0.  1.
</event>
<event>
 4    1  0.4440728E+000  0.1792882E+03  0.7818608E-02  0.1168494E+00
         21   -1    0    0  503  502  0.00000000000E+00  0.00000000000E+00  0.39277301751E+04  0.39277301751E+04  0.00000000000E+00 0.  1.
         21   -1    0    0  501  503 -0.00000000000E+00 -0.00000000000E+00 -0.28388103085E+02  0.28388103085E+02  0.00000000000E+00 0.  1.
          6    1    1    2  501    0 -0.58757163591E+00 -0.50595547814E+02  0.28091955635E+03  0.33325673563E+03  0.17200000000E+03 0.  1.
         -6    1    1    2    0  502  0.58757163591E+00  0.50595547814E+02  0.36184225157E+04  0.36228615426E+04  0.17200000000E+03 0.  1.
</event>
<event>
 4    1  0.4440728E+000  0.1972084E+03  0.7818608E-02  0.1152116E+00
         21   -1    0    0  503  502  0.00000000000E+00  0.00000000000E+00  0.55687465049E+02  0.55687465049E+02  0.00000000000E+00 0.  1.
         21   -1    0    0  501  503 -0.00000000000E+00 -0.00000000000E+00 -0.70621457624E+03  0.70621457624E+03  0.00000000000E+00 0.  1.
          6    1    1    2  501    0 -0.44488719658E+02 -0.85603270004E+02 -0.28514624495E+03  0.34669806319E+03  0.17200000000E+03 0.  1.
         -6    1    1    2    0  502  0.44488719658E+02  0.85603270004E+02 -0.36538086624E+03  0.41520397809E+03  0.17200000000E+03 0.  1.
</event>
<event>
 4    1  0.4440728E+000  0.1909553E+03  0.7818608E-02  0.1157603E+00
         21   -1    0    0  503  502  0.00000000000E+00  0.00000000000E+00  0.17323572378E+03  0.17323572378E+03  0.00000000000E+00 0.  1.
         21   -1    0    0  501  503 -0.00000000000E+00 -0.00000000000E+00 -0.40539819461E+03  0.40539819461E+03  0.00000000000E+00 0. -1.
          6    1    1    2  501    0 -0.14800923263E+02 -0.81614055877E+02 -0.31669052194E+03  0.36980644685E+03  0.17200000000E+03 0. -1.
         -6    1    1    2    0  502  0.14800923263E+02  0.81614055877E+02  0.84528051112E+02  0.20882747154E+03  0.17200000000E+03 0.  1.
</event>
<event>
 4    1  0.4440728E+000  0.1819138E+03  0.7818608E-02  0.1165964E+00
         21   -1    0    0  503  502  0.00000000000E+00  0.00000000000E+00  0.17863403689E+03  0.17863403689E+03  0.00000000000E+00 0.  1.
         21   -1    0    0  501  503 -0.00000000000E+00 -0.00000000000E+00 -0.24491496339E+03  0.24491496339E+03  0.00000000000E+00 0.  1.
          6    1    1    2  501    0  0.29237857374E+00 -0.59232828995E+02 -0.13766356395E+03  0.22813125686E+03  0.17200000000E+03 0.  1.
         -6    1    1    2    0  502 -0.29237857374E+00  0.59232828995E+02  0.71382637445E+02  0.19541774342E+03  0.17200000000E+03 0.  1.
</event>
<event>
 4    1  0.4440728E+000  0.2170193E+03  0.7818608E-02  0.1136125E+00
         21   -1    0    0  503  502  0.00000000000E+00  0.00000000000E+00  0.22638751137E+03  0.22638751137E+03  0.00000000000E+00 0. -1.
         21   -1    0    0  501  503 -0.00000000000E+00 -0.00000000000E+00 -0.21289859726E+03  0.21289859726E+03  0.00000000000E+00 0. -1.
          6    1    1    2  501    0 -0.50266274210E+02  0.12242009476E+03 -0.26440540001E+02  0.21862406107E+03  0.17200000000E+03 0. -1.
         -6    1    1    2    0  502  0.50266274210E+02 -0.12242009476E+03  0.39929454118E+02  0.22066204756E+03  0.17200000000E+03 0. -1.
</event>
<event>
 4    1  0.4440728E+000  0.2106963E+03  0.7818608E-02  0.1141016E+00
         21   -1    0    0  503  502  0.00000000000E+00  0.00000000000E+00  0.55863248367E+03  0.55863248367E+03  0.00000000000E+00 0.  1.
         21   -1    0    0  501  503 -0.00000000000E+00 -0.00000000000E+00 -0.11715082410E+03  0.11715082410E+03  0.00000000000E+00 0.  1.
          6    1    1    2  501    0 -0.41973962053E+01 -0.12161955382E+03  0.41237872093E+03  0.46308653995E+03  0.17200000000E+03 0.  1.
         -6    1    1    2    0  502  0.41973962053E+01  0.12161955382E+03  0.29102938633E+02  0.21269676782E+03  0.17200000000E+03 0.  1.
</event>
<event>
 4    1  0.4440728E+000  0.2260072E+03  0.7818608E-02  0.1129482E+00
         21   -1    0    0  503  502  0.00000000000E+00  0.00000000000E+00  0.44380578502E+03  0.44380578502E+03  0.00000000000E+00 0. -1.
         21   -1    0    0  501  503 -0.00000000000E+00 -0.00000000000E+00 -0.14906526426E+03  0.14906526426E+03  0.00000000000E+00 0. -1.
          6    1    1    2  501    0 -0.36452653525E+02 -0.14200871390E+03  0.58562324992E+01  0.22608309586E+03  0.17200000000E+03 0. -1.
         -6    1    1    2    0  502  0.36452653525E+02  0.14200871390E+03  0.28888428826E+03  0.36678795342E+03  0.17200000000E+03 0. -1.
</event>
<event>
 4    1  0.4440728E+000  0.1853218E+03  0.7818608E-02  0.1162750E+00
         21   -1    0    0  501  502  0.00000000000E+00  0.00000000000E+00  0.60387329540E+03  0.60387329540E+03  0.00000000000E+00 0. -1.
         21   -1    0    0  502  503 -0.00000000000E+00 -0.00000000000E+00 -0.80768683534E+02  0.80768683534E+02  0.00000000000E+00 0. -1.
          6    1    1    2  501    0 -0.68983533747E+02  0.12008245872E+01  0.44774836810E+03  0.48458515355E+03  0.17200000000E+03 0. -1.
         -6    1    1    2    0  503  0.68983533747E+02 -0.12008245872E+01  0.75356243770E+02  0.20005682538E+03  0.17200000000E+03 0. -1.
</event>
<event>
 4    1  0.4440728E+000  0.1872016E+03  0.7818608E-02  0.1161010E+00
         21   -1    0    0  501  502  0.00000000000E+00  0.00000000000E+00  0.11059169758E+04  0.11059169758E+04  0.00000000000E+00 0.  1.
         21   -1    0    0  502  503 -0.00000000000E+00 -0.00000000000E+00 -0.32967711325E+02  0.32967711325E+02  0.00000000000E+00 0.  1.
          6    1    1    2  501    0  0.35496318446E+02 -0.64810737563E+02  0.64866161337E+03  0.67513428960E+03  0.17200000000E+03 0.  1.
         -6    1    1    2    0  503 -0.35496318446E+02  0.64810737563E+02  0.42428765108E+03  0.46375039750E+03  0.17200000000E+03 0.  1.
</event>
<event>
 4    1  0.4440728E+000  0.1745525E+03  0.7818608E-02  0.1173182E+00
         21   -1    0    0  503  502  0.00000000000E+00  0.00000000000E+00  0.13567376074E+03  0.13567376074E+03  0.00000000000E+00 0. -1.
         21   -1    0    0  501  503 -0.00000000000E+00 -0.00000000000E+00 -0.37432826603E+03  0.37432826603E+03  0.00000000000E+00 0. -1.
          6    1    1    2  501    0 -0.18115018041E+02 -0.23588903314E+02 -0.28061724794E+03  0.33047636842E+03  0.17200000000E+03 0. -1.
         -6    1    1    2    0  502  0.18115018041E+02  0.23588903314E+02  0.41962742650E+02  0.17952565836E+03  0.17200000000E+03 0. -1.
</event>
<event>
 4    1  0.4440728E+000  0.1992592E+03  0.7818608E-02  0.1150366E+00
         21   -1    0    0  501  502  0.00000000000E+00  0.00000000000E+00  0.11951590917E+03  0.11951590917E+03  0.00000000000E+00 0.  1.
         21   -1    0    0  502  503 -0.00000000000E+00 -0.00000000000E+00 -0.77143772555E+03  0.77143772555E+03  0.00000000000E+00 0.  1.
          6    1    1    2  501    0 -0.98101935561E+02  0.22276487314E+02  0.10179063580E+02  0.19951903414E+03  0.17200000000E+03 0.  1.
         -6    1    1    2    0  503  0.98101935561E+02 -0.22276487314E+02 -0.66210087995E+03  0.69143460058E+03  0.17200000000E+03 0.  1.
</event>
<event>
 4    1  0.4440728E+000  0.2252172E+03  0.7818608E-02  0.1130052E+00
         21   -1    0    0  501  502  0.00000000000E+00  0.00000000000E+00  0.55296433808E+03  0.55296433808E+03  0.00000000000E+00 0.  1.
         21   -1    0    0  502  503 -0.00000000000E+00 -0.00000000000E+00 -0.18252399263E+03  0.18252399263E+03  0.00000000000E+00 0. -1.
          6    1    1    2  501    0  0.74982745699E+02  0.12456471040E+03  0.44458861513E+03  0.49837918891E+03  0.17200000000E+03 0.  1.
         -6    1    1    2    0  503 -0.74982745699E+02 -0.12456471040E+03 -0.74148269688E+02  0.23710914181E+03  0.17200000000E+03 0. -1.
</event>
<event>
 4    1  0.4440728E+000  0.2061059E+03  0.7818608E-02  0.1144687E+00
         21   -1    0    0  501  502  0.00000000000E+00  0.00000000000E+00  0.31551383997E+03  0.31551383997E+03  0.00000000000E+00 0.  1.
         21   -1    0    0  502  503 -0.00000000000E+00 -0.00000000000E+00 -0.21430457545E+03  0.21430457545E+03  0.00000000000E+00 0.  1.
          6    1    1    2  501    0 -0.11351877158E+03  0.30236392017E+01  0.21212366788E+03  0.29576359541E+03  0.17200000000E+03 0.  1.
         -6    1    1    2    0  503  0.11351877158E+03 -0.30236392017E+01 -0.11091440337E+03  0.23405482001E+03  0.17200000000E+03 0.  1.
</event>
<event>
 4    1  0.4440728E+000  0.1815074E+03  0.7818608E-02  0.1166352E+00
         21   -1    0    0  503  502  0.00000000000E+00  0.00000000000E+00  0.27338682542E+04  0.27338682542E+04  0.00000000000E+00 0.  1.
         21   -1    0    0  501  503 -0.00000000000E+00 -0.00000000000E+00 -0.12851421668E+03  0.12851421668E+03  0.00000000000E+00 0.  1.
          6    1    1    2  501    0  0.45001397565E+02  0.36548792315E+02 -0.59762053379E+02  0.19109276027E+03  0.17200000000E+03 0.  1.
         -6    1    1    2    0  502 -0.45001397565E+02 -0.36548792315E+02  0.26651160909E+04  0.26712897106E+04  0.17200000000E+03 0.  1.
</event>
<event>
 4    1  0.4440728E+000  0.1762400E+03  0.7818608E-02  0.1171492E+00
         21   -1    0    0  503  502  0.00000000000E+00  0.00000000000E+00  0.17846605385E+03  0.17846605385E+03  0.00000000000E+00 0.  1.
         21   -1    0    0  501  503 -0.00000000000E+00 -0.00000000000E+00 -0.24299283565E+03  0.24299283565E+03  0.00000000000E+00 0.  1.
          6    1    1    2  501    0 -0.46501234802E+01  0.38143244116E+02 -0.14451673369E+03  0.22791581129E+03  0.17200000000E+03 0.  1.
         -6    1    1    2    0  502  0.46501234802E+01 -0.38143244116E+02  0.79989951893E+02  0.19354307821E+03  0.17200000000E+03 0.  1.
</event>
<event>
 4    1  0.4440728E+000  0.1776268E+03  0.7818608E-02  0.1170120E+00
         21   -1    0    0  501  502  0.00000000000E+00  0.00000000000E+00  0.18565181577E+03  0.18565181577E+03  0.00000000000E+00 0. -1.
         21   -1    0    0  502  503 -0.00000000000E+00 -0.00000000000E+00 -0.19480722485E+04  0.19480722485E+04  0.00000000000E+00 0. -1.
          6    1    1    2  501    0 -0.25648891082E+02 -0.36185692798E+02  0.13805383268E+03  0.22496695467E+03  0.17200000000E+03 0. -1.
         -6    1    1    2    0  503  0.25648891082E+02  0.36185692798E+02 -0.19004742654E+04  0.19087571096E+04  0.17200000000E+03 0. -1.
</event>
<event>
 4    1  0.4440728E+000  0.1819638E+03  0.7818608E-02  0.1165916E+00
         21   -1    0    0  503  502  0.00000000000E+00  0.00000000000E+00  0.11659133670E+04  0.11659133670E+04  0.00000000000E+00 0. -1.
         21   -1    0    0  501  503 -0.00000000000E+00 -0.00000000000E+00 -0.28647313694E+02  0.28647313694E+02  0.00000000000E+00 0.  1.
          6    1    1    2  501    0  0.25326602963E+02  0.53715715463E+02  0.51302906919E+03  0.54434331147E+03  0.17200000000E+03 0. -1.
         -6    1    1    2    0  502 -0.25326602963E+02 -0.53715715463E+02  0.62423698411E+03  0.65021736922E+03  0.17200000000E+03 0. -1.
</event>
<event>
 4    1  0.4440728E+000  0.2078645E+03  0.7818608E-02  0.1143268E+00
         21   -1    0    0  503  502  0.00000000000E+00  0.00000000000E+00  0.97161985539E+02  0.97161985539E+02  0.00000000000E+00 0. -1.
         21   -1    0    0  501  503 -0.00000000000E+00 -0.00000000000E+00 -0.60120026178E+03  0.60120026178E+03  0.00000000000E+00 0. -1.
          6    1    1    2  501    0  0.87519403236E+02  0.77227035387E+02 -0.43017602906E+03  0.47776466688E+03  0.17200000000E+03 0. -1.
         -6    1    1    2    0  502 -0.87519403236E+02 -0.77227035387E+02 -0.73862247178E+02  0.22059758044E+03  0.17200000000E+03 0. -1.
</event>
<event>
 4    1  0.4440728E+000  0.1793181E+03  0.7818608E-02  0.1168465E+00
         21   -1    0    0  501  502  0.00000000000E+00  0.00000000000E+00  0.12275474878E+03  0.12275474878E+03  0.00000000000E+00 0.  1.
         21   -1    0    0  502  503 -0.00000000000E+00 -0.00000000000E+00 -0.31393463951E+03  0.31393463951E+03  0.00000000000E+00 0. -1.
          6    1    1    2  501    0 -0.37966340864E+02 -0.33608427170E+02 -0.67348744185E+01  0.17944449824E+03  0.17200000000E+03 0.  1.
         -6    1    1    2    0  503  0.37966340864E+02  0.33608427170E+02 -0.18444501631E+03  0.25724489005E+03  0.17200000000E+03 0. -1.
</event>
<event>
 4    1  0.4440728E+000  0.1900315E+03  0.7818608E-02  0.1158433E+00
         21   -1    0    0  503  502  0.00000000000E+00  0.00000000000E+00  0.53692607399E+03  0.53692607399E+03  0.00000000000E+00 0.  1.
         21   -1    0    0  501  503 -0.00000000000E+00 -0.00000000000E+00 -0.81680512147E+02  0.81680512147E+02  0.00000000000E+00 0.  1.
          6    1    1    2  501    0  0.55529519830E+02  0.58689426082E+02  0.97646971490E+02  0.21365136870E+03  0.17200000000E+03 0.  1.
         -6    1    1    2    0  502 -0.55529519830E+02 -0.58689426082E+02  0.35759859036E+03  0.40495521744E+03  0.17200000000E+03 0.  1.
</event>
<event>
 4    1  0.4440728E+000  0.2006053E+03  0.7818608E-02  0.1149229E+00
         21   -1    0    0  501  502  0.00000000000E+00  0.00000000000E+00  0.56579605615E+02  0.56579605615E+02  0.00000000000E+00 0.  1.
         21   -1    0    0  502  503 -0.00000000000E+00 -0.00000000000E+00 -0.29318077084E+04  0.29318077084E+04  0.00000000000E+00 0. -1.
          6    1    1    2  501    0 -0.97565286736E+02  0.33756583628E+02 -0.13723563826E+03  0.24305578068E+03  0.17200000000E+03 0.  1.
         -6    1    1    2    0  503  0.97565286736E+02 -0.33756583628E+02 -0.27379924645E+04  0.27453315333E+04  0.17200000000E+03 0. -1.
</event>
<event>
 4    1  0.4440728E+000  0.2041647E+03  0.7818608E-02  0.1146272E+00
         21   -1    0    0  501  502  0.00000000000E+00  0.00000000000E+00  0.30976072137E+03  0.30976072137E+03  0.00000000000E+00 0. -1.
         21   -1    0    0  502  503 -0.00000000000E+00 -0.00000000000E+00 -0.17481438819E+03  0.17481438819E+03  0.00000000000E+00 0.  1.
          6    1    1    2  501    0 -0.10939604286E+03  0.11477410683E+02  0.18372970691E+03  0.27466312157E+03  0.17200000000E+03 0. -1.
         -6    1    1    2    0  503  0.10939604286E+03 -0.11477410683E+02 -0.48783373727E+02  0.20991198799E+03  0.17200000000E+03 0.  1.
</event>
<event>
 4    1  0.4440728E+000  0.2228690E+03  0.7818608E-02  0.1131762E+00
         21   -1    0    0  503  502  0.00000000000E+00  0.00000000000E+00  0.40591523642E+02  0.40591523642E+02  0.00000000000E+00 0. -1.
         21   -1    0    0  501  503 -0.00000000000E+00 -0.00000000000E+00 -0.12747058212E+04  0.12747058212E+04  0.00000000000E+00 0. -1.
          6    1    1    2  501    0 -0.11922020315E+03 -0.76636385581E+02 -0.48546486427E+03  0.53417855337E+03  0.17200000000E+03 0. -1.
         -6    1    1    2    0  502  0.11922020315E+03  0.76636385581E+02 -0.74864943327E+03  0.78111879146E+03  0.17200000000E+03 0. -1.
</event>
<event>
 4    1  0.4440728E+000  0.2240961E+03  0.7818608E-02  0.1130866E+00
         21   -1    0    0  501  502  0.00000000000E+00  0.00000000000E+00  0.79339763610E+02  0.79339763610E+02  0.00000000000E+00 0.  1.
         21   -1    0    0  502  503 -0.00000000000E+00 -0.00000000000E+00 -0.68554895512E+03  0.68554895512E+03  0.00000000000E+00 0.  1.
          6    1    1    2  501    0  0.91662615507E+02 -0.11060309526E+03 -0.40902674165E+03  0.46639249045E+03  0.17200000000E+03 0. -1.
         -6    1    1    2    0  503 -0.91662615507E+02  0.11060309526E+03 -0.19718244985E+03  0.29849622827E+03  0.17200000000E+03 0. -1.
</event>
<event>
 4    1  0.4440728E+000  0.1765281E+03  0.7818608E-02  0.1171206E+00
         21   -1    0    0  501  502  0.00000000000E+00  0.00000000000E+00  0.18328315435E+04  0.18328315435E+04  0.00000000000E+00 0.  1.
         21   -1    0    0  502  503 -0.00000000000E+00 -0.00000000000E+00 -0.17034095995E+02  0.17034095995E+02  0.00000000000E+00 0.  1.
          6    1    1    2  501    0 -0.35248600705E+02 -0.18322577313E+02  0.94791837645E+03  0.96421544745E+03  0.17200000000E+03 0. -1.
         -6    1    1    2    0  503  0.35248600705E+02  0.18322577313E+02  0.86787907104E+03  0.88565019203E+03  0.17200000000E+03 0. -1.
</event>
<event>
 4    1  0.4440728E+000  0.1730865E+03  0.7818608E-02  0.1174667E+00
         21   -1    0    0  501  502  0.00000000000E+00  0.00000000000E+00  0.30330081302E+03  0.30330081302E+03  0.00000000000E+00 0.  1.
         21   -1    0    0  502  503 -0.00000000000E+00 -0.00000000000E+00 -0.12839743997E+03  0.12839743997E+03  0.00000000000E+00 0.  1.
          6    1    1    2  501    0 -0.18810825448E+02  0.45922121872E+01  0.19112641663E+03  0.25785314173E+03  0.17200000000E+03 0.  1.
         -6    1    1    2    0  503  0.18810825448E+02 -0.45922121872E+01 -0.16223043576E+02  0.17384511126E+03  0.17200000000E+03 0.  1.
</event>
<event>
 4    1  0.4440728E+000  0.1878504E+03  0.7818608E-02  0.1160415E+00
         21   -1    0    0  503  502  0.00000000000E+00  0.00000000000E+00  0.18597007443E+03  0.18597007443E+03  0.00000000000E+00 0. -1.
         21   -1    0    0  501  503 -0.00000000000E+00 -0.00000000000E+00 -0.19237109105E+03  0.19237109105E+03  0.00000000000E+00 0. -1.
          6    1    1    2  501    0  0.39928280319E+02 -0.64105497848E+02  0.18881685317E+02  0.18879698214E+03  0.17200000000E+03 0. -1.
         -6    1    1    2    0  502 -0.39928280319E+02  0.64105497848E+02 -0.25282701934E+02  0.18954418335E+03  0.17200000000E+03 0. -1.
</event>
<event>
 4    1  0.4440728E+000  0.1780286E+03  0.7818608E-02  0.1169725E+00
         21   -1    0    0  503  502  0.00000000000E+00  0.00000000000E+00  0.54161786282E+02  0.54161786282E+02  0.00000000000E+00 0.  1.
         21   -1    0    0  501  503 -0.00000000000E+00 -0.00000000000E+00 -0.59198007419E+03  0.59198007419E+03  0.00000000000E+00 0.  1.
          6    1    1    2  501    0  0.42597219013E+02  0.17195090175E+02 -0.30354444695E+03  0.35189973781E+03  0.17200000000E+03 0.  1.
         -6    1    1    2    0  502 -0.42597219013E+02 -0.17195090175E+02 -0.23427384095E+03  0.29424212266E+03  0.17200000000E+03 0.  1.
</event>
<event>
 4    1  0.4440728E+000  0.2792781E+03  0.7818608E-02  0.1096084E+00
         21   -1    0    0  501  502  0.00000000000E+00  0.00000000000E+00  0.64013274310E+03  0.64013274310E+03  0.00000000000E+00 0. -1.
         21   -1    0    0  502  503 -0.00000000000E+00 -0.00000000000E+00 -0.17917343242E+03  0.17917343242E+03  0.00000000000E+00 0.  1.
          6    1    1    2  501    0 -0.88568362887E+02 -0.20141468783E+03  0.46220250140E+03  0.54002535466E+03  0.17200000000E+03 0. -1.
         -6    1    1    2    0  503  0.88568362887E+02  0.20141468783E+03 -0.12431907177E+01  0.27928082086E+03  0.17200000000E+03 0. -1.
</event>
<event>
 4    1  0.4440728E+000  0.1898654E+03  0.7818608E-02  0.1158583E+00
         21   -1    0    0  501  502  0.00000000000E+00  0.00000000000E+00  0.20420883963E+03  0.20420883963E+03  0.00000000000E+00 0.  1.
         21   -1    0    0  502  503 -0.00000000000E+00 -0.00000000000E+00 -0.27398481829E+03  0.27398481829E+03  0.00000000000E+00 0. -1.
          6    1    1    2  501    0 -0.16014068903E+01  0.80388381984E+02  0.10771007926E+03  0.21828952709E+03  0.17200000000E+03 0.  1.
         -6    1    1    2    0  503  0.16014068903E+01 -0.80388381984E+02 -0.17748605792E+03  0.25990413082E+03  0.17200000000E+03 0. -1.
</event>
<event>
 4    1  0.4440728E+000  0.1844585E+03  0.7818608E-02  0.1163556E+00
         21   -1    0    0  503  502  0.00000000000E+00  0.00000000000E+00  0.47914445838E+02  0.47914445838E+02  0.00000000000E+00 0.  1.
         21   -1    0    0  501  503 -0.00000000000E+00 -0.00000000000E+00 -0.83685110941E+03  0.83685110941E+03  0.00000000000E+00 0. -1.
          6    1    1    2  501    0 -0.94318206191E+01  0.65969655644E+02 -0.56662251321E+03  0.59589095242E+03  0.17200000000E+03 0. -1.
         -6    1    1    2    0  502  0.94318206191E+01 -0.65969655644E+02 -0.22231415037E+03  0.28887460283E+03  0.17200000000E+03 0.  1.
</event>
<event>
 4    1  0.4440728E+000  0.2016987E+03  0.7818608E-02  0.1148314E+00
         21   -1    0    0  501  502  0.00000000000E+00  0.00000000000E+00  0.67608017449E+03  0.67608017449E+03  0.00000000000E+00 0.  1.
         21   -1    0    0  502  503 -0.00000000000E+00 -0.00000000000E+00 -0.28939844415E+03  0.28939844415E+03  0.00000000000E+00 0. -1.
          6    1    1    2  501    0 -0.87935503705E+02 -0.58014756472E+02  0.62297140989E+03  0.65480969931E+03  0.17200000000E+03 0.  1.
         -6    1    1    2    0  503  0.87935503705E+02  0.58014756472E+02 -0.23628967955E+03  0.31066891933E+03  0.17200000000E+03 0. -1.
</event>
<event>
 4    1  0.4440728E+000  0.2241251E+03  0.7818608E-02  0.1130844E+00
         21   -1    0    0  503  502  0.00000000000E+00  0.00000000000E+00  0.67401797095E+03  0.67401797095E+03  0.00000000000E+00 0.  1.
         21   -1    0    0  501  503 -0.00000000000E+00 -0.00000000000E+00 -0.18551927503E+03  0.18551927503E+03  0.00000000000E+00 0. -1.
          6    1    1    2  501    0 -0.88619573568E+01  0.14342082202E+03 -0.88171251977E+02  0.24084483834E+03  0.17200000000E+03 0. -1.
         -6    1    1    2    0  502  0.88619573568E+01 -0.14342082202E+03  0.57666994789E+03  0.61869240765E+03  0.17200000000E+03 0.  1.
</event>
<event>
 4    1  0.4440728E+000  0.1934468E+03  0.7818608E-02  0.1155389E+00
         21   -1    0    0  503  502  0.00000000000E+00  0.00000000000E+00  0.12216141868E+03  0.12216141868E+03  0.00000000000E+00 0. -1.
         21   -1    0    0  501  503 -0.00000000000E+00 -0.00000000000E+00 -0.36472722885E+03  0.36472722885E+03  0.00000000000E+00 0.  1.
          6    1    1    2  501    0  0.23612151849E+02  0.85323714523E+02 -0.21869498524E+03  0.29197459915E+03  0.17200000000E+03 0.  1.
         -6    1    1    2    0  502 -0.23612151849E+02 -0.85323714523E+02 -0.23870824925E+02  0.19491404838E+03  0.17200000000E+03 0. -1.
</event>
<event>
 4    1  0.4440728E+000  0.1852519E+03  0.7818608E-02  0.1162815E+00
         21   -1    0    0  503  502  0.00000000000E+00  0.00000000000E+00  0.84878536768E+02  0.84878536768E+02  0.00000000000E+00 0.  1.
         21   -1    0    0  501  503 -0.00000000000E+00 -0.00000000000E+00 -0.41901583548E+03  0.41901583548E+03  0.00000000000E+00 0.  1.
          6    1    1    2  501    0  0.29348816535E+02 -0.62232800977E+02 -0.11988850094E+03  0.22066156713E+03  0.17200000000E+03 0.  1.
         -6    1    1    2    0  502 -0.29348816535E+02  0.62232800977E+02 -0.21424879777E+03  0.28323280512E+03  0.17200000000E+03 0.  1.
</event>
<event>
 4    1  0.4440728E+000  0.2504592E+03  0.7818608E-02  0.1113015E+00
         21   -1    0    0  501  502  0.00000000000E+00  0.00000000000E+00  0.89604237886E+02  0.89604237886E+02  0.00000000000E+00 0.  1.
         21   -1    0    0  502  503 -0.00000000000E+00 -0.00000000000E+00 -0.70396366426E+03  0.70396366426E+03  0.00000000000E+00 0.  1.
          6    1    1    2  501    0 -0.18200823736E+03  0.43358419394E+01 -0.27769411667E+03  0.37395697671E+03  0.17200000000E+03 0.  1.
         -6    1    1    2    0  503  0.18200823736E+03 -0.43358419394E+01 -0.33666530971E+03  0.41961092545E+03  0.17200000000E+03 0.  1.
</event>
<event>
 4    1  0.4440728E+000  0.1759019E+03  0.7818608E-02  0.1171829E+00
         21   -1    0    0  501  502  0.00000000000E+00  0.00000000000E+00  0.14324651164E+03  0.14324651164E+03  0.00000000000E+00 0.  1.
         21   -1    0    0  502  503 -0.00000000000E+00 -0.00000000000E+00 -0.21640481608E+03  0.21640481608E+03  0.00000000000E+00 0.  1.
          6    1    1    2  501    0  0.18967756659E+02  0.31586703340E+02 -0.28818249127E+02  0.17824698343E+03  0.17200000000E+03 0. -1.
         -6    1    1    2    0  503 -0.18967756659E+02 -0.31586703340E+02 -0.44340055313E+02  0.18140434429E+03  0.17200000000E+03 0. -1.
</event>
<event>
 4    1  0.4440728E+000  0.1866930E+03  0.7818608E-02  0.1161478E+00
         21   -1    0    0  503  502  0.00000000000E+00  0.00000000000E+00  0.11371198992E+03  0.11371198992E+03  0.00000000000E+00 0. -1.
         21   -1    0    0  501  503 -0.00000000000E+00 -0.00000000000E+00 -0.33440709110E+03  0.33440709110E+03  0.00000000000E+00 0. -1.
          6    1    1    2  501    0 -0.53392630671E+02  0.49188359550E+02 -0.17505844311E+03  0.25592914298E+03  0.17200000000E+03 0. -1.
         -6    1    1    2    0  502  0.53392630671E+02 -0.49188359550E+02 -0.45636658071E+02  0.19218993804E+03  0.17200000000E+03 0. -1.
</event>
<event>
 4    1  0.4440728E+000  0.1833410E+03  0.7818608E-02  0.1164608E+00
         21   -1    0    0  501  502  0.00000000000E+00  0.00000000000E+00  0.31465605153E+03  0.31465605153E+03  0.00000000000E+00 0. -1.
         21   -1    0    0  502  503 -0.00000000000E+00 -0.00000000000E+00 -0.10736720489E+04  0.10736720489E+04  0.00000000000E+00 0. -1.
          6    1    1    2  501    0  0.44246764414E+02  0.45520812035E+02  0.27921772081E+03  0.33403062151E+03  0.17200000000E+03 0. -1.
         -6    1    1    2    0  503 -0.44246764414E+02 -0.45520812035E+02 -0.10382337182E+04  0.10542974789E+04  0.17200000000E+03 0. -1.
</event>
<event>
 4    1  0.4440728E+000  0.1921613E+03  0.7818608E-02  0.1156526E+00
         21   -1    0    0  501  502  0.00000000000E+00  0.00000000000E+00  0.20393523645E+03  0.20393523645E+03  0.00000000000E+00 0.  1.
         21   -1    0    0  502  503 -0.00000000000E+00 -0.00000000000E+00 -0.40742376236E+03  0.40742376236E+03  0.00000000000E+00 0.  1.
          6    1    1    2  501    0 -0.54388056762E+02 -0.66210923311E+02  0.12610091738E+03  0.22984209459E+03  0.17200000000E+03 0.  1.
         -6    1    1    2    0  503  0.54388056762E+02  0.66210923311E+02 -0.32958944329E+03  0.38151690423E+03  0.17200000000E+03 0.  1.
</event>
<event>
 4    1  0.4440728E+000  0.1798821E+03  0.7818608E-02  0.1167917E+00
         21   -1    0    0  501  502  0.00000000000E+00  0.00000000000E+00  0.39262759868E+03  0.39262759868E+03  0.00000000000E+00 0.  1.
         21   -1    0    0  502  503 -0.00000000000E+00 -0.00000000000E+00 -0.36915475522E+03  0.36915475522E+03  0.00000000000E+00 0.  1.
          6    1    1    2  501    0 -0.51995934966E+02 -0.83656256365E+01  0.34742940174E+03  0.39123490404E+03  0.17200000000E+03 0.  1.
         -6    1    1    2    0  503  0.51995934966E+02  0.83656256365E+01 -0.32395655828E+03  0.37054744986E+03  0.17200000000E+03 0.  1.
</event>
<event>
 4    1  0.4440728E+000  0.1838452E+03  0.7818608E-02  0.1164133E+00
         21   -1    0    0  501  502  0.00000000000E+00  0.00000000000E+00  0.71812772919E+03  0.71812772919E+03  0.00000000000E+00 0. -1.
         21   -1    0    0  502  503 -0.00000000000E+00 -0.00000000000E+00 -0.47188539930E+02  0.47188539930E+02  0.00000000000E+00 0. -1.
          6    1    1    2  501    0 -0.15571149547E+02 -0.63028517944E+02  0.31593155531E+03  0.36552948228E+03  0.17200000000E+03 0.  1.
         -6    1    1    2    0  503  0.15571149547E+02  0.63028517944E+02  0.35500763395E+03  0.39978678684E+03  0.17200000000E+03 0.  1.
</event>
<event>
 4    1  0.4440728E+000  0.1969793E+03  0.7818608E-02  0.1152313E+00
         21   -1    0    0  501  502  0.00000000000E+00  0.00000000000E+00  0.37884983274E+03  0.37884983274E+03  0.00000000000E+00 0.  1.
         21   -1    0    0  502  503 -0.00000000000E+00 -0.00000000000E+00 -0.16018022174E+03  0.16018022174E+03  0.00000000000E+00 0. -1.
          6    1    1    2  501    0 -0.95389565677E+02 -0.10847472570E+02  0.27118101081E+03  0.33517156431E+03  0.17200000000E+03 0.  1.
         -6    1    1    2    0  503  0.95389565677E+02  0.10847472570E+02 -0.52511399809E+02  0.20385849016E+03  0.17200000000E+03 0. -1.
</event>
<event>
 4    1  0.4440728E+000  0.1882880E+03  0.7818608E-02  0.1160015E+00
         21   -1    0    0  501  502  0.00000000000E+00  0.00000000000E+00  0.32666429121E+03  0.32666429121E+03  0.00000000000E+00 0.  1.
         21   -1    0    0  502  503 -0.00000000000E+00 -0.00000000000E+00 -0.11089002015E+03  0.11089002015E+03  0.00000000000E+00 0. -1.
          6    1    1    2  501    0 -0.74899598990E+02 -0.16075579222E+02  0.13981388940E+03  0.23452142300E+03  0.17200000000E+03 0.  1.
         -6    1    1    2    0  503  0.74899598990E+02  0.16075579222E+02  0.75960381655E+02  0.20303288836E+03  0.17200000000E+03 0. -1.
</event>
<event>
 4    1  0.4440728E+000  0.1885419E+03  0.7818608E-02  0.1159783E+00
         21   -1    0    0  501  502  0.00000000000E+00  0.00000000000E+00  0.84779502639E+02  0.84779502639E+02  0.00000000000E+00 0. -1.
         21   -1    0    0  502  503 -0.00000000000E+00 -0.00000000000E+00 -0.64152237189E+03  0.64152237189E+03  0.00000000000E+00 0.  1.
          6    1    1    2  501    0  0.43775955666E+02 -0.63621609408E+02 -0.64636664492E+02  0.19931367709E+03  0.17200000000E+03 0.  1.
         -6    1    1    2    0  503 -0.43775955666E+02  0.63621609408E+02 -0.49210620476E+03  0.52698819744E+03  0.17200000000E+03 0.  1.
</event>
<event>
 4    1  0.4440728E+000  0.1871851E+03  0.7818608E-02  0.1161025E+00
         21   -1    0    0  501  502  0.00000000000E+00  0.00000000000E+00  0.50967652128E+02  0.50967652128E+02  0.00000000000E+00 0. -1.
         21   -1    0    0  502  503 -0.00000000000E+00 -0.00000000000E+00 -0.68757640988E+03  0.68757640988E+03  0.00000000000E+00 0.  1.
          6    1    1    2  501    0  0.39612869989E+02  0.62330475101E+02 -0.31351796195E+03  0.36514624476E+03  0.17200000000E+03 0. -1.
         -6    1    1    2    0  503 -0.39612869989E+02 -0.62330475101E+02 -0.32309079580E+03  0.37339781725E+03  0.17200000000E+03 0.  1.
</event>
<event>
 4    1  0.4440728E+000  0.1770587E+03  0.7818608E-02  0.1170680E+00
         21   -1    0    0  503  502  0.00000000000E+00  0.00000000000E+00  0.51838125015E+03  0.51838125015E+03  0.00000000000E+00 0. -1.
         21   -1    0    0  501  503 -0.00000000000E+00 -0.00000000000E+00 -0.66539028298E+02  0.66539028298E+02  0.00000000000E+00 0. -1.
          6    1    1    2  501    0  0.40134964340E+02  0.12448075785E+02  0.13764093253E+03  0.22426501346E+03  0.17200000000E+03 0.  1.
         -6    1    1    2    0  502 -0.40134964340E+02 -0.12448075785E+02  0.31420128932E+03  0.36065526499E+03  0.17200000000E+03 0.  1.
</event>
<event>
 4    1  0.4440728E+000  0.2791404E+03  0.7818608E-02  0.1096159E+00
         21   -1    0    0  501  502  0.00000000000E+00  0.00000000000E+00  0.33744061934E+03  0.33744061934E+03  0.00000000000E+00 0.  1.
         21   -1    0    0  502  503 -0.00000000000E+00 -0.00000000000E+00 -0.28711739243E+03  0.28711739243E+03  0.00000000000E+00 0. -1.
          6    1    1    2  501    0  0.10183597657E+03 -0.19484563911E+03  0.16332678627E+03  0.32341154636E+03  0.17200000000E+03 0.  1.
         -6    1    1    2    0  503 -0.10183597657E+03  0.19484563911E+03 -0.11300355936E+03  0.30114646542E+03  0.17200000000E+03 0. -1.
</event>
<event>
 4    1  0.4440728E+000  0.1776795E+03  0.7818608E-02  0.1170068E+00
         21   -1    0    0  501  502  0.00000000000E+00  0.00000000000E+00  0.35638049504E+03  0.35638049504E+03  0.00000000000E+00 0. -1.
         21   -1    0    0  502  503 -0.00000000000E+00 -0.00000000000E+00 -0.88845560922E+02  0.88845560922E+02  0.00000000000E+00 0. -1.
          6    1    1    2  501    0 -0.40043451486E+02  0.19557972241E+02  0.12171360453E+03  0.21536989997E+03  0.17200000000E+03 0. -1.
         -6    1    1    2    0  503  0.40043451486E+02 -0.19557972241E+02  0.14582132959E+03  0.22985615599E+03  0.17200000000E+03 0. -1.
</event>
<event>
 4    1  0.4440728E+000  0.2124511E+03  0.7818608E-02  0.1139640E+00
         21   -1    0    0  501  502  0.00000000000E+00  0.00000000000E+00  0.25345533110E+02  0.25345533110E+02  0.00000000000E+00 0.  1.
         21   -1    0    0  502  503 -0.00000000000E+00 -0.00000000000E+00 -0.19543708659E+04  0.19543708659E+04  0.00000000000E+00 0. -1.
          6    1    1    2  501    0 -0.11468739555E+03 -0.48972065649E+02 -0.66952682614E+03  0.70242553544E+03  0.17200000000E+03 0.  1.
         -6    1    1    2    0  503  0.11468739555E+03  0.48972065649E+02 -0.12594985067E+04  0.12772908636E+04  0.17200000000E+03 0. -1.
</event>
<event>
 4    1  0.4440728E+000  0.1821985E+03  0.7818608E-02  0.1165692E+00
         21   -1    0    0  503  502  0.00000000000E+00  0.00000000000E+00  0.14824284414E+04  0.14824284414E+04  0.00000000000E+00 0.  1.
         21   -1    0    0  501  503 -0.00000000000E+00 -0.00000000000E+00 -0.33953337977E+02  0.33953337977E+02  0.00000000000E+00 0.  1.
          6    1    1    2  501    0  0.19121159506E+02 -0.56979509163E+02  0.28183333768E+03  0.33559844075E+03  0.17200000000E+03 0.  1.
         -6    1    1    2    0  502 -0.19121159506E+02  0.56979509163E+02  0.11666417657E+04  0.11807833386E+04  0.17200000000E+03 0.  1.
</event>
<event>
 4    1  0.4440728E+000  0.2657237E+03  0.7818608E-02  0.1103752E+00
         21   -1    0    0  503  502  0.00000000000E+00  0.00000000000E+00  0.17870381935E+03  0.17870381935E+03  0.00000000000E+00 0. -1.
         21   -1    0    0  501  503 -0.00000000000E+00 -0.00000000000E+00 -0.55387296685E+03  0.55387296685E+03  0.00000000000E+00 0. -1.
          6    1    1    2  501    0  0.13661973123E+03 -0.14953305681E+03 -0.38368647636E+03  0.46671661442E+03  0.17200000000E+03 0. -1.
         -6    1    1    2    0  502 -0.13661973123E+03  0.14953305681E+03  0.85173288550E+01  0.26586017177E+03  0.17200000000E+03 0. -1.
</event>
<event>
 4    1  0.4440728E+000  0.2030631E+03  0.7818608E-02  0.1147180E+00
         21   -1    0    0  501  502  0.00000000000E+00  0.00000000000E+00  0.68999498609E+03  0.68999498609E+03  0.00000000000E+00 0.  1.
         21   -1    0    0  502  503 -0.00000000000E+00 -0.00000000000E+00 -0.62403513076E+02  0.62403513076E+02  0.00000000000E+00 0. -1.
          6    1    1    2  501    0  0.51364348508E+02 -0.94933364068E+02  0.23637810241E+03  0.31162356652E+03  0.17200000000E+03 0. -1.
         -6    1    1    2    0  503 -0.51364348508E+02  0.94933364068E+02  0.39121337061E+03  0.44077493265E+03  0.17200000000E+03 0.  1.
</event>
<event>
 4    1  0.4440728E+000  0.2424754E+03  0.7818608E-02  0.1118155E+00
         21   -1    0    0  501  502  0.00000000000E+00  0.00000000000E+00  0.16251741135E+04  0.16251741135E+04  0.00000000000E+00 0. -1.
         21   -1    0    0  502  503 -0.00000000000E+00 -0.00000000000E+00 -0.39924900645E+02  0.39924900645E+02  0.00000000000E+00 0. -1.
          6    1    1    2  501    0  0.91450985897E+02  0.14438503122E+03  0.10476997014E+04  0.10753924793E+04  0.17200000000E+03 0. -1.
         -6    1    1    2    0  503 -0.91450985897E+02 -0.14438503122E+03  0.53754951144E+03  0.58970653491E+03  0.17200000000E+03 0. -1.
</event>
<event>
 4    1  0.4440728E+000  0.2304609E+03  0.7818608E-02  0.1126316E+00
         21   -1    0    0  503  502  0.00000000000E+00  0.00000000000E+00  0.16890447982E+04  0.16890447982E+04  0.00000000000E+00 0. -1.
         21   -1    0    0  501  503 -0.00000000000E+00 -0.00000000000E+00 -0.33591709270E+02  0.33591709270E+02  0.00000000000E+00 0.  1.
          6    1    1    2  501    0 -0.49652847365E+01 -0.15330872202E+03  0.60999469528E+03  0.65207802184E+03  0.17200000000E+03 0.  1.
         -6    1    1    2    0  502  0.49652847365E+01  0.15330872202E+03  0.10454583937E+04  0.10705584856E+04  0.17200000000E+03 0.  1.
</event>
<event>
 4    1  0.4440728E+000  0.1765412E+03  0.7818608E-02  0.1171193E+00
         21   -1    0    0  501  502  0.00000000000E+00  0.00000000000E+00  0.34307487054E+03  0.34307487054E+03  0.00000000000E+00 0.  1.
         21   -1    0    0  502  503 -0.00000000000E+00 -0.00000000000E+00 -0.91667744283E+02  0.91667744283E+02  0.00000000000E+00 0.  1.
          6    1    1    2  501    0  0.13213737544E+02 -0.37526100336E+02  0.14629051898E+03  0.22927652957E+03  0.17200000000E+03 0. -1.
         -6    1    1    2    0  503 -0.13213737544E+02  0.37526100336E+02  0.10511660728E+03  0.20546608526E+03  0.17200000000E+03 0. -1.
</event>
<event>
 4    1  0.4440728E+000  0.1906167E+03  0.7818608E-02  0.1157906E+00
         21   -1    0    0  501  502  0.00000000000E+00  0.00000000000E+00  0.13980659183E+03  0.13980659183E+03  0.00000000000E+00 0. -1.
         21   -1    0    0  502  503 -0.00000000000E+00 -0.00000000000E+00 -0.27474441083E+03  0.27474441083E+03  0.00000000000E+00 0. -1.
          6    1    1    2  501    0 -0.71534534015E+02  0.40416999631E+02 -0.11566043290E+03  0.22296201281E+03  0.17200000000E+03 0. -1.
         -6    1    1    2    0  503  0.71534534015E+02 -0.40416999631E+02 -0.19277386094E+02  0.19158898985E+03  0.17200000000E+03 0. -1.
</event>
<event>
 4    1  0.4440728E+000  0.1821011E+03  0.7818608E-02  0.1165785E+00
         21   -1    0    0  503  502  0.00000000000E+00  0.00000000000E+00  0.53285962127E+02  0.53285962127E+02  0.00000000000E+00 0.  1.
         21   -1    0    0  501  503 -0.00000000000E+00 -0.00000000000E+00 -0.13528838753E+04  0.13528838753E+04  0.00000000000E+00 0.  1.
          6    1    1    2  501    0  0.51058682827E+02  0.31141904787E+02 -0.11664618206E+04  0.11805905244E+04  0.17200000000E+03 0.  1.
         -6    1    1    2    0  502 -0.51058682827E+02 -0.31141904787E+02 -0.13313609254E+03  0.22557931302E+03  0.17200000000E+03 0.  1.
</event>
<event>
 4    1  0.4440728E+000  0.2141193E+03  0.7818608E-02  0.1138345E+00
         21   -1    0    0  501  502  0.00000000000E+00  0.00000000000E+00  0.50461287321E+03  0.50461287321E+03  0.00000000000E+00 0.  1.
         21   -1    0    0  502  503 -0.00000000000E+00 -0.00000000000E+00 -0.10477406900E+03  0.10477406900E+03  0.00000000000E+00 0.  1.
          6    1    1    2  501    0 -0.11729062629E+03  0.50059737053E+02  0.31097154393E+03  0.37755843180E+03  0.17200000000E+03 0.  1.
         -6    1    1    2    0  503  0.11729062629E+03 -0.50059737053E+02  0.88867260281E+02  0.23182851041E+03  0.17200000000E+03 0.  1.
</event>
<event>
 4    1  0.4440728E+000  0.1818191E+03  0.7818608E-02  0.1166054E+00
         21   -1    0    0  501  502  0.00000000000E+00  0.00000000000E+00  0.16330081337E+03  0.16330081337E+03  0.00000000000E+00 0.  1.
         21   -1    0    0  502  503 -0.00000000000E+00 -0.00000000000E+00 -0.20709905225E+03  0.20709905225E+03  0.00000000000E+00 0.  1.
          6    1    1    2  501    0  0.32756695610E+02 -0.49001785982E+02 -0.49685133564E+02  0.18848551306E+03  0.17200000000E+03 0.  1.
         -6    1    1    2    0  503 -0.32756695610E+02  0.49001785982E+02  0.58868946906E+01  0.18191435256E+03  0.17200000000E+03 0.  1.
</event>
<event>
 4    1  0.4440728E+000  0.2812072E+03  0.7818608E-02  0.1095031E+00
         21   -1    0    0  503  502  0.00000000000E+00  0.00000000000E+00  0.81651725912E+03  0.81651725912E+03  0.00000000000E+00 0. -1.
         21   -1    0    0  501  503 -0.00000000000E+00 -0.00000000000E+00 -0.12772203823E+03  0.12772203823E+03  0.00000000000E+00 0.  1.
          6    1    1    2  501    0 -0.19850769381E+03  0.10044000503E+03  0.11227324188E+03  0.30279164446E+03  0.17200000000E+03 0.  1.
         -6    1    1    2    0  502  0.19850769381E+03 -0.10044000503E+03  0.57652197901E+03  0.64144765289E+03  0.17200000000E+03 0. -1.
</event>
<event>
 4    1  0.4440728E+000  0.1816936E+03  0.7818608E-02  0.1166174E+00
         21   -1    0    0  501  502  0.00000000000E+00  0.00000000000E+00  0.34887719881E+02  0.34887719881E+02  0.00000000000E+00 0. -1.
         21   -1    0    0  502  503 -0.00000000000E+00 -0.00000000000E+00 -0.95356050517E+03  0.95356050517E+03  0.00000000000E+00 0. -1.
          6    1    1    2  501    0 -0.32922069215E+02  0.48422233049E+02 -0.41606871491E+03  0.45401073866E+03  0.17200000000E+03 0. -1.
         -6    1    1    2    0  503  0.32922069215E+02 -0.48422233049E+02 -0.50260407038E+03  0.53443748639E+03  0.17200000000E+03 0. -1.
</event>
<event>
 4    1  0.4440728E+000  0.2176833E+03  0.7818608E-02  0.1135622E+00
         21   -1    0    0  501  502  0.00000000000E+00  0.00000000000E+00  0.28169353823E+02  0.28169353823E+02  0.00000000000E+00 0. -1.
         21   -1    0    0  502  503 -0.00000000000E+00 -0.00000000000E+00 -0.17994750375E+04  0.17994750375E+04  0.00000000000E+00 0.  1.
          6    1    1    2  501    0 -0.94864400962E+02 -0.93823066917E+02 -0.65234888078E+03  0.68771002953E+03  0.17200000000E+03 0. -1.
         -6    1    1    2    0  503  0.94864400962E+02  0.93823066917E+02 -0.11189568029E+04  0.11399343618E+04  0.17200000000E+03 0.  1.
</event>
<event>
 4    1  0.4440728E+000  0.1993063E+03  0.7818608E-02  0.1150326E+00
         21   -1    0    0  501  502  0.00000000000E+00  0.00000000000E+00  0.37631491936E+02  0.37631491936E+02  0.00000000000E+00 0. -1.
         21   -1    0    0  502  503 -0.00000000000E+00 -0.00000000000E+00 -0.26492475052E+04  0.26492475052E+04  0.00000000000E+00 0. -1.
          6    1    1    2  501    0 -0.77480535149E+02  0.64309781384E+02 -0.26383623325E+03  0.33065471308E+03  0.17200000000E+03 0.  1.
         -6    1    1    2    0  503  0.77480535149E+02 -0.64309781384E+02 -0.23477797800E+04  0.23562242840E+04  0.17200000000E+03 0.  1.
</event>
<event>
 4    1  0.4440728E+000  0.2035810E+03  0.7818608E-02  0.1146752E+00
         21   -1    0    0  501  502  0.00000000000E+00  0.00000000000E+00  0.64272931831E+02  0.64272931831E+02  0.00000000000E+00 0.  1.
         21   -1    0    0  502  503 -0.00000000000E+00 -0.00000000000E+00 -0.10286290272E+04  0.10286290272E+04  0.00000000000E+00 0.  1.
          6    1    1    2  501    0 -0.66849935404E+02  0.85978624187E+02 -0.14838854645E+03  0.25192141314E+03  0.17200000000E+03 0.  1.
         -6    1    1    2    0  503  0.66849935404E+02 -0.85978624187E+02 -0.81596754890E+03  0.84098054587E+03  0.17200000000E+03 0.  1.
</event>
<event>
 4    1  0.4440728E+000  0.2418959E+03  0.7818608E-02  0.1118536E+00
         21   -1    0    0  501  502  0.00000000000E+00  0.00000000000E+00  0.16081679449E+03  0.16081679449E+03  0.00000000000E+00 0. -1.
         21   -1    0    0  502  503 -0.00000000000E+00 -0.00000000000E+00 -0.47657508214E+03  0.47657508214E+03  0.00000000000E+00 0. -1.
          6    1    1    2  501    0  0.16476484571E+03 -0.42215802160E+02 -0.28847819072E+01  0.24191310485E+03  0.17200000000E+03 0. -1.
         -6    1    1    2    0  503 -0.16476484571E+03  0.42215802160E+02 -0.31287350574E+03  0.39547877178E+03  0.17200000000E+03 0. -1.
</event>
<event>
 4    1  0.4440728E+000  0.2076840E+03  0.7818608E-02  0.1143413E+00
         21   -1    0    0  501  502  0.00000000000E+00  0.00000000000E+00  0.23447684721E+03  0.23447684721E+03  0.00000000000E+00 0. -1.
         21   -1    0    0  502  503 -0.00000000000E+00 -0.00000000000E+00 -0.21681957930E+03  0.21681957930E+03  0.00000000000E+00 0.  1.
          6    1    1    2  501    0  0.68732553526E+02 -0.93938687962E+02  0.96682750141E+02  0.22908556302E+03  0.17200000000E+03 0. -1.
         -6    1    1    2    0  503 -0.68732553526E+02  0.93938687962E+02 -0.79025482229E+02  0.22221086349E+03  0.17200000000E+03 0.  1.
</event>
<event>
 4    1  0.4440728E+000  0.2576150E+03  0.7818608E-02  0.1108585E+00
         21   -1    0    0  501  502  0.00000000000E+00  0.00000000000E+00  0.10086323829E+03  0.10086323829E+03  0.00000000000E+00 0. -1.
         21   -1    0    0  502  503 -0.00000000000E+00 -0.00000000000E+00 -0.68117046684E+03  0.68117046684E+03  0.00000000000E+00 0. -1.
          6    1    1    2  501    0  0.19072505710E+03  0.20135776294E+02 -0.21799828441E+03  0.33747407145E+03  0.17200000000E+03 0. -1.
         -6    1    1    2    0  503 -0.19072505710E+03 -0.20135776294E+02 -0.36230894414E+03  0.44455963368E+03  0.17200000000E+03 0. -1.
</event>
<event>
 4    1  0.4440728E+000  0.2207669E+03  0.7818608E-02  0.1133313E+00
         21   -1    0    0  503  502  0.00000000000E+00  0.00000000000E+00  0.25259513266E+02  0.25259513266E+02  0.00000000000E+00 0. -1.
         21   -1    0    0  501  503 -0.00000000000E+00 -0.00000000000E+00 -0.20528146245E+04  0.20528146245E+04  0.00000000000E+00 0.  1.
          6    1    1    2  501    0  0.90143750172E+02 -0.10501479838E+03 -0.12684484485E+04  0.12875167844E+04  0.17200000000E+03 0.  1.
         -6    1    1    2    0  502 -0.90143750172E+02  0.10501479838E+03 -0.75910666274E+03  0.79055735338E+03  0.17200000000E+03 0.  1.
</event>
<event>
 4    1  0.4440728E+000  0.2144612E+03  0.7818608E-02  0.1138081E+00
         21   -1    0    0  503  502  0.00000000000E+00  0.00000000000E+00  0.86741584912E+02  0.86741584912E+02  0.00000000000E+00 0. -1.
         21   -1    0    0  501  503 -0.00000000000E+00 -0.00000000000E+00 -0.75216619441E+03  0.75216619441E+03  0.00000000000E+00 0.  1.
          6    1    1    2  501    0  0.68326346943E+02 -0.10835644383E+03 -0.56055463662E+03  0.60017923093E+03  0.17200000000E+03 0.  1.
         -6    1    1    2    0  502 -0.68326346943E+02  0.10835644383E+03 -0.10486997288E+03  0.23872854839E+03  0.17200000000E+03 0. -1.
</event>
<event>
 4    1  0.4440728E+000  0.2471313E+03  0.7818608E-02  0.1115131E+00
         21   -1    0    0  501  502  0.00000000000E+00  0.00000000000E+00  0.37584685526E+03  0.37584685526E+03  0.00000000000E+00 0. -1.
         21   -1    0    0  502  503 -0.00000000000E+00 -0.00000000000E+00 -0.17373247553E+03  0.17373247553E+03  0.00000000000E+00 0. -1.
          6    1    1    2  501    0  0.13189028502E+03  0.11872165247E+03  0.17093852503E+03  0.30048936318E+03  0.17200000000E+03 0. -1.
         -6    1    1    2    0  503 -0.13189028502E+03 -0.11872165247E+03  0.31175854699E+02  0.24908996761E+03  0.17200000000E+03 0. -1.
</event>
<event>
 4    1  0.4440728E+000  0.2672418E+03  0.7818608E-02  0.1102869E+00
         21   -1    0    0  503  502  0.00000000000E+00  0.00000000000E+00  0.32857229688E+03  0.32857229688E+03  0.00000000000E+00 0.  1.
         21   -1    0    0  501  503 -0.00000000000E+00 -0.00000000000E+00 -0.28390391520E+03  0.28390391520E+03  0.00000000000E+00 0.  1.
          6    1    1    2  501    0  0.17293767989E+03  0.10920948811E+03 -0.12592816697E+03  0.29542521330E+03  0.17200000000E+03 0.  1.
         -6    1    1    2    0  502 -0.17293767989E+03 -0.10920948811E+03  0.17059654865E+03  0.31705099878E+03  0.17200000000E+03 0.  1.
</event>
<event>
 4    1  0.4440728E+000  0.2399863E+03  0.7818608E-02  0.1119802E+00
         21   -1    0    0  503  502  0.00000000000E+00  0.00000000000E+00  0.42232664212E+03  0.42232664212E+03  0.00000000000E+00 0. -1.
         21   -1    0    0  501  503 -0.00000000000E+00 -0.00000000000E+00 -0.14237684796E+03  0.14237684796E+03  0.00000000000E+00 0.  1.
          6    1    1    2  501    0  0.73767016846E+02 -0.15022607229E+03  0.81988125920E+02  0.25360500461E+03  0.17200000000E+03 0.  1.
         -6    1    1    2    0  502 -0.73767016846E+02  0.15022607229E+03  0.19796166824E+03  0.31109848547E+03  0.17200000000E+03 0. -1.
</event>
<event>
 4    1  0.4440728E+000  0.2345417E+03  0.7818608E-02  0.1123483E+00
         21   -1    0    0  503  502  0.00000000000E+00  0.00000000000E+00  0.39803935710E+02  0.39803935710E+02  0.00000000000E+00 0.  1.
         21   -1    0    0  501  503 -0.00000000000E+00 -0.00000000000E+00 -0.15397346825E+04  0.15397346825E+04  0.00000000000E+00 0.  1.
          6    1    1    2  501    0  0.80348245689E+02  0.13773156300E+03 -0.10027285222E+04  0.10297933352E+04  0.17200000000E+03 0.  1.
         -6    1    1    2    0  502 -0.80348245689E+02 -0.13773156300E+03 -0.49720222460E+03  0.54974528299E+03  0.17200000000E+03 0.  1.
</event>
<event>
 4    1  0.4440728E+000  0.2278545E+03  0.7818608E-02  0.1128159E+00
         21   -1    0    0  503  502  0.00000000000E+00  0.00000000000E+00  0.31522519847E+02  0.31522519847E+02  0.00000000000E+00 0. -1.
         21   -1    0    0  501  503 -0.00000000000E+00 -0.00000000000E+00 -0.16536513363E+04  0.16536513363E+04  0.00000000000E+00 0.  1.
          6    1    1    2  501    0  0.12202069033E+02 -0.14894556775E+03 -0.86449153094E+03  0.89401525698E+03  0.17200000000E+03 0.  1.
         -6    1    1    2    0  502 -0.12202069033E+02  0.14894556775E+03 -0.75763728551E+03  0.79115859917E+03  0.17200000000E+03 0. -1.
</event>
<event>
 4    1  0.4440728E+000  0.1896334E+03  0.7818608E-02  0.1158792E+00
         21   -1    0    0  501  502  0.00000000000E+00  0.00000000000E+00  0.95147983662E+02  0.95147983662E+02  0.00000000000E+00 0.  1.
         21   -1    0    0  502  503 -0.00000000000E+00 -0.00000000000E+00 -0.50775689951E+03  0.50775689951E+03  0.00000000000E+00 0.  1.
          6    1    1    2  501    0 -0.44088993275E+02 -0.66580675055E+02 -0.35872588215E+03  0.40576481383E+03  0.17200000000E+03 0.  1.
         -6    1    1    2    0  503  0.44088993275E+02  0.66580675055E+02 -0.53883033696E+02  0.19714006934E+03  0.17200000000E+03 0.  1.
</event>
<event>
 4    1  0.4440728E+000  0.2335998E+03  0.7818608E-02  0.1124131E+00
         21   -1    0    0  501  502  0.00000000000E+00  0.00000000000E+00  0.57255478248E+03  0.57255478248E+03  0.00000000000E+00 0.  1.
         21   -1    0    0  502  503 -0.00000000000E+00 -0.00000000000E+00 -0.92813369230E+03  0.92813369230E+03  0.00000000000E+00 0.  1.
          6    1    1    2  501    0  0.98813788746E+02  0.12337223812E+03  0.53298599728E+03  0.58193036291E+03  0.17200000000E+03 0.  1.
         -6    1    1    2    0  503 -0.98813788746E+02 -0.12337223812E+03 -0.88856490710E+03  0.91875811187E+03  0.17200000000E+03 0.  1.
</event>
<event>
 4    1  0.4440728E+000  0.3449022E+03  0.7818608E-02  0.1064727E+00
         21   -1    0    0  501  502  0.00000000000E+00  0.00000000000E+00  0.31606128174E+03  0.31606128174E+03  0.00000000000E+00 0.  1.
         21   -1    0    0  502  503 -0.00000000000E+00 -0.00000000000E+00 -0.38691881863E+03  0.38691881863E+03  0.00000000000E+00 0.  1.
          6    1    1    2  501    0 -0.18727200923E+03  0.23302942652E+03  0.22594883615E+02  0.34564150189E+03  0.17200000000E+03 0.  1.
         -6    1    1    2    0  503  0.18727200923E+03 -0.23302942652E+03 -0.93452420506E+02  0.35733859848E+03  0.17200000000E+03 0.  1.
</event>
<event>
 4    1  0.4440728E+000  0.3176867E+03  0.7818608E-02  0.1076719E+00
         21   -1    0    0  501  502  0.00000000000E+00  0.00000000000E+00  0.19973904657E+03  0.19973904657E+03  0.00000000000E+00 0.  1.
         21   -1    0    0  502  503 -0.00000000000E+00 -0.00000000000E+00 -0.52653303611E+03  0.52653303611E+03  0.00000000000E+00 0.  1.
          6    1    1    2  501    0  0.13447660363E+03  0.23077449710E+03 -0.90445827338E+02  0.33031087345E+03  0.17200000000E+03 0.  1.
         -6    1    1    2    0  503 -0.13447660363E+03 -0.23077449710E+03 -0.23634816221E+03  0.39596120923E+03  0.17200000000E+03 0.  1.
</event>
<event>
 4    1  0.4440728E+000  0.1968924E+03  0.7818608E-02  0.1152388E+00
         21   -1    0    0  503  502  0.00000000000E+00  0.00000000000E+00  0.11186247519E+03  0.11186247519E+03  0.00000000000E+00 0. -1.
         21   -1    0    0  501  503 -0.00000000000E+00 -0.00000000000E+00 -0.37195027582E+03  0.37195027582E+03  0.00000000000E+00 0. -1.
          6    1    1    2  501    0  0.86580818231E+02  0.41065341395E+02 -0.66835663643E+02  0.20792692535E+03  0.17200000000E+03 0. -1.
         -6    1    1    2    0  502 -0.86580818231E+02 -0.41065341395E+02 -0.19325213699E+03  0.27588582566E+03  0.17200000000E+03 0. -1.
</event>
<event>
 4    1  0.4440728E+000  0.2045505E+03  0.7818608E-02  0.1145956E+00
         21   -1    0    0  501  502  0.00000000000E+00  0.00000000000E+00  0.20530728761E+03  0.20530728761E+03  0.00000000000E+00 0. -1.
         21   -1    0    0  502  503 -0.00000000000E+00 -0.00000000000E+00 -0.40997122509E+03  0.40997122509E+03  0.00000000000E+00 0.  1.
          6    1    1    2  501    0  0.49069281012E+02  0.99242699601E+02  0.11583187233E+03  0.23507005426E+03  0.17200000000E+03 0. -1.
         -6    1    1    2    0  503 -0.49069281012E+02 -0.99242699601E+02 -0.32049580981E+03  0.38020845844E+03  0.17200000000E+03 0.  1.
</event>
<event>
 4    1  0.4440728E+000  0.2274109E+03  0.7818608E-02  0.1128475E+00
         21   -1    0    0  503  502  0.00000000000E+00  0.00000000000E+00  0.26815580820E+03  0.26815580820E+03  0.00000000000E+00 0. -1.
         21   -1    0    0  501  503 -0.00000000000E+00 -0.00000000000E+00 -0.55401969887E+03  0.55401969887E+03  0.00000000000E+00 0.  1.
          6    1    1    2  501    0  0.13324016213E+03  0.66172333881E+02 -0.47484428168E+03  0.52649103546E+03  0.17200000000E+03 0.  1.
         -6    1    1    2    0  502 -0.13324016213E+03 -0.66172333881E+02  0.18898039100E+03  0.29568447162E+03  0.17200000000E+03 0. -1.
</event>
<event>
 4    1  0.4440728E+000  0.2049664E+03  0.7818608E-02  0.1145615E+00
         21   -1    0    0  503  502  0.00000000000E+00  0.00000000000E+00  0.32802904088E+03  0.32802904088E+03  0.00000000000E+00 0. -1.
         21   -1    0    0  501  503 -0.00000000000E+00 -0.00000000000E+00 -0.29445166145E+03  0.29445166145E+03  0.00000000000E+00 0. -1.
          6    1    1    2  501    0 -0.40602140624E+02 -0.10382042342E+03 -0.21717016802E+03  0.29862032084E+03  0.17200000000E+03 0. -1.
         -6    1    1    2    0  502  0.40602140624E+02  0.10382042342E+03  0.25074754746E+03  0.32386038149E+03  0.17200000000E+03 0. -1.
</event>
<event>
 4    1  0.4440728E+000  0.1826866E+03  0.7818608E-02  0.1165228E+00
         21   -1    0    0  503  502  0.00000000000E+00  0.00000000000E+00  0.15834155437E+02  0.15834155437E+02  0.00000000000E+00 0. -1.
         21   -1    0    0  501  503 -0.00000000000E+00 -0.00000000000E+00 -0.21171435229E+04  0.21171435229E+04  0.00000000000E+00 0. -1.
          6    1    1    2  501    0 -0.34040282926E+02 -0.51299656810E+02 -0.11217043088E+04  0.11364835907E+04  0.17200000000E+03 0. -1.
         -6    1    1    2    0  502  0.34040282926E+02  0.51299656810E+02 -0.97960505869E+03  0.99649408762E+03  0.17200000000E+03 0. -1.
</event>
<event>
 4    1  0.4440728E+000  0.1837602E+03  0.7818608E-02  0.1164213E+00
         21   -1    0    0  501  502  0.00000000000E+00  0.00000000000E+00  0.57882682696E+02  0.57882682696E+02  0.00000000000E+00 0.  1.
         21   -1    0    0  502  503 -0.00000000000E+00 -0.00000000000E+00 -0.59708620543E+03  0.59708620543E+03  0.00000000000E+00 0. -1.
          6    1    1    2  501    0 -0.51393428818E+02  0.39275204224E+02 -0.31921170109E+03  0.36832585614E+03  0.17200000000E+03 0. -1.
         -6    1    1    2    0  503  0.51393428818E+02 -0.39275204224E+02 -0.21999182164E+03  0.28664303198E+03  0.17200000000E+03 0.  1.
</event>
<event>
 4    1  0.4440728E+000  0.1927556E+03  0.7818608E-02  0.1155999E+00
         21   -1    0    0  503  502  0.00000000000E+00  0.00000000000E+00  0.15325854824E+03  0.15325854824E+03  0.00000000000E+00 0.  1.
         21   -1    0    0  501  503 -0.00000000000E+00 -0.00000000000E+00 -0.41844522357E+03  0.41844522357E+03  0.00000000000E+00 0.  1.
          6    1    1    2  501    0  0.79768558486E+02  0.34751864684E+02 -0.31798700550E+03  0.37184734863E+03  0.17200000000E+03 0.  1.
         -6    1    1    2    0  502 -0.79768558486E+02 -0.34751864684E+02  0.52800330163E+02  0.19985642318E+03  0.17200000000E+03 0.  1.
</event>
<event>
 4    1  0.4440728E+000  0.1725727E+03  0.7818608E-02  0.1175191E+00
         21   -1    0    0  503  502  0.00000000000E+00  0.00000000000E+00  0.14026362204E+04  0.14026362204E+04  0.00000000000E+00 0. -1.
         21   -1    0    0  501  503 -0.00000000000E+00 -0.00000000000E+00 -0.15686638142E+03  0.15686638142E+03  0.00000000000E+00 0. -1.
          6    1    1    2  501    0  0.51976804040E+01  0.13050395619E+02 -0.10217755551E+03  0.20055318885E+03  0.17200000000E+03 0. -1.
         -6    1    1    2    0  502 -0.51976804040E+01 -0.13050395619E+02  0.13479473944E+04  0.13589494129E+04  0.17200000000E+03 0. -1.
</event>
<event>
 4    1  0.4440728E+000  0.2272322E+03  0.7818608E-02  0.1128603E+00
         21   -1    0    0  501  502  0.00000000000E+00  0.00000000000E+00  0.28514275206E+03  0.28514275206E+03  0.00000000000E+00 0. -1.
         21   -1    0    0  502  503 -0.00000000000E+00 -0.00000000000E+00 -0.18289851648E+03  0.18289851648E+03  0.00000000000E+00 0. -1.
          6    1    1    2  501    0  0.14389243956E+03  0.36680362791E+02  0.74438346091E+02  0.23911409525E+03  0.17200000000E+03 0. -1.
         -6    1    1    2    0  503 -0.14389243956E+03 -0.36680362791E+02  0.27805889495E+02  0.22892717329E+03  0.17200000000E+03 0. -1.
</event>
<event>
 4    1  0.4440728E+000  0.1846302E+03  0.7818608E-02  0.1163396E+00
         21   -1    0    0  503  502  0.00000000000E+00  0.00000000000E+00  0.87651973418E+03  0.87651973418E+03  0.00000000000E+00 0. -1.
         21   -1    0    0  501  503 -0.00000000000E+00 -0.00000000000E+00 -0.46966657980E+02  0.46966657980E+02  0.00000000000E+00 0. -1.
          6    1    1    2  501    0  0.66344466199E+02  0.10135950793E+02  0.60624930174E+03  0.63374012146E+03  0.17200000000E+03 0. -1.
         -6    1    1    2    0  502 -0.66344466199E+02 -0.10135950793E+02  0.22330377446E+03  0.28974627069E+03  0.17200000000E+03 0. -1.
</event>
<event>
 4    1  0.4440728E+000  0.1979879E+03  0.7818608E-02  0.1151448E+00
         21   -1    0    0  503  502  0.00000000000E+00  0.00000000000E+00  0.62548619648E+03  0.62548619648E+03  0.00000000000E+00 0. -1.
         21   -1    0    0  501  503 -0.00000000000E+00 -0.00000000000E+00 -0.63129385972E+02  0.63129385972E+02  0.00000000000E+00 0. -1.
          6    1    1    2  501    0  0.91460592169E+02  0.35357771701E+02  0.25180691563E+03  0.32032161135E+03  0.17200000000E+03 0. -1.
         -6    1    1    2    0  502 -0.91460592169E+02 -0.35357771701E+02  0.31054989487E+03  0.36829397110E+03  0.17200000000E+03 0. -1.
</event>
<event>
 4    1  0.4440728E+000  0.1775236E+03  0.7818608E-02  0.1170221E+00
         21   -1    0    0  501  502  0.00000000000E+00  0.00000000000E+00  0.17476536375E+03  0.17476536375E+03  0.00000000000E+00 0. -1.
         21   -1    0    0  502  503 -0.00000000000E+00 -0.00000000000E+00 -0.21092442799E+03  0.21092442799E+03  0.00000000000E+00 0. -1.
          6    1    1    2  501    0  0.32437600560E+02 -0.29638511382E+02  0.55371569624E+02  0.18595873201E+03  0.17200000000E+03 0. -1.
         -6    1    1    2    0  503 -0.32437600560E+02  0.29638511382E+02 -0.91530633868E+02  0.19973105974E+03  0.17200000000E+03 0. -1.
</event>
<event>
 4    1  0.4440728E+000  0.2155464E+03  0.7818608E-02  0.1137248E+00
         21   -1    0    0  501  502  0.00000000000E+00  0.00000000000E+00  0.86784908415E+03  0.86784908415E+03  0.00000000000E+00 0. -1.
         21   -1    0    0  502  503 -0.00000000000E+00 -0.00000000000E+00 -0.15142912328E+03  0.15142912328E+03  0.00000000000E+00 0. -1.
          6    1    1    2  501    0 -0.16463774719E+02  0.12886111491E+03  0.76797652542E+03  0.79765166985E+03  0.17200000000E+03 0. -1.
         -6    1    1    2    0  503  0.16463774719E+02 -0.12886111491E+03 -0.51556564551E+02  0.22162653758E+03  0.17200000000E+03 0. -1.
</event>
<event>
 4    1  0.4440728E+000  0.2603298E+03  0.7818608E-02  0.1106945E+00
         21   -1    0    0  501  502  0.00000000000E+00  0.00000000000E+00  0.66590728000E+03  0.66590728000E+03  0.00000000000E+00 0. -1.
         21   -1    0    0  502  503 -0.00000000000E+00 -0.00000000000E+00 -0.56867906555E+03  0.56867906555E+03  0.00000000000E+00 0. -1.
          6    1    1    2  501    0 -0.49383233509E+02 -0.18907380699E+03  0.60794969575E+03  0.66134290713E+03  0.17200000000E+03 0. -1.
         -6    1    1    2    0  503  0.49383233509E+02  0.18907380699E+03 -0.51072148129E+03  0.57324343842E+03  0.17200000000E+03 0. -1.
</event>
<event>
 4    1  0.4440728E+000  0.2302527E+03  0.7818608E-02  0.1126462E+00
         21   -1    0    0  503  502  0.00000000000E+00  0.00000000000E+00  0.16650176399E+03  0.16650176399E+03  0.00000000000E+00 0. -1.
         21   -1    0    0  501  503 -0.00000000000E+00 -0.00000000000E+00 -0.32565836210E+03  0.32565836210E+03  0.00000000000E+00 0.  1.
          6    1    1    2  501    0  0.56673893804E+02 -0.14219833635E+03 -0.11628375250E+03  0.25795001104E+03  0.17200000000E+03 0.  1.
         -6    1    1    2    0  502 -0.56673893804E+02  0.14219833635E+03 -0.42872845610E+02  0.23421011505E+03  0.17200000000E+03 0. -1.
</event>
<event>
 4    1  0.4440728E+000  0.1837849E+03  0.7818608E-02  0.1164190E+00
         21   -1    0    0  501  502  0.00000000000E+00  0.00000000000E+00  0.79784191945E+02  0.79784191945E+02  0.00000000000E+00 0. -1.
         21   -1    0    0  502  503 -0.00000000000E+00 -0.00000000000E+00 -0.42721831770E+03  0.42721831770E+03  0.00000000000E+00 0.  1.
          6    1    1    2  501    0  0.60689099986E+02  0.22576723225E+02 -0.14960418802E+03  0.23697740053E+03  0.17200000000E+03 0. -1.
         -6    1    1    2    0  503 -0.60689099986E+02 -0.22576723225E+02 -0.19782993774E+03  0.27002510912E+03  0.17200000000E+03 0. -1.
</event>
<event>
 4    1  0.4440728E+000  0.1966724E+03  0.7818608E-02  0.1152577E+00
         21   -1    0    0  501  502  0.00000000000E+00  0.00000000000E+00  0.10887740055E+04  0.10887740055E+04  0.00000000000E+00 0.  1.
         21   -1    0    0  502  503 -0.00000000000E+00 -0.00000000000E+00 -0.36334864122E+02  0.36334864122E+02  0.00000000000E+00 0.  1.
          6    1    1    2  501    0  0.94246039902E+02 -0.14618626669E+02  0.44229625651E+03  0.48405164890E+03  0.17200000000E+03 0.  1.
         -6    1    1    2    0  503 -0.94246039902E+02  0.14618626669E+02  0.61014288489E+03  0.64105722074E+03  0.17200000000E+03 0.  1.
</event>
<event>
 4    1  0.4440728E+000  0.2017026E+03  0.7818608E-02  0.1148310E+00
         21   -1    0    0  501  502  0.00000000000E+00  0.00000000000E+00  0.55301123106E+03  0.55301123106E+03  0.00000000000E+00 0. -1.
         21   -1    0    0  502  503 -0.00000000000E+00 -0.00000000000E+00 -0.21214847466E+03  0.21214847466E+03  0.00000000000E+00 0. -1.
          6    1    1    2  501    0 -0.10528051392E+03  0.39960678748E+01  0.47964106486E+03  0.52032634593E+03  0.17200000000E+03 0. -1.
         -6    1    1    2    0  503  0.10528051392E+03 -0.39960678748E+01 -0.13877830845E+03  0.24483335979E+03  0.17200000000E+03 0. -1.
</event>
<event>
 4    1  0.4440728E+000  0.1870881E+03  0.7818608E-02  0.1161114E+00
         21   -1    0    0  501  502  0.00000000000E+00  0.00000000000E+00  0.13317718183E+04  0.13317718183E+04  0.00000000000E+00 0. -1.
         21   -1    0    0  502  503 -0.00000000000E+00 -0.00000000000E+00 -0.59711851444E+02  0.59711851444E+02  0.00000000000E+00 0. -1.
          6    1    1    2  501    0  0.53550055982E+02  0.50500874062E+02  0.11566052293E+04  0.11716388536E+04  0.17200000000E+03 0. -1.
         -6    1    1    2    0  503 -0.53550055982E+02 -0.50500874062E+02  0.11545473759E+03  0.21984481620E+03  0.17200000000E+03 0. -1.
</event>
<event>
 4    1  0.4440728E+000  0.2306345E+03  0.7818608E-02  0.1126194E+00
         21   -1    0    0  503  502  0.00000000000E+00  0.00000000000E+00  0.15870617811E+04  0.15870617811E+04  0.00000000000E+00 0.  1.
         21   -1    0    0  501  503 -0.00000000000E+00 -0.00000000000E+00 -0.45542235055E+02  0.45542235055E+02  0.00000000000E+00 0.  1.
          6    1    1    2  501    0 -0.78723036129E+01 -0.15344800997E+03  0.11902338234E+04  0.12123732179E+04  0.17200000000E+03 0.  1.
         -6    1    1    2    0  502  0.78723036129E+01  0.15344800997E+03  0.35128572261E+03  0.42023079830E+03  0.17200000000E+03 0.  1.
</event>
<event>
 4    1  0.4440728E+000  0.1786022E+03  0.7818608E-02  0.1169163E+00
         21   -1    0    0  501  502  0.00000000000E+00  0.00000000000E+00  0.11693253435E+04  0.11693253435E+04  0.00000000000E+00 0.  1.
         21   -1    0    0  502  503 -0.00000000000E+00 -0.00000000000E+00 -0.35212757121E+02  0.35212757121E+02  0.00000000000E+00 0. -1.
          6    1    1    2  501    0  0.44934198162E+02  0.17194513170E+02  0.85292289717E+03  0.87142194255E+03  0.17200000000E+03 0.  1.
         -6    1    1    2    0  503 -0.44934198162E+02 -0.17194513170E+02  0.28118968920E+03  0.33311615806E+03  0.17200000000E+03 0. -1.
</event>
<event>
 4    1  0.4440728E+000  0.2036014E+03  0.7818608E-02  0.1146736E+00
         21   -1    0    0  501  502  0.00000000000E+00  0.00000000000E+00  0.15337880908E+03  0.15337880908E+03  0.00000000000E+00 0.  1.
         21   -1    0    0  502  503 -0.00000000000E+00 -0.00000000000E+00 -0.27181562038E+03  0.27181562038E+03  0.00000000000E+00 0.  1.
          6    1    1    2  501    0  0.33770119945E+01 -0.10889510695E+03 -0.75254625419E+02  0.21706406237E+03  0.17200000000E+03 0.  1.
         -6    1    1    2    0  503 -0.33770119945E+01  0.10889510695E+03 -0.43182185882E+02  0.20813036709E+03  0.17200000000E+03 0.  1.
</event>
<event>
 4    1  0.4440728E+000  0.1930606E+03  0.7818608E-02  0.1155729E+00
         21   -1    0    0  503  502  0.00000000000E+00  0.00000000000E+00  0.18105488566E+03  0.18105488566E+03  0.00000000000E+00 0. -1.
         21   -1    0    0  501  503 -0.00000000000E+00 -0.00000000000E+00 -0.40219945322E+03  0.40219945322E+03  0.00000000000E+00 0. -1.
          6    1    1    2  501    0  0.57891478667E+02 -0.65855725520E+02  0.93182746154E+02  0.21437216253E+03  0.17200000000E+03 0. -1.
         -6    1    1    2    0  502 -0.57891478667E+02  0.65855725520E+02 -0.31432731371E+03  0.36888217635E+03  0.17200000000E+03 0. -1.
</event>
<event>
 4    1  0.4440728E+000  0.1829112E+03  0.7818608E-02  0.1165015E+00
         21   -1    0    0  503  502  0.00000000000E+00  0.00000000000E+00  0.31675575348E+03  0.31675575348E+03  0.00000000000E+00 0.  1.
         21   -1    0    0  501  503 -0.00000000000E+00 -0.00000000000E+00 -0.15170021951E+03  0.15170021951E+03  0.00000000000E+00 0.  1.
          6    1    1    2  501    0 -0.62158425194E+02 -0.29746693730E+01 -0.46561878545E+02  0.18874460791E+03  0.17200000000E+03 0.  1.
         -6    1    1    2    0  502  0.62158425194E+02  0.29746693730E+01  0.21161741251E+03  0.27971136509E+03  0.17200000000E+03 0.  1.
</event>
<event>
 4    1  0.4440728E+000  0.1842903E+03  0.7818608E-02  0.1163714E+00
         21   -1    0    0  503  502  0.00000000000E+00  0.00000000000E+00  0.31464020937E+04  0.31464020937E+04  0.00000000000E+00 0. -1.
         21   -1    0    0  501  503 -0.00000000000E+00 -0.00000000000E+00 -0.10894084904E+02  0.10894084904E+02  0.00000000000E+00 0.  1.
          6    1    1    2  501    0  0.32516881968E+02  0.57633079609E+02  0.14165992141E+04  0.14285364023E+04  0.17200000000E+03 0. -1.
         -6    1    1    2    0  502 -0.32516881968E+02 -0.57633079609E+02  0.17189087947E+04  0.17287597762E+04  0.17200000000E+03 0. -1.
</event>
<event>
 4    1  0.4440728E+000  0.1722849E+03  0.7818608E-02  0.1175486E+00
         21   -1    0    0  503  502  0.00000000000E+00  0.00000000000E+00  0.62456275252E+02  0.62456275252E+02  0.00000000000E+00 0. -1.
         21   -1    0    0  501  503 -0.00000000000E+00 -0.00000000000E+00 -0.58956539731E+03  0.58956539731E+03  0.00000000000E+00 0. -1.
          6    1    1    2  501    0 -0.98424141488E+01  0.10958189806E+01 -0.11999680996E+03  0.20995549132E+03  0.17200000000E+03 0. -1.
         -6    1    1    2    0  502  0.98424141488E+01 -0.10958189806E+01 -0.40711231210E+03  0.44206618124E+03  0.17200000000E+03 0. -1.
</event>
<event>
 4    1  0.4440728E+000  0.2232024E+03  0.7818608E-02  0.1131518E+00
         21   -1    0    0  501  502  0.00000000000E+00  0.00000000000E+00  0.26134060386E+03  0.26134060386E+03  0.00000000000E+00 0.  1.
         21   -1    0    0  502  503 -0.00000000000E+00 -0.00000000000E+00 -0.22234058996E+03  0.22234058996E+03  0.00000000000E+00 0.  1.
          6    1    1    2  501    0 -0.10720206988E+03 -0.93504106721E+02 -0.71832104573E+02  0.23447633784E+03  0.17200000000E+03 0.  1.
         -6    1    1    2    0  503  0.10720206988E+03  0.93504106721E+02  0.11083211847E+03  0.24920485598E+03  0.17200000000E+03 0.  1.
</event>
<event>
 4    1  0.4440728E+000  0.1989069E+03  0.7818608E-02  0.1150665E+00
         21   -1    0    0  503  502  0.00000000000E+00  0.00000000000E+00  0.63235109043E+02  0.63235109043E+02  0.00000000000E+00 0.  1.
         21   -1    0    0  501  503 -0.00000000000E+00 -0.00000000000E+00 -0.66715225723E+03  0.66715225723E+03  0.00000000000E+00 0.  1.
          6    1    1    2  501    0 -0.46338712502E+02  0.88502349846E+02 -0.39302797245E+03  0.44049396061E+03  0.17200000000E+03 0.  1.
         -6    1    1    2    0  502  0.46338712502E+02 -0.88502349846E+02 -0.21088917573E+03  0.28989340566E+03  0.17200000000E+03 0.  1.
</event>
<event>
 4    1  0.4440728E+000  0.1721775E+03  0.7818608E-02  0.1175596E+00
         21   -1    0    0  501  502  0.00000000000E+00  0.00000000000E+00  0.97677587080E+02  0.97677587080E+02  0.00000000000E+00 0.  1.
         21   -1    0    0  502  503 -0.00000000000E+00 -0.00000000000E+00 -0.38923776377E+03  0.38923776377E+03  0.00000000000E+00 0.  1.
          6    1    1    2  501    0 -0.51317259815E+01 -0.58969062954E+01 -0.31517755031E+02  0.17503850147E+03  0.17200000000E+03 0.  1.
         -6    1    1    2    0  503  0.51317259815E+01  0.58969062954E+01 -0.26004242166E+03  0.31187684938E+03  0.17200000000E+03 0.  1.
</event>
<event>
 4    1  0.4440728E+000  0.2063090E+03  0.7818608E-02  0.1144523E+00
         21   -1    0    0  503  502  0.00000000000E+00  0.00000000000E+00  0.79042554504E+03  0.79042554504E+03  0.00000000000E+00 0.  1.
         21   -1    0    0  501  503 -0.00000000000E+00 -0.00000000000E+00 -0.55849124129E+02  0.55849124129E+02  0.00000000000E+00 0.  1.
          6    1    1    2  501    0  0.35449435186E+02  0.10827170222E+03  0.28720724995E+03  0.35362611383E+03  0.17200000000E+03 0.  1.
         -6    1    1    2    0  502 -0.35449435186E+02 -0.10827170222E+03  0.44736917096E+03  0.49264855535E+03  0.17200000000E+03 0.  1.
</event>
<event>
 4    1  0.4440728E+000  0.3056842E+03  0.7818608E-02  0.1082433E+00
         21   -1    0    0  501  502  0.00000000000E+00  0.00000000000E+00  0.61275238909E+03  0.61275238909E+03  0.00000000000E+00 0.  1.
         21   -1    0    0  502  503 -0.00000000000E+00 -0.00000000000E+00 -0.16098526962E+03  0.16098526962E+03  0.00000000000E+00 0. -1.
          6    1    1    2  501    0 -0.93490979468E+02  0.23477283213E+03  0.13704887725E+03  0.33500035926E+03  0.17200000000E+03 0. -1.
         -6    1    1    2    0  503  0.93490979468E+02 -0.23477283213E+03  0.31471824221E+03  0.43873729945E+03  0.17200000000E+03 0.  1.
</event>
<event>
 4    1  0.4440728E+000  0.1855796E+03  0.7818608E-02  0.1162510E+00
         21   -1    0    0  501  502  0.00000000000E+00  0.00000000000E+00  0.19890762170E+03  0.19890762170E+03  0.00000000000E+00 0.  1.
         21   -1    0    0  502  503 -0.00000000000E+00 -0.00000000000E+00 -0.17768099752E+03  0.17768099752E+03  0.00000000000E+00 0.  1.
          6    1    1    2  501    0 -0.11210414637E+02 -0.68775769710E+02  0.40699864463E+02  0.18999015465E+03  0.17200000000E+03 0.  1.
         -6    1    1    2    0  503  0.11210414637E+02  0.68775769710E+02 -0.19473240288E+02  0.18659846458E+03  0.17200000000E+03 0.  1.
</event>
<event>
 4    1  0.4440728E+000  0.1835924E+03  0.7818608E-02  0.1164371E+00
         21   -1    0    0  503  502  0.00000000000E+00  0.00000000000E+00  0.13000588980E+03  0.13000588980E+03  0.00000000000E+00 0.  1.
         21   -1    0    0  501  503 -0.00000000000E+00 -0.00000000000E+00 -0.28931955409E+03  0.28931955409E+03  0.00000000000E+00 0.  1.
          6    1    1    2  501    0  0.17119792753E+02  0.61879624282E+02 -0.14723033870E+03  0.23533581928E+03  0.17200000000E+03 0.  1.
         -6    1    1    2    0  502 -0.17119792753E+02 -0.61879624282E+02 -0.12083325588E+02  0.18398962461E+03  0.17200000000E+03 0.  1.
</event>
<event>
 4    1  0.4440728E+000  0.2435298E+03  0.7818608E-02  0.1117463E+00
         21   -1    0    0  503  502  0.00000000000E+00  0.00000000000E+00  0.50179875988E+02  0.50179875988E+02  0.00000000000E+00 0. -1.
         21   -1    0    0  501  503 -0.00000000000E+00 -0.00000000000E+00 -0.12476930062E+04  0.12476930062E+04  0.00000000000E+00 0. -1.
          6    1    1    2  501    0 -0.16099884356E+03  0.61661365363E+02 -0.74779341098E+03  0.78644881404E+03  0.17200000000E+03 0. -1.
         -6    1    1    2    0  502  0.16099884356E+03 -0.61661365363E+02 -0.44971971920E+03  0.51142406811E+03  0.17200000000E+03 0. -1.
</event>
<event>
 4    1  0.4440728E+000  0.1911088E+03  0.7818608E-02  0.1157465E+00
         21   -1    0    0  501  502  0.00000000000E+00  0.00000000000E+00  0.10326094530E+04  0.10326094530E+04  0.00000000000E+00 0.  1.
         21   -1    0    0  502  503 -0.00000000000E+00 -0.00000000000E+00 -0.68354996907E+02  0.68354996907E+02  0.00000000000E+00 0.  1.
          6    1    1    2  501    0 -0.16398741158E+02 -0.81667913850E+02  0.86453056925E+03  0.88540141858E+03  0.17200000000E+03 0.  1.
         -6    1    1    2    0  503  0.16398741158E+02  0.81667913850E+02  0.99723886835E+02  0.21556303132E+03  0.17200000000E+03 0.  1.
</event>
<event>
 4    1  0.4440728E+000  0.1992581E+03  0.7818608E-02  0.1150366E+00
         21   -1    0    0  501  502  0.00000000000E+00  0.00000000000E+00  0.55020000243E+03  0.55020000243E+03  0.00000000000E+00 0.  1.
         21   -1    0    0  502  503 -0.00000000000E+00 -0.00000000000E+00 -0.75077055163E+02  0.75077055163E+02  0.00000000000E+00 0.  1.
          6    1    1    2  501    0 -0.93058421379E+02  0.38208926891E+02  0.29916097005E+03  0.35944551449E+03  0.17200000000E+03 0.  1.
         -6    1    1    2    0  503  0.93058421379E+02 -0.38208926891E+02  0.17596197722E+03  0.26583154311E+03  0.17200000000E+03 0.  1.
</event>
<event>
 4    1  0.4440728E+000  0.1720501E+03  0.7818608E-02  0.1175727E+00
         21   -1    0    0  501  502  0.00000000000E+00  0.00000000000E+00  0.14078389372E+03  0.14078389372E+03  0.00000000000E+00 0. -1.
         21   -1    0    0  502  503 -0.00000000000E+00 -0.00000000000E+00 -0.48824373312E+03  0.48824373312E+03  0.00000000000E+00 0. -1.
          6    1    1    2  501    0 -0.20332673361E+01 -0.36216186326E+01  0.63588210109E+02  0.18342494586E+03  0.17200000000E+03 0. -1.
         -6    1    1    2    0  503  0.20332673361E+01  0.36216186326E+01 -0.41104804951E+03  0.44560268099E+03  0.17200000000E+03 0. -1.
</event>
<event>
 4    1  0.4440728E+000  0.2506152E+03  0.7818608E-02  0.1112917E+00
         21   -1    0    0  501  502  0.00000000000E+00  0.00000000000E+00  0.13000320860E+03  0.13000320860E+03  0.00000000000E+00 0.  1.
         21   -1    0    0  502  503 -0.00000000000E+00 -0.00000000000E+00 -0.57499216238E+03  0.57499216238E+03  0.00000000000E+00 0.  1.
          6    1    1    2  501    0  0.46822387281E+02  0.17615798930E+03 -0.81597293004E+02  0.26356420730E+03  0.17200000000E+03 0.  1.
         -6    1    1    2    0  503 -0.46822387281E+02 -0.17615798930E+03 -0.36339166078E+03  0.44143116368E+03  0.17200000000E+03 0.  1.
</event>
<event>
 4    1  0.4440728E+000  0.3844570E+03  0.7818608E-02  0.1049299E+00
         21   -1    0    0  503  502  0.00000000000E+00  0.00000000000E+00  0.26730074605E+03  0.26730074605E+03  0.00000000000E+00 0. -1.
         21   -1    0    0  501  503 -0.00000000000E+00 -0.00000000000E+00 -0.10638614467E+04  0.10638614467E+04  0.00000000000E+00 0.  1.
          6    1    1    2  501    0 -0.20326807338E+03  0.27731801019E+03 -0.85951944032E+03  0.94158422710E+03  0.17200000000E+03 0.  1.
         -6    1    1    2    0  502  0.20326807338E+03 -0.27731801019E+03  0.62958739662E+02  0.38957796566E+03  0.17200000000E+03 0. -1.
</event>
<event>
 4    1  0.4440728E+000  0.1734290E+03  0.7818608E-02  0.1174318E+00
         21   -1    0    0  503  502  0.00000000000E+00  0.00000000000E+00  0.17153045705E+03  0.17153045705E+03  0.00000000000E+00 0.  1.
         21   -1    0    0  501  503 -0.00000000000E+00 -0.00000000000E+00 -0.24447952492E+03  0.24447952492E+03  0.00000000000E+00 0.  1.
          6    1    1    2  501    0 -0.18930831220E+02  0.11629408398E+02  0.74134042463E+02  0.18860932045E+03  0.17200000000E+03 0.  1.
         -6    1    1    2    0  502  0.18930831220E+02 -0.11629408398E+02 -0.14708311033E+03  0.22740066151E+03  0.17200000000E+03 0.  1.
</event>
<event>
 4    1  0.4440728E+000  0.1885765E+03  0.7818608E-02  0.1159752E+00
         21   -1    0    0  501  502  0.00000000000E+00  0.00000000000E+00  0.65497408236E+02  0.65497408236E+02  0.00000000000E+00 0. -1.
         21   -1    0    0  502  503 -0.00000000000E+00 -0.00000000000E+00 -0.60868888100E+03  0.60868888100E+03  0.00000000000E+00 0. -1.
          6    1    1    2  501    0 -0.63353075180E+02  0.44311220095E+02 -0.16080593836E+03  0.24782987345E+03  0.17200000000E+03 0. -1.
         -6    1    1    2    0  503  0.63353075180E+02 -0.44311220095E+02 -0.38238553440E+03  0.42635641579E+03  0.17200000000E+03 0. -1.
</event>
<event>
 4    1  0.4440728E+000  0.1881173E+03  0.7818608E-02  0.1160170E+00
         21   -1    0    0  501  502  0.00000000000E+00  0.00000000000E+00  0.72850052502E+03  0.72850052502E+03  0.00000000000E+00 0.  1.
         21   -1    0    0  502  503 -0.00000000000E+00 -0.00000000000E+00 -0.54050831127E+02  0.54050831127E+02  0.00000000000E+00 0.  1.
          6    1    1    2  501    0  0.66201706996E+02 -0.37702294283E+02  0.46174524065E+03  0.49859482174E+03  0.17200000000E+03 0.  1.
         -6    1    1    2    0  503 -0.66201706996E+02  0.37702294283E+02  0.21270445325E+03  0.28395653441E+03  0.17200000000E+03 0.  1.
</event>
<event>
 4    1  0.4440728E+000  0.2087034E+03  0.7818608E-02  0.1142597E+00
         21   -1    0    0  503  502  0.00000000000E+00  0.00000000000E+00  0.48402087527E+03  0.48402087527E+03  0.00000000000E+00 0. -1.
         21   -1    0    0  501  503 -0.00000000000E+00 -0.00000000000E+00 -0.91763480072E+02  0.91763480072E+02  0.00000000000E+00 0. -1.
          6    1    1    2  501    0  0.93049648730E+02 -0.72903163697E+02  0.15610746913E+03  0.26062741668E+03  0.17200000000E+03 0. -1.
         -6    1    1    2    0  502 -0.93049648730E+02  0.72903163697E+02  0.23614992607E+03  0.31515693866E+03  0.17200000000E+03 0. -1.
</event>
<event>
 4    1  0.4440728E+000  0.1852874E+03  0.7818608E-02  0.1162782E+00
         21   -1    0    0  501  502  0.00000000000E+00  0.00000000000E+00  0.90054530258E+02  0.90054530258E+02  0.00000000000E+00 0.  1.
         21   -1    0    0  502  503 -0.00000000000E+00 -0.00000000000E+00 -0.75380882914E+03  0.75380882914E+03  0.00000000000E+00 0. -1.
          6    1    1    2  501    0 -0.61642637091E+02  0.30783498300E+02 -0.35243144337E+02  0.18860943162E+03  0.17200000000E+03 0.  1.
         -6    1    1    2    0  503  0.61642637091E+02 -0.30783498300E+02 -0.62851115454E+03  0.65525392777E+03  0.17200000000E+03 0. -1.
</event>
<event>
 4    1  0.4440728E+000  0.1834568E+03  0.7818608E-02  0.1164499E+00
         21   -1    0    0  503  502  0.00000000000E+00  0.00000000000E+00  0.35736762955E+02  0.35736762955E+02  0.00000000000E+00 0. -1.
         21   -1    0    0  501  503 -0.00000000000E+00 -0.00000000000E+00 -0.21681113837E+04  0.21681113837E+04  0.00000000000E+00 0. -1.
          6    1    1    2  501    0  0.31986589879E+02  0.55219909301E+02 -0.18949186232E+04  0.19037786029E+04  0.17200000000E+03 0. -1.
         -6    1    1    2    0  502 -0.31986589879E+02 -0.55219909301E+02 -0.23745599752E+03  0.30006954373E+03  0.17200000000E+03 0. -1.
</event>
<event>
 4    1  0.4440728E+000  0.1748201E+03  0.7818608E-02  0.1172913E+00
         21   -1    0    0  501  502  0.00000000000E+00  0.00000000000E+00  0.37872277436E+03  0.37872277436E+03  0.00000000000E+00 0.  1.
         21   -1    0    0  502  503 -0.00000000000E+00 -0.00000000000E+00 -0.28384409638E+03  0.28384409638E+03  0.00000000000E+00 0.  1.
          6    1    1    2  501    0  0.79526190500E+01  0.30245791985E+02  0.32770143325E+03  0.37141658746E+03  0.17200000000E+03 0.  1.
         -6    1    1    2    0  503 -0.79526190500E+01 -0.30245791985E+02 -0.23282275527E+03  0.29115028328E+03  0.17200000000E+03 0.  1.
</event>
<event>
 4    1  0.4440728E+000  0.1874927E+03  0.7818608E-02  0.1160742E+00
         21   -1    0    0  503  502  0.00000000000E+00  0.00000000000E+00  0.21878740332E+03  0.21878740332E+03  0.00000000000E+00 0.  1.
         21   -1    0    0  501  503 -0.00000000000E+00 -0.00000000000E+00 -0.16621751051E+03  0.16621751051E+03  0.00000000000E+00 0.  1.
          6    1    1    2  501    0 -0.40732313319E+02 -0.62533229842E+02 -0.88691706036E+01  0.18770239309E+03  0.17200000000E+03 0.  1.
         -6    1    1    2    0  502  0.40732313319E+02  0.62533229842E+02  0.61439063413E+02  0.19730252075E+03  0.17200000000E+03 0.  1.
</event>
<event>
 4    1  0.4440728E+000  0.2165936E+03  0.7818608E-02  0.1136448E+00
         21   -1    0    0  503  502  0.00000000000E+00  0.00000000000E+00  0.75400712150E+03  0.75400712150E+03  0.00000000000E+00 0.  1.
         21   -1    0    0  501  503 -0.00000000000E+00 -0.00000000000E+00 -0.89865643109E+02  0.89865643109E+02  0.00000000000E+00 0.  1.
          6    1    1    2  501    0  0.68656427045E+02  0.11231687875E+03  0.98036451365E+02  0.23774762254E+03  0.17200000000E+03 0.  1.
         -6    1    1    2    0  502 -0.68656427045E+02 -0.11231687875E+03  0.56610502702E+03  0.60612514207E+03  0.17200000000E+03 0.  1.
</event>
<event>
 4    1  0.4440728E+000  0.2502417E+03  0.7818608E-02  0.1113152E+00
         21   -1    0    0  503  502  0.00000000000E+00  0.00000000000E+00  0.83329967826E+03  0.83329967826E+03  0.00000000000E+00 0.  1.
         21   -1    0    0  501  503 -0.00000000000E+00 -0.00000000000E+00 -0.10621572790E+03  0.10621572790E+03  0.00000000000E+00 0.  1.
          6    1    1    2  501    0 -0.15736538379E+03  0.90956213101E+02  0.10948362933E+03  0.27314384820E+03  0.17200000000E+03 0.  1.
         -6    1    1    2    0  502  0.15736538379E+03 -0.90956213101E+02  0.61760032104E+03  0.66637155796E+03  0.17200000000E+03 0.  1.
</event>
<event>
 4    1  0.4440728E+000  0.1889237E+03  0.7818608E-02  0.1159436E+00
         21   -1    0    0  501  502  0.00000000000E+00  0.00000000000E+00  0.27903339887E+02  0.27903339887E+02  0.00000000000E+00 0.  1.
         21   -1    0    0  502  503 -0.00000000000E+00 -0.00000000000E+00 -0.20613863388E+04  0.20613863388E+04  0.00000000000E+00 0. -1.
          6    1    1    2  501    0 -0.19317031694E+02 -0.75729950361E+02 -0.37322189585E+03  0.41831418412E+03  0.17200000000E+03 0.  1.
         -6    1    1    2    0  503  0.19317031694E+02  0.75729950361E+02 -0.16602611030E+04  0.16709754945E+04  0.17200000000E+03 0. -1.
</event>
<event>
 4    1  0.4440728E+000  0.2183826E+03  0.7818608E-02  0.1135095E+00
         21   -1    0    0  503  502  0.00000000000E+00  0.00000000000E+00  0.20198898181E+03  0.20198898181E+03  0.00000000000E+00 0. -1.
         21   -1    0    0  501  503 -0.00000000000E+00 -0.00000000000E+00 -0.39855393113E+03  0.39855393113E+03  0.00000000000E+00 0.  1.
          6    1    1    2  501    0 -0.65762783199E+02 -0.11739771989E+03 -0.28998443340E+03  0.36301782312E+03  0.17200000000E+03 0.  1.
         -6    1    1    2    0  502  0.65762783199E+02  0.11739771989E+03  0.93419484073E+02  0.23752508982E+03  0.17200000000E+03 0. -1.
</event>
<event>
 4    1  0.4440728E+000  0.1734337E+03  0.7818608E-02  0.1174314E+00
         21   -1    0    0  503  502  0.00000000000E+00  0.00000000000E+00  0.64539614162E+03  0.64539614162E+03  0.00000000000E+00 0.  1.
         21   -1    0    0  501  503 -0.00000000000E+00 -0.00000000000E+00 -0.64061263594E+02  0.64061263594E+02  0.00000000000E+00 0.  1.
          6    1    1    2  501    0 -0.12859536516E+02  0.18162144893E+02  0.10550037513E+03  0.20300138014E+03  0.17200000000E+03 0.  1.
         -6    1    1    2    0  502  0.12859536516E+02 -0.18162144893E+02  0.47583450290E+03  0.50645602507E+03  0.17200000000E+03 0.  1.
</event>
<event>
 4    1  0.4440728E+000  0.1724612E+03  0.7818608E-02  0.1175305E+00
         21   -1    0    0  503  502  0.00000000000E+00  0.00000000000E+00  0.69485351512E+03  0.69485351512E+03  0.00000000000E+00 0. -1.
         21   -1    0    0  501  503 -0.00000000000E+00 -0.00000000000E+00 -0.44195957399E+02  0.44195957399E+02  0.00000000000E+00 0. -1.
          6    1    1    2  501    0 -0.23449147549E+01 -0.12384043338E+02  0.25976169293E+03  0.31179961557E+03  0.17200000000E+03 0. -1.
         -6    1    1    2    0  502  0.23449147549E+01  0.12384043338E+02  0.39089586479E+03  0.42724985695E+03  0.17200000000E+03 0. -1.
</event>
<event>
 4    1  0.4440728E+000  0.1791205E+03  0.7818608E-02  0.1168657E+00
         21   -1    0    0  503  502  0.00000000000E+00  0.00000000000E+00  0.28285174771E+02  0.28285174771E+02  0.00000000000E+00 0. -1.
         21   -1    0    0  501  503 -0.00000000000E+00 -0.00000000000E+00 -0.14054261664E+04  0.14054261664E+04  0.00000000000E+00 0. -1.
          6    1    1    2  501    0 -0.46755945234E+02 -0.17721344982E+02 -0.10034215789E+04  0.10192835864E+04  0.17200000000E+03 0. -1.
         -6    1    1    2    0  502  0.46755945234E+02  0.17721344982E+02 -0.37371941274E+03  0.41442775479E+03  0.17200000000E+03 0. -1.
</event>
<event>
 4    1  0.4440728E+000  0.2781148E+03  0.7818608E-02  0.1096723E+00
         21   -1    0    0  501  502  0.00000000000E+00  0.00000000000E+00  0.14991753483E+03  0.14991753483E+03  0.00000000000E+00 0.  1.
         21   -1    0    0  502  503 -0.00000000000E+00 -0.00000000000E+00 -0.56836023649E+03  0.56836023649E+03  0.00000000000E+00 0. -1.
          6    1    1    2  501    0 -0.14296322590E+03  0.16530381935E+03 -0.10014838980E+03  0.29559691580E+03  0.17200000000E+03 0.  1.
         -6    1    1    2    0  503  0.14296322590E+03 -0.16530381935E+03 -0.31829431186E+03  0.42268085551E+03  0.17200000000E+03 0.  1.
</event>
<event>
 4    1  0.4440728E+000  0.1727473E+03  0.7818608E-02  0.1175013E+00
         21   -1    0    0  501  502  0.00000000000E+00  0.00000000000E+00  0.88016281441E+02  0.88016281441E+02  0.00000000000E+00 0.  1.
         21   -1    0    0  502  503 -0.00000000000E+00 -0.00000000000E+00 -0.44980311918E+03  0.44980311918E+03  0.00000000000E+00 0.  1.
          6    1    1    2  501    0 -0.15956461485E+02 -0.17386761488E+01 -0.47455380659E+02  0.17914699219E+03  0.17200000000E+03 0.  1.
         -6    1    1    2    0  503  0.15956461485E+02  0.17386761488E+01 -0.31433145708E+03  0.35867240843E+03  0.17200000000E+03 0.  1.
</event>
<event>
 4    1  0.4440728E+000  0.3353206E+03  0.7818608E-02  0.1068807E+00
         21   -1    0    0  501  502  0.00000000000E+00  0.00000000000E+00  0.98587111450E+03  0.98587111450E+03  0.00000000000E+00 0. -1.
         21   -1    0    0  502  503 -0.00000000000E+00 -0.00000000000E+00 -0.19861785247E+03  0.19861785247E+03  0.00000000000E+00 0.  1.
          6    1    1    2  501    0 -0.56263652139E+02 -0.28229475386E+03  0.78007464585E+03  0.84909150255E+03  0.17200000000E+03 0. -1.
         -6    1    1    2    0  503  0.56263652139E+02  0.28229475386E+03  0.71786161898E+01  0.33539746442E+03  0.17200000000E+03 0.  1.
</event>
<event>
 4    1  0.4440728E+000  0.1851677E+03  0.7818608E-02  0.1162893E+00
         21   -1    0    0  501  502  0.00000000000E+00  0.00000000000E+00  0.69778521839E+03  0.69778521839E+03  0.00000000000E+00 0. -1.
         21   -1    0    0  502  503 -0.00000000000E+00 -0.00000000000E+00 -0.56023426185E+02  0.56023426185E+02  0.00000000000E+00 0. -1.
          6    1    1    2  501    0 -0.53513749023E+02  0.42887575425E+02  0.45302370728E+03  0.48940529709E+03  0.17200000000E+03 0. -1.
         -6    1    1    2    0  503  0.53513749023E+02 -0.42887575425E+02  0.18873808492E+03  0.26440334748E+03  0.17200000000E+03 0. -1.
</event>
<event>
 4    1  0.4440728E+000  0.1775411E+03  0.7818608E-02  0.1170204E+00
         21   -1    0    0  503  502  0.00000000000E+00  0.00000000000E+00  0.28141888083E+03  0.28141888083E+03  0.00000000000E+00 0.  1.
         21   -1    0    0  501  503 -0.00000000000E+00 -0.00000000000E+00 -0.16564327662E+03  0.16564327662E+03  0.00000000000E+00 0.  1.
          6    1    1    2  501    0 -0.29213273873E+02 -0.32915407568E+02 -0.69310398651E+02  0.19059058420E+03  0.17200000000E+03 0.  1.
         -6    1    1    2    0  502  0.29213273873E+02  0.32915407568E+02  0.18508600286E+03  0.25647157324E+03  0.17200000000E+03 0.  1.
</event>
<event>
 4    1  0.4440728E+000  0.2635048E+03  0.7818608E-02  0.1105056E+00
         21   -1    0    0  503  502  0.00000000000E+00  0.00000000000E+00  0.11223326699E+03  0.11223326699E+03  0.00000000000E+00 0.  1.
         21   -1    0    0  501  503 -0.00000000000E+00 -0.00000000000E+00 -0.61961017850E+03  0.61961017850E+03  0.00000000000E+00 0.  1.
          6    1    1    2  501    0  0.12170498119E+03  0.15823608234E+03 -0.26798250488E+03  0.37583158878E+03  0.17200000000E+03 0.  1.
         -6    1    1    2    0  502 -0.12170498119E+03 -0.15823608234E+03 -0.23939440662E+03  0.35601185672E+03  0.17200000000E+03 0.  1.
</event>
<event>
 4    1  0.4440728E+000  0.2146469E+03  0.7818608E-02  0.1137938E+00
         21   -1    0    0  501  502  0.00000000000E+00  0.00000000000E+00  0.58475348273E+03  0.58475348273E+03  0.00000000000E+00 0. -1.
         21   -1    0    0  502  503 -0.00000000000E+00 -0.00000000000E+00 -0.18755439446E+03  0.18755439446E+03  0.00000000000E+00 0. -1.
          6    1    1    2  501    0 -0.11419011893E+03 -0.58735869829E+02  0.49266114152E+03  0.53739025487E+03  0.17200000000E+03 0. -1.
         -6    1    1    2    0  503  0.11419011893E+03  0.58735869829E+02 -0.95462053255E+02  0.23491762232E+03  0.17200000000E+03 0. -1.
</event>
<event>
 4    1  0.4440728E+000  0.1969986E+03  0.7818608E-02  0.1152296E+00
         21   -1    0    0  501  502  0.00000000000E+00  0.00000000000E+00  0.91091210978E+03  0.91091210978E+03  0.00000000000E+00 0. -1.
         21   -1    0    0  502  503 -0.00000000000E+00 -0.00000000000E+00 -0.44165064666E+02  0.44165064666E+02  0.00000000000E+00 0.  1.
          6    1    1    2  501    0  0.29282769822E+02  0.91471073404E+02  0.34359160115E+03  0.39606012960E+03  0.17200000000E+03 0.  1.
         -6    1    1    2    0  503 -0.29282769822E+02 -0.91471073404E+02  0.52315544396E+03  0.55901704484E+03  0.17200000000E+03 0.  1.
</event>
<event>
 4    1  0.4440728E+000  0.2221464E+03  0.7818608E-02  0.1132293E+00
         21   -1    0    0  503  502  0.00000000000E+00  0.00000000000E+00  0.11781715055E+03  0.11781715055E+03  0.00000000000E+00 0. -1.
         21   -1    0    0  501  503 -0.00000000000E+00 -0.00000000000E+00 -0.49063038871E+03  0.49063038871E+03  0.00000000000E+00 0. -1.
          6    1    1    2  501    0 -0.10731746226E+03 -0.90818466987E+02 -0.30276159912E+03  0.37551779925E+03  0.17200000000E+03 0. -1.
         -6    1    1    2    0  502  0.10731746226E+03  0.90818466987E+02 -0.70051639038E+02  0.23292974002E+03  0.17200000000E+03 0. -1.
</event>
<event>
 4    1  0.4440728E+000  0.2099244E+03  0.7818608E-02  0.1141626E+00
         21   -1    0    0  501  502  0.00000000000E+00  0.00000000000E+00  0.41559267520E+03  0.41559267520E+03  0.00000000000E+00 0.  1.
         21   -1    0    0  502  503 -0.00000000000E+00 -0.00000000000E+00 -0.12727972262E+03  0.12727972262E+03  0.00000000000E+00 0. -1.
          6    1    1    2  501    0 -0.94619552306E+02  0.74373235842E+02  0.25504646121E+03  0.33032852627E+03  0.17200000000E+03 0.  1.
         -6    1    1    2    0  503  0.94619552306E+02 -0.74373235842E+02  0.33266491366E+02  0.21254387156E+03  0.17200000000E+03 0. -1.
</event>
<event>
 4    1  0.4440728E+000  0.2374888E+03  0.7818608E-02  0.1121477E+00
         21   -1    0    0  501  502  0.00000000000E+00  0.00000000000E+00  0.19681009678E+03  0.19681009678E+03  0.00000000000E+00 0. -1.
         21   -1    0    0  502  503 -0.00000000000E+00 -0.00000000000E+00 -0.29260974004E+03  0.29260974004E+03  0.00000000000E+00 0.  1.
          6    1    1    2  501    0  0.84510207025E+02  0.14026739452E+03 -0.83041689665E+02  0.25158863106E+03  0.17200000000E+03 0.  1.
         -6    1    1    2    0  503 -0.84510207025E+02 -0.14026739452E+03 -0.12757953597E+02  0.23783120576E+03  0.17200000000E+03 0. -1.
</event>
<event>
 4    1  0.4440728E+000  0.1984077E+03  0.7818608E-02  0.1151089E+00
         21   -1    0    0  503  502  0.00000000000E+00  0.00000000000E+00  0.19446094856E+03  0.19446094856E+03  0.00000000000E+00 0.  1.
         21   -1    0    0  501  503 -0.00000000000E+00 -0.00000000000E+00 -0.26407129671E+03  0.26407129671E+03  0.00000000000E+00 0. -1.
          6    1    1    2  501    0 -0.26386089950E+02  0.95317303936E+02 -0.14556930623E+03  0.24608136274E+03  0.17200000000E+03 0. -1.
         -6    1    1    2    0  502  0.26386089950E+02 -0.95317303936E+02  0.75958958081E+02  0.21245088252E+03  0.17200000000E+03 0.  1.
</event>
<event>
 4    1  0.4440728E+000  0.3172140E+03  0.7818608E-02  0.1076939E+00
         21   -1    0    0  501  502  0.00000000000E+00  0.00000000000E+00  0.15646066567E+04  0.15646066567E+04  0.00000000000E+00 0.  1.
         21   -1    0    0  502  503 -0.00000000000E+00 -0.00000000000E+00 -0.64369930974E+02  0.64369930974E+02  0.00000000000E+00 0.  1.
          6    1    1    2  501    0  0.85495574154E+02  0.25245047444E+03  0.72592142194E+03  0.79220366452E+03  0.17200000000E+03 0.  1.
         -6    1    1    2    0  503 -0.85495574154E+02 -0.25245047444E+03  0.77431530377E+03  0.83677292314E+03  0.17200000000E+03 0.  1.
</event>
<event>
 4    1  0.4440728E+000  0.1915613E+03  0.7818608E-02  0.1157061E+00
         21   -1    0    0  501  502  0.00000000000E+00  0.00000000000E+00  0.84339975254E+02  0.84339975254E+02  0.00000000000E+00 0.  1.
         21   -1    0    0  502  503 -0.00000000000E+00 -0.00000000000E+00 -0.54956393327E+03  0.54956393327E+03  0.00000000000E+00 0. -1.
          6    1    1    2  501    0  0.68537590286E+01  0.84052047471E+02 -0.87957392726E+02  0.21078952448E+03  0.17200000000E+03 0.  1.
         -6    1    1    2    0  503 -0.68537590286E+01 -0.84052047471E+02 -0.37726656529E+03  0.42311438404E+03  0.17200000000E+03 0. -1.
</event>
<event>
 4    1  0.4440728E+000  0.2462889E+03  0.7818608E-02  0.1115673E+00
         21   -1    0    0  503  502  0.00000000000E+00  0.00000000000E+00  0.86365669876E+02  0.86365669876E+02  0.00000000000E+00 0.  1.
         21   -1    0    0  501  503 -0.00000000000E+00 -0.00000000000E+00 -0.16759822558E+04  0.16759822558E+04  0.00000000000E+00 0. -1.
          6    1    1    2  501    0  0.17570607787E+03  0.14198666065E+02 -0.14664323333E+04  0.14869707516E+04  0.17200000000E+03 0. -1.
         -6    1    1    2    0  502 -0.17570607787E+03 -0.14198666065E+02 -0.12318425263E+03  0.27537717409E+03  0.17200000000E+03 0.  1.
</event>
<event>
 4    1  0.4440728E+000  0.1842084E+03  0.7818608E-02  0.1163791E+00
         21   -1    0    0  503  502  0.00000000000E+00  0.00000000000E+00  0.32758916429E+03  0.32758916429E+03  0.00000000000E+00 0.  1.
         21   -1    0    0  501  503 -0.00000000000E+00 -0.00000000000E+00 -0.10944145130E+03  0.10944145130E+03  0.00000000000E+00 0.  1.
          6    1    1    2  501    0 -0.25831859688E+02  0.60674868774E+02  0.58517474173E+02  0.19327964057E+03  0.17200000000E+03 0.  1.
         -6    1    1    2    0  502  0.25831859688E+02 -0.60674868774E+02  0.15963023882E+03  0.24375097502E+03  0.17200000000E+03 0.  1.
</event>
<event>
 4    1  0.4440728E+000  0.2181987E+03  0.7818608E-02  0.1135233E+00
         21   -1    0    0  501  502  0.00000000000E+00  0.00000000000E+00  0.51510203573E+03  0.51510203573E+03  0.00000000000E+00 0. -1.
         21   -1    0    0  502  503 -0.00000000000E+00 -0.00000000000E+00 -0.17657358696E+03  0.17657358696E+03  0.00000000000E+00 0. -1.
          6    1    1    2  501    0  0.93426712442E+02 -0.96426855363E+02  0.40800196406E+03  0.46268379236E+03  0.17200000000E+03 0. -1.
         -6    1    1    2    0  503 -0.93426712442E+02  0.96426855363E+02 -0.69473515288E+02  0.22899183033E+03  0.17200000000E+03 0. -1.
</event>
<event>
 4    1  0.4440728E+000  0.2096340E+03  0.7818608E-02  0.1141856E+00
         21   -1    0    0  503  502  0.00000000000E+00  0.00000000000E+00  0.45799642653E+02  0.45799642653E+02  0.00000000000E+00 0.  1.
         21   -1    0    0  501  503 -0.00000000000E+00 -0.00000000000E+00 -0.11215344447E+04  0.11215344447E+04  0.00000000000E+00 0.  1.
          6    1    1    2  501    0 -0.10478162554E+03  0.58165436602E+02 -0.75969432276E+03  0.78808747680E+03  0.17200000000E+03 0.  1.
         -6    1    1    2    0  502  0.10478162554E+03 -0.58165436602E+02 -0.31604047932E+03  0.37924661058E+03  0.17200000000E+03 0.  1.
</event>
<event>
 4    1  0.4440728E+000  0.1782155E+03  0.7818608E-02  0.1169541E+00
         21   -1    0    0  503  502  0.00000000000E+00  0.00000000000E+00  0.79315200511E+03  0.79315200511E+03  0.00000000000E+00 0.  1.
         21   -1    0    0  501  503 -0.00000000000E+00 -0.00000000000E+00 -0.40463436041E+02  0.40463436041E+02  0.00000000000E+00 0.  1.
          6    1    1    2  501    0 -0.24481875550E+01 -0.46591465688E+02  0.33389394298E+03  0.37847843195E+03  0.17200000000E+03 0.  1.
         -6    1    1    2    0  502  0.24481875550E+01  0.46591465688E+02  0.41879462609E+03  0.45513700920E+03  0.17200000000E+03 0.  1.
</event>
<event>
 4    1  0.4440728E+000  0.1734468E+03  0.7818608E-02  0.1174300E+00
         21   -1    0    0  503  502  0.00000000000E+00  0.00000000000E+00  0.47299600242E+03  0.47299600242E+03  0.00000000000E+00 0. -1.
         21   -1    0    0  501  503 -0.00000000000E+00 -0.00000000000E+00 -0.13196878642E+03  0.13196878642E+03  0.00000000000E+00 0. -1.
          6    1    1    2  501    0 -0.18596663795E+02 -0.12407627520E+02 -0.47199763760E+02  0.17975428458E+03  0.17200000000E+03 0. -1.
         -6    1    1    2    0  502  0.18596663795E+02  0.12407627520E+02  0.38822697976E+03  0.42521050427E+03  0.17200000000E+03 0. -1.
</event>
<event>
 4    1  0.4440728E+000  0.2147040E+03  0.7818608E-02  0.1137894E+00
         21   -1    0    0  503  502  0.00000000000E+00  0.00000000000E+00  0.14226814388E+03  0.14226814388E+03  0.00000000000E+00 0.  1.
         21   -1    0    0  501  503 -0.00000000000E+00 -0.00000000000E+00 -0.41954053884E+03  0.41954053884E+03  0.00000000000E+00 0. -1.
          6    1    1    2  501    0  0.87587625131E+02  0.94033096109E+02 -0.27267125622E+03  0.34705536908E+03  0.17200000000E+03 0. -1.
         -6    1    1    2    0  502 -0.87587625131E+02 -0.94033096109E+02 -0.46011387428E+01  0.21475331364E+03  0.17200000000E+03 0.  1.
</event>
<event>
 4    1  0.4440728E+000  0.2678574E+03  0.7818608E-02  0.1102512E+00
         21   -1    0    0  501  502  0.00000000000E+00  0.00000000000E+00  0.10688933073E+03  0.10688933073E+03  0.00000000000E+00 0.  1.
         21   -1    0    0  502  503 -0.00000000000E+00 -0.00000000000E+00 -0.67917703639E+03  0.67917703639E+03  0.00000000000E+00 0.  1.
          6    1    1    2  501    0 -0.14110011634E+03  0.14917896123E+03 -0.24363603851E+03  0.36208579724E+03  0.17200000000E+03 0.  1.
         -6    1    1    2    0  503  0.14110011634E+03 -0.14917896123E+03 -0.32865166715E+03  0.42398056987E+03  0.17200000000E+03 0.  1.
</event>
<event>
 4    1  0.4440728E+000  0.2092311E+03  0.7818608E-02  0.1142176E+00
         21   -1    0    0  503  502  0.00000000000E+00  0.00000000000E+00  0.58850329713E+02  0.58850329713E+02  0.00000000000E+00 0. -1.
         21   -1    0    0  501  503 -0.00000000000E+00 -0.00000000000E+00 -0.13913132783E+04  0.13913132783E+04  0.00000000000E+00 0.  1.
          6    1    1    2  501    0  0.72842845335E+02  0.94273993894E+02 -0.11608513672E+04  0.11795565111E+04  0.17200000000E+03 0.  1.
         -6    1    1    2    0  502 -0.72842845335E+02 -0.94273993894E+02 -0.17161158130E+03  0.27060709687E+03  0.17200000000E+03 0. -1.
</event>
<event>
 4    1  0.4440728E+000  0.1862796E+03  0.7818608E-02  0.1161860E+00
         21   -1    0    0  501  502  0.00000000000E+00  0.00000000000E+00  0.14870708887E+03  0.14870708887E+03  0.00000000000E+00 0. -1.
         21   -1    0    0  502  503 -0.00000000000E+00 -0.00000000000E+00 -0.32080414924E+03  0.32080414924E+03  0.00000000000E+00 0. -1.
          6    1    1    2  501    0  0.41109553509E+02  0.58532875098E+02  0.36525371623E+02  0.18982675162E+03  0.17200000000E+03 0. -1.
         -6    1    1    2    0  503 -0.41109553509E+02 -0.58532875098E+02 -0.20862243199E+03  0.27968448649E+03  0.17200000000E+03 0. -1.
</event>
<event>
 4    1  0.4440728E+000  0.1981846E+03  0.7818608E-02  0.1151280E+00
         21   -1    0    0  501  502  0.00000000000E+00  0.00000000000E+00  0.14674948667E+03  0.14674948667E+03  0.00000000000E+00 0. -1.
         21   -1    0    0  502  503 -0.00000000000E+00 -0.00000000000E+00 -0.78253598769E+03  0.78253598769E+03  0.00000000000E+00 0. -1.
          6    1    1    2  501    0 -0.20084771227E+02  0.96383280796E+02  0.59004529694E+02  0.20678169497E+03  0.17200000000E+03 0. -1.
         -6    1    1    2    0  503  0.20084771227E+02 -0.96383280796E+02 -0.69479103072E+03  0.72250377938E+03  0.17200000000E+03 0. -1.
</event>
<event>
 4    1  0.4440728E+000  0.3657084E+03  0.7818608E-02  0.1056346E+00
         21   -1    0    0  503  502  0.00000000000E+00  0.00000000000E+00  0.20003870174E+03  0.20003870174E+03  0.00000000000E+00 0. -1.
         21   -1    0    0  501  503 -0.00000000000E+00 -0.00000000000E+00 -0.84774280805E+03  0.84774280805E+03  0.00000000000E+00 0.  1.
          6    1    1    2  501    0  0.15089982602E+03  0.28528564826E+03 -0.56469163323E+03  0.67276987093E+03  0.17200000000E+03 0.  1.
         -6    1    1    2    0  502 -0.15089982602E+03 -0.28528564826E+03 -0.83012473078E+02  0.37501163886E+03  0.17200000000E+03 0. -1.
</event>
<event>
 4    1  0.4440728E+000  0.1898960E+03  0.7818608E-02  0.1158555E+00
         21   -1    0    0  503  502  0.00000000000E+00  0.00000000000E+00  0.30138970779E+03  0.30138970779E+03  0.00000000000E+00 0.  1.
         21   -1    0    0  501  503 -0.00000000000E+00 -0.00000000000E+00 -0.34618992779E+03  0.34618992779E+03  0.00000000000E+00 0.  1.
          6    1    1    2  501    0  0.68991859528E+02 -0.41431916420E+02 -0.28432748506E+03  0.34191022088E+03  0.17200000000E+03 0.  1.
         -6    1    1    2    0  502 -0.68991859528E+02  0.41431916420E+02  0.23952726506E+03  0.30566941470E+03  0.17200000000E+03 0.  1.
</event>
<event>
 4    1  0.4440728E+000  0.2037744E+03  0.7818608E-02  0.1146593E+00
         21   -1    0    0  503  502  0.00000000000E+00  0.00000000000E+00  0.14911166979E+03  0.14911166979E+03  0.00000000000E+00 0.  1.
         21   -1    0    0  501  503 -0.00000000000E+00 -0.00000000000E+00 -0.28618481933E+03  0.28618481933E+03  0.00000000000E+00 0.  1.
          6    1    1    2  501    0 -0.10925663435E+03 -0.17339574120E+01 -0.10425779590E+03  0.22889671637E+03  0.17200000000E+03 0.  1.
         -6    1    1    2    0  502  0.10925663435E+03  0.17339574120E+01 -0.32815353636E+02  0.20639977275E+03  0.17200000000E+03 0.  1.
</event>
<event>
 4    1  0.4440728E+000  0.2027042E+03  0.7818608E-02  0.1147477E+00
         21   -1    0    0  503  502  0.00000000000E+00  0.00000000000E+00  0.12893720135E+04  0.12893720135E+04  0.00000000000E+00 0.  1.
         21   -1    0    0  501  503 -0.00000000000E+00 -0.00000000000E+00 -0.16428445340E+03  0.16428445340E+03  0.00000000000E+00 0.  1.
          6    1    1    2  501    0  0.79537103666E+02  0.71964187862E+02 -0.89993663267E+02  0.22178335064E+03  0.17200000000E+03 0.  1.
         -6    1    1    2    0  502 -0.79537103666E+02 -0.71964187862E+02  0.12150812234E+04  0.12318731163E+04  0.17200000000E+03 0.  1.
</event>
<event>
 4    1  0.4440728E+000  0.1850542E+03  0.7818608E-02  0.1162999E+00
         21   -1    0    0  503  502  0.00000000000E+00  0.00000000000E+00  0.67224178309E+02  0.67224178309E+02  0.00000000000E+00 0.  1.
         21   -1    0    0  501  503 -0.00000000000E+00 -0.00000000000E+00 -0.10345788643E+04  0.10345788643E+04  0.00000000000E+00 0.  1.
          6    1    1    2  501    0  0.44442582205E+02  0.51825735573E+02 -0.87617702614E+03  0.89550613125E+03  0.17200000000E+03 0.  1.
         -6    1    1    2    0  502 -0.44442582205E+02 -0.51825735573E+02 -0.91177659861E+02  0.20629691136E+03  0.17200000000E+03 0.  1.
</event>
<event>
 4    1  0.4440728E+000  0.2192281E+03  0.7818608E-02  0.1134460E+00
         21   -1    0    0  501  502  0.00000000000E+00  0.00000000000E+00  0.99774611863E+02  0.99774611863E+02  0.00000000000E+00 0.  1.
         21   -1    0    0  502  503 -0.00000000000E+00 -0.00000000000E+00 -0.63907175643E+03  0.63907175643E+03  0.00000000000E+00 0. -1.
          6    1    1    2  501    0 -0.99556524114E+02  0.92549671304E+02 -0.86324510423E+02  0.23561168106E+03  0.17200000000E+03 0.  1.
         -6    1    1    2    0  503  0.99556524114E+02 -0.92549671304E+02 -0.45297263415E+03  0.50323468724E+03  0.17200000000E+03 0. -1.
</event>
<event>
 4    1  0.4440728E+000  0.1922736E+03  0.7818608E-02  0.1156427E+00
         21   -1    0    0  501  502  0.00000000000E+00  0.00000000000E+00  0.45845055197E+03  0.45845055197E+03  0.00000000000E+00 0.  1.
         21   -1    0    0  502  503 -0.00000000000E+00 -0.00000000000E+00 -0.88554181372E+02  0.88554181372E+02  0.00000000000E+00 0.  1.
          6    1    1    2  501    0  0.15729366917E+02 -0.84484958657E+02  0.10318093787E+03  0.21820959457E+03  0.17200000000E+03 0. -1.
         -6    1    1    2    0  503 -0.15729366917E+02  0.84484958657E+02  0.26671543273E+03  0.32879513877E+03  0.17200000000E+03 0. -1.
</event>
<event>
 4    1  0.4440728E+000  0.1947757E+03  0.7818608E-02  0.1154223E+00
         21   -1    0    0  503  502  0.00000000000E+00  0.00000000000E+00  0.28918135381E+03  0.28918135381E+03  0.00000000000E+00 0.  1.
         21   -1    0    0  501  503 -0.00000000000E+00 -0.00000000000E+00 -0.23381210760E+03  0.23381210760E+03  0.00000000000E+00 0.  1.
          6    1    1    2  501    0 -0.22467542067E+02 -0.88593374436E+02 -0.14555775929E+03  0.24315558338E+03  0.17200000000E+03 0.  1.
         -6    1    1    2    0  502  0.22467542067E+02  0.88593374436E+02  0.20092700550E+03  0.27983787803E+03  0.17200000000E+03 0.  1.
</event>
<event>
 4    1  0.4440728E+000  0.2918233E+03  0.7818608E-02  0.1089401E+00
         21   -1    0    0  501  502  0.00000000000E+00  0.00000000000E+00  0.26393637949E+03  0.26393637949E+03  0.00000000000E+00 0.  1.
         21   -1    0    0  502  503 -0.00000000000E+00 -0.00000000000E+00 -0.35606401279E+03  0.35606401279E+03  0.00000000000E+00 0. -1.
          6    1    1    2  501    0 -0.53179385804E+02 -0.22967103930E+03  0.48891413891E+02  0.29589052658E+03  0.17200000000E+03 0. -1.
         -6    1    1    2    0  503  0.53179385804E+02  0.22967103930E+03 -0.14101904719E+03  0.32410986569E+03  0.17200000000E+03 0. -1.
</event>
<event>
 4    1  0.4440728E+000  0.1996043E+03  0.7818608E-02  0.1150073E+00
         21   -1    0    0  501  502  0.00000000000E+00  0.00000000000E+00  0.26518022901E+03  0.26518022901E+03  0.00000000000E+00 0.  1.
         21   -1    0    0  502  503 -0.00000000000E+00 -0.00000000000E+00 -0.19570999389E+03  0.19570999389E+03  0.00000000000E+00 0.  1.
          6    1    1    2  501    0 -0.41016900748E+02 -0.92604026806E+02  0.14580634626E+03  0.24718693844E+03  0.17200000000E+03 0.  1.
         -6    1    1    2    0  503  0.41016900748E+02  0.92604026806E+02 -0.76336111137E+02  0.21370328446E+03  0.17200000000E+03 0.  1.
</event>
<event>
 4    1  0.4440728E+000  0.2197957E+03  0.7818608E-02  0.1134035E+00
         21   -1    0    0  503  502  0.00000000000E+00  0.00000000000E+00  0.14252170012E+03  0.14252170012E+03  0.00000000000E+00 0.  1.
         21   -1    0    0  501  503 -0.00000000000E+00 -0.00000000000E+00 -0.36173613323E+03  0.36173613323E+03  0.00000000000E+00 0. -1.
          6    1    1    2  501    0  0.42652771923E+02  0.13002643688E+03 -0.17286315328E+03  0.27962797250E+03  0.17200000000E+03 0. -1.
         -6    1    1    2    0  502 -0.42652771923E+02 -0.13002643688E+03 -0.46351279832E+02  0.22462986085E+03  0.17200000000E+03 0. -1.
</event>
<event>
 4    1  0.4440728E+000  0.1797743E+03  0.7818608E-02  0.1168022E+00
         21   -1    0    0  503  502  0.00000000000E+00  0.00000000000E+00  0.37174615148E+03  0.37174615148E+03  0.00000000000E+00 0.  1.
         21   -1    0    0  501  503 -0.00000000000E+00 -0.00000000000E+00 -0.16240025399E+03  0.16240025399E+03  0.00000000000E+00 0. -1.
          6    1    1    2  501    0 -0.48565801378E+02  0.19395129058E+02 -0.77381922678E+02  0.19572115382E+03  0.17200000000E+03 0. -1.
         -6    1    1    2    0  502  0.48565801378E+02 -0.19395129058E+02  0.28672782017E+03  0.33842525165E+03  0.17200000000E+03 0.  1.
</event>
<event>
 4    1  0.4440728E+000  0.1874889E+03  0.7818608E-02  0.1160746E+00
         21   -1    0    0  501  502  0.00000000000E+00  0.00000000000E+00  0.48036730718E+03  0.48036730718E+03  0.00000000000E+00 0. -1.
         21   -1    0    0  502  503 -0.00000000000E+00 -0.00000000000E+00 -0.15961045334E+03  0.15961045334E+03  0.00000000000E+00 0. -1.
          6    1    1    2  501    0 -0.15807752051E+02  0.72926072316E+02  0.39585288230E+03  0.43800867739E+03  0.17200000000E+03 0. -1.
         -6    1    1    2    0  503  0.15807752051E+02 -0.72926072316E+02 -0.75096028456E+02  0.20196908312E+03  0.17200000000E+03 0. -1.
</event>
<event>
 4    1  0.4440728E+000  0.1852115E+03  0.7818608E-02  0.1162853E+00
         21   -1    0    0  503  502  0.00000000000E+00  0.00000000000E+00  0.10275241643E+03  0.10275241643E+03  0.00000000000E+00 0. -1.
         21   -1    0    0  501  503 -0.00000000000E+00 -0.00000000000E+00 -0.34726449023E+03  0.34726449023E+03  0.00000000000E+00 0. -1.
          6    1    1    2  501    0 -0.41390170442E+02  0.54828408473E+02 -0.16648932604E+03  0.24904215761E+03  0.17200000000E+03 0. -1.
         -6    1    1    2    0  502  0.41390170442E+02 -0.54828408473E+02 -0.78022747763E+02  0.20097474904E+03  0.17200000000E+03 0. -1.
</event>
<event>
 4    1  0.4440728E+000  0.1853423E+03  0.7818608E-02  0.1162731E+00
         21   -1    0    0  501  502  0.00000000000E+00  0.00000000000E+00  0.48918504793E+03  0.48918504793E+03  0.00000000000E+00 0. -1.
         21   -1    0    0  502  503 -0.00000000000E+00 -0.00000000000E+00 -0.72090846289E+02  0.72090846289E+02  0.00000000000E+00 0. -1.
          6    1    1    2  501    0 -0.47684658884E+02 -0.49939192518E+02  0.25372710615E+03  0.31421202084E+03  0.17200000000E+03 0.  1.
         -6    1    1    2    0  503  0.47684658884E+02  0.49939192518E+02  0.16336709549E+03  0.24706387338E+03  0.17200000000E+03 0.  1.
</event>
<event>
 4    1  0.4440728E+000  0.1766643E+03  0.7818608E-02  0.1171071E+00
         21   -1    0    0  503  502  0.00000000000E+00  0.00000000000E+00  0.25118054510E+03  0.25118054510E+03  0.00000000000E+00 0.  1.
         21   -1    0    0  501  503 -0.00000000000E+00 -0.00000000000E+00 -0.35365758809E+03  0.35365758809E+03  0.00000000000E+00 0.  1.
          6    1    1    2  501    0 -0.21199235188E+02 -0.34305397607E+02 -0.29480497827E+03  0.34368625676E+03  0.17200000000E+03 0.  1.
         -6    1    1    2    0  502  0.21199235188E+02  0.34305397607E+02  0.19232793527E+03  0.26115187643E+03  0.17200000000E+03 0.  1.
</event>
<event>
 4    1  0.4440728E+000  0.2708795E+03  0.7818608E-02  0.1100777E+00
         21   -1    0    0  501  502  0.00000000000E+00  0.00000000000E+00  0.10385694015E+03  0.10385694015E+03  0.00000000000E+00 0. -1.
         21   -1    0    0  502  503 -0.00000000000E+00 -0.00000000000E+00 -0.76352446993E+03  0.76352446993E+03  0.00000000000E+00 0. -1.
          6    1    1    2  501    0  0.47266117505E+02 -0.20385691506E+03 -0.21131968532E+03  0.34355747275E+03  0.17200000000E+03 0. -1.
         -6    1    1    2    0  503 -0.47266117505E+02  0.20385691506E+03 -0.44834784446E+03  0.52382393732E+03  0.17200000000E+03 0. -1.
</event>
<event>
 4    1  0.4440728E+000  0.2088445E+03  0.7818608E-02  0.1142484E+00
         21   -1    0    0  503  502  0.00000000000E+00  0.00000000000E+00  0.10589842015E+03  0.10589842015E+03  0.00000000000E+00 0. -1.
         21   -1    0    0  501  503 -0.00000000000E+00 -0.00000000000E+00 -0.60858630583E+03  0.60858630583E+03  0.00000000000E+00 0. -1.
          6    1    1    2  501    0  0.51397917965E+02  0.10672530539E+03 -0.45445129627E+03  0.50014199730E+03  0.17200000000E+03 0. -1.
         -6    1    1    2    0  502 -0.51397917965E+02 -0.10672530539E+03 -0.48236589413E+02  0.21434272868E+03  0.17200000000E+03 0. -1.
</event>
<event>
 4    1  0.4440728E+000  0.2823917E+03  0.7818608E-02  0.1094390E+00
         21   -1    0    0  501  502  0.00000000000E+00  0.00000000000E+00  0.27329403858E+03  0.27329403858E+03  0.00000000000E+00 0. -1.
         21   -1    0    0  502  503 -0.00000000000E+00 -0.00000000000E+00 -0.41912988849E+03  0.41912988849E+03  0.00000000000E+00 0. -1.
          6    1    1    2  501    0 -0.74725380866E+02 -0.21113310222E+03  0.11791189134E+03  0.30602007045E+03  0.17200000000E+03 0. -1.
         -6    1    1    2    0  503  0.74725380866E+02  0.21113310222E+03 -0.26374774125E+03  0.38640385663E+03  0.17200000000E+03 0. -1.
</event>
<event>
 4    1  0.4440728E+000  0.2425570E+03  0.7818608E-02  0.1118101E+00
         21   -1    0    0  503  502  0.00000000000E+00  0.00000000000E+00  0.22758447756E+04  0.22758447756E+04  0.00000000000E+00 0. -1.
         21   -1    0    0  501  503 -0.00000000000E+00 -0.00000000000E+00 -0.26038004782E+02  0.26038004782E+02  0.00000000000E+00 0.  1.
          6    1    1    2  501    0  0.17052743388E+03 -0.13048689860E+02  0.10274808542E+04  0.10557228707E+04  0.17200000000E+03 0.  1.
         -6    1    1    2    0  502 -0.17052743388E+03  0.13048689860E+02  0.12223259166E+04  0.12461599096E+04  0.17200000000E+03 0.  1.
</event>
<event>
 4    1  0.4440728E+000  0.2061375E+03  0.7818608E-02  0.1144662E+00
         21   -1    0    0  501  502  0.00000000000E+00  0.00000000000E+00  0.92199618583E+02  0.92199618583E+02  0.00000000000E+00 0. -1.
         21   -1    0    0  502  503 -0.00000000000E+00 -0.00000000000E+00 -0.56277751522E+03  0.56277751522E+03  0.00000000000E+00 0.  1.
          6    1    1    2  501    0 -0.44568319791E+02 -0.10451005803E+03 -0.95936091228E+02  0.22736846958E+03  0.17200000000E+03 0. -1.
         -6    1    1    2    0  503  0.44568319791E+02  0.10451005803E+03 -0.37464180541E+03  0.42760866422E+03  0.17200000000E+03 0.  1.
</event>
<event>
 4    1  0.4440728E+000  0.2021181E+03  0.7818608E-02  0.1147964E+00
         21   -1    0    0  501  502  0.00000000000E+00  0.00000000000E+00  0.45246390519E+03  0.45246390519E+03  0.00000000000E+00 0. -1.
         21   -1    0    0  502  503 -0.00000000000E+00 -0.00000000000E+00 -0.10145119986E+03  0.10145119986E+03  0.00000000000E+00 0. -1.
          6    1    1    2  501    0 -0.10184762356E+03  0.29913159819E+02  0.26738042415E+03  0.33517760482E+03  0.17200000000E+03 0. -1.
         -6    1    1    2    0  503  0.10184762356E+03 -0.29913159819E+02  0.83632281181E+02  0.21873750024E+03  0.17200000000E+03 0. -1.
</event>
<event>
 4    1  0.4440728E+000  0.2279370E+03  0.7818608E-02  0.1128100E+00
         21   -1    0    0  501  502  0.00000000000E+00  0.00000000000E+00  0.44616975823E+03  0.44616975823E+03  0.00000000000E+00 0. -1.
         21   -1    0    0  502  503 -0.00000000000E+00 -0.00000000000E+00 -0.17585497601E+03  0.17585497601E+03  0.00000000000E+00 0. -1.
          6    1    1    2  501    0 -0.10587885540E+03  0.10564527942E+03  0.31592543714E+03  0.38956917090E+03  0.17200000000E+03 0. -1.
         -6    1    1    2    0  503  0.10587885540E+03 -0.10564527942E+03 -0.45610654919E+02  0.23245556334E+03  0.17200000000E+03 0. -1.
</event>
<event>
 4    1  0.4440728E+000  0.2176917E+03  0.7818608E-02  0.1135616E+00
         21   -1    0    0  503  502  0.00000000000E+00  0.00000000000E+00  0.20425578059E+03  0.20425578059E+03  0.00000000000E+00 0. -1.
         21   -1    0    0  501  503 -0.00000000000E+00 -0.00000000000E+00 -0.23431231398E+03  0.23431231398E+03  0.00000000000E+00 0. -1.
          6    1    1    2  501    0 -0.94391902474E+02 -0.94317834305E+02 -0.36757905521E+02  0.22077325186E+03  0.17200000000E+03 0. -1.
         -6    1    1    2    0  502  0.94391902474E+02  0.94317834305E+02  0.67013721392E+01  0.21779484271E+03  0.17200000000E+03 0. -1.
</event>
<event>
 4    1  0.4440728E+000  0.1808033E+03  0.7818608E-02  0.1167028E+00
         21   -1    0    0  501  502  0.00000000000E+00  0.00000000000E+00  0.25580476839E+03  0.25580476839E+03  0.00000000000E+00 0. -1.
         21   -1    0    0  502  503 -0.00000000000E+00 -0.00000000000E+00 -0.47577505659E+03  0.47577505659E+03  0.00000000000E+00 0. -1.
          6    1    1    2  501    0  0.35967322205E+02  0.42569888601E+02  0.20284589682E+03  0.27172835984E+03  0.17200000000E+03 0. -1.
         -6    1    1    2    0  503 -0.35967322205E+02 -0.42569888601E+02 -0.42281618502E+03  0.45985146515E+03  0.17200000000E+03 0. -1.
</event>
<event>
 4    1  0.4440728E+000  0.2158926E+03  0.7818608E-02  0.1136983E+00
         21   -1    0    0  501  502  0.00000000000E+00  0.00000000000E+00  0.41469637296E+03  0.41469637296E+03  0.00000000000E+00 0.  1.
         21   -1    0    0  502  503 -0.00000000000E+00 -0.00000000000E+00 -0.15025612254E+03  0.15025612254E+03  0.00000000000E+00 0. -1.
          6    1    1    2  501    0  0.70250084182E+02 -0.10995695555E+03  0.27401654043E+03  0.34884763269E+03  0.17200000000E+03 0. -1.
         -6    1    1    2    0  503 -0.70250084182E+02  0.10995695555E+03 -0.95762900103E+01  0.21610486281E+03  0.17200000000E+03 0. -1.
</event>
<event>
 4    1  0.4440728E+000  0.1879294E+03  0.7818608E-02  0.1160342E+00
         21   -1    0    0  501  502  0.00000000000E+00  0.00000000000E+00  0.57575257374E+03  0.57575257374E+03  0.00000000000E+00 0.  1.
         21   -1    0    0  502  503 -0.00000000000E+00 -0.00000000000E+00 -0.85680376933E+02  0.85680376933E+02  0.00000000000E+00 0. -1.
          6    1    1    2  501    0  0.72475990071E+01  0.75372048501E+02  0.42130115995E+03  0.46131566282E+03  0.17200000000E+03 0.  1.
         -6    1    1    2    0  503 -0.72475990071E+01 -0.75372048501E+02  0.68771036853E+02  0.20011728785E+03  0.17200000000E+03 0. -1.
</event>
<event>
 4    1  0.4440728E+000  0.1893169E+03  0.7818608E-02  0.1159079E+00
         21   -1    0    0  503  502  0.00000000000E+00  0.00000000000E+00  0.13021369113E+04  0.13021369113E+04  0.00000000000E+00 0.  1.
         21   -1    0    0  501  503 -0.00000000000E+00 -0.00000000000E+00 -0.92689873803E+02  0.92689873803E+02  0.00000000000E+00 0. -1.
          6    1    1    2  501    0 -0.14629673579E+02 -0.77735776277E+02  0.19957613252E+02  0.19036592287E+03  0.17200000000E+03 0. -1.
         -6    1    1    2    0  502  0.14629673579E+02  0.77735776277E+02  0.11894894242E+04  0.12044608622E+04  0.17200000000E+03 0.  1.
</event>
<event>
 4    1  0.4440728E+000  0.1809737E+03  0.7818608E-02  0.1166864E+00
         21   -1    0    0  501  502  0.00000000000E+00  0.00000000000E+00  0.52649667181E+02  0.52649667181E+02  0.00000000000E+00 0. -1.
         21   -1    0    0  502  503 -0.00000000000E+00 -0.00000000000E+00 -0.74784351979E+03  0.74784351979E+03  0.00000000000E+00 0. -1.
          6    1    1    2  501    0 -0.12327745658E+02 -0.54913636636E+02 -0.18345230925E+03  0.25769406390E+03  0.17200000000E+03 0. -1.
         -6    1    1    2    0  503  0.12327745658E+02  0.54913636636E+02 -0.51174154336E+03  0.54279912307E+03  0.17200000000E+03 0. -1.
</event>
<event>
 4    1  0.4440728E+000  0.1991922E+03  0.7818608E-02  0.1150422E+00
         21   -1    0    0  501  502  0.00000000000E+00  0.00000000000E+00  0.26525164769E+03  0.26525164769E+03  0.00000000000E+00 0.  1.
         21   -1    0    0  502  503 -0.00000000000E+00 -0.00000000000E+00 -0.25189308988E+03  0.25189308988E+03  0.00000000000E+00 0.  1.
          6    1    1    2  501    0  0.67744692590E+02 -0.74190089060E+02 -0.15811047905E+03  0.25431562334E+03  0.17200000000E+03 0.  1.
         -6    1    1    2    0  503 -0.67744692590E+02  0.74190089060E+02  0.17146903685E+03  0.26282911423E+03  0.17200000000E+03 0.  1.
</event>
<event>
 4    1  0.4440728E+000  0.3041431E+03  0.7818608E-02  0.1083188E+00
         21   -1    0    0  501  502  0.00000000000E+00  0.00000000000E+00  0.17183275500E+03  0.17183275500E+03  0.00000000000E+00 0. -1.
         21   -1    0    0  502  503 -0.00000000000E+00 -0.00000000000E+00 -0.60271521594E+03  0.60271521594E+03  0.00000000000E+00 0. -1.
          6    1    1    2  501    0 -0.10683332823E+03 -0.22694865974E+03 -0.88865948469E+02  0.31685992327E+03  0.17200000000E+03 0. -1.
         -6    1    1    2    0  503  0.10683332823E+03  0.22694865974E+03 -0.34201651247E+03  0.45768804767E+03  0.17200000000E+03 0. -1.
</event>
<event>
 4    1  0.4440728E+000  0.1745636E+03  0.7818608E-02  0.1173171E+00
         21   -1    0    0  503  502  0.00000000000E+00  0.00000000000E+00  0.16484420226E+04  0.16484420226E+04  0.00000000000E+00 0.  1.
         21   -1    0    0  501  503 -0.00000000000E+00 -0.00000000000E+00 -0.20884905945E+02  0.20884905945E+02  0.00000000000E+00 0.  1.
          6    1    1    2  501    0  0.29635576745E+02  0.31889949894E+01  0.10966819200E+04  0.11104880327E+04  0.17200000000E+03 0.  1.
         -6    1    1    2    0  502 -0.29635576745E+02 -0.31889949894E+01  0.53087519671E+03  0.55883889591E+03  0.17200000000E+03 0.  1.
</event>
<event>
 4    1  0.4440728E+000  0.1811115E+03  0.7818608E-02  0.1166732E+00
         21   -1    0    0  501  502  0.00000000000E+00  0.00000000000E+00  0.10190698436E+04  0.10190698436E+04  0.00000000000E+00 0.  1.
         21   -1    0    0  502  503 -0.00000000000E+00 -0.00000000000E+00 -0.43356604583E+02  0.43356604583E+02  0.00000000000E+00 0. -1.
          6    1    1    2  501    0 -0.49495092936E+02  0.27705719425E+02  0.75747486002E+03  0.77882574089E+03  0.17200000000E+03 0.  1.
         -6    1    1    2    0  503  0.49495092936E+02 -0.27705719425E+02  0.21823837903E+03  0.28360070733E+03  0.17200000000E+03 0. -1.
</event>
<event>
 4    1  0.4440728E+000  0.1961947E+03  0.7818608E-02  0.1152990E+00
         21   -1    0    0  503  502  0.00000000000E+00  0.00000000000E+00  0.47211454466E+03  0.47211454466E+03  0.00000000000E+00 0.  1.
         21   -1    0    0  501  503 -0.00000000000E+00 -0.00000000000E+00 -0.18200087630E+03  0.18200087630E+03  0.00000000000E+00 0. -1.
          6    1    1    2  501    0  0.49646034392E+02  0.80272307105E+02 -0.97941753993E+02  0.21928282923E+03  0.17200000000E+03 0. -1.
         -6    1    1    2    0  502 -0.49646034392E+02 -0.80272307105E+02  0.38805542235E+03  0.43483259174E+03  0.17200000000E+03 0.  1.
</event>
<event>
 4    1  0.4440728E+000  0.3085348E+03  0.7818608E-02  0.1081050E+00
         21   -1    0    0  501  502  0.00000000000E+00  0.00000000000E+00  0.29862210165E+03  0.29862210165E+03  0.00000000000E+00 0. -1.
         21   -1    0    0  502  503 -0.00000000000E+00 -0.00000000000E+00 -0.31878135335E+03  0.31878135335E+03  0.00000000000E+00 0.  1.
          6    1    1    2  501    0 -0.20278173017E+03 -0.15649049130E+03 -0.11285983272E+02  0.30874111708E+03  0.17200000000E+03 0.  1.
         -6    1    1    2    0  503  0.20278173017E+03  0.15649049130E+03 -0.88732684366E+01  0.30866233792E+03  0.17200000000E+03 0.  1.
</event>
<event>
 4    1  0.4440728E+000  0.2085836E+03  0.7818608E-02  0.1142693E+00
         21   -1    0    0  501  502  0.00000000000E+00  0.00000000000E+00  0.98230768367E+02  0.98230768367E+02  0.00000000000E+00 0.  1.
         21   -1    0    0  502  503 -0.00000000000E+00 -0.00000000000E+00 -0.87406377662E+03  0.87406377662E+03  0.00000000000E+00 0.  1.
          6    1    1    2  501    0  0.10663692591E+03  0.50514288357E+02 -0.46477025514E+02  0.21369894992E+03  0.17200000000E+03 0.  1.
         -6    1    1    2    0  503 -0.10663692591E+03 -0.50514288357E+02 -0.72935598274E+03  0.75859559507E+03  0.17200000000E+03 0.  1.
</event>
<event>
 4    1  0.4440728E+000  0.2017503E+03  0.7818608E-02  0.1148271E+00
         21   -1    0    0  501  502  0.00000000000E+00  0.00000000000E+00  0.22872612691E+03  0.22872612691E+03  0.00000000000E+00 0.  1.
         21   -1    0    0  502  503 -0.00000000000E+00 -0.00000000000E+00 -0.21301540308E+03  0.21301540308E+03  0.00000000000E+00 0.  1.
          6    1    1    2  501    0  0.79808648114E+02 -0.68918623686E+02  0.97460870535E+02  0.22405762270E+03  0.17200000000E+03 0.  1.
         -6    1    1    2    0  503 -0.79808648114E+02  0.68918623686E+02 -0.81750146712E+02  0.21768390729E+03  0.17200000000E+03 0.  1.
</event>
<event>
 4    1  0.4440728E+000  0.2172255E+03  0.7818608E-02  0.1135969E+00
         21   -1    0    0  503  502  0.00000000000E+00  0.00000000000E+00  0.13376686919E+03  0.13376686919E+03  0.00000000000E+00 0.  1.
         21   -1    0    0  501  503 -0.00000000000E+00 -0.00000000000E+00 -0.57438449149E+03  0.57438449149E+03  0.00000000000E+00 0. -1.
          6    1    1    2  501    0 -0.57997970311E+02  0.11932797599E+03 -0.44025099444E+03  0.49092552238E+03  0.17200000000E+03 0. -1.
         -6    1    1    2    0  502  0.57997970311E+02 -0.11932797599E+03 -0.36662785897E+00  0.21722583831E+03  0.17200000000E+03 0.  1.
</event>
<event>
 4    1  0.4440728E+000  0.1801454E+03  0.7818608E-02  0.1167662E+00
         21   -1    0    0  501  502  0.00000000000E+00  0.00000000000E+00  0.62338600435E+03  0.62338600435E+03  0.00000000000E+00 0. -1.
         21   -1    0    0  502  503 -0.00000000000E+00 -0.00000000000E+00 -0.77013606298E+02  0.77013606298E+02  0.00000000000E+00 0. -1.
          6    1    1    2  501    0 -0.53331650522E+02 -0.49078896781E+01  0.47253540310E+03  0.50570946156E+03  0.17200000000E+03 0. -1.
         -6    1    1    2    0  503  0.53331650522E+02  0.49078896781E+01  0.73836994951E+02  0.19469014909E+03  0.17200000000E+03 0. -1.
</event>
<event>
 4    1  0.4440728E+000  0.1857749E+03  0.7818608E-02  0.1162328E+00
         21   -1    0    0  503  502  0.00000000000E+00  0.00000000000E+00  0.44840376956E+03  0.44840376956E+03  0.00000000000E+00 0.  1.
         21   -1    0    0  501  503 -0.00000000000E+00 -0.00000000000E+00 -0.86351240309E+02  0.86351240309E+02  0.00000000000E+00 0.  1.
          6    1    1    2  501    0  0.54154204945E+02 -0.44672711696E+02  0.92883174692E+02  0.20770077810E+03  0.17200000000E+03 0.  1.
         -6    1    1    2    0  502 -0.54154204945E+02  0.44672711696E+02  0.26916935456E+03  0.32705423177E+03  0.17200000000E+03 0.  1.
</event>
<event>
 4    1  0.4440728E+000  0.2864794E+03  0.7818608E-02  0.1092202E+00
         21   -1    0    0  503  502  0.00000000000E+00  0.00000000000E+00  0.23791454198E+03  0.23791454198E+03  0.00000000000E+00 0.  1.
         21   -1    0    0  501  503 -0.00000000000E+00 -0.00000000000E+00 -0.38263812810E+03  0.38263812810E+03  0.00000000000E+00 0. -1.
          6    1    1    2  501    0  0.12622379995E+03 -0.19119102981E+03 -0.16972891659E+03  0.33298402766E+03  0.17200000000E+03 0.  1.
         -6    1    1    2    0  502 -0.12622379995E+03  0.19119102981E+03  0.25005330465E+02  0.28756864242E+03  0.17200000000E+03 0. -1.
</event>
<event>
 4    1  0.4440728E+000  0.2097291E+03  0.7818608E-02  0.1141781E+00
         21   -1    0    0  501  502  0.00000000000E+00  0.00000000000E+00  0.55385440945E+03  0.55385440945E+03  0.00000000000E+00 0.  1.
         21   -1    0    0  502  503 -0.00000000000E+00 -0.00000000000E+00 -0.90286735423E+02  0.90286735423E+02  0.00000000000E+00 0.  1.
          6    1    1    2  501    0 -0.11559728574E+03 -0.32242429072E+02  0.34352620153E+03  0.40248795987E+03  0.17200000000E+03 0.  1.
         -6    1    1    2    0  503  0.11559728574E+03  0.32242429072E+02  0.12004147250E+03  0.24165318501E+03  0.17200000000E+03 0.  1.
</event>
<event>
 4    1  0.4440728E+000  0.1993682E+03  0.7818608E-02  0.1150273E+00
         21   -1    0    0  503  502  0.00000000000E+00  0.00000000000E+00  0.11362265613E+03  0.11362265613E+03  0.00000000000E+00 0. -1.
         21   -1    0    0  501  503 -0.00000000000E+00 -0.00000000000E+00 -0.45076450076E+03  0.45076450076E+03  0.00000000000E+00 0. -1.
          6    1    1    2  501    0  0.90047822642E+02  0.45332842114E+02 -0.30211044857E+03  0.36196463925E+03  0.17200000000E+03 0. -1.
         -6    1    1    2    0  502 -0.90047822642E+02 -0.45332842114E+02 -0.35031396068E+02  0.20242251764E+03  0.17200000000E+03 0. -1.
</event>
<event>
 4    1  0.4440728E+000  0.2196567E+03  0.7818608E-02  0.1134139E+00
         21   -1    0    0  501  502  0.00000000000E+00  0.00000000000E+00  0.11685258476E+03  0.11685258476E+03  0.00000000000E+00 0.  1.
         21   -1    0    0  502  503 -0.00000000000E+00 -0.00000000000E+00 -0.50432900570E+03  0.50432900570E+03  0.00000000000E+00 0.  1.
          6    1    1    2  501    0  0.10156686188E+03 -0.91374154324E+02 -0.61498839450E+02  0.22810342120E+03  0.17200000000E+03 0.  1.
         -6    1    1    2    0  503 -0.10156686188E+03  0.91374154324E+02 -0.32597758150E+03  0.39307816926E+03  0.17200000000E+03 0.  1.
</event>
<event>
 4    1  0.4440728E+000  0.1990044E+03  0.7818608E-02  0.1150582E+00
         21   -1    0    0  501  502  0.00000000000E+00  0.00000000000E+00  0.77727803912E+02  0.77727803912E+02  0.00000000000E+00 0. -1.
         21   -1    0    0  502  503 -0.00000000000E+00 -0.00000000000E+00 -0.54370312423E+03  0.54370312423E+03  0.00000000000E+00 0.  1.
          6    1    1    2  501    0 -0.35003323563E+02  0.93773678701E+02 -0.15506198295E+03  0.25228347951E+03  0.17200000000E+03 0. -1.
         -6    1    1    2    0  503  0.35003323563E+02 -0.93773678701E+02 -0.31091333737E+03  0.36914744863E+03  0.17200000000E+03 0.  1.
</event>
<event>
 4    1  0.4440728E+000  0.1804988E+03  0.7818608E-02  0.1167321E+00
         21   -1    0    0  503  502  0.00000000000E+00  0.00000000000E+00  0.14023551558E+03  0.14023551558E+03  0.00000000000E+00 0. -1.
         21   -1    0    0  501  503 -0.00000000000E+00 -0.00000000000E+00 -0.23630801041E+03  0.23630801041E+03  0.00000000000E+00 0.  1.
          6    1    1    2  501    0 -0.27142132971E+02 -0.47530234920E+02 -0.72487785527E+02  0.19451040503E+03  0.17200000000E+03 0. -1.
         -6    1    1    2    0  502  0.27142132971E+02  0.47530234920E+02 -0.23584709305E+02  0.18203312096E+03  0.17200000000E+03 0. -1.
</event>
<event>
 4    1  0.4440728E+000  0.1812485E+03  0.7818608E-02  0.1166600E+00
         21   -1    0    0  503  502  0.00000000000E+00  0.00000000000E+00  0.48207148520E+02  0.48207148520E+02  0.00000000000E+00 0. -1.
         21   -1    0    0  501  503 -0.00000000000E+00 -0.00000000000E+00 -0.72086339605E+03  0.72086339605E+03  0.00000000000E+00 0. -1.
          6    1    1    2  501    0  0.39583282838E+02  0.41233362098E+02 -0.42623674299E+03  0.46317252456E+03  0.17200000000E+03 0. -1.
         -6    1    1    2    0  502 -0.39583282838E+02 -0.41233362098E+02 -0.24641950455E+03  0.30589802002E+03  0.17200000000E+03 0. -1.
</event>
<event>
 4    1  0.4440728E+000  0.2836406E+03  0.7818608E-02  0.1093717E+00
         21   -1    0    0  503  502  0.00000000000E+00  0.00000000000E+00  0.83739694892E+02  0.83739694892E+02  0.00000000000E+00 0.  1.
         21   -1    0    0  501  503 -0.00000000000E+00 -0.00000000000E+00 -0.96271339073E+03  0.96271339073E+03  0.00000000000E+00 0. -1.
          6    1    1    2  501    0  0.18183905468E+03 -0.13342614360E+03 -0.46318284844E+03  0.54313012133E+03  0.17200000000E+03 0. -1.
         -6    1    1    2    0  502 -0.18183905468E+03  0.13342614360E+03 -0.41579084740E+03  0.50332296429E+03  0.17200000000E+03 0.  1.
</event>
<event>
 4    1  0.4440728E+000  0.1780634E+03  0.7818608E-02  0.1169691E+00
         21   -1    0    0  503  502  0.00000000000E+00  0.00000000000E+00  0.69788262176E+02  0.69788262176E+02  0.00000000000E+00 0.  1.
         21   -1    0    0  501  503 -0.00000000000E+00 -0.00000000000E+00 -0.11380763237E+04  0.11380763237E+04  0.00000000000E+00 0.  1.
          6    1    1    2  501    0 -0.36091092052E+02  0.28635631344E+02 -0.10022579815E+04  0.10179526648E+04  0.17200000000E+03 0.  1.
         -6    1    1    2    0  502  0.36091092052E+02 -0.28635631344E+02 -0.66030080074E+02  0.18991192112E+03  0.17200000000E+03 0.  1.
</event>
<event>
 4    1  0.4440728E+000  0.1736754E+03  0.7818608E-02  0.1174068E+00
         21   -1    0    0  503  502  0.00000000000E+00  0.00000000000E+00  0.13692401918E+03  0.13692401918E+03  0.00000000000E+00 0.  1.
         21   -1    0    0  501  503 -0.00000000000E+00 -0.00000000000E+00 -0.24135493111E+03  0.24135493111E+03  0.00000000000E+00 0.  1.
          6    1    1    2  501    0  0.13427621554E+02  0.19971115115E+02 -0.10809109433E+03  0.20456498022E+03  0.17200000000E+03 0.  1.
         -6    1    1    2    0  502 -0.13427621554E+02 -0.19971115115E+02  0.36601824000E+01  0.17371397006E+03  0.17200000000E+03 0.  1.
</event>
<event>
 4    1  0.4440728E+000  0.1808069E+03  0.7818608E-02  0.1167024E+00
         21   -1    0    0  501  502  0.00000000000E+00  0.00000000000E+00  0.71344543790E+03  0.71344543790E+03  0.00000000000E+00 0. -1.
         21   -1    0    0  502  503 -0.00000000000E+00 -0.00000000000E+00 -0.50161268456E+02  0.50161268456E+02  0.00000000000E+00 0. -1.
          6    1    1    2  501    0 -0.41317741931E+02 -0.37416317594E+02  0.44394447730E+03  0.47935147392E+03  0.17200000000E+03 0. -1.
         -6    1    1    2    0  503  0.41317741931E+02  0.37416317594E+02  0.21933969215E+03  0.28425523245E+03  0.17200000000E+03 0. -1.
</event>
<event>
 4    1  0.4440728E+000  0.1871440E+03  0.7818608E-02  0.1161063E+00
         21   -1    0    0  501  502  0.00000000000E+00  0.00000000000E+00  0.18725100664E+02  0.18725100664E+02  0.00000000000E+00 0. -1.
         21   -1    0    0  502  503 -0.00000000000E+00 -0.00000000000E+00 -0.19328696346E+04  0.19328696346E+04  0.00000000000E+00 0.  1.
          6    1    1    2  501    0  0.62821066033E+02  0.38631392936E+02 -0.78160492534E+03  0.80369716322E+03  0.17200000000E+03 0. -1.
         -6    1    1    2    0  503 -0.62821066033E+02 -0.38631392936E+02 -0.11325396086E+04  0.11478975720E+04  0.17200000000E+03 0.  1.
</event>
<event>
 4    1  0.4440728E+000  0.1861455E+03  0.7818608E-02  0.1161985E+00
         21   -1    0    0  503  502  0.00000000000E+00  0.00000000000E+00  0.12201213965E+03  0.12201213965E+03  0.00000000000E+00 0. -1.
         21   -1    0    0  501  503 -0.00000000000E+00 -0.00000000000E+00 -0.16115040642E+04  0.16115040642E+04  0.00000000000E+00 0. -1.
          6    1    1    2  501    0 -0.51552006221E+02 -0.49076711967E+02 -0.15314328282E+04  0.15427043269E+04  0.17200000000E+03 0. -1.
         -6    1    1    2    0  502  0.51552006221E+02  0.49076711967E+02  0.41940903599E+02  0.19081187698E+03  0.17200000000E+03 0. -1.
</event>
<event>
 4    1  0.4440728E+000  0.1928463E+03  0.7818608E-02  0.1155919E+00
         21   -1    0    0  501  502  0.00000000000E+00  0.00000000000E+00  0.10729460193E+04  0.10729460193E+04  0.00000000000E+00 0. -1.
         21   -1    0    0  502  503 -0.00000000000E+00 -0.00000000000E+00 -0.52104892707E+02  0.52104892707E+02  0.00000000000E+00 0. -1.
          6    1    1    2  501    0  0.19662909992E+02  0.84965002527E+02  0.83589819970E+03  0.85785516373E+03  0.17200000000E+03 0. -1.
         -6    1    1    2    0  503 -0.19662909992E+02 -0.84965002527E+02  0.18494292687E+03  0.26719574825E+03  0.17200000000E+03 0. -1.
</event>
<event>
 4    1  0.4440728E+000  0.2382315E+03  0.7818608E-02  0.1120977E+00
         21   -1    0    0  501  502  0.00000000000E+00  0.00000000000E+00  0.11794091349E+03  0.11794091349E+03  0.00000000000E+00 0.  1.
         21   -1    0    0  502  503 -0.00000000000E+00 -0.00000000000E+00 -0.52665716675E+03  0.52665716675E+03  0.00000000000E+00 0.  1.
          6    1    1    2  501    0  0.13438670088E+03 -0.95448636137E+02 -0.10967921444E+03  0.26226657735E+03  0.17200000000E+03 0.  1.
         -6    1    1    2    0  503 -0.13438670088E+03  0.95448636137E+02 -0.29903703882E+03  0.38233150289E+03  0.17200000000E+03 0.  1.
</event>
<event>
 4    1  0.4440728E+000  0.1918757E+03  0.7818608E-02  0.1156780E+00
         21   -1    0    0  503  502  0.00000000000E+00  0.00000000000E+00  0.67103381409E+03  0.67103381409E+03  0.00000000000E+00 0. -1.
         21   -1    0    0  501  503 -0.00000000000E+00 -0.00000000000E+00 -0.54865647495E+02  0.54865647495E+02  0.00000000000E+00 0.  1.
          6    1    1    2  501    0  0.39346329520E+02  0.75393368492E+02  0.30929682163E+03  0.36397914436E+03  0.17200000000E+03 0. -1.
         -6    1    1    2    0  502 -0.39346329520E+02 -0.75393368492E+02  0.30687134497E+03  0.36192031723E+03  0.17200000000E+03 0. -1.
</event>
<event>
 4    1  0.4440728E+000  0.1938655E+03  0.7818608E-02  0.1155020E+00
         21   -1    0    0  501  502  0.00000000000E+00  0.00000000000E+00  0.13650061090E+03  0.13650061090E+03  0.00000000000E+00 0. -1.
         21   -1    0    0  502  503 -0.00000000000E+00 -0.00000000000E+00 -0.52454782553E+03  0.52454782553E+03  0.00000000000E+00 0. -1.
          6    1    1    2  501    0 -0.56387693923E+02  0.69428109318E+02  0.33797068277E+02  0.19678942099E+03  0.17200000000E+03 0. -1.
         -6    1    1    2    0  503  0.56387693923E+02 -0.69428109318E+02 -0.42184428291E+03  0.46425901543E+03  0.17200000000E+03 0. -1.
</event>
<event>
 4    1  0.4440728E+000  0.3467067E+03  0.7818608E-02  0.1063975E+00
         21   -1    0    0  503  502  0.00000000000E+00  0.00000000000E+00  0.31158485511E+03  0.31158485511E+03  0.00000000000E+00 0.  1.
         21   -1    0    0  501  503 -0.00000000000E+00 -0.00000000000E+00 -0.39962462671E+03  0.39962462671E+03  0.00000000000E+00 0.  1.
          6    1    1    2  501    0  0.29798223566E+03 -0.42756739748E+02  0.22150537441E+02  0.34741358331E+03  0.17200000000E+03 0.  1.
         -6    1    1    2    0  502 -0.29798223566E+03  0.42756739748E+02 -0.11019030905E+03  0.36379589851E+03  0.17200000000E+03 0.  1.
</event>
<event>
 4    1  0.4440728E+000  0.2136351E+03  0.7818608E-02  0.1138719E+00
         21   -1    0    0  501  502  0.00000000000E+00  0.00000000000E+00  0.23161753970E+03  0.23161753970E+03  0.00000000000E+00 0. -1.
         21   -1    0    0  502  503 -0.00000000000E+00 -0.00000000000E+00 -0.19705354866E+03  0.19705354866E+03  0.00000000000E+00 0.  1.
          6    1    1    2  501    0 -0.11934249156E+03 -0.42583337742E+02  0.16235907244E+02  0.21425119750E+03  0.17200000000E+03 0.  1.
         -6    1    1    2    0  503  0.11934249156E+03  0.42583337742E+02  0.18328083795E+02  0.21441989087E+03  0.17200000000E+03 0. -1.
</event>
<event>
 4    1  0.4440728E+000  0.2520854E+03  0.7818608E-02  0.1111994E+00
         21   -1    0    0  501  502  0.00000000000E+00  0.00000000000E+00  0.34095028225E+03  0.34095028225E+03  0.00000000000E+00 0. -1.
         21   -1    0    0  502  503 -0.00000000000E+00 -0.00000000000E+00 -0.29086787136E+03  0.29086787136E+03  0.00000000000E+00 0.  1.
          6    1    1    2  501    0  0.93992972776E+02  0.15851925296E+03  0.21438138605E+03  0.33091752926E+03  0.17200000000E+03 0. -1.
         -6    1    1    2    0  503 -0.93992972776E+02 -0.15851925296E+03 -0.16429897516E+03  0.30090062434E+03  0.17200000000E+03 0.  1.
</event>
<event>
 4    1  0.4440728E+000  0.1741386E+03  0.7818608E-02  0.1173599E+00
         21   -1    0    0  503  502  0.00000000000E+00  0.00000000000E+00  0.24968063740E+03  0.24968063740E+03  0.00000000000E+00 0. -1.
         21   -1    0    0  501  503 -0.00000000000E+00 -0.00000000000E+00 -0.39475338788E+03  0.39475338788E+03  0.00000000000E+00 0. -1.
          6    1    1    2  501    0  0.21248716521E+02 -0.16992141752E+02 -0.34064227025E+03  0.38257208094E+03  0.17200000000E+03 0. -1.
         -6    1    1    2    0  502 -0.21248716521E+02  0.16992141752E+02  0.19556951976E+03  0.26186194434E+03  0.17200000000E+03 0. -1.
</event>
<event>
 4    1  0.4440728E+000  0.1760108E+03  0.7818608E-02  0.1171721E+00
         21   -1    0    0  503  502  0.00000000000E+00  0.00000000000E+00  0.18202685917E+02  0.18202685917E+02  0.00000000000E+00 0. -1.
         21   -1    0    0  501  503 -0.00000000000E+00 -0.00000000000E+00 -0.18199160731E+04  0.18199160731E+04  0.00000000000E+00 0.  1.
          6    1    1    2  501    0 -0.30079563324E+02  0.22158757703E+02 -0.66685240437E+03  0.68968972726E+03  0.17200000000E+03 0.  1.
         -6    1    1    2    0  502  0.30079563324E+02 -0.22158757703E+02 -0.11348609828E+04  0.11484290317E+04  0.17200000000E+03 0.  1.
</event>
<event>
 4    1  0.4440728E+000  0.2059696E+03  0.7818608E-02  0.1144798E+00
         21   -1    0    0  503  502  0.00000000000E+00  0.00000000000E+00  0.76382870976E+03  0.76382870976E+03  0.00000000000E+00 0. -1.
         21   -1    0    0  501  503 -0.00000000000E+00 -0.00000000000E+00 -0.14006854326E+03  0.14006854326E+03  0.00000000000E+00 0. -1.
          6    1    1    2  501    0 -0.67966503572E+02 -0.90664302498E+02 -0.39210403679E+02  0.20966858876E+03  0.17200000000E+03 0. -1.
         -6    1    1    2    0  502  0.67966503572E+02  0.90664302498E+02  0.66297057019E+03  0.69422866426E+03  0.17200000000E+03 0. -1.
</event>
<event>
 4    1  0.4440728E+000  0.2219072E+03  0.7818608E-02  0.1132469E+00
         21   -1    0    0  501  502  0.00000000000E+00  0.00000000000E+00  0.15100550659E+03  0.15100550659E+03  0.00000000000E+00 0.  1.
         21   -1    0    0  502  503 -0.00000000000E+00 -0.00000000000E+00 -0.21663635529E+04  0.21663635529E+04  0.00000000000E+00 0.  1.
          6    1    1    2  501    0 -0.38901392083E+02 -0.13470515515E+03  0.60243208760E+02  0.22993921225E+03  0.17200000000E+03 0.  1.
         -6    1    1    2    0  503  0.38901392083E+02  0.13470515515E+03 -0.20756012550E+04  0.20874298472E+04  0.17200000000E+03 0.  1.
</event>
<event>
 4    1  0.4440728E+000  0.2202269E+03  0.7818608E-02  0.1133714E+00
         21   -1    0    0  501  502  0.00000000000E+00  0.00000000000E+00  0.54458267388E+03  0.54458267388E+03  0.00000000000E+00 0.  1.
         21   -1    0    0  502  503 -0.00000000000E+00 -0.00000000000E+00 -0.10959008560E+03  0.10959008560E+03  0.00000000000E+00 0.  1.
          6    1    1    2  501    0  0.13446536392E+03 -0.28895760580E+02  0.35907062501E+03  0.42122632019E+03  0.17200000000E+03 0.  1.
         -6    1    1    2    0  503 -0.13446536392E+03  0.28895760580E+02  0.75921963272E+02  0.23294643929E+03  0.17200000000E+03 0.  1.
</event>
<event>
 4    1  0.4440728E+000  0.2293084E+03  0.7818608E-02  0.1127128E+00
         21   -1    0    0  503  502  0.00000000000E+00  0.00000000000E+00  0.22031408899E+03  0.22031408899E+03  0.00000000000E+00 0. -1.
         21   -1    0    0  501  503 -0.00000000000E+00 -0.00000000000E+00 -0.81896840792E+03  0.81896840792E+03  0.00000000000E+00 0. -1.
          6    1    1    2  501    0 -0.14866908183E+03 -0.29930574668E+02 -0.73674428351E+03  0.77160512860E+03  0.17200000000E+03 0. -1.
         -6    1    1    2    0  502  0.14866908183E+03  0.29930574668E+02  0.13808996458E+03  0.26767736832E+03  0.17200000000E+03 0. -1.
</event>
<event>
 4    1  0.4440728E+000  0.2128804E+03  0.7818608E-02  0.1139305E+00
         21   -1    0    0  503  502  0.00000000000E+00  0.00000000000E+00  0.76254278502E+03  0.76254278502E+03  0.00000000000E+00 0. -1.
         21   -1    0    0  501  503 -0.00000000000E+00 -0.00000000000E+00 -0.45353378229E+03  0.45353378229E+03  0.00000000000E+00 0. -1.
          6    1    1    2  501    0 -0.73848788632E+02  0.10139239918E+03 -0.41229740279E+03  0.46401208017E+03  0.17200000000E+03 0. -1.
         -6    1    1    2    0  502  0.73848788632E+02 -0.10139239918E+03  0.72130640552E+03  0.75206448715E+03  0.17200000000E+03 0. -1.
</event>
<event>
 4    1  0.4440728E+000  0.1941268E+03  0.7818608E-02  0.1154791E+00
         21   -1    0    0  503  502  0.00000000000E+00  0.00000000000E+00  0.14159794857E+03  0.14159794857E+03  0.00000000000E+00 0. -1.
         21   -1    0    0  501  503 -0.00000000000E+00 -0.00000000000E+00 -0.51523998764E+03  0.51523998764E+03  0.00000000000E+00 0. -1.
          6    1    1    2  501    0 -0.63157637891E+02  0.64127527067E+02 -0.41517477407E+03  0.45831792456E+03  0.17200000000E+03 0. -1.
         -6    1    1    2    0  502  0.63157637891E+02 -0.64127527067E+02  0.41532734991E+02  0.19852001166E+03  0.17200000000E+03 0. -1.
</event>
<event>
 4    1  0.4440728E+000  0.2294925E+03  0.7818608E-02  0.1126997E+00
         21   -1    0    0  503  502  0.00000000000E+00  0.00000000000E+00  0.46746172207E+03  0.46746172207E+03  0.00000000000E+00 0. -1.
         21   -1    0    0  501  503 -0.00000000000E+00 -0.00000000000E+00 -0.13516284823E+03  0.13516284823E+03  0.00000000000E+00 0.  1.
          6    1    1    2  501    0  0.15134695159E+03  0.13300090182E+02  0.28907838847E+03  0.36909769281E+03  0.17200000000E+03 0. -1.
         -6    1    1    2    0  502 -0.15134695159E+03 -0.13300090182E+02  0.43220485367E+02  0.23352687749E+03  0.17200000000E+03 0.  1.
</event>
<event>
 4    1  0.4440728E+000  0.1807248E+03  0.7818608E-02  0.1167103E+00
         21   -1    0    0  501  502  0.00000000000E+00  0.00000000000E+00  0.52539871378E+03  0.52539871378E+03  0.00000000000E+00 0.  1.
         21   -1    0    0  502  503 -0.00000000000E+00 -0.00000000000E+00 -0.97732580879E+02  0.97732580879E+02  0.00000000000E+00 0. -1.
          6    1    1    2  501    0  0.31715349699E+02  0.45514895809E+02  0.40178914349E+03  0.44056325877E+03  0.17200000000E+03 0.  1.
         -6    1    1    2    0  503 -0.31715349699E+02 -0.45514895809E+02  0.25876989404E+02  0.18256803589E+03  0.17200000000E+03 0. -1.
</event>
<event>
 4    1  0.4440728E+000  0.2140572E+03  0.7818608E-02  0.1138393E+00
         21   -1    0    0  503  502  0.00000000000E+00  0.00000000000E+00  0.77878596267E+02  0.77878596267E+02  0.00000000000E+00 0.  1.
         21   -1    0    0  501  503 -0.00000000000E+00 -0.00000000000E+00 -0.62645667296E+03  0.62645667296E+03  0.00000000000E+00 0.  1.
          6    1    1    2  501    0  0.55039382618E+02  0.11492232195E+03 -0.36113715655E+03  0.41981009940E+03  0.17200000000E+03 0.  1.
         -6    1    1    2    0  502 -0.55039382618E+02 -0.11492232195E+03 -0.18744092015E+03  0.28452516983E+03  0.17200000000E+03 0.  1.
</event>
<event>
 4    1  0.4440728E+000  0.1748847E+03  0.7818608E-02  0.1172847E+00
         21   -1    0    0  501  502  0.00000000000E+00  0.00000000000E+00  0.78146503233E+03  0.78146503233E+03  0.00000000000E+00 0. -1.
         21   -1    0    0  502  503 -0.00000000000E+00 -0.00000000000E+00 -0.44246402106E+02  0.44246402106E+02  0.00000000000E+00 0. -1.
          6    1    1    2  501    0  0.20843652284E+02  0.23795228320E+02  0.50889669263E+03  0.53810827395E+03  0.17200000000E+03 0. -1.
         -6    1    1    2    0  503 -0.20843652284E+02 -0.23795228320E+02  0.22832193760E+03  0.28760316048E+03  0.17200000000E+03 0. -1.
</event>
<event>
 4    1  0.4440728E+000  0.1821755E+03  0.7818608E-02  0.1165714E+00
         21   -1    0    0  503  502  0.00000000000E+00  0.00000000000E+00  0.61590718136E+03  0.61590718136E+03  0.00000000000E+00 0. -1.
         21   -1    0    0  501  503 -0.00000000000E+00 -0.00000000000E+00 -0.80501740184E+02  0.80501740184E+02  0.00000000000E+00 0. -1.
          6    1    1    2  501    0 -0.31534196226E+02  0.51083239732E+02  0.67480389234E+02  0.19427173197E+03  0.17200000000E+03 0. -1.
         -6    1    1    2    0  502  0.31534196226E+02 -0.51083239732E+02  0.46792505194E+03  0.50213718957E+03  0.17200000000E+03 0. -1.
</event>
<event>
 4    1  0.4440728E+000  0.2097018E+03  0.7818608E-02  0.1141802E+00
         21   -1    0    0  501  502  0.00000000000E+00  0.00000000000E+00  0.31209309517E+03  0.31209309517E+03  0.00000000000E+00 0. -1.
         21   -1    0    0  502  503 -0.00000000000E+00 -0.00000000000E+00 -0.22461460848E+03  0.22461460848E+03  0.00000000000E+00 0. -1.
          6    1    1    2  501    0 -0.11029810478E+03 -0.47171870104E+02  0.20756479740E+03  0.29505593091E+03  0.17200000000E+03 0. -1.
         -6    1    1    2    0  503  0.11029810478E+03  0.47171870104E+02 -0.12008631071E+03  0.24165177274E+03  0.17200000000E+03 0. -1.
</event>
<event>
 4    1  0.4440728E+000  0.1810846E+03  0.7818608E-02  0.1166757E+00
         21   -1    0    0  503  502  0.00000000000E+00  0.00000000000E+00  0.54528693080E+03  0.54528693080E+03  0.00000000000E+00 0.  1.
         21   -1    0    0  501  503 -0.00000000000E+00 -0.00000000000E+00 -0.76306599029E+02  0.76306599029E+02  0.00000000000E+00 0.  1.
          6    1    1    2  501    0 -0.55127648877E+02 -0.12984132715E+02  0.91419093194E+02  0.20285239948E+03  0.17200000000E+03 0.  1.
         -6    1    1    2    0  502  0.55127648877E+02  0.12984132715E+02  0.37756123858E+03  0.41874113035E+03  0.17200000000E+03 0.  1.
</event>
<event>
 4    1  0.4440728E+000  0.1793389E+03  0.7818608E-02  0.1168444E+00
         21   -1    0    0  503  502  0.00000000000E+00  0.00000000000E+00  0.83918204494E+03  0.83918204494E+03  0.00000000000E+00 0. -1.
         21   -1    0    0  501  503 -0.00000000000E+00 -0.00000000000E+00 -0.42468397384E+02  0.42468397384E+02  0.00000000000E+00 0. -1.
          6    1    1    2  501    0  0.48104512031E+02  0.16260345293E+02  0.26067950969E+03  0.31641151951E+03  0.17200000000E+03 0. -1.
         -6    1    1    2    0  502 -0.48104512031E+02 -0.16260345293E+02  0.53603413786E+03  0.56523892281E+03  0.17200000000E+03 0. -1.
</event>
<event>
 4    1  0.4440728E+000  0.2346226E+03  0.7818608E-02  0.1123428E+00
         21   -1    0    0  501  502  0.00000000000E+00  0.00000000000E+00  0.57676623545E+03  0.57676623545E+03  0.00000000000E+00 0.  1.
         21   -1    0    0  502  503 -0.00000000000E+00 -0.00000000000E+00 -0.10084731981E+03  0.10084731981E+03  0.00000000000E+00 0. -1.
          6    1    1    2  501    0 -0.14824768611E+03  0.59045487934E+02  0.31639790761E+03  0.39389767963E+03  0.17200000000E+03 0.  1.
         -6    1    1    2    0  503  0.14824768611E+03 -0.59045487934E+02  0.15952100803E+03  0.28371587563E+03  0.17200000000E+03 0. -1.
</event>
<event>
 4    1  0.4440728E+000  0.2148452E+03  0.7818608E-02  0.1137786E+00
         21   -1    0    0  501  502  0.00000000000E+00  0.00000000000E+00  0.16480597697E+03  0.16480597697E+03  0.00000000000E+00 0. -1.
         21   -1    0    0  502  503 -0.00000000000E+00 -0.00000000000E+00 -0.57016602254E+03  0.57016602254E+03  0.00000000000E+00 0. -1.
          6    1    1    2  501    0 -0.80418828742E+02  0.10053491577E+03  0.59443112197E+02  0.22291689235E+03  0.17200000000E+03 0. -1.
         -6    1    1    2    0  503  0.80418828742E+02 -0.10053491577E+03 -0.46480315777E+03  0.51205510717E+03  0.17200000000E+03 0. -1.
</event>
<event>
 4    1  0.4440728E+000  0.2228886E+03  0.7818608E-02  0.1131748E+00
         21   -1    0    0  503  502  0.00000000000E+00  0.00000000000E+00  0.19696963688E+04  0.19696963688E+04  0.00000000000E+00 0. -1.
         21   -1    0    0  501  503 -0.00000000000E+00 -0.00000000000E+00 -0.26256232913E+02  0.26256232913E+02  0.00000000000E+00 0. -1.
          6    1    1    2  501    0  0.60879680790E+02  0.12801954626E+03  0.11698041857E+04  0.11908489294E+04  0.17200000000E+03 0. -1.
         -6    1    1    2    0  502 -0.60879680790E+02 -0.12801954626E+03  0.77363595014E+03  0.80510367228E+03  0.17200000000E+03 0. -1.
</event>
<event>
 4    1  0.4440728E+000  0.2785369E+03  0.7818608E-02  0.1096491E+00
         21   -1    0    0  503  502  0.00000000000E+00  0.00000000000E+00  0.10815277785E+04  0.10815277785E+04  0.00000000000E+00 0.  1.
         21   -1    0    0  501  503 -0.00000000000E+00 -0.00000000000E+00 -0.88593817736E+02  0.88593817736E+02  0.00000000000E+00 0. -1.
          6    1    1    2  501    0 -0.18027114790E+02 -0.21834332404E+03  0.24124379361E+03  0.36848521270E+03  0.17200000000E+03 0. -1.
         -6    1    1    2    0  502  0.18027114790E+02  0.21834332404E+03  0.75169016717E+03  0.80163638356E+03  0.17200000000E+03 0.  1.
</event>
<event>
 4    1  0.4440728E+000  0.2038567E+03  0.7818608E-02  0.1146525E+00
         21   -1    0    0  501  502  0.00000000000E+00  0.00000000000E+00  0.57882951367E+03  0.57882951367E+03  0.00000000000E+00 0.  1.
         21   -1    0    0  502  503 -0.00000000000E+00 -0.00000000000E+00 -0.81857689100E+02  0.81857689100E+02  0.00000000000E+00 0.  1.
          6    1    1    2  501    0  0.25402271568E+02  0.10643430428E+03  0.36430379045E+03  0.41746231957E+03  0.17200000000E+03 0. -1.
         -6    1    1    2    0  503 -0.25402271568E+02 -0.10643430428E+03  0.13266803412E+03  0.24322488320E+03  0.17200000000E+03 0. -1.
</event>
<event>
 4    1  0.4440728E+000  0.2432584E+03  0.7818608E-02  0.1117641E+00
         21   -1    0    0  501  502  0.00000000000E+00  0.00000000000E+00  0.56217857706E+02  0.56217857706E+02  0.00000000000E+00 0.  1.
         21   -1    0    0  502  503 -0.00000000000E+00 -0.00000000000E+00 -0.12246828387E+04  0.12246828387E+04  0.00000000000E+00 0. -1.
          6    1    1    2  501    0 -0.77473047375E+02 -0.15358575113E+03 -0.34415674329E+03  0.42144812251E+03  0.17200000000E+03 0. -1.
         -6    1    1    2    0  503  0.77473047375E+02  0.15358575113E+03 -0.82430823772E+03  0.85945257390E+03  0.17200000000E+03 0. -1.
</event>
<event>
 4    1  0.4440728E+000  0.1894891E+03  0.7818608E-02  0.1158923E+00
         21   -1    0    0  501  502  0.00000000000E+00  0.00000000000E+00  0.20037699758E+03  0.20037699758E+03  0.00000000000E+00 0. -1.
         21   -1    0    0  502  503 -0.00000000000E+00 -0.00000000000E+00 -0.18210125243E+03  0.18210125243E+03  0.00000000000E+00 0. -1.
          6    1    1    2  501    0  0.14216896460E+02 -0.78230421739E+02  0.33306381440E+02  0.19239395540E+03  0.17200000000E+03 0. -1.
         -6    1    1    2    0  503 -0.14216896460E+02  0.78230421739E+02 -0.15030636293E+02  0.19008429461E+03  0.17200000000E+03 0. -1.
</event>
<event>
 4    1  0.4440728E+000  0.2499029E+03  0.7818608E-02  0.1113366E+00
         21   -1    0    0  503  502  0.00000000000E+00  0.00000000000E+00  0.45744378751E+03  0.45744378751E+03  0.00000000000E+00 0.  1.
         21   -1    0    0  501  503 -0.00000000000E+00 -0.00000000000E+00 -0.14055161053E+03  0.14055161053E+03  0.00000000000E+00 0.  1.
          6    1    1    2  501    0 -0.45490948751E+01  0.18123680677E+03  0.10782375467E+03  0.27217170401E+03  0.17200000000E+03 0.  1.
         -6    1    1    2    0  502  0.45490948751E+01 -0.18123680677E+03  0.20906842231E+03  0.32582369404E+03  0.17200000000E+03 0.  1.
</event>
<event>
 4    1  0.4440728E+000  0.2056481E+03  0.7818608E-02  0.1145059E+00
         21   -1    0    0  501  502  0.00000000000E+00  0.00000000000E+00  0.45529329558E+03  0.45529329558E+03  0.00000000000E+00 0. -1.
         21   -1    0    0  502  503 -0.00000000000E+00 -0.00000000000E+00 -0.10890118473E+03  0.10890118473E+03  0.00000000000E+00 0. -1.
          6    1    1    2  501    0 -0.56299868356E+02  0.97659962941E+02  0.28137072189E+03  0.34851201798E+03  0.17200000000E+03 0. -1.
         -6    1    1    2    0  503  0.56299868356E+02 -0.97659962941E+02  0.65021388965E+02  0.21568246234E+03  0.17200000000E+03 0. -1.
</event>
<event>
 4    1  0.4440728E+000  0.3751167E+03  0.7818608E-02  0.1052754E+00
         21   -1    0    0  503  502  0.00000000000E+00  0.00000000000E+00  0.74047750862E+03  0.74047750862E+03  0.00000000000E+00 0. -1.
         21   -1    0    0  501  503 -0.00000000000E+00 -0.00000000000E+00 -0.45994186741E+03  0.45994186741E+03  0.00000000000E+00 0.  1.
          6    1    1    2  501    0  0.20628610515E+03  0.26186741759E+03 -0.31952585824E+03  0.49275681189E+03  0.17200000000E+03 0.  1.
         -6    1    1    2    0  502 -0.20628610515E+03 -0.26186741759E+03  0.60006149945E+03  0.70766256415E+03  0.17200000000E+03 0. -1.
</event>
<event>
 4    1  0.4440728E+000  0.2017604E+03  0.7818608E-02  0.1148262E+00
         21   -1    0    0  503  502  0.00000000000E+00  0.00000000000E+00  0.19723148515E+04  0.19723148515E+04  0.00000000000E+00 0. -1.
         21   -1    0    0  501  503 -0.00000000000E+00 -0.00000000000E+00 -0.24736727700E+02  0.24736727700E+02  0.00000000000E+00 0.  1.
          6    1    1    2  501    0 -0.97187105818E+02 -0.40962334406E+02  0.56739953301E+03  0.60220384957E+03  0.17200000000E+03 0.  1.
         -6    1    1    2    0  502  0.97187105818E+02  0.40962334406E+02  0.13801785907E+04  0.13948477296E+04  0.17200000000E+03 0.  1.
</event>
<event>
 4    1  0.4440728E+000  0.2059822E+03  0.7818608E-02  0.1144788E+00
         21   -1    0    0  501  502  0.00000000000E+00  0.00000000000E+00  0.44809961524E+03  0.44809961524E+03  0.00000000000E+00 0. -1.
         21   -1    0    0  502  503 -0.00000000000E+00 -0.00000000000E+00 -0.22367563335E+03  0.22367563335E+03  0.00000000000E+00 0. -1.
          6    1    1    2  501    0  0.73149349513E+02 -0.86566950671E+02  0.36728378051E+03  0.42110098517E+03  0.17200000000E+03 0. -1.
         -6    1    1    2    0  503 -0.73149349513E+02  0.86566950671E+02 -0.14285979862E+03  0.25067426343E+03  0.17200000000E+03 0. -1.
</event>
<event>
 4    1  0.4440728E+000  0.2209699E+03  0.7818608E-02  0.1133162E+00
         21   -1    0    0  501  502  0.00000000000E+00  0.00000000000E+00  0.25647717237E+03  0.25647717237E+03  0.00000000000E+00 0. -1.
         21   -1    0    0  502  503 -0.00000000000E+00 -0.00000000000E+00 -0.63597977105E+03  0.63597977105E+03  0.00000000000E+00 0.  1.
          6    1    1    2  501    0 -0.13000384298E+03  0.48401529867E+02  0.18376443184E+03  0.28739706625E+03  0.17200000000E+03 0. -1.
         -6    1    1    2    0  503  0.13000384298E+03 -0.48401529867E+02 -0.56326703052E+03  0.60505987717E+03  0.17200000000E+03 0.  1.
</event>
<event>
 4    1  0.4440728E+000  0.2866962E+03  0.7818608E-02  0.1092087E+00
         21   -1    0    0  501  502  0.00000000000E+00  0.00000000000E+00  0.96541400610E+03  0.96541400610E+03  0.00000000000E+00 0.  1.
         21   -1    0    0  502  503 -0.00000000000E+00 -0.00000000000E+00 -0.85227886556E+02  0.85227886556E+02  0.00000000000E+00 0.  1.
          6    1    1    2  501    0  0.22916421266E+03  0.97194192670E+01  0.45702628107E+03  0.53950692773E+03  0.17200000000E+03 0.  1.
         -6    1    1    2    0  503 -0.22916421266E+03 -0.97194192670E+01  0.42315983847E+03  0.51113496493E+03  0.17200000000E+03 0.  1.
</event>
<event>
 4    1  0.4440728E+000  0.1916862E+03  0.7818608E-02  0.1156949E+00
         21   -1    0    0  503  502  0.00000000000E+00  0.00000000000E+00  0.90897158640E+02  0.90897158640E+02  0.00000000000E+00 0.  1.
         21   -1    0    0  501  503 -0.00000000000E+00 -0.00000000000E+00 -0.49907187475E+03  0.49907187475E+03  0.00000000000E+00 0.  1.
          6    1    1    2  501    0 -0.37838755120E+02  0.75682358426E+02 -0.75495969446E+02  0.20601755306E+03  0.17200000000E+03 0.  1.
         -6    1    1    2    0  502  0.37838755120E+02 -0.75682358426E+02 -0.33267874667E+03  0.38395148033E+03  0.17200000000E+03 0.  1.
</event>
<event>
 4    1  0.4440728E+000  0.2241524E+03  0.7818608E-02  0.1130825E+00
         21   -1    0    0  501  502  0.00000000000E+00  0.00000000000E+00  0.12455376034E+04  0.12455376034E+04  0.00000000000E+00 0. -1.
         21   -1    0    0  502  503 -0.00000000000E+00 -0.00000000000E+00 -0.86442090806E+02  0.86442090806E+02  0.00000000000E+00 0. -1.
          6    1    1    2  501    0  0.28017277487E+02 -0.14097986808E+03  0.10659190334E+04  0.10892326091E+04  0.17200000000E+03 0. -1.
         -6    1    1    2    0  503 -0.28017277487E+02  0.14097986808E+03  0.93176479216E+02  0.24274708509E+03  0.17200000000E+03 0. -1.
</event>
<event>
 4    1  0.4440728E+000  0.1723494E+03  0.7818608E-02  0.1175420E+00
         21   -1    0    0  503  502  0.00000000000E+00  0.00000000000E+00  0.14529517190E+03  0.14529517190E+03  0.00000000000E+00 0.  1.
         21   -1    0    0  501  503 -0.00000000000E+00 -0.00000000000E+00 -0.82002665747E+03  0.82002665747E+03  0.00000000000E+00 0.  1.
          6    1    1    2  501    0 -0.92632877585E+01 -0.58757243761E+01 -0.75555443911E+03  0.77496247851E+03  0.17200000000E+03 0.  1.
         -6    1    1    2    0  502  0.92632877585E+01  0.58757243761E+01  0.80822953553E+02  0.19035935086E+03  0.17200000000E+03 0.  1.
</event>
<event>
 4    1  0.4440728E+000  0.2254458E+03  0.7818608E-02  0.1129887E+00
         21   -1    0    0  501  502  0.00000000000E+00  0.00000000000E+00  0.23600082970E+03  0.23600082970E+03  0.00000000000E+00 0.  1.
         21   -1    0    0  502  503 -0.00000000000E+00 -0.00000000000E+00 -0.10778141728E+04  0.10778141728E+04  0.00000000000E+00 0.  1.
          6    1    1    2  501    0  0.29354903850E+02  0.14275884683E+03  0.16671741052E+03  0.28039346230E+03  0.17200000000E+03 0.  1.
         -6    1    1    2    0  503 -0.29354903850E+02 -0.14275884683E+03 -0.10085307536E+04  0.10334215402E+04  0.17200000000E+03 0.  1.
</event>
<event>
 4    1  0.4440728E+000  0.1899432E+03  0.7818608E-02  0.1158513E+00
         21   -1    0    0  503  502  0.00000000000E+00  0.00000000000E+00  0.60995021024E+02  0.60995021024E+02  0.00000000000E+00 0. -1.
         21   -1    0    0  501  503 -0.00000000000E+00 -0.00000000000E+00 -0.86857002995E+03  0.86857002995E+03  0.00000000000E+00 0. -1.
          6    1    1    2  501    0 -0.64935542938E+02 -0.47726125980E+02 -0.66629640762E+03  0.69284147584E+03  0.17200000000E+03 0. -1.
         -6    1    1    2    0  502  0.64935542938E+02  0.47726125980E+02 -0.14127860131E+03  0.23672357514E+03  0.17200000000E+03 0. -1.
</event>
<event>
 4    1  0.4440728E+000  0.2081666E+03  0.7818608E-02  0.1143026E+00
         21   -1    0    0  501  502  0.00000000000E+00  0.00000000000E+00  0.11371575330E+04  0.11371575330E+04  0.00000000000E+00 0.  1.
         21   -1    0    0  502  503 -0.00000000000E+00 -0.00000000000E+00 -0.38525937816E+02  0.38525937816E+02  0.00000000000E+00 0. -1.
          6    1    1    2  501    0 -0.61781045814E+02  0.99661505971E+02  0.61063796265E+03  0.64514497194E+03  0.17200000000E+03 0.  1.
         -6    1    1    2    0  503  0.61781045814E+02 -0.99661505971E+02  0.48799363255E+03  0.53053849889E+03  0.17200000000E+03 0. -1.
</event>
<event>
 4    1  0.4440728E+000  0.1755612E+03  0.7818608E-02  0.1172169E+00
         21   -1    0    0  503  502  0.00000000000E+00  0.00000000000E+00  0.71079181778E+02  0.71079181778E+02  0.00000000000E+00 0. -1.
         21   -1    0    0  501  503 -0.00000000000E+00 -0.00000000000E+00 -0.43949576785E+03  0.43949576785E+03  0.00000000000E+00 0. -1.
          6    1    1    2  501    0  0.26221400659E+02 -0.23456022559E+02 -0.15470431740E+03  0.23399823219E+03  0.17200000000E+03 0. -1.
         -6    1    1    2    0  502 -0.26221400659E+02  0.23456022559E+02 -0.21371226867E+03  0.27657671744E+03  0.17200000000E+03 0. -1.
</event>
<event>
 4    1  0.4440728E+000  0.1753399E+03  0.7818608E-02  0.1172391E+00
         21   -1    0    0  503  502  0.00000000000E+00  0.00000000000E+00  0.41469105311E+03  0.41469105311E+03  0.00000000000E+00 0.  1.
         21   -1    0    0  501  503 -0.00000000000E+00 -0.00000000000E+00 -0.11264678010E+03  0.11264678010E+03  0.00000000000E+00 0.  1.
          6    1    1    2  501    0  0.24827721702E+02 -0.23316405982E+02  0.30518630041E+03  0.35196981193E+03  0.17200000000E+03 0.  1.
         -6    1    1    2    0  502 -0.24827721702E+02  0.23316405982E+02 -0.31420273978E+01  0.17536802128E+03  0.17200000000E+03 0.  1.
</event>
<event>
 4    1  0.4440728E+000  0.1903372E+03  0.7818608E-02  0.1158158E+00
         21   -1    0    0  503  502  0.00000000000E+00  0.00000000000E+00  0.18573824432E+02  0.18573824432E+02  0.00000000000E+00 0.  1.
         21   -1    0    0  501  503 -0.00000000000E+00 -0.00000000000E+00 -0.19589818812E+04  0.19589818812E+04  0.00000000000E+00 0.  1.
          6    1    1    2  501    0 -0.76030347201E+02 -0.29387380297E+02 -0.90513906784E+03  0.92493511337E+03  0.17200000000E+03 0.  1.
         -6    1    1    2    0  502  0.76030347201E+02  0.29387380297E+02 -0.10352689889E+04  0.10526205923E+04  0.17200000000E+03 0.  1.
</event>
<event>
 4    1  0.4440728E+000  0.1767973E+03  0.7818608E-02  0.1170939E+00
         21   -1    0    0  503  502  0.00000000000E+00  0.00000000000E+00  0.99854151486E+03  0.99854151486E+03  0.00000000000E+00 0.  1.
         21   -1    0    0  501  503 -0.00000000000E+00 -0.00000000000E+00 -0.54212060602E+02  0.54212060602E+02  0.00000000000E+00 0.  1.
          6    1    1    2  501    0 -0.39375719507E+02  0.11083599137E+02  0.12998608225E+03  0.21943945642E+03  0.17200000000E+03 0.  1.
         -6    1    1    2    0  502  0.39375719507E+02 -0.11083599137E+02  0.81434337201E+03  0.83331411904E+03  0.17200000000E+03 0.  1.
</event>
<event>
 4    1  0.4440728E+000  0.2147217E+03  0.7818608E-02  0.1137881E+00
         21   -1    0    0  503  502  0.00000000000E+00  0.00000000000E+00  0.22087687152E+03  0.22087687152E+03  0.00000000000E+00 0. -1.
         21   -1    0    0  501  503 -0.00000000000E+00 -0.00000000000E+00 -0.32541306549E+03  0.32541306549E+03  0.00000000000E+00 0. -1.
          6    1    1    2  501    0 -0.10989778048E+03 -0.66662513907E+02  0.11128719455E+03  0.24184758131E+03  0.17200000000E+03 0. -1.
         -6    1    1    2    0  502  0.10989778048E+03  0.66662513907E+02 -0.21582338852E+03  0.30444235570E+03  0.17200000000E+03 0. -1.
</event>
<event>
 4    1  0.4440728E+000  0.3630181E+03  0.7818608E-02  0.1057395E+00
         21   -1    0    0  501  502  0.00000000000E+00  0.00000000000E+00  0.68237105832E+02  0.68237105832E+02  0.00000000000E+00 0. -1.
         21   -1    0    0  502  503 -0.00000000000E+00 -0.00000000000E+00 -0.23634426419E+04  0.23634426419E+04  0.00000000000E+00 0.  1.
          6    1    1    2  501    0 -0.31392840973E+03  0.60391028180E+02 -0.62766862888E+03  0.72508622273E+03  0.17200000000E+03 0. -1.
         -6    1    1    2    0  503  0.31392840973E+03 -0.60391028180E+02 -0.16675369072E+04  0.17065935250E+04  0.17200000000E+03 0.  1.
</event>
<event>
 4    1  0.4440728E+000  0.2055556E+03  0.7818608E-02  0.1145135E+00
         21   -1    0    0  503  502  0.00000000000E+00  0.00000000000E+00  0.10695795699E+04  0.10695795699E+04  0.00000000000E+00 0.  1.
         21   -1    0    0  501  503 -0.00000000000E+00 -0.00000000000E+00 -0.55023575269E+02  0.55023575269E+02  0.00000000000E+00 0.  1.
          6    1    1    2  501    0  0.10978786720E+03  0.24814151868E+02  0.20865106797E+03  0.29289654502E+03  0.17200000000E+03 0.  1.
         -6    1    1    2    0  502 -0.10978786720E+03 -0.24814151868E+02  0.80590492666E+03  0.83170660015E+03  0.17200000000E+03 0.  1.
</event>
<event>
 4    1  0.4440728E+000  0.2432088E+03  0.7818608E-02  0.1117674E+00
         21   -1    0    0  503  502  0.00000000000E+00  0.00000000000E+00  0.23363170546E+03  0.23363170546E+03  0.00000000000E+00 0.  1.
         21   -1    0    0  501  503 -0.00000000000E+00 -0.00000000000E+00 -0.51960673257E+03  0.51960673257E+03  0.00000000000E+00 0. -1.
          6    1    1    2  501    0 -0.10521556886E+03 -0.13600068213E+03 -0.41267158535E+03  0.47900766051E+03  0.17200000000E+03 0. -1.
         -6    1    1    2    0  502  0.10521556886E+03  0.13600068213E+03  0.12669655824E+03  0.27423077752E+03  0.17200000000E+03 0.  1.
</event>
<event>
 4    1  0.4440728E+000  0.1834250E+03  0.7818608E-02  0.1164529E+00
         21   -1    0    0  501  502  0.00000000000E+00  0.00000000000E+00  0.94245577895E+02  0.94245577895E+02  0.00000000000E+00 0. -1.
         21   -1    0    0  502  503 -0.00000000000E+00 -0.00000000000E+00 -0.52699800381E+03  0.52699800381E+03  0.00000000000E+00 0. -1.
          6    1    1    2  501    0 -0.13883477357E+01 -0.63708708923E+02 -0.39950394073E+02  0.18772522763E+03  0.17200000000E+03 0. -1.
         -6    1    1    2    0  503  0.13883477357E+01  0.63708708923E+02 -0.39280203185E+03  0.43351835408E+03  0.17200000000E+03 0. -1.
</event>
<event>
 4    1  0.4440728E+000  0.1931489E+03  0.7818608E-02  0.1155652E+00
         21   -1    0    0  501  502  0.00000000000E+00  0.00000000000E+00  0.36452481061E+02  0.36452481061E+02  0.00000000000E+00 0. -1.
         21   -1    0    0  502  503 -0.00000000000E+00 -0.00000000000E+00 -0.12516249081E+04  0.12516249081E+04  0.00000000000E+00 0.  1.
          6    1    1    2  501    0 -0.40983404536E+02  0.77735724216E+02 -0.33258795942E+03  0.38460529509E+03  0.17200000000E+03 0. -1.
         -6    1    1    2    0  503  0.40983404536E+02 -0.77735724216E+02 -0.88258446762E+03  0.90347209406E+03  0.17200000000E+03 0.  1.
</event>
<event>
 4    1  0.4440728E+000  0.1849518E+03  0.7818608E-02  0.1163095E+00
         21   -1    0    0  503  502  0.00000000000E+00  0.00000000000E+00  0.55841749131E+03  0.55841749131E+03  0.00000000000E+00 0. -1.
         21   -1    0    0  501  503 -0.00000000000E+00 -0.00000000000E+00 -0.87050879514E+02  0.87050879514E+02  0.00000000000E+00 0. -1.
          6    1    1    2  501    0 -0.57597914506E+02  0.36133763345E+02  0.60006720094E+02  0.19444272953E+03  0.17200000000E+03 0. -1.
         -6    1    1    2    0  502  0.57597914506E+02 -0.36133763345E+02  0.41135989171E+03  0.45102564130E+03  0.17200000000E+03 0. -1.
</event>
<event>
 4    1  0.4440728E+000  0.2037755E+03  0.7818608E-02  0.1146592E+00
         21   -1    0    0  503  502  0.00000000000E+00  0.00000000000E+00  0.10917522428E+03  0.10917522428E+03  0.00000000000E+00 0.  1.
         21   -1    0    0  501  503 -0.00000000000E+00 -0.00000000000E+00 -0.39775240899E+03  0.39775240899E+03  0.00000000000E+00 0. -1.
          6    1    1    2  501    0  0.10228461937E+03 -0.38448657021E+02 -0.19731042065E+03  0.28364739499E+03  0.17200000000E+03 0. -1.
         -6    1    1    2    0  502 -0.10228461937E+03  0.38448657021E+02 -0.91266764057E+02  0.22328023828E+03  0.17200000000E+03 0.  1.
</event>
<event>
 4    1  0.4440728E+000  0.1753857E+03  0.7818608E-02  0.1172345E+00
         21   -1    0    0  501  502  0.00000000000E+00  0.00000000000E+00  0.14261150381E+03  0.14261150381E+03  0.00000000000E+00 0.  1.
         21   -1    0    0  502  503 -0.00000000000E+00 -0.00000000000E+00 -0.38912314467E+03  0.38912314467E+03  0.00000000000E+00 0.  1.
          6    1    1    2  501    0 -0.62973972646E+01  0.33711839273E+02  0.54238765976E+02  0.18358101496E+03  0.17200000000E+03 0.  1.
         -6    1    1    2    0  503  0.62973972646E+01 -0.33711839273E+02 -0.30075040684E+03  0.34815363352E+03  0.17200000000E+03 0.  1.
</event>
<event>
 4    1  0.4440728E+000  0.2010858E+03  0.7818608E-02  0.1148826E+00
         21   -1    0    0  501  502  0.00000000000E+00  0.00000000000E+00  0.23890728147E+04  0.23890728147E+04  0.00000000000E+00 0. -1.
         21   -1    0    0  502  503 -0.00000000000E+00 -0.00000000000E+00 -0.20884959925E+02  0.20884959925E+02  0.00000000000E+00 0.  1.
          6    1    1    2  501    0 -0.54848695396E+02  0.88561378446E+02  0.17087780426E+04  0.17205690617E+04  0.17200000000E+03 0. -1.
         -6    1    1    2    0  503  0.54848695396E+02 -0.88561378446E+02  0.65940981210E+03  0.68938871287E+03  0.17200000000E+03 0.  1.
</event>
<event>
 4    1  0.4440728E+000  0.1973138E+03  0.7818608E-02  0.1152025E+00
         21   -1    0    0  503  502  0.00000000000E+00  0.00000000000E+00  0.16179463055E+04  0.16179463055E+04  0.00000000000E+00 0. -1.
         21   -1    0    0  501  503 -0.00000000000E+00 -0.00000000000E+00 -0.37161979920E+02  0.37161979920E+02  0.00000000000E+00 0.  1.
          6    1    1    2  501    0 -0.41098296024E+02  0.87519452151E+02  0.29907165966E+03  0.35829677930E+03  0.17200000000E+03 0.  1.
         -6    1    1    2    0  502  0.41098296024E+02 -0.87519452151E+02  0.12817126659E+04  0.12968115061E+04  0.17200000000E+03 0. -1.
</event>
<event>
 4    1  0.4440728E+000  0.1984086E+03  0.7818608E-02  0.1151089E+00
         21   -1    0    0  503  502  0.00000000000E+00  0.00000000000E+00  0.17916511146E+03  0.17916511146E+03  0.00000000000E+00 0. -1.
         21   -1    0    0  501  503 -0.00000000000E+00 -0.00000000000E+00 -0.41367592063E+03  0.41367592063E+03  0.00000000000E+00 0. -1.
          6    1    1    2  501    0  0.69973635577E+02 -0.69897572771E+02 -0.32022489926E+03  0.37670939258E+03  0.17200000000E+03 0. -1.
         -6    1    1    2    0  502 -0.69973635577E+02  0.69897572771E+02  0.85714090088E+02  0.21613163950E+03  0.17200000000E+03 0. -1.
</event>
<event>
 4    1  0.4440728E+000  0.1832675E+03  0.7818608E-02  0.1164678E+00
         21   -1    0    0  501  502  0.00000000000E+00  0.00000000000E+00  0.53948451413E+03  0.53948451413E+03  0.00000000000E+00 0.  1.
         21   -1    0    0  502  503 -0.00000000000E+00 -0.00000000000E+00 -0.12259605226E+03  0.12259605226E+03  0.00000000000E+00 0.  1.
          6    1    1    2  501    0  0.37499275114E+02 -0.50958744027E+02  0.44068573252E+03  0.47727445361E+03  0.17200000000E+03 0.  1.
         -6    1    1    2    0  503 -0.37499275114E+02  0.50958744027E+02 -0.23797270651E+02  0.18480611277E+03  0.17200000000E+03 0.  1.
</event>
<event>
 4    1  0.4440728E+000  0.1740183E+03  0.7818608E-02  0.1173721E+00
         21   -1    0    0  501  502  0.00000000000E+00  0.00000000000E+00  0.92029528327E+03  0.92029528327E+03  0.00000000000E+00 0. -1.
         21   -1    0    0  502  503 -0.00000000000E+00 -0.00000000000E+00 -0.14854057221E+03  0.14854057221E+03  0.00000000000E+00 0. -1.
          6    1    1    2  501    0  0.15217592972E+02 -0.21605654598E+02  0.85740164622E+03  0.87488282780E+03  0.17200000000E+03 0. -1.
         -6    1    1    2    0  503 -0.15217592972E+02  0.21605654598E+02 -0.85646935148E+02  0.19395302768E+03  0.17200000000E+03 0. -1.
</event>
<event>
 4    1  0.4440728E+000  0.2188102E+03  0.7818608E-02  0.1134773E+00
         21   -1    0    0  501  502  0.00000000000E+00  0.00000000000E+00  0.19128074805E+03  0.19128074805E+03  0.00000000000E+00 0.  1.
         21   -1    0    0  502  503 -0.00000000000E+00 -0.00000000000E+00 -0.25134194360E+03  0.25134194360E+03  0.00000000000E+00 0.  1.
          6    1    1    2  501    0 -0.13205749462E+03  0.29235587318E+02 -0.15793114620E+02  0.21937940633E+03  0.17200000000E+03 0.  1.
         -6    1    1    2    0  503  0.13205749462E+03 -0.29235587318E+02 -0.44268080928E+02  0.22324328532E+03  0.17200000000E+03 0.  1.
</event>
<event>
 4    1  0.4440728E+000  0.1895229E+03  0.7818608E-02  0.1158892E+00
         21   -1    0    0  503  502  0.00000000000E+00  0.00000000000E+00  0.19319676892E+03  0.19319676892E+03  0.00000000000E+00 0. -1.
         21   -1    0    0  501  503 -0.00000000000E+00 -0.00000000000E+00 -0.20816353639E+03  0.20816353639E+03  0.00000000000E+00 0. -1.
          6    1    1    2  501    0 -0.96596615226E+01 -0.79003878882E+02  0.58118331611E+02  0.19823385788E+03  0.17200000000E+03 0. -1.
         -6    1    1    2    0  502  0.96596615226E+01  0.79003878882E+02 -0.73085099085E+02  0.20312644743E+03  0.17200000000E+03 0. -1.
</event>
<event>
 4    1  0.4440728E+000  0.2339682E+03  0.7818608E-02  0.1123878E+00
         21   -1    0    0  503  502  0.00000000000E+00  0.00000000000E+00  0.59859398905E+03  0.59859398905E+03  0.00000000000E+00 0.  1.
         21   -1    0    0  501  503 -0.00000000000E+00 -0.00000000000E+00 -0.11114367293E+03  0.11114367293E+03  0.00000000000E+00 0.  1.
          6    1    1    2  501    0 -0.12337807201E+03  0.99674207185E+02  0.94344346934E+02  0.25227356586E+03  0.17200000000E+03 0.  1.
         -6    1    1    2    0  502  0.12337807201E+03 -0.99674207185E+02  0.39310596918E+03  0.45746409612E+03  0.17200000000E+03 0.  1.
</event>
<event>
 4    1  0.4440728E+000  0.1979780E+03  0.7818608E-02  0.1151456E+00
         21   -1    0    0  503  502  0.00000000000E+00  0.00000000000E+00  0.43244041692E+03  0.43244041692E+03  0.00000000000E+00 0.  1.
         21   -1    0    0  501  503 -0.00000000000E+00 -0.00000000000E+00 -0.38238787453E+03  0.38238787453E+03  0.00000000000E+00 0.  1.
          6    1    1    2  501    0  0.35508918270E+02  0.91380451040E+02 -0.33084246974E+03  0.38555415948E+03  0.17200000000E+03 0.  1.
         -6    1    1    2    0  502 -0.35508918270E+02 -0.91380451040E+02  0.38089501213E+03  0.42927413197E+03  0.17200000000E+03 0.  1.
</event>
<event>
 4    1  0.4440728E+000  0.1789339E+03  0.7818608E-02  0.1168839E+00
         21   -1    0    0  501  502  0.00000000000E+00  0.00000000000E+00  0.15293586611E+03  0.15293586611E+03  0.00000000000E+00 0. -1.
         21   -1    0    0  502  503 -0.00000000000E+00 -0.00000000000E+00 -0.51242570288E+03  0.51242570288E+03  0.00000000000E+00 0. -1.
          6    1    1    2  501    0 -0.49328989499E+02  0.63010370307E-01  0.76105863802E+02  0.19444653682E+03  0.17200000000E+03 0. -1.
         -6    1    1    2    0  503  0.49328989499E+02 -0.63010370307E-01 -0.43559570057E+03  0.47091503218E+03  0.17200000000E+03 0. -1.
</event>
<event>
 4    1  0.4440728E+000  0.2141789E+03  0.7818608E-02  0.1138299E+00
         21   -1    0    0  503  502  0.00000000000E+00  0.00000000000E+00  0.18004280427E+03  0.18004280427E+03  0.00000000000E+00 0.  1.
         21   -1    0    0  501  503 -0.00000000000E+00 -0.00000000000E+00 -0.47332512883E+03  0.47332512883E+03  0.00000000000E+00 0. -1.
          6    1    1    2  501    0 -0.10608228690E+03  0.70958801713E+02  0.75337609573E+02  0.22704263597E+03  0.17200000000E+03 0.  1.
         -6    1    1    2    0  502  0.10608228690E+03 -0.70958801713E+02 -0.36861993413E+03  0.42632529713E+03  0.17200000000E+03 0. -1.
</event>
<event>
 4    1  0.4440728E+000  0.3149500E+03  0.7818608E-02  0.1077997E+00
         21   -1    0    0  503  502  0.00000000000E+00  0.00000000000E+00  0.52115470916E+03  0.52115470916E+03  0.00000000000E+00 0.  1.
         21   -1    0    0  501  503 -0.00000000000E+00 -0.00000000000E+00 -0.46463298050E+03  0.46463298050E+03  0.00000000000E+00 0. -1.
          6    1    1    2  501    0 -0.18734659921E+03  0.18577076310E+03 -0.35045227853E+03  0.47117971538E+03  0.17200000000E+03 0. -1.
         -6    1    1    2    0  502  0.18734659921E+03 -0.18577076310E+03  0.40697400719E+03  0.51460797428E+03  0.17200000000E+03 0.  1.
</event>
<event>
 4    1  0.4440728E+000  0.2340928E+03  0.7818608E-02  0.1123792E+00
         21   -1    0    0  501  502  0.00000000000E+00  0.00000000000E+00  0.29200505494E+03  0.29200505494E+03  0.00000000000E+00 0.  1.
         21   -1    0    0  502  503 -0.00000000000E+00 -0.00000000000E+00 -0.21586652872E+03  0.21586652872E+03  0.00000000000E+00 0.  1.
          6    1    1    2  501    0  0.56314199244E+02  0.14847273505E+03  0.12985164501E+03  0.26769552070E+03  0.17200000000E+03 0.  1.
         -6    1    1    2    0  503 -0.56314199244E+02 -0.14847273505E+03 -0.53713118794E+02  0.24017606296E+03  0.17200000000E+03 0.  1.
</event>
<event>
 4    1  0.4440728E+000  0.2821030E+03  0.7818608E-02  0.1094546E+00
         21   -1    0    0  503  502  0.00000000000E+00  0.00000000000E+00  0.28999551852E+03  0.28999551852E+03  0.00000000000E+00 0.  1.
         21   -1    0    0  501  503 -0.00000000000E+00 -0.00000000000E+00 -0.66650207966E+03  0.66650207966E+03  0.00000000000E+00 0. -1.
          6    1    1    2  501    0  0.68991868350E+02  0.21269277708E+03 -0.55506121183E+03  0.62263556291E+03  0.17200000000E+03 0. -1.
         -6    1    1    2    0  502 -0.68991868350E+02 -0.21269277708E+03  0.17855465068E+03  0.33386203528E+03  0.17200000000E+03 0.  1.
</event>
<event>
 4    1  0.4440728E+000  0.1971595E+03  0.7818608E-02  0.1152158E+00
         21   -1    0    0  501  502  0.00000000000E+00  0.00000000000E+00  0.20817672803E+04  0.20817672803E+04  0.00000000000E+00 0.  1.
         21   -1    0    0  502  503 -0.00000000000E+00 -0.00000000000E+00 -0.18745839856E+02  0.18745839856E+02  0.00000000000E+00 0.  1.
          6    1    1    2  501    0 -0.85023385838E+02 -0.45374902829E+02  0.10971902290E+04  0.11147637672E+04  0.17200000000E+03 0.  1.
         -6    1    1    2    0  503  0.85023385838E+02  0.45374902829E+02  0.96583121146E+03  0.98574935302E+03  0.17200000000E+03 0.  1.
</event>
<event>
 4    1  0.4440728E+000  0.2027890E+03  0.7818608E-02  0.1147407E+00
         21   -1    0    0  501  502  0.00000000000E+00  0.00000000000E+00  0.16182713472E+04  0.16182713472E+04  0.00000000000E+00 0. -1.
         21   -1    0    0  502  503 -0.00000000000E+00 -0.00000000000E+00 -0.27414285637E+02  0.27414285637E+02  0.00000000000E+00 0. -1.
          6    1    1    2  501    0 -0.56028258447E+02  0.91652655062E+02  0.10178110174E+04  0.10378162853E+04  0.17200000000E+03 0. -1.
         -6    1    1    2    0  503  0.56028258447E+02 -0.91652655062E+02  0.57304604414E+03  0.60786934750E+03  0.17200000000E+03 0. -1.
</event>
<event>
 4    1  0.4440728E+000  0.2738499E+03  0.7818608E-02  0.1099096E+00
         21   -1    0    0  501  502  0.00000000000E+00  0.00000000000E+00  0.56955779179E+02  0.56955779179E+02  0.00000000000E+00 0.  1.
         21   -1    0    0  502  503 -0.00000000000E+00 -0.00000000000E+00 -0.13676495034E+04  0.13676495034E+04  0.00000000000E+00 0.  1.
          6    1    1    2  501    0 -0.15042193106E+03  0.15094046446E+03 -0.51786698322E+03  0.58581566509E+03  0.17200000000E+03 0.  1.
         -6    1    1    2    0  503  0.15042193106E+03 -0.15094046446E+03 -0.79282674099E+03  0.83878961748E+03  0.17200000000E+03 0.  1.
</event>
<event>
 4    1  0.4440728E+000  0.3103948E+03  0.7818608E-02  0.1080157E+00
         21   -1    0    0  501  502  0.00000000000E+00  0.00000000000E+00  0.10799886491E+04  0.10799886491E+04  0.00000000000E+00 0. -1.
         21   -1    0    0  502  503 -0.00000000000E+00 -0.00000000000E+00 -0.96194721372E+02  0.96194721372E+02  0.00000000000E+00 0.  1.
          6    1    1    2  501    0 -0.22839304196E+03  0.12082027817E+03  0.65037493166E+03  0.72064725974E+03  0.17200000000E+03 0. -1.
         -6    1    1    2    0  503  0.22839304196E+03 -0.12082027817E+03  0.33341899602E+03  0.45553611069E+03  0.17200000000E+03 0.  1.
</event>
<event>
 4    1  0.4440728E+000  0.2066615E+03  0.7818608E-02  0.1144237E+00
         21   -1    0    0  503  502  0.00000000000E+00  0.00000000000E+00  0.38678489150E+03  0.38678489150E+03  0.00000000000E+00 0.  1.
         21   -1    0    0  501  503 -0.00000000000E+00 -0.00000000000E+00 -0.11133912844E+03  0.11133912844E+03  0.00000000000E+00 0. -1.
          6    1    1    2  501    0 -0.62915078129E+02 -0.95742749397E+02  0.16034605473E+03  0.26157186084E+03  0.17200000000E+03 0.  1.
         -6    1    1    2    0  502  0.62915078129E+02  0.95742749397E+02  0.11509970833E+03  0.23655215910E+03  0.17200000000E+03 0.  1.
</event>
<event>
 4    1  0.4440728E+000  0.2108606E+03  0.7818608E-02  0.1140886E+00
         21   -1    0    0  501  502  0.00000000000E+00  0.00000000000E+00  0.89819381662E+03  0.89819381662E+03  0.00000000000E+00 0.  1.
         21   -1    0    0  502  503 -0.00000000000E+00 -0.00000000000E+00 -0.49588047159E+02  0.49588047159E+02  0.00000000000E+00 0. -1.
          6    1    1    2  501    0 -0.96004078861E+02 -0.75242328964E+02  0.44406879397E+03  0.49158853221E+03  0.17200000000E+03 0. -1.
         -6    1    1    2    0  503  0.96004078861E+02  0.75242328964E+02  0.40453697550E+03  0.45619333157E+03  0.17200000000E+03 0. -1.
</event>
<event>
 4    1  0.4440728E+000  0.1872690E+03  0.7818608E-02  0.1160948E+00
         21   -1    0    0  503  502  0.00000000000E+00  0.00000000000E+00  0.61010268872E+02  0.61010268872E+02  0.00000000000E+00 0. -1.
         21   -1    0    0  501  503 -0.00000000000E+00 -0.00000000000E+00 -0.70236938391E+03  0.70236938391E+03  0.00000000000E+00 0. -1.
          6    1    1    2  501    0  0.13829719402E+02 -0.72762808570E+02 -0.48333685286E+03  0.51834756755E+03  0.17200000000E+03 0. -1.
         -6    1    1    2    0  502 -0.13829719402E+02  0.72762808570E+02 -0.15802226217E+03  0.24503208523E+03  0.17200000000E+03 0. -1.
</event>
<event>
 4    1  0.4440728E+000  0.2308939E+03  0.7818608E-02  0.1126012E+00
         21   -1    0    0  503  502  0.00000000000E+00  0.00000000000E+00  0.13917837940E+03  0.13917837940E+03  0.00000000000E+00 0. -1.
         21   -1    0    0  501  503 -0.00000000000E+00 -0.00000000000E+00 -0.80112028519E+03  0.80112028519E+03  0.00000000000E+00 0. -1.
          6    1    1    2  501    0 -0.15402688121E+03 -0.19279371495E+01 -0.67060612510E+03  0.70924225206E+03  0.17200000000E+03 0. -1.
         -6    1    1    2    0  502  0.15402688121E+03  0.19279371495E+01  0.86642193094E+01  0.23105641253E+03  0.17200000000E+03 0. -1.
</event>
<event>
 4    1  0.4440728E+000  0.2131735E+03  0.7818608E-02  0.1139077E+00
         21   -1    0    0  501  502  0.00000000000E+00  0.00000000000E+00  0.49343825248E+03  0.49343825248E+03  0.00000000000E+00 0. -1.
         21   -1    0    0  502  503 -0.00000000000E+00 -0.00000000000E+00 -0.98604272118E+02  0.98604272118E+02  0.00000000000E+00 0.  1.
          6    1    1    2  501    0 -0.10287293337E+03  0.72636720575E+02  0.27347745662E+03  0.34674609280E+03  0.17200000000E+03 0. -1.
         -6    1    1    2    0  503  0.10287293337E+03 -0.72636720575E+02  0.12135652374E+03  0.24529643180E+03  0.17200000000E+03 0.  1.
</event>
<event>
 4    1  0.4440728E+000  0.1721794E+03  0.7818608E-02  0.1175594E+00
         21   -1    0    0  503  502  0.00000000000E+00  0.00000000000E+00  0.10599293726E+03  0.10599293726E+03  0.00000000000E+00 0. -1.
         21   -1    0    0  501  503 -0.00000000000E+00 -0.00000000000E+00 -0.41739588895E+03  0.41739588895E+03  0.00000000000E+00 0. -1.
          6    1    1    2  501    0 -0.29468308857E+01 -0.72838591533E+01 -0.30601154939E+03  0.35112505860E+03  0.17200000000E+03 0. -1.
         -6    1    1    2    0  502  0.29468308857E+01  0.72838591533E+01 -0.53914023031E+01  0.17226376762E+03  0.17200000000E+03 0. -1.
</event>
<event>
 4    1  0.4440728E+000  0.1743894E+03  0.7818608E-02  0.1173346E+00
         21   -1    0    0  501  502  0.00000000000E+00  0.00000000000E+00  0.91841363222E+03  0.91841363222E+03  0.00000000000E+00 0.  1.
         21   -1    0    0  502  503 -0.00000000000E+00 -0.00000000000E+00 -0.33953134653E+02  0.33953134653E+02  0.00000000000E+00 0.  1.
          6    1    1    2  501    0 -0.19233711945E+02 -0.21394636196E+02  0.51712346014E+03  0.54573651074E+03  0.17200000000E+03 0.  1.
         -6    1    1    2    0  503  0.19233711945E+02  0.21394636196E+02  0.36733703743E+03  0.40663025613E+03  0.17200000000E+03 0.  1.
</event>
<event>
 4    1  0.4440728E+000  0.1783116E+03  0.7818608E-02  0.1169447E+00
         21   -1    0    0  501  502  0.00000000000E+00  0.00000000000E+00  0.35676891732E+02  0.35676891732E+02  0.00000000000E+00 0. -1.
         21   -1    0    0  502  503 -0.00000000000E+00 -0.00000000000E+00 -0.89754701973E+03  0.89754701973E+03  0.00000000000E+00 0. -1.
          6    1    1    2  501    0  0.48492093116E+01 -0.46770992785E+02 -0.47019132928E+03  0.50286670871E+03  0.17200000000E+03 0. -1.
         -6    1    1    2    0  503 -0.48492093116E+01  0.46770992785E+02 -0.39167879872E+03  0.43035720275E+03  0.17200000000E+03 0. -1.
</event>
<event>
 4    1  0.4440728E+000  0.2252491E+03  0.7818608E-02  0.1130029E+00
         21   -1    0    0  503  502  0.00000000000E+00  0.00000000000E+00  0.66066248893E+03  0.66066248893E+03  0.00000000000E+00 0. -1.
         21   -1    0    0  501  503 -0.00000000000E+00 -0.00000000000E+00 -0.89074410294E+02  0.89074410294E+02  0.00000000000E+00 0. -1.
          6    1    1    2  501    0 -0.10827967759E+03  0.97101322444E+02  0.14662299584E+03  0.26876654983E+03  0.17200000000E+03 0. -1.
         -6    1    1    2    0  502  0.10827967759E+03 -0.97101322444E+02  0.42496508280E+03  0.48097034940E+03  0.17200000000E+03 0. -1.
</event>
<event>
 4    1  0.4440728E+000  0.2439427E+03  0.7818608E-02  0.1117194E+00
         21   -1    0    0  503  502  0.00000000000E+00  0.00000000000E+00  0.26311545809E+03  0.26311545809E+03  0.00000000000E+00 0. -1.
         21   -1    0    0  501  503 -0.00000000000E+00 -0.00000000000E+00 -0.80881130861E+03  0.80881130861E+03  0.00000000000E+00 0.  1.
          6    1    1    2  501    0  0.62909342316E+02 -0.16114106376E+03 -0.72774513756E+03  0.76754218974E+03  0.17200000000E+03 0.  1.
         -6    1    1    2    0  502 -0.62909342316E+02  0.16114106376E+03  0.18204928705E+03  0.30438457697E+03  0.17200000000E+03 0. -1.
</event>
<event>
 4    1  0.4440728E+000  0.1863625E+03  0.7818608E-02  0.1161784E+00
         21   -1    0    0  501  502  0.00000000000E+00  0.00000000000E+00  0.19839519720E+03  0.19839519720E+03  0.00000000000E+00 0. -1.
         21   -1    0    0  502  503 -0.00000000000E+00 -0.00000000000E+00 -0.18072073648E+03  0.18072073648E+03  0.00000000000E+00 0. -1.
          6    1    1    2  501    0 -0.40551247853E+02 -0.59182564656E+02 -0.24712626611E+02  0.18799386579E+03  0.17200000000E+03 0. -1.
         -6    1    1    2    0  503  0.40551247853E+02  0.59182564656E+02  0.42387087324E+02  0.19112206789E+03  0.17200000000E+03 0. -1.
</event>
<event>
 4    1  0.4440728E+000  0.1873724E+03  0.7818608E-02  0.1160853E+00
         21   -1    0    0  501  502  0.00000000000E+00  0.00000000000E+00  0.39692924988E+03  0.39692924988E+03  0.00000000000E+00 0. -1.
         21   -1    0    0  502  503 -0.00000000000E+00 -0.00000000000E+00 -0.97879692685E+02  0.97879692685E+02  0.00000000000E+00 0. -1.
          6    1    1    2  501    0  0.73299054495E+02 -0.12314518295E+02  0.22631565648E+03  0.29381486538E+03  0.17200000000E+03 0. -1.
         -6    1    1    2    0  503 -0.73299054495E+02  0.12314518295E+02  0.72733900718E+02  0.20099407719E+03  0.17200000000E+03 0. -1.
</event>
<event>
 4    1  0.4440728E+000  0.2608470E+03  0.7818608E-02  0.1106635E+00
         21   -1    0    0  503  502  0.00000000000E+00  0.00000000000E+00  0.25256347338E+03  0.25256347338E+03  0.00000000000E+00 0. -1.
         21   -1    0    0  501  503 -0.00000000000E+00 -0.00000000000E+00 -0.64102554428E+03  0.64102554428E+03  0.00000000000E+00 0. -1.
          6    1    1    2  501    0  0.19312481382E+03 -0.34058173300E+02 -0.53442112557E+03  0.59468234574E+03  0.17200000000E+03 0. -1.
         -6    1    1    2    0  502 -0.19312481382E+03  0.34058173300E+02  0.14595905466E+03  0.29890667192E+03  0.17200000000E+03 0. -1.
</event>
<event>
 4    1  0.4440728E+000  0.3174257E+03  0.7818608E-02  0.1076840E+00
         21   -1    0    0  501  502  0.00000000000E+00  0.00000000000E+00  0.42558356509E+03  0.42558356509E+03  0.00000000000E+00 0. -1.
         21   -1    0    0  502  503 -0.00000000000E+00 -0.00000000000E+00 -0.28968823812E+03  0.28968823812E+03  0.00000000000E+00 0. -1.
          6    1    1    2  501    0 -0.72665600742E+02  0.25669975717E+03  0.22082381335E+03  0.38668102023E+03  0.17200000000E+03 0. -1.
         -6    1    1    2    0  503  0.72665600742E+02 -0.25669975717E+03 -0.84928486379E+02  0.32859078298E+03  0.17200000000E+03 0. -1.
</event>
<event>
 4    1  0.4440728E+000  0.1930075E+03  0.7818608E-02  0.1155776E+00
         21   -1    0    0  501  502  0.00000000000E+00  0.00000000000E+00  0.22416007149E+03  0.22416007149E+03  0.00000000000E+00 0. -1.
         21   -1    0    0  502  503 -0.00000000000E+00 -0.00000000000E+00 -0.17166643323E+03  0.17166643323E+03  0.00000000000E+00 0.  1.
          6    1    1    2  501    0 -0.49954921094E+02 -0.71919346075E+02  0.61614504524E+02  0.20260363681E+03  0.17200000000E+03 0. -1.
         -6    1    1    2    0  503  0.49954921094E+02  0.71919346075E+02 -0.91208662652E+01  0.19322286791E+03  0.17200000000E+03 0.  1.
</event>
<event>
 4    1  0.4440728E+000  0.2211233E+03  0.7818608E-02  0.1133048E+00
         21   -1    0    0  501  502  0.00000000000E+00  0.00000000000E+00  0.47528404221E+02  0.47528404221E+02  0.00000000000E+00 0. -1.
         21   -1    0    0  502  503 -0.00000000000E+00 -0.00000000000E+00 -0.11561583286E+04  0.11561583286E+04  0.00000000000E+00 0. -1.
          6    1    1    2  501    0  0.11478270534E+03 -0.78335570402E+02 -0.35453627300E+03  0.41784147700E+03  0.17200000000E+03 0. -1.
         -6    1    1    2    0  503 -0.11478270534E+03  0.78335570402E+02 -0.75409365138E+03  0.78584525582E+03  0.17200000000E+03 0. -1.
</event>
<event>
 4    1  0.4440728E+000  0.2243822E+03  0.7818608E-02  0.1130657E+00
         21   -1    0    0  503  502  0.00000000000E+00  0.00000000000E+00  0.12601140165E+03  0.12601140165E+03  0.00000000000E+00 0.  1.
         21   -1    0    0  501  503 -0.00000000000E+00 -0.00000000000E+00 -0.81826973713E+03  0.81826973713E+03  0.00000000000E+00 0.  1.
          6    1    1    2  501    0  0.13532332565E+03 -0.49507332740E+02 -0.68387247700E+03  0.71974227558E+03  0.17200000000E+03 0.  1.
         -6    1    1    2    0  502 -0.13532332565E+03  0.49507332740E+02 -0.83858584811E+01  0.22453886319E+03  0.17200000000E+03 0.  1.
</event>
<event>
 4    1  0.4440728E+000  0.1789949E+03  0.7818608E-02  0.1168779E+00
         21   -1    0    0  503  502  0.00000000000E+00  0.00000000000E+00  0.84551529509E+02  0.84551529509E+02  0.00000000000E+00 0. -1.
         21   -1    0    0  501  503 -0.00000000000E+00 -0.00000000000E+00 -0.37918072949E+03  0.37918072949E+03  0.00000000000E+00 0. -1.
          6    1    1    2  501    0 -0.38309439482E+02  0.31425546775E+02 -0.14136169655E+03  0.22808399198E+03  0.17200000000E+03 0. -1.
         -6    1    1    2    0  502  0.38309439482E+02 -0.31425546775E+02 -0.15326750343E+03  0.23564826702E+03  0.17200000000E+03 0. -1.
</event>
<event>
 4    1  0.4440728E+000  0.1774345E+03  0.7818608E-02  0.1170309E+00
         21   -1    0    0  501  502  0.00000000000E+00  0.00000000000E+00  0.38575172251E+03  0.38575172251E+03  0.00000000000E+00 0. -1.
         21   -1    0    0  502  503 -0.00000000000E+00 -0.00000000000E+00 -0.97196825432E+02  0.97196825432E+02  0.00000000000E+00 0. -1.
          6    1    1    2  501    0 -0.37419006950E+02  0.22334176630E+02  0.24096235186E+03  0.29924213029E+03  0.17200000000E+03 0. -1.
         -6    1    1    2    0  503  0.37419006950E+02 -0.22334176630E+02  0.47592545224E+02  0.18370641766E+03  0.17200000000E+03 0. -1.
</event>
<event>
 4    1  0.4440728E+000  0.1902232E+03  0.7818608E-02  0.1158260E+00
         21   -1    0    0  503  502  0.00000000000E+00  0.00000000000E+00  0.42393811868E+02  0.42393811868E+02  0.00000000000E+00 0.  1.
         21   -1    0    0  501  503 -0.00000000000E+00 -0.00000000000E+00 -0.91276516358E+03  0.91276516358E+03  0.00000000000E+00 0. -1.
          6    1    1    2  501    0 -0.50623537210E+02 -0.63546092016E+02 -0.31353449802E+03  0.36672705079E+03  0.17200000000E+03 0.  1.
         -6    1    1    2    0  502  0.50623537210E+02  0.63546092016E+02 -0.55683685369E+03  0.58843192466E+03  0.17200000000E+03 0. -1.
</event>
<event>
 4    1  0.4440728E+000  0.2483812E+03  0.7818608E-02  0.1114332E+00
         21   -1    0    0  503  502  0.00000000000E+00  0.00000000000E+00  0.85488819285E+03  0.85488819285E+03  0.00000000000E+00 0. -1.
         21   -1    0    0  501  503 -0.00000000000E+00 -0.00000000000E+00 -0.10634799853E+03  0.10634799853E+03  0.00000000000E+00 0.  1.
          6    1    1    2  501    0 -0.12692895750E+03  0.12648421198E+03  0.10178736967E+03  0.26842854684E+03  0.17200000000E+03 0.  1.
         -6    1    1    2    0  502  0.12692895750E+03 -0.12648421198E+03  0.64675282465E+03  0.69280764453E+03  0.17200000000E+03 0. -1.
</event>
<event>
 4    1  0.4440728E+000  0.1815684E+03  0.7818608E-02  0.1166294E+00
         21   -1    0    0  503  502  0.00000000000E+00  0.00000000000E+00  0.40160546249E+02  0.40160546249E+02  0.00000000000E+00 0.  1.
         21   -1    0    0  501  503 -0.00000000000E+00 -0.00000000000E+00 -0.84930313433E+03  0.84930313433E+03  0.00000000000E+00 0.  1.
          6    1    1    2  501    0  0.50062795613E+02  0.29610637526E+02 -0.48592677829E+03  0.51874069362E+03  0.17200000000E+03 0. -1.
         -6    1    1    2    0  502 -0.50062795613E+02 -0.29610637526E+02 -0.32321580979E+03  0.37072298695E+03  0.17200000000E+03 0. -1.
</event>
<event>
 4    1  0.4440728E+000  0.2583223E+03  0.7818608E-02  0.1108155E+00
         21   -1    0    0  501  502  0.00000000000E+00  0.00000000000E+00  0.23499712707E+03  0.23499712707E+03  0.00000000000E+00 0.  1.
         21   -1    0    0  502  503 -0.00000000000E+00 -0.00000000000E+00 -0.28834859680E+03  0.28834859680E+03  0.00000000000E+00 0.  1.
          6    1    1    2  501    0 -0.19016037591E+03  0.31392151704E+02 -0.58947697159E+02  0.26496276484E+03  0.17200000000E+03 0.  1.
         -6    1    1    2    0  503  0.19016037591E+03 -0.31392151704E+02  0.55962274333E+01  0.25838295902E+03  0.17200000000E+03 0.  1.
</event>
<event>
 4    1  0.4440728E+000  0.2563239E+03  0.7818608E-02  0.1109372E+00
         21   -1    0    0  501  502  0.00000000000E+00  0.00000000000E+00  0.30626728148E+03  0.30626728148E+03  0.00000000000E+00 0. -1.
         21   -1    0    0  502  503 -0.00000000000E+00 -0.00000000000E+00 -0.32591568987E+03  0.32591568987E+03  0.00000000000E+00 0.  1.
          6    1    1    2  501    0 -0.17025292305E+02 -0.18928311388E+03  0.17496849383E+03  0.31034808137E+03  0.17200000000E+03 0. -1.
         -6    1    1    2    0  503  0.17025292305E+02  0.18928311388E+03 -0.19461690222E+03  0.32183488998E+03  0.17200000000E+03 0.  1.
</event>
<event>
 4    1  0.4440728E+000  0.1862329E+03  0.7818608E-02  0.1161904E+00
         21   -1    0    0  501  502  0.00000000000E+00  0.00000000000E+00  0.10488769031E+03  0.10488769031E+03  0.00000000000E+00 0. -1.
         21   -1    0    0  502  503 -0.00000000000E+00 -0.00000000000E+00 -0.81348353129E+03  0.81348353129E+03  0.00000000000E+00 0. -1.
          6    1    1    2  501    0  0.50879159451E+02  0.50099916468E+02 -0.54026832437E+00  0.18623367683E+03  0.17200000000E+03 0. -1.
         -6    1    1    2    0  503 -0.50879159451E+02 -0.50099916468E+02 -0.70805557265E+03  0.73213754477E+03  0.17200000000E+03 0. -1.
</event>
<event>
 4    1  0.4440728E+000  0.2217957E+03  0.7818608E-02  0.1132551E+00
         21   -1    0    0  503  502  0.00000000000E+00  0.00000000000E+00  0.21656146898E+03  0.21656146898E+03  0.00000000000E+00 0.  1.
         21   -1    0    0  501  503 -0.00000000000E+00 -0.00000000000E+00 -0.29355241558E+03  0.29355241558E+03  0.00000000000E+00 0.  1.
          6    1    1    2  501    0  0.40569404288E+02  0.13402779266E+03 -0.15979672912E+03  0.27336481194E+03  0.17200000000E+03 0.  1.
         -6    1    1    2    0  502 -0.40569404288E+02 -0.13402779266E+03  0.82805782523E+02  0.23674907262E+03  0.17200000000E+03 0.  1.
</event>
<event>
 4    1  0.4440728E+000  0.1881864E+03  0.7818608E-02  0.1160107E+00
         21   -1    0    0  501  502  0.00000000000E+00  0.00000000000E+00  0.11865410200E+03  0.11865410200E+03  0.00000000000E+00 0. -1.
         21   -1    0    0  502  503 -0.00000000000E+00 -0.00000000000E+00 -0.33896891158E+03  0.33896891158E+03  0.00000000000E+00 0. -1.
          6    1    1    2  501    0 -0.73912907660E+02 -0.19157270668E+02 -0.31063066244E+02  0.19073288396E+03  0.17200000000E+03 0. -1.
         -6    1    1    2    0  503  0.73912907660E+02  0.19157270668E+02 -0.18925174333E+03  0.26689012962E+03  0.17200000000E+03 0. -1.
</event>
<event>
 4    1  0.4440728E+000  0.1849293E+03  0.7818608E-02  0.1163116E+00
         21   -1    0    0  501  502  0.00000000000E+00  0.00000000000E+00  0.68121236853E+02  0.68121236853E+02  0.00000000000E+00 0.  1.
         21   -1    0    0  502  503 -0.00000000000E+00 -0.00000000000E+00 -0.12924745324E+04  0.12924745324E+04  0.00000000000E+00 0.  1.
          6    1    1    2  501    0  0.27578198837E+02 -0.62083038493E+02 -0.80161497469E+02  0.20155576498E+03  0.17200000000E+03 0.  1.
         -6    1    1    2    0  503 -0.27578198837E+02  0.62083038493E+02 -0.11441917981E+04  0.11590400043E+04  0.17200000000E+03 0.  1.
</event>
<event>
 4    1  0.4440728E+000  0.1844437E+03  0.7818608E-02  0.1163570E+00
         21   -1    0    0  503  502  0.00000000000E+00  0.00000000000E+00  0.10473654523E+04  0.10473654523E+04  0.00000000000E+00 0. -1.
         21   -1    0    0  501  503 -0.00000000000E+00 -0.00000000000E+00 -0.37315412258E+02  0.37315412258E+02  0.00000000000E+00 0. -1.
          6    1    1    2  501    0  0.65862486609E+02  0.98790703816E+01  0.30981580904E+03  0.36056247546E+03  0.17200000000E+03 0. -1.
         -6    1    1    2    0  502 -0.65862486609E+02 -0.98790703816E+01  0.70023423100E+03  0.72411838910E+03  0.17200000000E+03 0. -1.
</event>
<event>
 4    1  0.4440728E+000  0.1720532E+03  0.7818608E-02  0.1175723E+00
         21   -1    0    0  503  502  0.00000000000E+00  0.00000000000E+00  0.36316392210E+03  0.36316392210E+03  0.00000000000E+00 0.  1.
         21   -1    0    0  501  503 -0.00000000000E+00 -0.00000000000E+00 -0.86193540576E+02  0.86193540576E+02  0.00000000000E+00 0.  1.
          6    1    1    2  501    0  0.28703984624E+01  0.31736632507E+01  0.19084608197E+03  0.25695240479E+03  0.17200000000E+03 0.  1.
         -6    1    1    2    0  502 -0.28703984624E+01 -0.31736632507E+01  0.86124299556E+02  0.19240505788E+03  0.17200000000E+03 0.  1.
</event>
<event>
 4    1  0.4440728E+000  0.2110923E+03  0.7818608E-02  0.1140704E+00
         21   -1    0    0  501  502  0.00000000000E+00  0.00000000000E+00  0.34137406701E+03  0.34137406701E+03  0.00000000000E+00 0. -1.
         21   -1    0    0  502  503 -0.00000000000E+00 -0.00000000000E+00 -0.13489760827E+03  0.13489760827E+03  0.00000000000E+00 0.  1.
          6    1    1    2  501    0 -0.82815608195E+02  0.90097394860E+02  0.14608173144E+03  0.25670963710E+03  0.17200000000E+03 0. -1.
         -6    1    1    2    0  503  0.82815608195E+02 -0.90097394860E+02  0.60394727308E+02  0.21956203818E+03  0.17200000000E+03 0. -1.
</event>
<event>
 4    1  0.4440728E+000  0.2778945E+03  0.7818608E-02  0.1096845E+00
         21   -1    0    0  503  502  0.00000000000E+00  0.00000000000E+00  0.88854697685E+03  0.88854697685E+03  0.00000000000E+00 0. -1.
         21   -1    0    0  501  503 -0.00000000000E+00 -0.00000000000E+00 -0.91668878773E+02  0.91668878773E+02  0.00000000000E+00 0.  1.
          6    1    1    2  501    0 -0.21455969410E+03  0.40068444218E+02  0.28679270754E+03  0.39934371117E+03  0.17200000000E+03 0.  1.
         -6    1    1    2    0  502  0.21455969410E+03 -0.40068444218E+02  0.51008539053E+03  0.58087214445E+03  0.17200000000E+03 0. -1.
</event>
<event>
 4    1  0.4440728E+000  0.2424475E+03  0.7818608E-02  0.1118173E+00
         21   -1    0    0  503  502  0.00000000000E+00  0.00000000000E+00  0.13155717903E+03  0.13155717903E+03  0.00000000000E+00 0.  1.
         21   -1    0    0  501  503 -0.00000000000E+00 -0.00000000000E+00 -0.50881919710E+03  0.50881919710E+03  0.00000000000E+00 0.  1.
          6    1    1    2  501    0  0.14792129596E+03 -0.85534084554E+02 -0.30040967003E+03  0.38603984155E+03  0.17200000000E+03 0.  1.
         -6    1    1    2    0  502 -0.14792129596E+03  0.85534084554E+02 -0.76852348048E+02  0.25433653458E+03  0.17200000000E+03 0.  1.
</event>
<event>
 4    1  0.4440728E+000  0.4149143E+03  0.7818608E-02  0.1038734E+00
         21   -1    0    0  503  502  0.00000000000E+00  0.00000000000E+00  0.29491506914E+03  0.29491506914E+03  0.00000000000E+00 0.  1.
         21   -1    0    0  501  503 -0.00000000000E+00 -0.00000000000E+00 -0.11821577202E+04  0.11821577202E+04  0.00000000000E+00 0. -1.
          6    1    1    2  501    0  0.23652416083E+03  0.29432334034E+03 -0.96907712022E+03  0.10541652490E+04  0.17200000000E+03 0. -1.
         -6    1    1    2    0  502 -0.23652416083E+03 -0.29432334034E+03  0.81834469154E+02  0.42290754033E+03  0.17200000000E+03 0.  1.
</event>
<event>
 4    1  0.4440728E+000  0.3332314E+03  0.7818608E-02  0.1069716E+00
         21   -1    0    0  501  502  0.00000000000E+00  0.00000000000E+00  0.15057716270E+04  0.15057716270E+04  0.00000000000E+00 0. -1.
         21   -1    0    0  502  503 -0.00000000000E+00 -0.00000000000E+00 -0.74115810718E+02  0.74115810718E+02  0.00000000000E+00 0.  1.
          6    1    1    2  501    0 -0.22905442511E+03  0.17027393025E+03  0.77170220290E+03  0.84057565450E+03  0.17200000000E+03 0.  1.
         -6    1    1    2    0  503  0.22905442511E+03 -0.17027393025E+03  0.65995361338E+03  0.73931178322E+03  0.17200000000E+03 0. -1.
</event>
<event>
 4    1  0.4440728E+000  0.2547929E+03  0.7818608E-02  0.1110313E+00
         21   -1    0    0  503  502  0.00000000000E+00  0.00000000000E+00  0.13531852602E+03  0.13531852602E+03  0.00000000000E+00 0. -1.
         21   -1    0    0  501  503 -0.00000000000E+00 -0.00000000000E+00 -0.64134943751E+03  0.64134943751E+03  0.00000000000E+00 0.  1.
          6    1    1    2  501    0 -0.13692778503E+03  0.12878742010E+03 -0.44794354852E+03  0.51533759862E+03  0.17200000000E+03 0.  1.
         -6    1    1    2    0  502  0.13692778503E+03 -0.12878742010E+03 -0.58087362972E+02  0.26133036492E+03  0.17200000000E+03 0.  1.
</event>
<event>
 4    1  0.4440728E+000  0.2063953E+03  0.7818608E-02  0.1144453E+00
         21   -1    0    0  503  502  0.00000000000E+00  0.00000000000E+00  0.87249273472E+03  0.87249273472E+03  0.00000000000E+00 0. -1.
         21   -1    0    0  501  503 -0.00000000000E+00 -0.00000000000E+00 -0.67442465611E+02  0.67442465611E+02  0.00000000000E+00 0. -1.
          6    1    1    2  501    0  0.10878908465E+03 -0.34350266388E+02  0.15559873625E+03  0.25847625125E+03  0.17200000000E+03 0. -1.
         -6    1    1    2    0  502 -0.10878908465E+03  0.34350266388E+02  0.64945153287E+03  0.68145894908E+03  0.17200000000E+03 0. -1.
</event>
<event>
 4    1  0.4440728E+000  0.2277891E+03  0.7818608E-02  0.1128206E+00
         21   -1    0    0  503  502  0.00000000000E+00  0.00000000000E+00  0.72311973444E+03  0.72311973444E+03  0.00000000000E+00 0.  1.
         21   -1    0    0  501  503 -0.00000000000E+00 -0.00000000000E+00 -0.11485536660E+03  0.11485536660E+03  0.00000000000E+00 0.  1.
          6    1    1    2  501    0 -0.13385511018E+03  0.66232112361E+02  0.47469351926E+02  0.23268266502E+03  0.17200000000E+03 0.  1.
         -6    1    1    2    0  502  0.13385511018E+03 -0.66232112361E+02  0.56079501592E+03  0.60529243602E+03  0.17200000000E+03 0.  1.
</event>
<event>
 4    1  0.4440728E+000  0.1723403E+03  0.7818608E-02  0.1175429E+00
         21   -1    0    0  501  502  0.00000000000E+00  0.00000000000E+00  0.11561403581E+03  0.11561403581E+03  0.00000000000E+00 0. -1.
         21   -1    0    0  502  503 -0.00000000000E+00 -0.00000000000E+00 -0.31770491337E+03  0.31770491337E+03  0.00000000000E+00 0. -1.
          6    1    1    2  501    0 -0.73201961412E+01  0.79742894872E+01 -0.62609532122E+01  0.17245397676E+03  0.17200000000E+03 0. -1.
         -6    1    1    2    0  503  0.73201961412E+01 -0.79742894872E+01 -0.19582992435E+03  0.26086497242E+03  0.17200000000E+03 0. -1.
</event>
<event>
 4    1  0.4440728E+000  0.2040230E+03  0.7818608E-02  0.1146389E+00
         21   -1    0    0  503  502  0.00000000000E+00  0.00000000000E+00  0.79457283224E+03  0.79457283224E+03  0.00000000000E+00 0.  1.
         21   -1    0    0  501  503 -0.00000000000E+00 -0.00000000000E+00 -0.68006184254E+02  0.68006184254E+02  0.00000000000E+00 0.  1.
          6    1    1    2  501    0  0.10144937304E+03 -0.41825974444E+02  0.15659206732E+03  0.25718954678E+03  0.17200000000E+03 0.  1.
         -6    1    1    2    0  502 -0.10144937304E+03  0.41825974444E+02  0.56997458067E+03  0.60538946972E+03  0.17200000000E+03 0.  1.
</event>
<event>
 4    1  0.4440728E+000  0.1779922E+03  0.7818608E-02  0.1169761E+00
         21   -1    0    0  501  502  0.00000000000E+00  0.00000000000E+00  0.31922674231E+02  0.31922674231E+02  0.00000000000E+00 0.  1.
         21   -1    0    0  502  503 -0.00000000000E+00 -0.00000000000E+00 -0.99415987042E+03  0.99415987042E+03  0.00000000000E+00 0.  1.
          6    1    1    2  501    0 -0.14755970761E+00 -0.45795023851E+02 -0.45975389903E+03  0.49300593673E+03  0.17200000000E+03 0.  1.
         -6    1    1    2    0  503  0.14755970761E+00  0.45795023851E+02 -0.50248329716E+03  0.53307660792E+03  0.17200000000E+03 0.  1.
</event>
<event>
 4    1  0.4440728E+000  0.1771903E+03  0.7818608E-02  0.1170550E+00
         21   -1    0    0  503  502  0.00000000000E+00  0.00000000000E+00  0.91120939252E+03  0.91120939252E+03  0.00000000000E+00 0.  1.
         21   -1    0    0  501  503 -0.00000000000E+00 -0.00000000000E+00 -0.76911932840E+02  0.76911932840E+02  0.00000000000E+00 0.  1.
          6    1    1    2  501    0  0.42174605353E+02  0.58041599477E+01  0.50074425841E+02  0.18412993709E+03  0.17200000000E+03 0.  1.
         -6    1    1    2    0  502 -0.42174605353E+02 -0.58041599477E+01  0.78422303384E+03  0.80399138827E+03  0.17200000000E+03 0.  1.
</event>
<event>
 4    1  0.4440728E+000  0.2005938E+03  0.7818608E-02  0.1149239E+00
         21   -1    0    0  503  502  0.00000000000E+00  0.00000000000E+00  0.95673129002E+03  0.95673129002E+03  0.00000000000E+00 0.  1.
         21   -1    0    0  501  503 -0.00000000000E+00 -0.00000000000E+00 -0.51244817877E+02  0.51244817877E+02  0.00000000000E+00 0.  1.
          6    1    1    2  501    0 -0.17101032494E+02 -0.10179114153E+03  0.23934747243E+03  0.31229008048E+03  0.17200000000E+03 0.  1.
         -6    1    1    2    0  502  0.17101032494E+02  0.10179114153E+03  0.66613899971E+03  0.69568602741E+03  0.17200000000E+03 0.  1.
</event>
<event>
 4    1  0.4440728E+000  0.1955655E+03  0.7818608E-02  0.1153535E+00
         21   -1    0    0  503  502  0.00000000000E+00  0.00000000000E+00  0.43962835517E+02  0.43962835517E+02  0.00000000000E+00 0. -1.
         21   -1    0    0  501  503 -0.00000000000E+00 -0.00000000000E+00 -0.93548144462E+03  0.93548144462E+03  0.00000000000E+00 0.  1.
          6    1    1    2  501    0 -0.72192122685E+02 -0.58738208547E+02 -0.57536558375E+03  0.60769353682E+03  0.17200000000E+03 0.  1.
         -6    1    1    2    0  502  0.72192122685E+02  0.58738208547E+02 -0.31615302535E+03  0.37175074332E+03  0.17200000000E+03 0.  1.
</event>
<event>
 4    1  0.4440728E+000  0.2187017E+03  0.7818608E-02  0.1134855E+00
         21   -1    0    0  503  502  0.00000000000E+00  0.00000000000E+00  0.13305747391E+04  0.13305747391E+04  0.00000000000E+00 0.  1.
         21   -1    0    0  501  503 -0.00000000000E+00 -0.00000000000E+00 -0.46079883833E+02  0.46079883833E+02  0.00000000000E+00 0.  1.
          6    1    1    2  501    0  0.79982802868E+02  0.10885401268E+03  0.31947128897E+03  0.38715933323E+03  0.17200000000E+03 0.  1.
         -6    1    1    2    0  502 -0.79982802868E+02 -0.10885401268E+03  0.96502356628E+03  0.98949528969E+03  0.17200000000E+03 0.  1.
</event>
<event>
 4    1  0.4440728E+000  0.1734584E+03  0.7818608E-02  0.1174288E+00
         21   -1    0    0  503  502  0.00000000000E+00  0.00000000000E+00  0.77424468459E+02  0.77424468459E+02  0.00000000000E+00 0.  1.
         21   -1    0    0  501  503 -0.00000000000E+00 -0.00000000000E+00 -0.40603016041E+03  0.40603016041E+03  0.00000000000E+00 0.  1.
          6    1    1    2  501    0 -0.10847719136E+02 -0.19650881419E+02 -0.21437399441E+03  0.27576083774E+03  0.17200000000E+03 0.  1.
         -6    1    1    2    0  502  0.10847719136E+02  0.19650881419E+02 -0.11423169754E+03  0.20769379113E+03  0.17200000000E+03 0.  1.
</event>
<event>
 4    1  0.4440728E+000  0.2054487E+03  0.7818608E-02  0.1145222E+00
         21   -1    0    0  503  502  0.00000000000E+00  0.00000000000E+00  0.22467316255E+02  0.22467316255E+02  0.00000000000E+00 0.  1.
         21   -1    0    0  501  503 -0.00000000000E+00 -0.00000000000E+00 -0.19840903379E+04  0.19840903379E+04  0.00000000000E+00 0.  1.
          6    1    1    2  501    0  0.41918267331E+02 -0.10424980354E+03 -0.74957402844E+03  0.77721965157E+03  0.17200000000E+03 0.  1.
         -6    1    1    2    0  502 -0.41918267331E+02  0.10424980354E+03 -0.12120489932E+04  0.12293380026E+04  0.17200000000E+03 0.  1.
</event>
<event>
 4    1  0.4440728E+000  0.1789556E+03  0.7818608E-02  0.1168818E+00
         21   -1    0    0  503  502  0.00000000000E+00  0.00000000000E+00  0.32178542471E+03  0.32178542471E+03  0.00000000000E+00 0. -1.
         21   -1    0    0  501  503 -0.00000000000E+00 -0.00000000000E+00 -0.26230766804E+03  0.26230766804E+03  0.00000000000E+00 0. -1.
          6    1    1    2  501    0  0.35363834230E+02 -0.34503610479E+02 -0.20032748477E+03  0.26861906310E+03  0.17200000000E+03 0. -1.
         -6    1    1    2    0  502 -0.35363834230E+02  0.34503610479E+02  0.25980524144E+03  0.31547402966E+03  0.17200000000E+03 0. -1.
</event>
<event>
 4    1  0.4440728E+000  0.1906346E+03  0.7818608E-02  0.1157890E+00
         21   -1    0    0  503  502  0.00000000000E+00  0.00000000000E+00  0.49643205167E+02  0.49643205167E+02  0.00000000000E+00 0.  1.
         21   -1    0    0  501  503 -0.00000000000E+00 -0.00000000000E+00 -0.12369314353E+04  0.12369314353E+04  0.00000000000E+00 0.  1.
          6    1    1    2  501    0 -0.65708087367E+02 -0.49396305038E+02 -0.10046280112E+04  0.10225551274E+04  0.17200000000E+03 0.  1.
         -6    1    1    2    0  502  0.65708087367E+02  0.49396305038E+02 -0.18266021893E+03  0.26401951306E+03  0.17200000000E+03 0.  1.
</event>
<event>
 4    1  0.4440728E+000  0.1729510E+03  0.7818608E-02  0.1174805E+00
         21   -1    0    0  501  502  0.00000000000E+00  0.00000000000E+00  0.50548680250E+02  0.50548680250E+02  0.00000000000E+00 0.  1.
         21   -1    0    0  502  503 -0.00000000000E+00 -0.00000000000E+00 -0.61529571606E+03  0.61529571606E+03  0.00000000000E+00 0.  1.
          6    1    1    2  501    0 -0.16108645010E+02 -0.82806111711E+01 -0.21724375676E+03  0.27768130441E+03  0.17200000000E+03 0.  1.
         -6    1    1    2    0  503  0.16108645010E+02  0.82806111711E+01 -0.34750327905E+03  0.38816309190E+03  0.17200000000E+03 0.  1.
</event>
<event>
 4    1  0.4440728E+000  0.2174621E+03  0.7818608E-02  0.1135789E+00
         21   -1    0    0  503  502  0.00000000000E+00  0.00000000000E+00  0.31917662548E+03  0.31917662548E+03  0.00000000000E+00 0.  1.
         21   -1    0    0  501  503 -0.00000000000E+00 -0.00000000000E+00 -0.31622295104E+03  0.31622295104E+03  0.00000000000E+00 0.  1.
          6    1    1    2  501    0  0.13041846114E+03 -0.26396857292E+02 -0.23013137611E+03  0.31662315037E+03  0.17200000000E+03 0.  1.
         -6    1    1    2    0  502 -0.13041846114E+03  0.26396857292E+02  0.23308505055E+03  0.31877642615E+03  0.17200000000E+03 0.  1.
</event>
<event>
 4    1  0.4440728E+000  0.2247130E+03  0.7818608E-02  0.1130417E+00
         21   -1    0    0  503  502  0.00000000000E+00  0.00000000000E+00  0.55126825973E+03  0.55126825973E+03  0.00000000000E+00 0.  1.
         21   -1    0    0  501  503 -0.00000000000E+00 -0.00000000000E+00 -0.94418832511E+02  0.94418832511E+02  0.00000000000E+00 0.  1.
          6    1    1    2  501    0 -0.13183258532E+03  0.59431593349E+02  0.28421123166E+03  0.36231473755E+03  0.17200000000E+03 0.  1.
         -6    1    1    2    0  502  0.13183258532E+03 -0.59431593349E+02  0.17263819555E+03  0.28337235469E+03  0.17200000000E+03 0.  1.
</event>
<event>
 4    1  0.4440728E+000  0.2386529E+03  0.7818608E-02  0.1120694E+00
         21   -1    0    0  503  502  0.00000000000E+00  0.00000000000E+00  0.45551982019E+03  0.45551982019E+03  0.00000000000E+00 0.  1.
         21   -1    0    0  501  503 -0.00000000000E+00 -0.00000000000E+00 -0.15570447952E+03  0.15570447952E+03  0.00000000000E+00 0.  1.
          6    1    1    2  501    0 -0.85220023623E+02  0.14180526211E+03  0.14268631464E+02  0.23907902173E+03  0.17200000000E+03 0.  1.
         -6    1    1    2    0  502  0.85220023623E+02 -0.14180526211E+03  0.28554670920E+03  0.37214527798E+03  0.17200000000E+03 0.  1.
</event>
<event>
 4    1  0.4440728E+000  0.2897452E+03  0.7818608E-02  0.1090482E+00
         21   -1    0    0  501  502  0.00000000000E+00  0.00000000000E+00  0.13694409442E+04  0.13694409442E+04  0.00000000000E+00 0.  1.
         21   -1    0    0  502  503 -0.00000000000E+00 -0.00000000000E+00 -0.78950387415E+02  0.78950387415E+02  0.00000000000E+00 0. -1.
          6    1    1    2  501    0 -0.15986548613E+03  0.16973890038E+03  0.98762351555E+03  0.10292485008E+04  0.17200000000E+03 0.  1.
         -6    1    1    2    0  503  0.15986548613E+03 -0.16973890038E+03  0.30286704128E+03  0.41914283085E+03  0.17200000000E+03 0. -1.
</event>
<event>
 4    1  0.4440728E+000  0.2558093E+03  0.7818608E-02  0.1109688E+00
         21   -1    0    0  503  502  0.00000000000E+00  0.00000000000E+00  0.72361142644E+02  0.72361142644E+02  0.00000000000E+00 0.  1.
         21   -1    0    0  501  503 -0.00000000000E+00 -0.00000000000E+00 -0.91016126491E+03  0.91016126491E+03  0.00000000000E+00 0.  1.
          6    1    1    2  501    0 -0.70041333494E+02  0.17592214983E+03 -0.37957996490E+03  0.45773282704E+03  0.17200000000E+03 0.  1.
         -6    1    1    2    0  502  0.70041333494E+02 -0.17592214983E+03 -0.45822015736E+03  0.52478958051E+03  0.17200000000E+03 0.  1.
</event>
<event>
 4    1  0.4440728E+000  0.2255923E+03  0.7818608E-02  0.1129781E+00
         21   -1    0    0  503  502  0.00000000000E+00  0.00000000000E+00  0.12677741243E+03  0.12677741243E+03  0.00000000000E+00 0.  1.
         21   -1    0    0  501  503 -0.00000000000E+00 -0.00000000000E+00 -0.83365888971E+03  0.83365888971E+03  0.00000000000E+00 0.  1.
          6    1    1    2  501    0 -0.12653889092E+03  0.72772353374E+02 -0.69922296199E+03  0.73471399667E+03  0.17200000000E+03 0.  1.
         -6    1    1    2    0  502  0.12653889092E+03 -0.72772353374E+02 -0.76585152812E+01  0.22572230547E+03  0.17200000000E+03 0.  1.
</event>
<event>
 4    1  0.4440728E+000  0.2382791E+03  0.7818608E-02  0.1120945E+00
         21   -1    0    0  501  502  0.00000000000E+00  0.00000000000E+00  0.31064489327E+03  0.31064489327E+03  0.00000000000E+00 0.  1.
         21   -1    0    0  502  503 -0.00000000000E+00 -0.00000000000E+00 -0.23998679405E+03  0.23998679405E+03  0.00000000000E+00 0.  1.
          6    1    1    2  501    0 -0.71460735192E+02  0.14861461086E+03  0.16975860014E+03  0.29256609776E+03  0.17200000000E+03 0.  1.
         -6    1    1    2    0  503  0.71460735192E+02 -0.14861461086E+03 -0.99100500918E+02  0.25806558956E+03  0.17200000000E+03 0.  1.
</event>
<event>
 4    1  0.4440728E+000  0.2147760E+03  0.7818608E-02  0.1137839E+00
         21   -1    0    0  501  502  0.00000000000E+00  0.00000000000E+00  0.98672614864E+02  0.98672614864E+02  0.00000000000E+00 0.  1.
         21   -1    0    0  502  503 -0.00000000000E+00 -0.00000000000E+00 -0.10936469365E+04  0.10936469365E+04  0.00000000000E+00 0. -1.
          6    1    1    2  501    0 -0.86970069621E+00 -0.12862341385E+03 -0.46395582066E+02  0.21973003665E+03  0.17200000000E+03 0.  1.
         -6    1    1    2    0  503  0.86970069621E+00  0.12862341385E+03 -0.94857873954E+03  0.97258951469E+03  0.17200000000E+03 0. -1.
</event>
<event>
 4    1  0.4440728E+000  0.4810898E+03  0.7818608E-02  0.1018836E+00
         21   -1    0    0  503  502  0.00000000000E+00  0.00000000000E+00  0.11923630278E+04  0.11923630278E+04  0.00000000000E+00 0.  1.
         21   -1    0    0  501  503 -0.00000000000E+00 -0.00000000000E+00 -0.32146014955E+03  0.32146014955E+03  0.00000000000E+00 0. -1.
          6    1    1    2  501    0  0.27459967243E+02  0.44845211973E+03 -0.40962552279E+02  0.48283049218E+03  0.17200000000E+03 0. -1.
         -6    1    1    2    0  502 -0.27459967243E+02 -0.44845211973E+03  0.91186543054E+03  0.10309926852E+04  0.17200000000E+03 0.  1.
</event>
<event>
 4    1  0.4440728E+000  0.1818742E+03  0.7818608E-02  0.1166001E+00
         21   -1    0    0  503  502  0.00000000000E+00  0.00000000000E+00  0.32119118333E+02  0.32119118333E+02  0.00000000000E+00 0. -1.
         21   -1    0    0  501  503 -0.00000000000E+00 -0.00000000000E+00 -0.10985416316E+04  0.10985416316E+04  0.00000000000E+00 0. -1.
          6    1    1    2  501    0  0.20735432039E+02  0.55355729684E+02 -0.67456666150E+03  0.69865470424E+03  0.17200000000E+03 0. -1.
         -6    1    1    2    0  502 -0.20735432039E+02 -0.55355729684E+02 -0.39185585176E+03  0.43200604569E+03  0.17200000000E+03 0. -1.
</event>
<event>
 4    1  0.4440728E+000  0.2268171E+03  0.7818608E-02  0.1128900E+00
         21   -1    0    0  503  502  0.00000000000E+00  0.00000000000E+00  0.33763753630E+03  0.33763753630E+03  0.00000000000E+00 0. -1.
         21   -1    0    0  501  503 -0.00000000000E+00 -0.00000000000E+00 -0.41004303694E+03  0.41004303694E+03  0.00000000000E+00 0. -1.
          6    1    1    2  501    0 -0.75119422637E+02 -0.12735411425E+03 -0.33255310567E+03  0.40253890019E+03  0.17200000000E+03 0. -1.
         -6    1    1    2    0  502  0.75119422637E+02  0.12735411425E+03  0.26014760503E+03  0.34514167305E+03  0.17200000000E+03 0. -1.
</event>
<event>
 4    1  0.4440728E+000  0.3601211E+03  0.7818608E-02  0.1058536E+00
         21   -1    0    0  503  502  0.00000000000E+00  0.00000000000E+00  0.62068885723E+03  0.62068885723E+03  0.00000000000E+00 0. -1.
         21   -1    0    0  501  503 -0.00000000000E+00 -0.00000000000E+00 -0.33300787916E+03  0.33300787916E+03  0.00000000000E+00 0.  1.
          6    1    1    2  501    0 -0.29284913362E+03  0.11976045409E+03 -0.14721879178E+03  0.38905083740E+03  0.17200000000E+03 0.  1.
         -6    1    1    2    0  502  0.29284913362E+03 -0.11976045409E+03  0.43489976986E+03  0.56464589899E+03  0.17200000000E+03 0. -1.
</event>
<event>
 4    1  0.4440728E+000  0.2245105E+03  0.7818608E-02  0.1130564E+00
         21   -1    0    0  503  502  0.00000000000E+00  0.00000000000E+00  0.33348068065E+03  0.33348068065E+03  0.00000000000E+00 0.  1.
         21   -1    0    0  501  503 -0.00000000000E+00 -0.00000000000E+00 -0.16077288640E+03  0.16077288640E+03  0.00000000000E+00 0. -1.
          6    1    1    2  501    0  0.13631405329E+03  0.47322535917E+02  0.25887952938E+02  0.22599807441E+03  0.17200000000E+03 0. -1.
         -6    1    1    2    0  502 -0.13631405329E+03 -0.47322535917E+02  0.14681984132E+03  0.26825549264E+03  0.17200000000E+03 0.  1.
</event>
<event>
 4    1  0.4440728E+000  0.1803401E+03  0.7818608E-02  0.1167474E+00
         21   -1    0    0  503  502  0.00000000000E+00  0.00000000000E+00  0.91818045226E+03  0.91818045226E+03  0.00000000000E+00 0. -1.
         21   -1    0    0  501  503 -0.00000000000E+00 -0.00000000000E+00 -0.35540497455E+02  0.35540497455E+02  0.00000000000E+00 0.  1.
          6    1    1    2  501    0 -0.53359338542E+02  0.95568842901E+01  0.41362921674E+03  0.45123351159E+03  0.17200000000E+03 0. -1.
         -6    1    1    2    0  502  0.53359338542E+02 -0.95568842901E+01  0.46901073806E+03  0.50248743812E+03  0.17200000000E+03 0.  1.
</event>
<event>
 4    1  0.4440728E+000  0.1838122E+03  0.7818608E-02  0.1164164E+00
         21   -1    0    0  501  502  0.00000000000E+00  0.00000000000E+00  0.55362924496E+03  0.55362924496E+03  0.00000000000E+00 0.  1.
         21   -1    0    0  502  503 -0.00000000000E+00 -0.00000000000E+00 -0.75149990319E+02  0.75149990319E+02  0.00000000000E+00 0.  1.
          6    1    1    2  501    0 -0.34447546365E+02 -0.54920724470E+02  0.37552547041E+03  0.41809843142E+03  0.17200000000E+03 0.  1.
         -6    1    1    2    0  503  0.34447546365E+02  0.54920724470E+02  0.10295378423E+03  0.21068080386E+03  0.17200000000E+03 0.  1.
</event>
<event>
 4    1  0.4440728E+000  0.2227061E+03  0.7818608E-02  0.1131882E+00
         21   -1    0    0  503  502  0.00000000000E+00  0.00000000000E+00  0.37991927832E+02  0.37991927832E+02  0.00000000000E+00 0.  1.
         21   -1    0    0  501  503 -0.00000000000E+00 -0.00000000000E+00 -0.14131462091E+04  0.14131462091E+04  0.00000000000E+00 0.  1.
          6    1    1    2  501    0 -0.11438723609E+03 -0.83243928490E+02 -0.88784421580E+03  0.91534984729E+03  0.17200000000E+03 0.  1.
         -6    1    1    2    0  502  0.11438723609E+03  0.83243928490E+02 -0.48731006552E+03  0.53578828969E+03  0.17200000000E+03 0.  1.
</event>
<event>
 4    1  0.4440728E+000  0.1899939E+03  0.7818608E-02  0.1158467E+00
         21   -1    0    0  501  502  0.00000000000E+00  0.00000000000E+00  0.42420882574E+02  0.42420882574E+02  0.00000000000E+00 0. -1.
         21   -1    0    0  502  503 -0.00000000000E+00 -0.00000000000E+00 -0.92171623450E+03  0.92171623450E+03  0.00000000000E+00 0. -1.
          6    1    1    2  501    0  0.79340636340E+02  0.14790662039E+02 -0.30606549462E+03  0.36024129033E+03  0.17200000000E+03 0. -1.
         -6    1    1    2    0  503 -0.79340636340E+02 -0.14790662039E+02 -0.57322985730E+03  0.60389582674E+03  0.17200000000E+03 0. -1.
</event>
<event>
 4    1  0.4440728E+000  0.1723821E+03  0.7818608E-02  0.1175386E+00
         21   -1    0    0  503  502  0.00000000000E+00  0.00000000000E+00  0.81370496263E+02  0.81370496263E+02  0.00000000000E+00 0. -1.
         21   -1    0    0  501  503 -0.00000000000E+00 -0.00000000000E+00 -0.42177146434E+03  0.42177146434E+03  0.00000000000E+00 0. -1.
          6    1    1    2  501    0  0.74939966331E+01 -0.86859308850E+01 -0.26234364358E+03  0.31391048519E+03  0.17200000000E+03 0. -1.
         -6    1    1    2    0  502 -0.74939966331E+01  0.86859308850E+01 -0.78057324489E+02  0.18923147541E+03  0.17200000000E+03 0. -1.
</event>
<event>
 4    1  0.4440728E+000  0.2221308E+03  0.7818608E-02  0.1132304E+00
         21   -1    0    0  501  502  0.00000000000E+00  0.00000000000E+00  0.48979469546E+02  0.48979469546E+02  0.00000000000E+00 0.  1.
         21   -1    0    0  502  503 -0.00000000000E+00 -0.00000000000E+00 -0.10246640780E+04  0.10246640780E+04  0.00000000000E+00 0. -1.
          6    1    1    2  501    0 -0.30928664840E+02 -0.13711858717E+03 -0.55751570049E+03  0.60013818871E+03  0.17200000000E+03 0. -1.
         -6    1    1    2    0  503  0.30928664840E+02  0.13711858717E+03 -0.41816890795E+03  0.47350535882E+03  0.17200000000E+03 0.  1.
</event>
<event>
 4    1  0.4440728E+000  0.2443046E+03  0.7818608E-02  0.1116958E+00
         21   -1    0    0  501  502  0.00000000000E+00  0.00000000000E+00  0.77391497751E+03  0.77391497751E+03  0.00000000000E+00 0. -1.
         21   -1    0    0  502  503 -0.00000000000E+00 -0.00000000000E+00 -0.11891663428E+03  0.11891663428E+03  0.00000000000E+00 0. -1.
          6    1    1    2  501    0  0.76290170722E+02 -0.15582214845E+03  0.59215786754E+03  0.64057448605E+03  0.17200000000E+03 0. -1.
         -6    1    1    2    0  503 -0.76290170722E+02  0.15582214845E+03  0.62840475696E+02  0.25225712573E+03  0.17200000000E+03 0. -1.
</event>
<event>
 4    1  0.4440728E+000  0.1982574E+03  0.7818608E-02  0.1151218E+00
         21   -1    0    0  503  502  0.00000000000E+00  0.00000000000E+00  0.55436316473E+02  0.55436316473E+02  0.00000000000E+00 0.  1.
         21   -1    0    0  501  503 -0.00000000000E+00 -0.00000000000E+00 -0.81518407603E+03  0.81518407603E+03  0.00000000000E+00 0. -1.
          6    1    1    2  501    0 -0.97519404960E+02  0.14559575006E+02 -0.53696049502E+03  0.57239198874E+03  0.17200000000E+03 0. -1.
         -6    1    1    2    0  502  0.97519404960E+02 -0.14559575006E+02 -0.22278726454E+03  0.29822840376E+03  0.17200000000E+03 0.  1.
</event>
<event>
 4    1  0.4440728E+000  0.1795533E+03  0.7818608E-02  0.1168236E+00
         21   -1    0    0  501  502  0.00000000000E+00  0.00000000000E+00  0.91503601294E+02  0.91503601294E+02  0.00000000000E+00 0. -1.
         21   -1    0    0  502  503 -0.00000000000E+00 -0.00000000000E+00 -0.37220514791E+03  0.37220514791E+03  0.00000000000E+00 0. -1.
          6    1    1    2  501    0  0.30321379712E+02  0.41665499050E+02 -0.19392882646E+03  0.26428732397E+03  0.17200000000E+03 0. -1.
         -6    1    1    2    0  503 -0.30321379712E+02 -0.41665499050E+02 -0.86772720152E+02  0.19942142523E+03  0.17200000000E+03 0. -1.
</event>
<event>
 4    1  0.4440728E+000  0.2701715E+03  0.7818608E-02  0.1101182E+00
         21   -1    0    0  503  502  0.00000000000E+00  0.00000000000E+00  0.12843343590E+04  0.12843343590E+04  0.00000000000E+00 0. -1.
         21   -1    0    0  501  503 -0.00000000000E+00 -0.00000000000E+00 -0.59910251460E+02  0.59910251460E+02  0.00000000000E+00 0. -1.
          6    1    1    2  501    0 -0.14525621731E+03 -0.14936279944E+03  0.45988500147E+03  0.53337306747E+03  0.17200000000E+03 0. -1.
         -6    1    1    2    0  502  0.14525621731E+03  0.14936279944E+03  0.76453910607E+03  0.81087154299E+03  0.17200000000E+03 0. -1.
</event>
<event>
 4    1  0.4440728E+000  0.1856841E+03  0.7818608E-02  0.1162413E+00
         21   -1    0    0  501  502  0.00000000000E+00  0.00000000000E+00  0.10851462220E+03  0.10851462220E+03  0.00000000000E+00 0.  1.
         21   -1    0    0  502  503 -0.00000000000E+00 -0.00000000000E+00 -0.69620043972E+03  0.69620043972E+03  0.00000000000E+00 0.  1.
          6    1    1    2  501    0 -0.66625550258E+02 -0.21344883066E+02  0.28176582771E+01  0.18570543120E+03  0.17200000000E+03 0.  1.
         -6    1    1    2    0  503  0.66625550258E+02  0.21344883066E+02 -0.59050347580E+03  0.61900963071E+03  0.17200000000E+03 0.  1.
</event>
<event>
 4    1  0.4440728E+000  0.2014601E+03  0.7818608E-02  0.1148513E+00
         21   -1    0    0  501  502  0.00000000000E+00  0.00000000000E+00  0.40961585546E+03  0.40961585546E+03  0.00000000000E+00 0. -1.
         21   -1    0    0  502  503 -0.00000000000E+00 -0.00000000000E+00 -0.99184561499E+02  0.99184561499E+02  0.00000000000E+00 0. -1.
          6    1    1    2  501    0  0.45704588811E+02  0.94410153114E+02  0.14709640084E+03  0.24944646237E+03  0.17200000000E+03 0. -1.
         -6    1    1    2    0  503 -0.45704588811E+02 -0.94410153114E+02  0.16333489312E+03  0.25935395459E+03  0.17200000000E+03 0. -1.
</event>
<event>
 4    1  0.4440728E+000  0.1865465E+03  0.7818608E-02  0.1161614E+00
         21   -1    0    0  501  502  0.00000000000E+00  0.00000000000E+00  0.58589204023E+03  0.58589204023E+03  0.00000000000E+00 0. -1.
         21   -1    0    0  502  503 -0.00000000000E+00 -0.00000000000E+00 -0.10452238865E+03  0.10452238865E+03  0.00000000000E+00 0. -1.
          6    1    1    2  501    0  0.58520042309E+02 -0.42320386382E+02  0.46750974374E+03  0.50335372348E+03  0.17200000000E+03 0. -1.
         -6    1    1    2    0  503 -0.58520042309E+02  0.42320386382E+02  0.13859907839E+02  0.18706070539E+03  0.17200000000E+03 0. -1.
</event>
<event>
 4    1  0.4440728E+000  0.1897781E+03  0.7818608E-02  0.1158662E+00
         21   -1    0    0  501  502  0.00000000000E+00  0.00000000000E+00  0.42050405150E+02  0.42050405150E+02  0.00000000000E+00 0.  1.
         21   -1    0    0  502  503 -0.00000000000E+00 -0.00000000000E+00 -0.89483368023E+03  0.89483368023E+03  0.00000000000E+00 0.  1.
          6    1    1    2  501    0 -0.79685463850E+02  0.90530683638E+01 -0.32942232034E+03  0.38017732223E+03  0.17200000000E+03 0.  1.
         -6    1    1    2    0  503  0.79685463850E+02 -0.90530683638E+01 -0.52336095474E+03  0.55670676315E+03  0.17200000000E+03 0.  1.
</event>
<event>
 4    1  0.4440728E+000  0.1877361E+03  0.7818608E-02  0.1160519E+00
         21   -1    0    0  503  502  0.00000000000E+00  0.00000000000E+00  0.10200007733E+04  0.10200007733E+04  0.00000000000E+00 0.  1.
         21   -1    0    0  501  503 -0.00000000000E+00 -0.00000000000E+00 -0.34626253945E+02  0.34626253945E+02  0.00000000000E+00 0.  1.
          6    1    1    2  501    0  0.22464569028E+02  0.71806644044E+02  0.46855771590E+03  0.50476844604E+03  0.17200000000E+03 0.  1.
         -6    1    1    2    0  502 -0.22464569028E+02 -0.71806644044E+02  0.51681680348E+03  0.54985858123E+03  0.17200000000E+03 0.  1.
</event>
<event>
 4    1  0.4440728E+000  0.2004061E+03  0.7818608E-02  0.1149397E+00
         21   -1    0    0  501  502  0.00000000000E+00  0.00000000000E+00  0.95278251273E+03  0.95278251273E+03  0.00000000000E+00 0.  1.
         21   -1    0    0  502  503 -0.00000000000E+00 -0.00000000000E+00 -0.93154694951E+02  0.93154694951E+02  0.00000000000E+00 0.  1.
          6    1    1    2  501    0 -0.99394375729E+02 -0.26445490222E+02  0.81677358044E+03  0.84100040879E+03  0.17200000000E+03 0.  1.
         -6    1    1    2    0  503  0.99394375729E+02  0.26445490222E+02  0.42854237332E+02  0.20493679888E+03  0.17200000000E+03 0.  1.
</event>
<event>
 4    1  0.4440728E+000  0.1762894E+03  0.7818608E-02  0.1171443E+00
         21   -1    0    0  503  502  0.00000000000E+00  0.00000000000E+00  0.33665593020E+03  0.33665593020E+03  0.00000000000E+00 0.  1.
         21   -1    0    0  501  503 -0.00000000000E+00 -0.00000000000E+00 -0.14080229174E+03  0.14080229174E+03  0.00000000000E+00 0.  1.
          6    1    1    2  501    0 -0.14399630076E+02  0.35869078349E+02 -0.42167490661E+02  0.18126234412E+03  0.17200000000E+03 0.  1.
         -6    1    1    2    0  502  0.14399630076E+02 -0.35869078349E+02  0.23802112912E+03  0.29619587782E+03  0.17200000000E+03 0.  1.
</event>
<event>
 4    1  0.4440728E+000  0.2025372E+03  0.7818608E-02  0.1147616E+00
         21   -1    0    0  501  502  0.00000000000E+00  0.00000000000E+00  0.80031383099E+02  0.80031383099E+02  0.00000000000E+00 0.  1.
         21   -1    0    0  502  503 -0.00000000000E+00 -0.00000000000E+00 -0.66539337313E+03  0.66539337313E+03  0.00000000000E+00 0. -1.
          6    1    1    2  501    0  0.10588195066E+03 -0.15044737540E+02 -0.47130333068E+03  0.51297968879E+03  0.17200000000E+03 0. -1.
         -6    1    1    2    0  503 -0.10588195066E+03  0.15044737540E+02 -0.11405865935E+03  0.23244506744E+03  0.17200000000E+03 0.  1.
</event>
<event>
 4    1  0.4440728E+000  0.2057963E+03  0.7818608E-02  0.1144939E+00
         21   -1    0    0  501  502  0.00000000000E+00  0.00000000000E+00  0.24895611870E+03  0.24895611870E+03  0.00000000000E+00 0. -1.
         21   -1    0    0  502  503 -0.00000000000E+00 -0.00000000000E+00 -0.36733092073E+03  0.36733092073E+03  0.00000000000E+00 0. -1.
          6    1    1    2  501    0 -0.10690340477E+03  0.36603003763E+02  0.16659552112E+03  0.26477572678E+03  0.17200000000E+03 0. -1.
         -6    1    1    2    0  503  0.10690340477E+03 -0.36603003763E+02 -0.28497032315E+03  0.35151131264E+03  0.17200000000E+03 0. -1.
</event>
<event>
 4    1  0.4440728E+000  0.8499089E+03  0.7818608E-02  0.9490459E-01
         21   -1    0    0  501  502  0.00000000000E+00  0.00000000000E+00  0.10005220485E+04  0.10005220485E+04  0.00000000000E+00 0. -1.
         21   -1    0    0  502  503 -0.00000000000E+00 -0.00000000000E+00 -0.74792214529E+03  0.74792214529E+03  0.00000000000E+00 0.  1.
          6    1    1    2  501    0  0.83044567426E+03 -0.55866785908E+02  0.28915272724E+03  0.89774963956E+03  0.17200000000E+03 0. -1.
         -6    1    1    2    0  503 -0.83044567426E+03  0.55866785908E+02 -0.36552824023E+02  0.85069455423E+03  0.17200000000E+03 0.  1.
</event>
<event>
 4    1  0.4440728E+000  0.1814050E+03  0.7818608E-02  0.1166450E+00
         21   -1    0    0  503  502  0.00000000000E+00  0.00000000000E+00  0.48691658086E+03  0.48691658086E+03  0.00000000000E+00 0. -1.
         21   -1    0    0  501  503 -0.00000000000E+00 -0.00000000000E+00 -0.88326007586E+02  0.88326007586E+02  0.00000000000E+00 0. -1.
          6    1    1    2  501    0  0.45933322138E+02  0.34840901128E+02  0.59914669704E+02  0.19104325720E+03  0.17200000000E+03 0.  1.
         -6    1    1    2    0  502 -0.45933322138E+02 -0.34840901128E+02  0.33867590357E+03  0.38419933125E+03  0.17200000000E+03 0.  1.
</event>
<event>
 4    1  0.4440728E+000  0.1752850E+03  0.7818608E-02  0.1172446E+00
         21   -1    0    0  501  502  0.00000000000E+00  0.00000000000E+00  0.14102470611E+04  0.14102470611E+04  0.00000000000E+00 0.  1.
         21   -1    0    0  502  503 -0.00000000000E+00 -0.00000000000E+00 -0.23390569740E+02  0.23390569740E+02  0.00000000000E+00 0.  1.
          6    1    1    2  501    0 -0.10067367677E+02  0.32240770658E+02  0.88112438755E+03  0.89839023009E+03  0.17200000000E+03 0.  1.
         -6    1    1    2    0  503  0.10067367677E+02 -0.32240770658E+02  0.50573210380E+03  0.53524740074E+03  0.17200000000E+03 0.  1.
</event>
<event>
 4    1  0.4440728E+000  0.1893852E+03  0.7818608E-02  0.1159017E+00
         21   -1    0    0  501  502  0.00000000000E+00  0.00000000000E+00  0.52587092059E+02  0.52587092059E+02  0.00000000000E+00 0.  1.
         21   -1    0    0  502  503 -0.00000000000E+00 -0.00000000000E+00 -0.74626092854E+03  0.74626092854E+03  0.00000000000E+00 0. -1.
          6    1    1    2  501    0  0.38639771755E+02 -0.69207916930E+02 -0.22966867776E+03  0.29768182557E+03  0.17200000000E+03 0. -1.
         -6    1    1    2    0  503 -0.38639771755E+02  0.69207916930E+02 -0.46400515871E+03  0.50116619503E+03  0.17200000000E+03 0. -1.
</event>
<event>
 4    1  0.4440728E+000  0.1964292E+03  0.7818608E-02  0.1152787E+00
         21   -1    0    0  501  502  0.00000000000E+00  0.00000000000E+00  0.13076903126E+03  0.13076903126E+03  0.00000000000E+00 0.  1.
         21   -1    0    0  502  503 -0.00000000000E+00 -0.00000000000E+00 -0.66123819739E+03  0.66123819739E+03  0.00000000000E+00 0.  1.
          6    1    1    2  501    0  0.74649939084E+02 -0.58547664314E+02  0.29456937366E+02  0.19862566189E+03  0.17200000000E+03 0.  1.
         -6    1    1    2    0  503 -0.74649939084E+02  0.58547664314E+02 -0.55992610349E+03  0.59338156676E+03  0.17200000000E+03 0.  1.
</event>
<event>
 4    1  0.4440728E+000  0.1962991E+03  0.7818608E-02  0.1152900E+00
         21   -1    0    0  503  502  0.00000000000E+00  0.00000000000E+00  0.81493893780E+03  0.81493893780E+03  0.00000000000E+00 0. -1.
         21   -1    0    0  501  503 -0.00000000000E+00 -0.00000000000E+00 -0.14637091011E+03  0.14637091011E+03  0.00000000000E+00 0. -1.
          6    1    1    2  501    0  0.30263622912E+01  0.94552426085E+02 -0.61187158386E+02  0.20561417388E+03  0.17200000000E+03 0. -1.
         -6    1    1    2    0  502 -0.30263622912E+01 -0.94552426085E+02  0.72975518607E+03  0.75569567403E+03  0.17200000000E+03 0. -1.
</event>
<event>
 4    1  0.4440728E+000  0.2015091E+03  0.7818608E-02  0.1148472E+00
         21   -1    0    0  501  502  0.00000000000E+00  0.00000000000E+00  0.41718458709E+03  0.41718458709E+03  0.00000000000E+00 0.  1.
         21   -1    0    0  502  503 -0.00000000000E+00 -0.00000000000E+00 -0.12854333069E+03  0.12854333069E+03  0.00000000000E+00 0.  1.
          6    1    1    2  501    0  0.88516842679E+02  0.56450645419E+02  0.27877324606E+03  0.34397736775E+03  0.17200000000E+03 0.  1.
         -6    1    1    2    0  503 -0.88516842679E+02 -0.56450645419E+02  0.98680103346E+01  0.20175055002E+03  0.17200000000E+03 0.  1.
</event>
<event>
 4    1  0.4440728E+000  0.1877370E+03  0.7818608E-02  0.1160518E+00
         21   -1    0    0  503  502  0.00000000000E+00  0.00000000000E+00  0.94811566550E+02  0.94811566550E+02  0.00000000000E+00 0. -1.
         21   -1    0    0  501  503 -0.00000000000E+00 -0.00000000000E+00 -0.40604427015E+03  0.40604427015E+03  0.00000000000E+00 0.  1.
          6    1    1    2  501    0 -0.36994658278E+01  0.75149813979E+02 -0.22840688375E+03  0.29566008376E+03  0.17200000000E+03 0.  1.
         -6    1    1    2    0  502  0.36994658278E+01 -0.75149813979E+02 -0.82825819852E+02  0.20519575294E+03  0.17200000000E+03 0. -1.
</event>
<event>
 4    1  0.4440728E+000  0.2222380E+03  0.7818608E-02  0.1132225E+00
         21   -1    0    0  503  502  0.00000000000E+00  0.00000000000E+00  0.77672113730E+03  0.77672113730E+03  0.00000000000E+00 0. -1.
         21   -1    0    0  501  503 -0.00000000000E+00 -0.00000000000E+00 -0.63639419545E+02  0.63639419545E+02  0.00000000000E+00 0.  1.
          6    1    1    2  501    0 -0.12680730726E+03 -0.61037847601E+02  0.36854886904E+03  0.43036958638E+03  0.17200000000E+03 0. -1.
         -6    1    1    2    0  502  0.12680730726E+03  0.61037847601E+02  0.34453284871E+03  0.40999097046E+03  0.17200000000E+03 0.  1.
</event>
<event>
 4    1  0.4440728E+000  0.1912099E+03  0.7818608E-02  0.1157375E+00
         21   -1    0    0  503  502  0.00000000000E+00  0.00000000000E+00  0.94655086841E+02  0.94655086841E+02  0.00000000000E+00 0.  1.
         21   -1    0    0  501  503 -0.00000000000E+00 -0.00000000000E+00 -0.42015999664E+03  0.42015999664E+03  0.00000000000E+00 0.  1.
          6    1    1    2  501    0  0.64797591950E+01 -0.83278168366E+02 -0.23587133438E+03  0.30363881008E+03  0.17200000000E+03 0.  1.
         -6    1    1    2    0  502 -0.64797591950E+01  0.83278168366E+02 -0.89633575426E+02  0.21117627340E+03  0.17200000000E+03 0.  1.
</event>
<event>
 4    1  0.4440728E+000  0.2075007E+03  0.7818608E-02  0.1143561E+00
         21   -1    0    0  503  502  0.00000000000E+00  0.00000000000E+00  0.18161172836E+02  0.18161172836E+02  0.00000000000E+00 0. -1.
         21   -1    0    0  501  503 -0.00000000000E+00 -0.00000000000E+00 -0.24055579111E+04  0.24055579111E+04  0.00000000000E+00 0. -1.
          6    1    1    2  501    0 -0.36821648040E+02 -0.11007585556E+03 -0.13393665225E+04  0.13553446828E+04  0.17200000000E+03 0. -1.
         -6    1    1    2    0  502  0.36821648040E+02  0.11007585556E+03 -0.10480302158E+04  0.10683744012E+04  0.17200000000E+03 0. -1.
</event>
<event>
 4    1  0.4440728E+000  0.3073675E+03  0.7818608E-02  0.1081615E+00
         21   -1    0    0  503  502  0.00000000000E+00  0.00000000000E+00  0.56183793919E+03  0.56183793919E+03  0.00000000000E+00 0. -1.
         21   -1    0    0  501  503 -0.00000000000E+00 -0.00000000000E+00 -0.87785062750E+03  0.87785062750E+03  0.00000000000E+00 0. -1.
          6    1    1    2  501    0 -0.17518127423E+03 -0.18493858827E+03 -0.80524569110E+03  0.86191379111E+03  0.17200000000E+03 0. -1.
         -6    1    1    2    0  502  0.17518127423E+03  0.18493858827E+03  0.48923300279E+03  0.57777477557E+03  0.17200000000E+03 0. -1.
</event>
<event>
 4    1  0.4440728E+000  0.1735609E+03  0.7818608E-02  0.1174185E+00
         21   -1    0    0  503  502  0.00000000000E+00  0.00000000000E+00  0.76006092204E+02  0.76006092204E+02  0.00000000000E+00 0.  1.
         21   -1    0    0  501  503 -0.00000000000E+00 -0.00000000000E+00 -0.44161417751E+03  0.44161417751E+03  0.00000000000E+00 0.  1.
          6    1    1    2  501    0  0.23055078885E+02  0.27992810447E+01 -0.26568231838E+03  0.31734912468E+03  0.17200000000E+03 0.  1.
         -6    1    1    2    0  502 -0.23055078885E+02 -0.27992810447E+01 -0.99925766927E+02  0.20027114503E+03  0.17200000000E+03 0.  1.
</event>
<event>
 4    1  0.4440728E+000  0.2349567E+03  0.7818608E-02  0.1123199E+00
         21   -1    0    0  501  502  0.00000000000E+00  0.00000000000E+00  0.15641540614E+04  0.15641540614E+04  0.00000000000E+00 0.  1.
         21   -1    0    0  502  503 -0.00000000000E+00 -0.00000000000E+00 -0.48520481228E+02  0.48520481228E+02  0.00000000000E+00 0.  1.
          6    1    1    2  501    0  0.14507680627E+03  0.67626819107E+02  0.11788171883E+04  0.12020044217E+04  0.17200000000E+03 0.  1.
         -6    1    1    2    0  503 -0.14507680627E+03 -0.67626819107E+02  0.33681639187E+03  0.41067012092E+03  0.17200000000E+03 0.  1.
</event>
<event>
 4    1  0.4440728E+000  0.1890193E+03  0.7818608E-02  0.1159349E+00
         21   -1    0    0  501  502  0.00000000000E+00  0.00000000000E+00  0.18560251471E+03  0.18560251471E+03  0.00000000000E+00 0.  1.
         21   -1    0    0  502  503 -0.00000000000E+00 -0.00000000000E+00 -0.31509649530E+03  0.31509649530E+03  0.00000000000E+00 0. -1.
          6    1    1    2  501    0 -0.51951102303E+02 -0.58697399811E+02  0.91411541820E+02  0.20996278659E+03  0.17200000000E+03 0.  1.
         -6    1    1    2    0  503  0.51951102303E+02  0.58697399811E+02 -0.22090552241E+03  0.29073622342E+03  0.17200000000E+03 0. -1.
</event>
<event>
 4    1  0.4440728E+000  0.2033564E+03  0.7818608E-02  0.1146938E+00
         21   -1    0    0  501  502  0.00000000000E+00  0.00000000000E+00  0.13125892518E+03  0.13125892518E+03  0.00000000000E+00 0. -1.
         21   -1    0    0  502  503 -0.00000000000E+00 -0.00000000000E+00 -0.32042912859E+03  0.32042912859E+03  0.00000000000E+00 0. -1.
          6    1    1    2  501    0 -0.23051608871E+02  0.10601160745E+03 -0.65338250144E+02  0.21359523524E+03  0.17200000000E+03 0. -1.
         -6    1    1    2    0  503  0.23051608871E+02 -0.10601160745E+03 -0.12383195326E+03  0.23809281853E+03  0.17200000000E+03 0. -1.
</event>
<event>
 4    1  0.4440728E+000  0.1813039E+03  0.7818608E-02  0.1166547E+00
         21   -1    0    0  501  502  0.00000000000E+00  0.00000000000E+00  0.12142261855E+03  0.12142261855E+03  0.00000000000E+00 0. -1.
         21   -1    0    0  502  503 -0.00000000000E+00 -0.00000000000E+00 -0.37061951299E+03  0.37061951299E+03  0.00000000000E+00 0. -1.
          6    1    1    2  501    0 -0.42807915911E+02  0.38139212707E+02  0.31328295123E+01  0.18133100075E+03  0.17200000000E+03 0. -1.
         -6    1    1    2    0  503  0.42807915911E+02 -0.38139212707E+02 -0.25232972395E+03  0.31071113079E+03  0.17200000000E+03 0. -1.
</event>
<event>
 4    1  0.4440728E+000  0.2267436E+03  0.7818608E-02  0.1128953E+00
         21   -1    0    0  501  502  0.00000000000E+00  0.00000000000E+00  0.21224399938E+03  0.21224399938E+03  0.00000000000E+00 0.  1.
         21   -1    0    0  502  503 -0.00000000000E+00 -0.00000000000E+00 -0.37182264663E+03  0.37182264663E+03  0.00000000000E+00 0.  1.
          6    1    1    2  501    0  0.13479462463E+02 -0.14712902175E+03  0.92615139840E+02  0.24492898782E+03  0.17200000000E+03 0. -1.
         -6    1    1    2    0  503 -0.13479462463E+02  0.14712902175E+03 -0.25219378710E+03  0.33913765818E+03  0.17200000000E+03 0. -1.
</event>
<event>
 4    1  0.4440728E+000  0.2105381E+03  0.7818608E-02  0.1141141E+00
         21   -1    0    0  503  502  0.00000000000E+00  0.00000000000E+00  0.68904484196E+02  0.68904484196E+02  0.00000000000E+00 0.  1.
         21   -1    0    0  501  503 -0.00000000000E+00 -0.00000000000E+00 -0.77331576480E+03  0.77331576480E+03  0.00000000000E+00 0. -1.
          6    1    1    2  501    0 -0.12138421212E+03  0.28541579842E+01 -0.52487481394E+03  0.56552616516E+03  0.17200000000E+03 0. -1.
         -6    1    1    2    0  502  0.12138421212E+03 -0.28541579842E+01 -0.17953646666E+03  0.27669408384E+03  0.17200000000E+03 0.  1.
</event>
<event>
 4    1  0.4440728E+000  0.2023134E+03  0.7818608E-02  0.1147802E+00
         21   -1    0    0  501  502  0.00000000000E+00  0.00000000000E+00  0.57116018439E+02  0.57116018439E+02  0.00000000000E+00 0.  1.
         21   -1    0    0  502  503 -0.00000000000E+00 -0.00000000000E+00 -0.76410852305E+03  0.76410852305E+03  0.00000000000E+00 0. -1.
          6    1    1    2  501    0 -0.10280954175E+03  0.27873301140E+02 -0.45585604215E+03  0.49873385082E+03  0.17200000000E+03 0. -1.
         -6    1    1    2    0  503  0.10280954175E+03 -0.27873301140E+02 -0.25113646247E+03  0.32249069067E+03  0.17200000000E+03 0. -1.
</event>
<event>
 4    1  0.4440728E+000  0.2644116E+03  0.7818608E-02  0.1104521E+00
         21   -1    0    0  501  502  0.00000000000E+00  0.00000000000E+00  0.58591543718E+03  0.58591543718E+03  0.00000000000E+00 0.  1.
         21   -1    0    0  502  503 -0.00000000000E+00 -0.00000000000E+00 -0.15589381860E+03  0.15589381860E+03  0.00000000000E+00 0.  1.
          6    1    1    2  501    0 -0.30475080639E+02  0.19849628350E+03  0.39465448347E+03  0.47504280484E+03  0.17200000000E+03 0.  1.
         -6    1    1    2    0  503  0.30475080639E+02 -0.19849628350E+03  0.35367135103E+02  0.26676645094E+03  0.17200000000E+03 0.  1.
</event>
<event>
 4    1  0.4440728E+000  0.3101131E+03  0.7818608E-02  0.1080292E+00
         21   -1    0    0  503  502  0.00000000000E+00  0.00000000000E+00  0.18860697669E+04  0.18860697669E+04  0.00000000000E+00 0. -1.
         21   -1    0    0  501  503 -0.00000000000E+00 -0.00000000000E+00 -0.67658083981E+02  0.67658083981E+02  0.00000000000E+00 0. -1.
          6    1    1    2  501    0  0.22728786319E+03  0.12217361218E+03  0.42434094041E+03  0.52558100991E+03  0.17200000000E+03 0. -1.
         -6    1    1    2    0  502 -0.22728786319E+03 -0.12217361218E+03  0.13940707425E+04  0.14281468410E+04  0.17200000000E+03 0. -1.
</event>
<event>
 4    1  0.4440728E+000  0.2074645E+03  0.7818608E-02  0.1143590E+00
         21   -1    0    0  501  502  0.00000000000E+00  0.00000000000E+00  0.19077597431E+03  0.19077597431E+03  0.00000000000E+00 0.  1.
         21   -1    0    0  502  503 -0.00000000000E+00 -0.00000000000E+00 -0.23411828763E+03  0.23411828763E+03  0.00000000000E+00 0. -1.
          6    1    1    2  501    0  0.11458921006E+03  0.18078905321E+02 -0.62164021898E+02  0.21657769852E+03  0.17200000000E+03 0. -1.
         -6    1    1    2    0  503 -0.11458921006E+03 -0.18078905321E+02  0.18821708574E+02  0.20831656341E+03  0.17200000000E+03 0.  1.
</event>
<event>
 4    1  0.4440728E+000  0.2183619E+03  0.7818608E-02  0.1135110E+00
         21   -1    0    0  503  502  0.00000000000E+00  0.00000000000E+00  0.27598607868E+03  0.27598607868E+03  0.00000000000E+00 0. -1.
         21   -1    0    0  501  503 -0.00000000000E+00 -0.00000000000E+00 -0.17333138602E+03  0.17333138602E+03  0.00000000000E+00 0. -1.
          6    1    1    2  501    0  0.33330694376E+02  0.13033404337E+03  0.38532971031E+02  0.22173562615E+03  0.17200000000E+03 0.  1.
         -6    1    1    2    0  502 -0.33330694376E+02 -0.13033404337E+03  0.64121721638E+02  0.22758183855E+03  0.17200000000E+03 0.  1.
</event>
<event>
 4    1  0.4440728E+000  0.1762036E+03  0.7818608E-02  0.1171529E+00
         21   -1    0    0  501  502  0.00000000000E+00  0.00000000000E+00  0.10945203846E+03  0.10945203846E+03  0.00000000000E+00 0.  1.
         21   -1    0    0  502  503 -0.00000000000E+00 -0.00000000000E+00 -0.59915891507E+03  0.59915891507E+03  0.00000000000E+00 0.  1.
          6    1    1    2  501    0  0.37023852045E+02 -0.96403920032E+01  0.12246757581E+02  0.17662866656E+03  0.17200000000E+03 0.  1.
         -6    1    1    2    0  503 -0.37023852045E+02  0.96403920032E+01 -0.50195363419E+03  0.53198228698E+03  0.17200000000E+03 0.  1.
</event>
<event>
 4    1  0.4440728E+000  0.1831871E+03  0.7818608E-02  0.1164754E+00
         21   -1    0    0  503  502  0.00000000000E+00  0.00000000000E+00  0.89765000664E+03  0.89765000664E+03  0.00000000000E+00 0.  1.
         21   -1    0    0  501  503 -0.00000000000E+00 -0.00000000000E+00 -0.65104584466E+02  0.65104584466E+02  0.00000000000E+00 0.  1.
          6    1    1    2  501    0 -0.50692641273E+02 -0.37467040692E+02  0.10216183769E+03  0.20974881191E+03  0.17200000000E+03 0.  1.
         -6    1    1    2    0  502  0.50692641273E+02  0.37467040692E+02  0.73038358448E+03  0.75300577919E+03  0.17200000000E+03 0.  1.
</event>
<event>
 4    1  0.4440728E+000  0.1886411E+03  0.7818608E-02  0.1159693E+00
         21   -1    0    0  501  502  0.00000000000E+00  0.00000000000E+00  0.34085224566E+02  0.34085224566E+02  0.00000000000E+00 0. -1.
         21   -1    0    0  502  503 -0.00000000000E+00 -0.00000000000E+00 -0.10783683456E+04  0.10783683456E+04  0.00000000000E+00 0. -1.
          6    1    1    2  501    0 -0.58249935820E+01 -0.77249747199E+02 -0.42286225362E+03  0.46303125114E+03  0.17200000000E+03 0. -1.
         -6    1    1    2    0  503  0.58249935820E+01  0.77249747199E+02 -0.62142086736E+03  0.64942231898E+03  0.17200000000E+03 0. -1.
</event>
<event>
 4    1  0.4440728E+000  0.3438157E+03  0.7818608E-02  0.1065182E+00
         21   -1    0    0  501  502  0.00000000000E+00  0.00000000000E+00  0.14518428024E+04  0.14518428024E+04  0.00000000000E+00 0.  1.
         21   -1    0    0  502  503 -0.00000000000E+00 -0.00000000000E+00 -0.15968867546E+03  0.15968867546E+03  0.00000000000E+00 0.  1.
          6    1    1    2  501    0  0.76672361601E+02 -0.28765710485E+03  0.12101890263E+04  0.12580805779E+04  0.17200000000E+03 0.  1.
         -6    1    1    2    0  503 -0.76672361601E+02  0.28765710485E+03  0.81965100671E+02  0.35345090003E+03  0.17200000000E+03 0.  1.
</event>
<event>
 4    1  0.4440728E+000  0.3361634E+03  0.7818608E-02  0.1068442E+00
         21   -1    0    0  501  502  0.00000000000E+00  0.00000000000E+00  0.32591919066E+03  0.32591919066E+03  0.00000000000E+00 0. -1.
         21   -1    0    0  502  503 -0.00000000000E+00 -0.00000000000E+00 -0.48620124350E+03  0.48620124350E+03  0.00000000000E+00 0. -1.
          6    1    1    2  501    0  0.12945718018E+03 -0.25819121308E+03  0.13734192073E+03  0.36313725669E+03  0.17200000000E+03 0. -1.
         -6    1    1    2    0  503 -0.12945718018E+03  0.25819121308E+03 -0.29762397356E+03  0.44898317747E+03  0.17200000000E+03 0. -1.
</event>
<event>
 4    1  0.4440728E+000  0.1975185E+03  0.7818608E-02  0.1151850E+00
         21   -1    0    0  503  502  0.00000000000E+00  0.00000000000E+00  0.25860229318E+03  0.25860229318E+03  0.00000000000E+00 0. -1.
         21   -1    0    0  501  503 -0.00000000000E+00 -0.00000000000E+00 -0.16256221095E+03  0.16256221095E+03  0.00000000000E+00 0. -1.
          6    1    1    2  501    0 -0.96582506145E+02  0.10068293846E+02 -0.84720778112E+01  0.19770009392E+03  0.17200000000E+03 0. -1.
         -6    1    1    2    0  502  0.96582506145E+02 -0.10068293846E+02  0.10451216004E+03  0.22346441021E+03  0.17200000000E+03 0. -1.
</event>
<event>
 4    1  0.4440728E+000  0.1815270E+03  0.7818608E-02  0.1166333E+00
         21   -1    0    0  501  502  0.00000000000E+00  0.00000000000E+00  0.23288007114E+03  0.23288007114E+03  0.00000000000E+00 0.  1.
         21   -1    0    0  502  503 -0.00000000000E+00 -0.00000000000E+00 -0.14358031555E+03  0.14358031555E+03  0.00000000000E+00 0.  1.
          6    1    1    2  501    0 -0.42513816735E+02 -0.39504641407E+02  0.67318514710E+02  0.19360739585E+03  0.17200000000E+03 0.  1.
         -6    1    1    2    0  503  0.42513816735E+02  0.39504641407E+02  0.21981240877E+02  0.18285299083E+03  0.17200000000E+03 0.  1.
</event>
<event>
 4    1  0.4440728E+000  0.1897835E+03  0.7818608E-02  0.1158657E+00
         21   -1    0    0  501  502  0.00000000000E+00  0.00000000000E+00  0.23009215713E+03  0.23009215713E+03  0.00000000000E+00 0. -1.
         21   -1    0    0  502  503 -0.00000000000E+00 -0.00000000000E+00 -0.21876237461E+03  0.21876237461E+03  0.00000000000E+00 0.  1.
          6    1    1    2  501    0 -0.15930715667E+01  0.80195002172E+02  0.12535974736E+03  0.22744854915E+03  0.17200000000E+03 0. -1.
         -6    1    1    2    0  503  0.15930715667E+01 -0.80195002172E+02 -0.11402996483E+03  0.22140598260E+03  0.17200000000E+03 0.  1.
</event>
<event>
 4    1  0.4440728E+000  0.2533485E+03  0.7818608E-02  0.1111207E+00
         21   -1    0    0  503  502  0.00000000000E+00  0.00000000000E+00  0.28455906602E+03  0.28455906602E+03  0.00000000000E+00 0. -1.
         21   -1    0    0  501  503 -0.00000000000E+00 -0.00000000000E+00 -0.23339577700E+03  0.23339577700E+03  0.00000000000E+00 0. -1.
          6    1    1    2  501    0  0.16124725377E+03 -0.92740419846E+02 -0.21867166375E+02  0.25429045457E+03  0.17200000000E+03 0.  1.
         -6    1    1    2    0  502 -0.16124725377E+03  0.92740419846E+02  0.73030455395E+02  0.26366438845E+03  0.17200000000E+03 0.  1.
</event>
<event>
 4    1  0.4440728E+000  0.2291759E+03  0.7818608E-02  0.1127221E+00
         21   -1    0    0  503  502  0.00000000000E+00  0.00000000000E+00  0.13438027112E+03  0.13438027112E+03  0.00000000000E+00 0.  1.
         21   -1    0    0  501  503 -0.00000000000E+00 -0.00000000000E+00 -0.39119910800E+03  0.39119910800E+03  0.00000000000E+00 0. -1.
          6    1    1    2  501    0  0.14648495545E+03  0.38467752530E+02 -0.12048256051E+03  0.25891631379E+03  0.17200000000E+03 0.  1.
         -6    1    1    2    0  502 -0.14648495545E+03 -0.38467752530E+02 -0.13633627637E+03  0.26666306533E+03  0.17200000000E+03 0. -1.
</event>
<event>
 4    1  0.4440728E+000  0.2791930E+03  0.7818608E-02  0.1096131E+00
         21   -1    0    0  503  502  0.00000000000E+00  0.00000000000E+00  0.32319248287E+04  0.32319248287E+04  0.00000000000E+00 0. -1.
         21   -1    0    0  501  503 -0.00000000000E+00 -0.00000000000E+00 -0.27023292973E+02  0.27023292973E+02  0.00000000000E+00 0.  1.
          6    1    1    2  501    0 -0.20638192880E+03  0.75968587710E+02  0.21367030263E+04  0.21548662486E+04  0.17200000000E+03 0.  1.
         -6    1    1    2    0  502  0.20638192880E+03 -0.75968587710E+02  0.10681985094E+04  0.11040818730E+04  0.17200000000E+03 0.  1.
</event>
<event>
 4    1  0.4440728E+000  0.2010227E+03  0.7818608E-02  0.1148879E+00
         21   -1    0    0  503  502  0.00000000000E+00  0.00000000000E+00  0.71606448416E+03  0.71606448416E+03  0.00000000000E+00 0. -1.
         21   -1    0    0  501  503 -0.00000000000E+00 -0.00000000000E+00 -0.63078911556E+02  0.63078911556E+02  0.00000000000E+00 0. -1.
          6    1    1    2  501    0 -0.10400416108E+03  0.30420326350E+01  0.45293786624E+03  0.49554296500E+03  0.17200000000E+03 0. -1.
         -6    1    1    2    0  502  0.10400416108E+03 -0.30420326350E+01  0.20004770637E+03  0.28360043072E+03  0.17200000000E+03 0. -1.
</event>
<event>
 4    1  0.4440728E+000  0.2286430E+03  0.7818608E-02  0.1127599E+00
         21   -1    0    0  503  502  0.00000000000E+00  0.00000000000E+00  0.83280622146E+03  0.83280622146E+03  0.00000000000E+00 0. -1.
         21   -1    0    0  501  503 -0.00000000000E+00 -0.00000000000E+00 -0.63359626576E+02  0.63359626576E+02  0.00000000000E+00 0. -1.
          6    1    1    2  501    0 -0.60800730384E+02  0.13782926318E+03  0.42784361917E+03  0.48510596479E+03  0.17200000000E+03 0. -1.
         -6    1    1    2    0  502  0.60800730384E+02 -0.13782926318E+03  0.34160297571E+03  0.41105988325E+03  0.17200000000E+03 0. -1.
</event>
<event>
 4    1  0.4440728E+000  0.2199682E+03  0.7818608E-02  0.1133907E+00
         21   -1    0    0  503  502  0.00000000000E+00  0.00000000000E+00  0.12566230016E+04  0.12566230016E+04  0.00000000000E+00 0. -1.
         21   -1    0    0  501  503 -0.00000000000E+00 -0.00000000000E+00 -0.38665537042E+02  0.38665537042E+02  0.00000000000E+00 0. -1.
          6    1    1    2  501    0 -0.88985001913E+02 -0.10432482129E+03  0.56721951753E+03  0.60837815541E+03  0.17200000000E+03 0. -1.
         -6    1    1    2    0  502  0.88985001913E+02  0.10432482129E+03  0.65073794706E+03  0.68691038327E+03  0.17200000000E+03 0. -1.
</event>
<event>
 4    1  0.4440728E+000  0.1903286E+03  0.7818608E-02  0.1158165E+00
         21   -1    0    0  503  502  0.00000000000E+00  0.00000000000E+00  0.36534933412E+03  0.36534933412E+03  0.00000000000E+00 0.  1.
         21   -1    0    0  501  503 -0.00000000000E+00 -0.00000000000E+00 -0.99706790994E+02  0.99706790994E+02  0.00000000000E+00 0.  1.
          6    1    1    2  501    0  0.43995316942E+02  0.68595800082E+02  0.15017263065E+03  0.24243925156E+03  0.17200000000E+03 0.  1.
         -6    1    1    2    0  502 -0.43995316942E+02 -0.68595800082E+02  0.11546991247E+03  0.22261687355E+03  0.17200000000E+03 0.  1.
</event>
<event>
 4    1  0.4440728E+000  0.1889729E+03  0.7818608E-02  0.1159391E+00
         21   -1    0    0  501  502  0.00000000000E+00  0.00000000000E+00  0.46352400209E+03  0.46352400209E+03  0.00000000000E+00 0.  1.
         21   -1    0    0  502  503 -0.00000000000E+00 -0.00000000000E+00 -0.96914605743E+02  0.96914605743E+02  0.00000000000E+00 0.  1.
          6    1    1    2  501    0  0.75073725201E+02  0.22151406419E+02  0.31019616696E+03  0.36322501431E+03  0.17200000000E+03 0. -1.
         -6    1    1    2    0  503 -0.75073725201E+02 -0.22151406419E+02  0.56413229389E+02  0.19721359353E+03  0.17200000000E+03 0. -1.
</event>
<event>
 4    1  0.4440728E+000  0.2320842E+03  0.7818608E-02  0.1125181E+00
         21   -1    0    0  503  502  0.00000000000E+00  0.00000000000E+00  0.18927161249E+02  0.18927161249E+02  0.00000000000E+00 0. -1.
         21   -1    0    0  501  503 -0.00000000000E+00 -0.00000000000E+00 -0.30113384029E+04  0.30113384029E+04  0.00000000000E+00 0.  1.
          6    1    1    2  501    0  0.10995909224E+03  0.11039956205E+03 -0.18514358474E+04  0.18659254439E+04  0.17200000000E+03 0.  1.
         -6    1    1    2    0  502 -0.10995909224E+03 -0.11039956205E+03 -0.11409753942E+04  0.11643401202E+04  0.17200000000E+03 0. -1.
</event>
<event>
 4    1  0.4440728E+000  0.1957203E+03  0.7818608E-02  0.1153401E+00
         21   -1    0    0  501  502  0.00000000000E+00  0.00000000000E+00  0.36413972618E+03  0.36413972618E+03  0.00000000000E+00 0.  1.
         21   -1    0    0  502  503 -0.00000000000E+00 -0.00000000000E+00 -0.22847560584E+03  0.22847560584E+03  0.00000000000E+00 0. -1.
          6    1    1    2  501    0 -0.87783718230E+02  0.31882140504E+02  0.28548603706E+03  0.34613397613E+03  0.17200000000E+03 0.  1.
         -6    1    1    2    0  503  0.87783718230E+02 -0.31882140504E+02 -0.14982191672E+03  0.24648135589E+03  0.17200000000E+03 0. -1.
</event>
<event>
 4    1  0.4440728E+000  0.2354487E+03  0.7818608E-02  0.1122862E+00
         21   -1    0    0  503  502  0.00000000000E+00  0.00000000000E+00  0.48792899270E+02  0.48792899270E+02  0.00000000000E+00 0. -1.
         21   -1    0    0  501  503 -0.00000000000E+00 -0.00000000000E+00 -0.11367239563E+04  0.11367239563E+04  0.00000000000E+00 0. -1.
          6    1    1    2  501    0 -0.97611691128E+02 -0.12776556271E+03 -0.53065281479E+03  0.58054154985E+03  0.17200000000E+03 0. -1.
         -6    1    1    2    0  502  0.97611691128E+02  0.12776556271E+03 -0.55727824225E+03  0.60497530573E+03  0.17200000000E+03 0. -1.
</event>
<event>
 4    1  0.4440728E+000  0.2143498E+03  0.7818608E-02  0.1138167E+00
         21   -1    0    0  501  502  0.00000000000E+00  0.00000000000E+00  0.73981110243E+02  0.73981110243E+02  0.00000000000E+00 0. -1.
         21   -1    0    0  502  503 -0.00000000000E+00 -0.00000000000E+00 -0.66498269764E+03  0.66498269764E+03  0.00000000000E+00 0.  1.
          6    1    1    2  501    0  0.12610601612E+03  0.21426361448E+02 -0.20052955390E+03  0.29352669087E+03  0.17200000000E+03 0.  1.
         -6    1    1    2    0  503 -0.12610601612E+03 -0.21426361448E+02 -0.39047203349E+03  0.44543711701E+03  0.17200000000E+03 0. -1.
</event>
<event>
 4    1  0.4440728E+000  0.2355527E+03  0.7818608E-02  0.1122791E+00
         21   -1    0    0  501  502  0.00000000000E+00  0.00000000000E+00  0.96061351258E+02  0.96061351258E+02  0.00000000000E+00 0.  1.
         21   -1    0    0  502  503 -0.00000000000E+00 -0.00000000000E+00 -0.73029748857E+03  0.73029748857E+03  0.00000000000E+00 0.  1.
          6    1    1    2  501    0 -0.16085904225E+03 -0.50450771293E+01 -0.12818672308E+03  0.26817330265E+03  0.17200000000E+03 0.  1.
         -6    1    1    2    0  503  0.16085904225E+03  0.50450771293E+01 -0.50604941423E+03  0.55818553718E+03  0.17200000000E+03 0.  1.
</event>
<event>
 4    1  0.4440728E+000  0.2093975E+03  0.7818608E-02  0.1142044E+00
         21   -1    0    0  503  502  0.00000000000E+00  0.00000000000E+00  0.31250832809E+03  0.31250832809E+03  0.00000000000E+00 0.  1.
         21   -1    0    0  501  503 -0.00000000000E+00 -0.00000000000E+00 -0.14123556810E+03  0.14123556810E+03  0.00000000000E+00 0.  1.
          6    1    1    2  501    0 -0.62575002769E+02  0.10172361162E+03  0.67247624428E+02  0.21993082350E+03  0.17200000000E+03 0.  1.
         -6    1    1    2    0  502  0.62575002769E+02 -0.10172361162E+03  0.10402513557E+03  0.23381307270E+03  0.17200000000E+03 0.  1.
</event>
<event>
 4    1  0.4440728E+000  0.2043917E+03  0.7818608E-02  0.1146086E+00
         21   -1    0    0  503  502  0.00000000000E+00  0.00000000000E+00  0.21508124713E+03  0.21508124713E+03  0.00000000000E+00 0. -1.
         21   -1    0    0  501  503 -0.00000000000E+00 -0.00000000000E+00 -0.24932803270E+03  0.24932803270E+03  0.00000000000E+00 0. -1.
          6    1    1    2  501    0  0.69108335364E+01 -0.11020079363E+03 -0.12627741736E+03  0.24025395037E+03  0.17200000000E+03 0. -1.
         -6    1    1    2    0  502 -0.69108335364E+01  0.11020079363E+03  0.92030631793E+02  0.22415532946E+03  0.17200000000E+03 0. -1.
</event>
<event>
 4    1  0.4440728E+000  0.1803605E+03  0.7818608E-02  0.1167455E+00
         21   -1    0    0  503  502  0.00000000000E+00  0.00000000000E+00  0.31218985370E+02  0.31218985370E+02  0.00000000000E+00 0.  1.
         21   -1    0    0  501  503 -0.00000000000E+00 -0.00000000000E+00 -0.12129618868E+04  0.12129618868E+04  0.00000000000E+00 0.  1.
          6    1    1    2  501    0  0.11734596019E+02 -0.52992649369E+02 -0.82442701690E+03  0.84392525014E+03  0.17200000000E+03 0.  1.
         -6    1    1    2    0  502 -0.11734596019E+02  0.52992649369E+02 -0.35731588457E+03  0.40025562207E+03  0.17200000000E+03 0.  1.
</event>
<event>
 4    1  0.4440728E+000  0.1871245E+03  0.7818608E-02  0.1161081E+00
         21   -1    0    0  501  502  0.00000000000E+00  0.00000000000E+00  0.39267870006E+03  0.39267870006E+03  0.00000000000E+00 0.  1.
         21   -1    0    0  502  503 -0.00000000000E+00 -0.00000000000E+00 -0.11438096412E+03  0.11438096412E+03  0.00000000000E+00 0.  1.
          6    1    1    2  501    0 -0.51344787557E+02  0.52870669492E+02  0.25817364402E+03  0.31885612017E+03  0.17200000000E+03 0.  1.
         -6    1    1    2    0  503  0.51344787557E+02 -0.52870669492E+02  0.20124091923E+02  0.18820354401E+03  0.17200000000E+03 0.  1.
</event>
<event>
 4    1  0.4440728E+000  0.2322236E+03  0.7818608E-02  0.1125084E+00
         21   -1    0    0  501  502  0.00000000000E+00  0.00000000000E+00  0.70971090475E+03  0.70971090475E+03  0.00000000000E+00 0. -1.
         21   -1    0    0  502  503 -0.00000000000E+00 -0.00000000000E+00 -0.12766157848E+03  0.12766157848E+03  0.00000000000E+00 0.  1.
          6    1    1    2  501    0  0.15435850584E+03 -0.22742843968E+02  0.24643764786E+02  0.23352751534E+03  0.17200000000E+03 0.  1.
         -6    1    1    2    0  503 -0.15435850584E+03  0.22742843968E+02  0.55740556148E+03  0.60384496789E+03  0.17200000000E+03 0. -1.
</event>
<event>
 4    1  0.4440728E+000  0.1834393E+03  0.7818608E-02  0.1164515E+00
         21   -1    0    0  501  502  0.00000000000E+00  0.00000000000E+00  0.56041688839E+02  0.56041688839E+02  0.00000000000E+00 0.  1.
         21   -1    0    0  502  503 -0.00000000000E+00 -0.00000000000E+00 -0.11246310113E+04  0.11246310113E+04  0.00000000000E+00 0.  1.
          6    1    1    2  501    0  0.26145522122E+02  0.58158411150E+02 -0.13126506780E+03  0.22556707902E+03  0.17200000000E+03 0. -1.
         -6    1    1    2    0  503 -0.26145522122E+02 -0.58158411150E+02 -0.93732425466E+03  0.95510562112E+03  0.17200000000E+03 0. -1.
</event>
<event>
 4    1  0.4440728E+000  0.1890838E+03  0.7818608E-02  0.1159290E+00
         21   -1    0    0  503  502  0.00000000000E+00  0.00000000000E+00  0.57820641902E+03  0.57820641902E+03  0.00000000000E+00 0. -1.
         21   -1    0    0  501  503 -0.00000000000E+00 -0.00000000000E+00 -0.63488914788E+02  0.63488914788E+02  0.00000000000E+00 0. -1.
          6    1    1    2  501    0 -0.72762277282E+02 -0.29568881439E+02  0.20555379383E+03  0.27929380570E+03  0.17200000000E+03 0. -1.
         -6    1    1    2    0  502  0.72762277282E+02  0.29568881439E+02  0.30916371040E+03  0.36240152811E+03  0.17200000000E+03 0. -1.
</event>
<event>
 4    1  0.4440728E+000  0.2454202E+03  0.7818608E-02  0.1116234E+00
         21   -1    0    0  501  502  0.00000000000E+00  0.00000000000E+00  0.36135035063E+03  0.36135035063E+03  0.00000000000E+00 0.  1.
         21   -1    0    0  502  503 -0.00000000000E+00 -0.00000000000E+00 -0.16702562395E+03  0.16702562395E+03  0.00000000000E+00 0.  1.
          6    1    1    2  501    0  0.13031693350E+03 -0.11689545354E+03  0.85201212962E+02  0.25978894685E+03  0.17200000000E+03 0.  1.
         -6    1    1    2    0  503 -0.13031693350E+03  0.11689545354E+03  0.10912351372E+03  0.26858702773E+03  0.17200000000E+03 0.  1.
</event>
<event>
 4    1  0.4440728E+000  0.1870196E+03  0.7818608E-02  0.1161177E+00
         21   -1    0    0  503  502  0.00000000000E+00  0.00000000000E+00  0.13038501637E+03  0.13038501637E+03  0.00000000000E+00 0. -1.
         21   -1    0    0  501  503 -0.00000000000E+00 -0.00000000000E+00 -0.26826640822E+03  0.26826640822E+03  0.00000000000E+00 0.  1.
          6    1    1    2  501    0 -0.62046038537E+02  0.39276388319E+02 -0.67603390343E+02  0.19886317900E+03  0.17200000000E+03 0.  1.
         -6    1    1    2    0  502  0.62046038537E+02 -0.39276388319E+02 -0.70278001516E+02  0.19978824559E+03  0.17200000000E+03 0. -1.
</event>
<event>
 4    1  0.4440728E+000  0.1901688E+03  0.7818608E-02  0.1158309E+00
         21   -1    0    0  503  502  0.00000000000E+00  0.00000000000E+00  0.21381272715E+03  0.21381272715E+03  0.00000000000E+00 0. -1.
         21   -1    0    0  501  503 -0.00000000000E+00 -0.00000000000E+00 -0.17159259570E+04  0.17159259570E+04  0.00000000000E+00 0. -1.
          6    1    1    2  501    0 -0.80033369282E+02  0.13222721397E+02 -0.16671387501E+04  0.16779498779E+04  0.17200000000E+03 0. -1.
         -6    1    1    2    0  502  0.80033369282E+02 -0.13222721397E+02  0.16502552034E+03  0.25178880619E+03  0.17200000000E+03 0. -1.
</event>
<event>
 4    1  0.4440728E+000  0.2321690E+03  0.7818608E-02  0.1125122E+00
         21   -1    0    0  501  502  0.00000000000E+00  0.00000000000E+00  0.12112885904E+03  0.12112885904E+03  0.00000000000E+00 0.  1.
         21   -1    0    0  502  503 -0.00000000000E+00 -0.00000000000E+00 -0.56577609821E+03  0.56577609821E+03  0.00000000000E+00 0. -1.
          6    1    1    2  501    0 -0.12744528147E+03  0.89867340685E+02 -0.63639515869E+02  0.24073310257E+03  0.17200000000E+03 0.  1.
         -6    1    1    2    0  503  0.12744528147E+03 -0.89867340685E+02 -0.38100772330E+03  0.44617185468E+03  0.17200000000E+03 0. -1.
</event>
<event>
 4    1  0.4440728E+000  0.1768570E+03  0.7818608E-02  0.1170880E+00
         21   -1    0    0  503  502  0.00000000000E+00  0.00000000000E+00  0.21366084570E+03  0.21366084570E+03  0.00000000000E+00 0. -1.
         21   -1    0    0  501  503 -0.00000000000E+00 -0.00000000000E+00 -0.27061566817E+03  0.27061566817E+03  0.00000000000E+00 0. -1.
          6    1    1    2  501    0 -0.26029397905E+02 -0.31888278087E+02 -0.19253180382E+03  0.26143237618E+03  0.17200000000E+03 0. -1.
         -6    1    1    2    0  502  0.26029397905E+02  0.31888278087E+02  0.13557698135E+03  0.22284413770E+03  0.17200000000E+03 0. -1.
</event>
<event>
 4    1  0.4440728E+000  0.2095730E+03  0.7818608E-02  0.1141905E+00
         21   -1    0    0  503  502  0.00000000000E+00  0.00000000000E+00  0.62470910638E+03  0.62470910638E+03  0.00000000000E+00 0. -1.
         21   -1    0    0  501  503 -0.00000000000E+00 -0.00000000000E+00 -0.70493450843E+02  0.70493450843E+02  0.00000000000E+00 0. -1.
          6    1    1    2  501    0  0.11875201806E+03 -0.15323591919E+02  0.29502820410E+03  0.36188740719E+03  0.17200000000E+03 0. -1.
         -6    1    1    2    0  502 -0.11875201806E+03  0.15323591919E+02  0.25918745143E+03  0.33331515004E+03  0.17200000000E+03 0. -1.
</event>
<event>
 4    1  0.4440728E+000  0.2161399E+03  0.7818608E-02  0.1136794E+00
         21   -1    0    0  501  502  0.00000000000E+00  0.00000000000E+00  0.22890586321E+03  0.22890586321E+03  0.00000000000E+00 0.  1.
         21   -1    0    0  502  503 -0.00000000000E+00 -0.00000000000E+00 -0.52845463212E+03  0.52845463212E+03  0.00000000000E+00 0. -1.
          6    1    1    2  501    0 -0.13076331976E+03 -0.57808854709E+01  0.14690561807E+03  0.26133833445E+03  0.17200000000E+03 0.  1.
         -6    1    1    2    0  503  0.13076331976E+03  0.57808854709E+01 -0.44645438698E+03  0.49602216088E+03  0.17200000000E+03 0. -1.
</event>
<event>
 4    1  0.4440728E+000  0.1792241E+03  0.7818608E-02  0.1168556E+00
         21   -1    0    0  503  502  0.00000000000E+00  0.00000000000E+00  0.15767265380E+03  0.15767265380E+03  0.00000000000E+00 0. -1.
         21   -1    0    0  501  503 -0.00000000000E+00 -0.00000000000E+00 -0.51454179420E+03  0.51454179420E+03  0.00000000000E+00 0. -1.
          6    1    1    2  501    0  0.33964002330E+02 -0.37198378034E+02 -0.43966415797E+03  0.47479031644E+03  0.17200000000E+03 0. -1.
         -6    1    1    2    0  502 -0.33964002330E+02  0.37198378034E+02  0.82795017572E+02  0.19742413155E+03  0.17200000000E+03 0. -1.
</event>
<event>
 4    1  0.4440728E+000  0.2769933E+03  0.7818608E-02  0.1097343E+00
         21   -1    0    0  503  502  0.00000000000E+00  0.00000000000E+00  0.10529032473E+04  0.10529032473E+04  0.00000000000E+00 0. -1.
         21   -1    0    0  501  503 -0.00000000000E+00 -0.00000000000E+00 -0.84774974696E+02  0.84774974696E+02  0.00000000000E+00 0. -1.
          6    1    1    2  501    0  0.19498676844E+03  0.95506184096E+02  0.27089899319E+03  0.38744229967E+03  0.17200000000E+03 0. -1.
         -6    1    1    2    0  502 -0.19498676844E+03 -0.95506184096E+02  0.69722927946E+03  0.75023592237E+03  0.17200000000E+03 0. -1.
</event>
<event>
 4    1  0.4440728E+000  0.1926390E+03  0.7818608E-02  0.1156102E+00
         21   -1    0    0  503  502  0.00000000000E+00  0.00000000000E+00  0.24145741404E+03  0.24145741404E+03  0.00000000000E+00 0.  1.
         21   -1    0    0  501  503 -0.00000000000E+00 -0.00000000000E+00 -0.64955373711E+03  0.64955373711E+03  0.00000000000E+00 0. -1.
          6    1    1    2  501    0  0.27485590195E+01  0.86707628157E+02 -0.59329621876E+03  0.62378695927E+03  0.17200000000E+03 0. -1.
         -6    1    1    2    0  502 -0.27485590195E+01 -0.86707628157E+02  0.18519989570E+03  0.26722419187E+03  0.17200000000E+03 0.  1.
</event>
<event>
 4    1  0.4440728E+000  0.1733363E+03  0.7818608E-02  0.1174413E+00
         21   -1    0    0  503  502  0.00000000000E+00  0.00000000000E+00  0.23587379669E+03  0.23587379669E+03  0.00000000000E+00 0. -1.
         21   -1    0    0  501  503 -0.00000000000E+00 -0.00000000000E+00 -0.22325770719E+03  0.22325770719E+03  0.00000000000E+00 0. -1.
          6    1    1    2  501    0  0.82262842823E+01  0.19844546955E+02 -0.14413215501E+03  0.22543193187E+03  0.17200000000E+03 0. -1.
         -6    1    1    2    0  502 -0.82262842823E+01 -0.19844546955E+02  0.15674824452E+03  0.23369957201E+03  0.17200000000E+03 0. -1.
</event>
<event>
 4    1  0.4440728E+000  0.3772465E+03  0.7818608E-02  0.1051956E+00
         21   -1    0    0  503  502  0.00000000000E+00  0.00000000000E+00  0.16378558050E+03  0.16378558050E+03  0.00000000000E+00 0. -1.
         21   -1    0    0  501  503 -0.00000000000E+00 -0.00000000000E+00 -0.87425657688E+03  0.87425657688E+03  0.00000000000E+00 0.  1.
          6    1    1    2  501    0  0.14616863996E+02  0.33543591227E+03 -0.39582461484E+03  0.54680163649E+03  0.17200000000E+03 0.  1.
         -6    1    1    2    0  502 -0.14616863996E+02 -0.33543591227E+03 -0.31464638154E+03  0.49124052090E+03  0.17200000000E+03 0. -1.
</event>
<event>
 4    1  0.4440728E+000  0.1833450E+03  0.7818608E-02  0.1164604E+00
         21   -1    0    0  503  502  0.00000000000E+00  0.00000000000E+00  0.80713317535E+02  0.80713317535E+02  0.00000000000E+00 0. -1.
         21   -1    0    0  501  503 -0.00000000000E+00 -0.00000000000E+00 -0.44491842332E+03  0.44491842332E+03  0.00000000000E+00 0. -1.
          6    1    1    2  501    0 -0.14559400851E+02 -0.61801299442E+02 -0.24854936517E+03  0.30885621847E+03  0.17200000000E+03 0. -1.
         -6    1    1    2    0  502  0.14559400851E+02  0.61801299442E+02 -0.11565574062E+03  0.21677552238E+03  0.17200000000E+03 0. -1.
</event>
<event>
 4    1  0.4440728E+000  0.1777413E+03  0.7818608E-02  0.1170007E+00
         21   -1    0    0  501  502  0.00000000000E+00  0.00000000000E+00  0.10615395471E+04  0.10615395471E+04  0.00000000000E+00 0.  1.
         21   -1    0    0  502  503 -0.00000000000E+00 -0.00000000000E+00 -0.30755844519E+02  0.30755844519E+02  0.00000000000E+00 0.  1.
          6    1    1    2  501    0 -0.39615718153E+02 -0.20942044625E+02  0.61364070951E+03  0.63886375286E+03  0.17200000000E+03 0.  1.
         -6    1    1    2    0  503  0.39615718153E+02  0.20942044625E+02  0.41714299312E+03  0.45343163880E+03  0.17200000000E+03 0.  1.
</event>
<event>
 4    1  0.4440728E+000  0.2553921E+03  0.7818608E-02  0.1109944E+00
         21   -1    0    0  503  502  0.00000000000E+00  0.00000000000E+00  0.15215795955E+03  0.15215795955E+03  0.00000000000E+00 0. -1.
         21   -1    0    0  501  503 -0.00000000000E+00 -0.00000000000E+00 -0.89122390501E+03  0.89122390501E+03  0.00000000000E+00 0. -1.
          6    1    1    2  501    0  0.16462363146E+03  0.92413206572E+02  0.63064400419E+01  0.25546998252E+03  0.17200000000E+03 0. -1.
         -6    1    1    2    0  502 -0.16462363146E+03 -0.92413206572E+02 -0.74537238550E+03  0.78791188203E+03  0.17200000000E+03 0. -1.
</event>
<event>
 4    1  0.4440728E+000  0.2612539E+03  0.7818608E-02  0.1106392E+00
         21   -1    0    0  503  502  0.00000000000E+00  0.00000000000E+00  0.26934108839E+03  0.26934108839E+03  0.00000000000E+00 0.  1.
         21   -1    0    0  501  503 -0.00000000000E+00 -0.00000000000E+00 -0.25750076026E+03  0.25750076026E+03  0.00000000000E+00 0. -1.
          6    1    1    2  501    0  0.17010963641E+03 -0.98652381847E+02 -0.27283917768E+02  0.26267469047E+03  0.17200000000E+03 0.  1.
         -6    1    1    2    0  502 -0.17010963641E+03  0.98652381847E+02  0.39124245897E+02  0.26416715818E+03  0.17200000000E+03 0. -1.
</event>
<event>
 4    1  0.4440728E+000  0.2404029E+03  0.7818608E-02  0.1119525E+00
         21   -1    0    0  501  502  0.00000000000E+00  0.00000000000E+00  0.10979456580E+04  0.10979456580E+04  0.00000000000E+00 0. -1.
         21   -1    0    0  502  503 -0.00000000000E+00 -0.00000000000E+00 -0.53894217352E+02  0.53894217352E+02  0.00000000000E+00 0. -1.
          6    1    1    2  501    0 -0.15223473879E+03  0.70951703398E+02  0.60995625990E+03  0.65562199391E+03  0.17200000000E+03 0. -1.
         -6    1    1    2    0  503  0.15223473879E+03 -0.70951703398E+02  0.43409518073E+03  0.49621788142E+03  0.17200000000E+03 0. -1.
</event>
<event>
 4    1  0.4440728E+000  0.3753618E+03  0.7818608E-02  0.1052661E+00
         21   -1    0    0  503  502  0.00000000000E+00  0.00000000000E+00  0.42312587922E+03  0.42312587922E+03  0.00000000000E+00 0.  1.
         21   -1    0    0  501  503 -0.00000000000E+00 -0.00000000000E+00 -0.78237412620E+03  0.78237412620E+03  0.00000000000E+00 0. -1.
          6    1    1    2  501    0 -0.33362980570E+03 -0.19124179698E+01 -0.63643775272E+03  0.73888396767E+03  0.17200000000E+03 0. -1.
         -6    1    1    2    0  502  0.33362980570E+03  0.19124179698E+01  0.27718950574E+03  0.46661603775E+03  0.17200000000E+03 0.  1.
</event>
<event>
 4    1  0.4440728E+000  0.1780119E+03  0.7818608E-02  0.1169741E+00
         21   -1    0    0  503  502  0.00000000000E+00  0.00000000000E+00  0.66042423437E+03  0.66042423437E+03  0.00000000000E+00 0. -1.
         21   -1    0    0  501  503 -0.00000000000E+00 -0.00000000000E+00 -0.18473352406E+03  0.18473352406E+03  0.00000000000E+00 0. -1.
          6    1    1    2  501    0  0.44949744578E+02 -0.91523248895E+01 -0.12573597352E+03  0.21793985323E+03  0.17200000000E+03 0. -1.
         -6    1    1    2    0  502 -0.44949744578E+02  0.91523248895E+01  0.60142668382E+03  0.62721790520E+03  0.17200000000E+03 0. -1.
</event>
<event>
 4    1  0.4440728E+000  0.1778994E+03  0.7818608E-02  0.1169852E+00
         21   -1    0    0  503  502  0.00000000000E+00  0.00000000000E+00  0.41583922518E+03  0.41583922518E+03  0.00000000000E+00 0.  1.
         21   -1    0    0  501  503 -0.00000000000E+00 -0.00000000000E+00 -0.10165378258E+03  0.10165378258E+03  0.00000000000E+00 0.  1.
          6    1    1    2  501    0  0.57134275802E+00 -0.45429973179E+02  0.27380112372E+02  0.17999410948E+03  0.17200000000E+03 0.  1.
         -6    1    1    2    0  502 -0.57134275802E+00  0.45429973179E+02  0.28680533023E+03  0.33749889828E+03  0.17200000000E+03 0.  1.
</event>
<event>
 4    1  0.4440728E+000  0.2159095E+03  0.7818608E-02  0.1136970E+00
         21   -1    0    0  501  502  0.00000000000E+00  0.00000000000E+00  0.57798426486E+02  0.57798426486E+02  0.00000000000E+00 0. -1.
         21   -1    0    0  502  503 -0.00000000000E+00 -0.00000000000E+00 -0.11018499934E+04  0.11018499934E+04  0.00000000000E+00 0.  1.
          6    1    1    2  501    0 -0.91624814184E+02  0.92939737252E+02 -0.22185241105E+03  0.30957292134E+03  0.17200000000E+03 0. -1.
         -6    1    1    2    0  503  0.91624814184E+02 -0.92939737252E+02 -0.82219915583E+03  0.85007549852E+03  0.17200000000E+03 0.  1.
</event>
<event>
 4    1  0.4440728E+000  0.2052800E+03  0.7818608E-02  0.1145359E+00
         21   -1    0    0  503  502  0.00000000000E+00  0.00000000000E+00  0.64034932695E+02  0.64034932695E+02  0.00000000000E+00 0.  1.
         21   -1    0    0  501  503 -0.00000000000E+00 -0.00000000000E+00 -0.11678057625E+04  0.11678057625E+04  0.00000000000E+00 0.  1.
          6    1    1    2  501    0  0.94245079628E+02 -0.60611359778E+02 -0.95880548481E+03  0.98053446123E+03  0.17200000000E+03 0.  1.
         -6    1    1    2    0  502 -0.94245079628E+02  0.60611359778E+02 -0.14496534495E+03  0.25130623392E+03  0.17200000000E+03 0.  1.
</event>
<event>
 4    1  0.4440728E+000  0.1959424E+03  0.7818608E-02  0.1153208E+00
         21   -1    0    0  503  502  0.00000000000E+00  0.00000000000E+00  0.28932627012E+02  0.28932627012E+02  0.00000000000E+00 0. -1.
         21   -1    0    0  501  503 -0.00000000000E+00 -0.00000000000E+00 -0.14084970159E+04  0.14084970159E+04  0.00000000000E+00 0. -1.
          6    1    1    2  501    0  0.53786481009E+01 -0.93704310781E+02 -0.86267025011E+03  0.88464308517E+03  0.17200000000E+03 0. -1.
         -6    1    1    2    0  502 -0.53786481009E+01  0.93704310781E+02 -0.51689413875E+03  0.55278655771E+03  0.17200000000E+03 0. -1.
</event>
<event>
 4    1  0.4440728E+000  0.1761481E+03  0.7818608E-02  0.1171584E+00
         21   -1    0    0  503  502  0.00000000000E+00  0.00000000000E+00  0.42517199189E+03  0.42517199189E+03  0.00000000000E+00 0. -1.
         21   -1    0    0  501  503 -0.00000000000E+00 -0.00000000000E+00 -0.73408254000E+02  0.73408254000E+02  0.00000000000E+00 0. -1.
          6    1    1    2  501    0  0.36949708132E+02 -0.88800904392E+01  0.15679336665E+03  0.23582259595E+03  0.17200000000E+03 0.  1.
         -6    1    1    2    0  502 -0.36949708132E+02  0.88800904392E+01  0.19497037124E+03  0.26275764993E+03  0.17200000000E+03 0.  1.
</event>
<event>
 4    1  0.4440728E+000  0.2283297E+03  0.7818608E-02  0.1127821E+00
         21   -1    0    0  501  502  0.00000000000E+00  0.00000000000E+00  0.30509608756E+03  0.30509608756E+03  0.00000000000E+00 0.  1.
         21   -1    0    0  502  503 -0.00000000000E+00 -0.00000000000E+00 -0.20759588026E+03  0.20759588026E+03  0.00000000000E+00 0. -1.
          6    1    1    2  501    0 -0.58711660165E+02 -0.13821497515E+03  0.15655823325E+03  0.27684818727E+03  0.17200000000E+03 0.  1.
         -6    1    1    2    0  503  0.58711660165E+02  0.13821497515E+03 -0.59058025949E+02  0.23584378055E+03  0.17200000000E+03 0. -1.
</event>
<event>
 4    1  0.4440728E+000  0.2455181E+03  0.7818608E-02  0.1116170E+00
         21   -1    0    0  503  502  0.00000000000E+00  0.00000000000E+00  0.71796855550E+02  0.71796855550E+02  0.00000000000E+00 0.  1.
         21   -1    0    0  501  503 -0.00000000000E+00 -0.00000000000E+00 -0.10265043509E+04  0.10265043509E+04  0.00000000000E+00 0. -1.
          6    1    1    2  501    0 -0.17306007178E+03 -0.27300804988E+02 -0.71169315566E+03  0.75285209053E+03  0.17200000000E+03 0. -1.
         -6    1    1    2    0  502  0.17306007178E+03  0.27300804988E+02 -0.24301433969E+03  0.34544911593E+03  0.17200000000E+03 0.  1.
</event>
<event>
 4    1  0.4440728E+000  0.1889012E+03  0.7818608E-02  0.1159456E+00
         21   -1    0    0  503  502  0.00000000000E+00  0.00000000000E+00  0.20767018764E+02  0.20767018764E+02  0.00000000000E+00 0. -1.
         21   -1    0    0  501  503 -0.00000000000E+00 -0.00000000000E+00 -0.23538001008E+04  0.23538001008E+04  0.00000000000E+00 0. -1.
          6    1    1    2  501    0 -0.39774280461E+02 -0.67213557423E+02 -0.17834418991E+04  0.17934181507E+04  0.17200000000E+03 0. -1.
         -6    1    1    2    0  502  0.39774280461E+02  0.67213557423E+02 -0.54959118298E+03  0.58114896894E+03  0.17200000000E+03 0. -1.
</event>
<event>
 4    1  0.4440728E+000  0.1874444E+03  0.7818608E-02  0.1160787E+00
         21   -1    0    0  503  502  0.00000000000E+00  0.00000000000E+00  0.15139282627E+04  0.15139282627E+04  0.00000000000E+00 0.  1.
         21   -1    0    0  501  503 -0.00000000000E+00 -0.00000000000E+00 -0.12849391614E+03  0.12849391614E+03  0.00000000000E+00 0.  1.
          6    1    1    2  501    0 -0.35427068912E+02  0.65546434209E+02 -0.50641542630E+02  0.19416482197E+03  0.17200000000E+03 0.  1.
         -6    1    1    2    0  502  0.35427068912E+02 -0.65546434209E+02  0.14360758892E+04  0.14482573569E+04  0.17200000000E+03 0.  1.
</event>
<event>
 4    1  0.4440728E+000  0.1966723E+03  0.7818608E-02  0.1152577E+00
         21   -1    0    0  501  502  0.00000000000E+00  0.00000000000E+00  0.45102216115E+03  0.45102216115E+03  0.00000000000E+00 0. -1.
         21   -1    0    0  502  503 -0.00000000000E+00 -0.00000000000E+00 -0.17096740799E+03  0.17096740799E+03  0.00000000000E+00 0.  1.
          6    1    1    2  501    0 -0.40942334170E+02  0.86137736967E+02  0.35957729953E+03  0.40984853152E+03  0.17200000000E+03 0. -1.
         -6    1    1    2    0  503  0.40942334170E+02 -0.86137736967E+02 -0.79522546366E+02  0.21214103761E+03  0.17200000000E+03 0.  1.
</event>
<event>
 4    1  0.4440728E+000  0.2023039E+03  0.7818608E-02  0.1147810E+00
         21   -1    0    0  501  502  0.00000000000E+00  0.00000000000E+00  0.21902044492E+03  0.21902044492E+03  0.00000000000E+00 0. -1.
         21   -1    0    0  502  503 -0.00000000000E+00 -0.00000000000E+00 -0.24914301725E+03  0.24914301725E+03  0.00000000000E+00 0. -1.
          6    1    1    2  501    0  0.66698894871E+02  0.83030847079E+02  0.10197398847E+03  0.22655144773E+03  0.17200000000E+03 0. -1.
         -6    1    1    2    0  503 -0.66698894871E+02 -0.83030847079E+02 -0.13209656081E+03  0.24161201444E+03  0.17200000000E+03 0. -1.
</event>
<event>
 4    1  0.4440728E+000  0.1723905E+03  0.7818608E-02  0.1175378E+00
         21   -1    0    0  503  502  0.00000000000E+00  0.00000000000E+00  0.19278929026E+04  0.19278929026E+04  0.00000000000E+00 0.  1.
         21   -1    0    0  501  503 -0.00000000000E+00 -0.00000000000E+00 -0.61878404236E+02  0.61878404236E+02  0.00000000000E+00 0.  1.
          6    1    1    2  501    0  0.76882896423E+01  0.86823703249E+01  0.70904420963E+02  0.18640260262E+03  0.17200000000E+03 0.  1.
         -6    1    1    2    0  502 -0.76882896423E+01 -0.86823703249E+01  0.17951100774E+04  0.18033687043E+04  0.17200000000E+03 0.  1.
</event>
<event>
 4    1  0.4440728E+000  0.3134275E+03  0.7818608E-02  0.1078715E+00
         21   -1    0    0  501  502  0.00000000000E+00  0.00000000000E+00  0.55802458829E+02  0.55802458829E+02  0.00000000000E+00 0. -1.
         21   -1    0    0  502  503 -0.00000000000E+00 -0.00000000000E+00 -0.24537788430E+04  0.24537788430E+04  0.00000000000E+00 0.  1.
          6    1    1    2  501    0  0.18292478512E+03 -0.18759353823E+03 -0.53198684206E+03  0.61745187077E+03  0.17200000000E+03 0. -1.
         -6    1    1    2    0  503 -0.18292478512E+03  0.18759353823E+03 -0.18659895421E+04  0.18921294311E+04  0.17200000000E+03 0.  1.
</event>
<event>
 4    1  0.4440728E+000  0.1822365E+03  0.7818608E-02  0.1165656E+00
         21   -1    0    0  501  502  0.00000000000E+00  0.00000000000E+00  0.50075575492E+02  0.50075575492E+02  0.00000000000E+00 0.  1.
         21   -1    0    0  502  503 -0.00000000000E+00 -0.00000000000E+00 -0.70435702427E+03  0.70435702427E+03  0.00000000000E+00 0.  1.
          6    1    1    2  501    0  0.11507188870E+02  0.59107856009E+02 -0.23595799277E+03  0.29813810288E+03  0.17200000000E+03 0. -1.
         -6    1    1    2    0  503 -0.11507188870E+02 -0.59107856009E+02 -0.41832345601E+03  0.45629449688E+03  0.17200000000E+03 0. -1.
</event>
<event>
 4    1  0.4440728E+000  0.2060236E+03  0.7818608E-02  0.1144754E+00
         21   -1    0    0  503  502  0.00000000000E+00  0.00000000000E+00  0.26877747293E+03  0.26877747293E+03  0.00000000000E+00 0. -1.
         21   -1    0    0  501  503 -0.00000000000E+00 -0.00000000000E+00 -0.15805621941E+03  0.15805621941E+03  0.00000000000E+00 0. -1.
          6    1    1    2  501    0  0.73069101942E+02 -0.86733055975E+02  0.49127756744E+02  0.21180003102E+03  0.17200000000E+03 0. -1.
         -6    1    1    2    0  502 -0.73069101942E+02  0.86733055975E+02  0.61593496777E+02  0.21503366132E+03  0.17200000000E+03 0. -1.
</event>
<event>
 4    1  0.4440728E+000  0.1920501E+03  0.7818608E-02  0.1156625E+00
         21   -1    0    0  501  502  0.00000000000E+00  0.00000000000E+00  0.61286016482E+02  0.61286016482E+02  0.00000000000E+00 0. -1.
         21   -1    0    0  502  503 -0.00000000000E+00 -0.00000000000E+00 -0.86936229906E+03  0.86936229906E+03  0.00000000000E+00 0.  1.
          6    1    1    2  501    0  0.76215240214E+02  0.38606834745E+02 -0.14590123519E+03  0.24118544931E+03  0.17200000000E+03 0. -1.
         -6    1    1    2    0  503 -0.76215240214E+02 -0.38606834745E+02 -0.66217504738E+03  0.68946286622E+03  0.17200000000E+03 0.  1.
</event>
<event>
 4    1  0.4440728E+000  0.3700401E+03  0.7818608E-02  0.1054678E+00
         21   -1    0    0  501  502  0.00000000000E+00  0.00000000000E+00  0.36037495028E+03  0.36037495028E+03  0.00000000000E+00 0. -1.
         21   -1    0    0  502  503 -0.00000000000E+00 -0.00000000000E+00 -0.47931328047E+03  0.47931328047E+03  0.00000000000E+00 0.  1.
          6    1    1    2  501    0 -0.32560477061E+03 -0.36430876125E+02 -0.25061273145E+03  0.44691880307E+03  0.17200000000E+03 0.  1.
         -6    1    1    2    0  503  0.32560477061E+03  0.36430876125E+02  0.13167440126E+03  0.39276942768E+03  0.17200000000E+03 0. -1.
</event>
<event>
 4    1  0.4440728E+000  0.1963828E+03  0.7818608E-02  0.1152827E+00
         21   -1    0    0  503  502  0.00000000000E+00  0.00000000000E+00  0.26174294967E+02  0.26174294967E+02  0.00000000000E+00 0.  1.
         21   -1    0    0  501  503 -0.00000000000E+00 -0.00000000000E+00 -0.14768061203E+04  0.14768061203E+04  0.00000000000E+00 0.  1.
          6    1    1    2  501    0 -0.56723526333E+02  0.75925261857E+02 -0.76120380819E+03  0.78612813296E+03  0.17200000000E+03 0.  1.
         -6    1    1    2    0  502  0.56723526333E+02 -0.75925261857E+02 -0.68942801714E+03  0.71685228230E+03  0.17200000000E+03 0.  1.
</event>
<event>
 4    1  0.4440728E+000  0.1852217E+03  0.7818608E-02  0.1162843E+00
         21   -1    0    0  501  502  0.00000000000E+00  0.00000000000E+00  0.42544523235E+02  0.42544523235E+02  0.00000000000E+00 0. -1.
         21   -1    0    0  502  503 -0.00000000000E+00 -0.00000000000E+00 -0.14308788418E+04  0.14308788418E+04  0.00000000000E+00 0. -1.
          6    1    1    2  501    0  0.28434972251E+02  0.62566254446E+02 -0.20746677457E+03  0.27811786421E+03  0.17200000000E+03 0. -1.
         -6    1    1    2    0  503 -0.28434972251E+02 -0.62566254446E+02 -0.11808675440E+04  0.11953055008E+04  0.17200000000E+03 0. -1.
</event>
<event>
 4    1  0.4440728E+000  0.2243411E+03  0.7818608E-02  0.1130687E+00
         21   -1    0    0  503  502  0.00000000000E+00  0.00000000000E+00  0.21771947327E+03  0.21771947327E+03  0.00000000000E+00 0. -1.
         21   -1    0    0  501  503 -0.00000000000E+00 -0.00000000000E+00 -0.41160201437E+03  0.41160201437E+03  0.00000000000E+00 0.  1.
          6    1    1    2  501    0  0.92219300127E+02 -0.11063683857E+03 -0.30527894445E+03  0.37884580411E+03  0.17200000000E+03 0.  1.
         -6    1    1    2    0  502 -0.92219300127E+02  0.11063683857E+03  0.11139640335E+03  0.25047568354E+03  0.17200000000E+03 0. -1.
</event>
<event>
 4    1  0.4440728E+000  0.2090955E+03  0.7818608E-02  0.1142284E+00
         21   -1    0    0  503  502  0.00000000000E+00  0.00000000000E+00  0.70273304259E+03  0.70273304259E+03  0.00000000000E+00 0. -1.
         21   -1    0    0  501  503 -0.00000000000E+00 -0.00000000000E+00 -0.64332493326E+02  0.64332493326E+02  0.00000000000E+00 0.  1.
          6    1    1    2  501    0  0.91390025421E+02  0.76057678627E+02  0.24962672453E+03  0.32562925056E+03  0.17200000000E+03 0.  1.
         -6    1    1    2    0  502 -0.91390025421E+02 -0.76057678627E+02  0.38877382474E+03  0.44143628536E+03  0.17200000000E+03 0.  1.
</event>
<event>
 4    1  0.4440728E+000  0.1785779E+03  0.7818608E-02  0.1169186E+00
         21   -1    0    0  503  502  0.00000000000E+00  0.00000000000E+00  0.11444036348E+04  0.11444036348E+04  0.00000000000E+00 0.  1.
         21   -1    0    0  501  503 -0.00000000000E+00 -0.00000000000E+00 -0.41799126764E+02  0.41799126764E+02  0.00000000000E+00 0.  1.
          6    1    1    2  501    0  0.23007467372E+02 -0.42151255612E+02  0.20887526456E+03  0.27480711062E+03  0.17200000000E+03 0. -1.
         -6    1    1    2    0  502 -0.23007467372E+02  0.42151255612E+02  0.89372924348E+03  0.91139565094E+03  0.17200000000E+03 0. -1.
</event>
<event>
 4    1  0.4440728E+000  0.2917770E+03  0.7818608E-02  0.1089425E+00
         21   -1    0    0  503  502  0.00000000000E+00  0.00000000000E+00  0.24521193609E+03  0.24521193609E+03  0.00000000000E+00 0. -1.
         21   -1    0    0  501  503 -0.00000000000E+00 -0.00000000000E+00 -0.44042202293E+03  0.44042202293E+03  0.00000000000E+00 0. -1.
          6    1    1    2  501    0  0.22018541456E+03 -0.84072534793E+02 -0.25533818075E+03  0.38772592696E+03  0.17200000000E+03 0. -1.
         -6    1    1    2    0  502 -0.22018541456E+03  0.84072534793E+02  0.60128093908E+02  0.29790803206E+03  0.17200000000E+03 0. -1.
</event>
<event>
 4    1  0.4440728E+000  0.2067643E+03  0.7818608E-02  0.1144154E+00
         21   -1    0    0  501  502  0.00000000000E+00  0.00000000000E+00  0.35096128992E+02  0.35096128992E+02  0.00000000000E+00 0.  1.
         21   -1    0    0  502  503 -0.00000000000E+00 -0.00000000000E+00 -0.15877117944E+04  0.15877117944E+04  0.00000000000E+00 0. -1.
          6    1    1    2  501    0  0.29243726309E+02 -0.11096078514E+03 -0.38482818498E+03  0.43685721159E+03  0.17200000000E+03 0. -1.
         -6    1    1    2    0  503 -0.29243726309E+02  0.11096078514E+03 -0.11677874804E+04  0.11859507118E+04  0.17200000000E+03 0. -1.
</event>
<event>
 4    1  0.4440728E+000  0.3351318E+03  0.7818608E-02  0.1068889E+00
         21   -1    0    0  501  502  0.00000000000E+00  0.00000000000E+00  0.19535922044E+03  0.19535922044E+03  0.00000000000E+00 0.  1.
         21   -1    0    0  502  503 -0.00000000000E+00 -0.00000000000E+00 -0.10118795988E+04  0.10118795988E+04  0.00000000000E+00 0.  1.
          6    1    1    2  501    0  0.62515401711E+02 -0.28075102001E+03 -0.11593196706E+02  0.33533224256E+03  0.17200000000E+03 0.  1.
         -6    1    1    2    0  503 -0.62515401711E+02  0.28075102001E+03 -0.80492718170E+03  0.87190657672E+03  0.17200000000E+03 0.  1.
</event>
<event>
 4    1  0.4440728E+000  0.2365172E+03  0.7818608E-02  0.1122135E+00
         21   -1    0    0  503  502  0.00000000000E+00  0.00000000000E+00  0.49721810770E+03  0.49721810770E+03  0.00000000000E+00 0.  1.
         21   -1    0    0  501  503 -0.00000000000E+00 -0.00000000000E+00 -0.18906072962E+03  0.18906072962E+03  0.00000000000E+00 0. -1.
          6    1    1    2  501    0 -0.10985712672E+03 -0.11953163626E+03 -0.64271610693E+02  0.24509434979E+03  0.17200000000E+03 0. -1.
         -6    1    1    2    0  502  0.10985712672E+03  0.11953163626E+03  0.37242898877E+03  0.44118448753E+03  0.17200000000E+03 0.  1.
</event>
<event>
 4    1  0.4440728E+000  0.2201265E+03  0.7818608E-02  0.1133789E+00
         21   -1    0    0  503  502  0.00000000000E+00  0.00000000000E+00  0.11400962880E+03  0.11400962880E+03  0.00000000000E+00 0.  1.
         21   -1    0    0  501  503 -0.00000000000E+00 -0.00000000000E+00 -0.55569199384E+03  0.55569199384E+03  0.00000000000E+00 0. -1.
          6    1    1    2  501    0 -0.36942637687E+02  0.13231378869E+03 -0.38322224809E+03  0.44194455375E+03  0.17200000000E+03 0. -1.
         -6    1    1    2    0  502  0.36942637687E+02 -0.13231378869E+03 -0.58460116943E+02  0.22775706889E+03  0.17200000000E+03 0.  1.
</event>
<event>
 4    1  0.4440728E+000  0.2025419E+03  0.7818608E-02  0.1147612E+00
         21   -1    0    0  503  502  0.00000000000E+00  0.00000000000E+00  0.76301822261E+02  0.76301822261E+02  0.00000000000E+00 0.  1.
         21   -1    0    0  501  503 -0.00000000000E+00 -0.00000000000E+00 -0.87269549839E+03  0.87269549839E+03  0.00000000000E+00 0.  1.
          6    1    1    2  501    0 -0.56091242195E+02  0.91065848215E+02 -0.69220501657E+03  0.72122881329E+03  0.17200000000E+03 0.  1.
         -6    1    1    2    0  502  0.56091242195E+02 -0.91065848215E+02 -0.10418865956E+03  0.22776850735E+03  0.17200000000E+03 0.  1.
</event>
<event>
 4    1  0.4440728E+000  0.1815857E+03  0.7818608E-02  0.1166277E+00
         21   -1    0    0  503  502  0.00000000000E+00  0.00000000000E+00  0.18450639062E+03  0.18450639062E+03  0.00000000000E+00 0.  1.
         21   -1    0    0  501  503 -0.00000000000E+00 -0.00000000000E+00 -0.46969678976E+03  0.46969678976E+03  0.00000000000E+00 0.  1.
          6    1    1    2  501    0  0.32058999897E+02  0.48596178081E+02 -0.40005507934E+03  0.43933749499E+03  0.17200000000E+03 0.  1.
         -6    1    1    2    0  502 -0.32058999897E+02 -0.48596178081E+02  0.11486468021E+03  0.21486568539E+03  0.17200000000E+03 0.  1.
</event>
<event>
 4    1  0.4440728E+000  0.2281465E+03  0.7818608E-02  0.1127951E+00
         21   -1    0    0  501  502  0.00000000000E+00  0.00000000000E+00  0.86276270701E+02  0.86276270701E+02  0.00000000000E+00 0. -1.
         21   -1    0    0  502  503 -0.00000000000E+00 -0.00000000000E+00 -0.67008964027E+03  0.67008964027E+03  0.00000000000E+00 0. -1.
          6    1    1    2  501    0  0.35206042713E+02 -0.14569619344E+03 -0.41129890511E+03  0.47033778880E+03  0.17200000000E+03 0. -1.
         -6    1    1    2    0  503 -0.35206042713E+02  0.14569619344E+03 -0.17251446446E+03  0.28602812217E+03  0.17200000000E+03 0. -1.
</event>
<event>
 4    1  0.4440728E+000  0.1957220E+03  0.7818608E-02  0.1153399E+00
         21   -1    0    0  501  502  0.00000000000E+00  0.00000000000E+00  0.76078676619E+02  0.76078676619E+02  0.00000000000E+00 0. -1.
         21   -1    0    0  502  503 -0.00000000000E+00 -0.00000000000E+00 -0.52930676225E+03  0.52930676225E+03  0.00000000000E+00 0.  1.
          6    1    1    2  501    0 -0.64209956163E+01 -0.93176604332E+02 -0.15980279361E+03  0.25267378500E+03  0.17200000000E+03 0.  1.
         -6    1    1    2    0  503  0.64209956163E+01  0.93176604332E+02 -0.29342529202E+03  0.35271165387E+03  0.17200000000E+03 0.  1.
</event>
<event>
 4    1  0.4440728E+000  0.1771609E+03  0.7818608E-02  0.1170579E+00
         21   -1    0    0  501  502  0.00000000000E+00  0.00000000000E+00  0.62058378068E+02  0.62058378068E+02  0.00000000000E+00 0.  1.
         21   -1    0    0  502  503 -0.00000000000E+00 -0.00000000000E+00 -0.51416057836E+03  0.51416057836E+03  0.00000000000E+00 0.  1.
          6    1    1    2  501    0  0.23930671474E+02 -0.35061294380E+02 -0.18920061029E+03  0.25919653226E+03  0.17200000000E+03 0.  1.
         -6    1    1    2    0  503 -0.23930671474E+02  0.35061294380E+02 -0.26290159000E+03  0.31702242417E+03  0.17200000000E+03 0.  1.
</event>
<event>
 4    1  0.4440728E+000  0.3032133E+03  0.7818608E-02  0.1083645E+00
         21   -1    0    0  503  502  0.00000000000E+00  0.00000000000E+00  0.16834233990E+03  0.16834233990E+03  0.00000000000E+00 0.  1.
         21   -1    0    0  501  503 -0.00000000000E+00 -0.00000000000E+00 -0.62054954577E+03  0.62054954577E+03  0.00000000000E+00 0. -1.
          6    1    1    2  501    0  0.15502261685E+03 -0.19576084992E+03 -0.36269282198E+03  0.47274137244E+03  0.17200000000E+03 0. -1.
         -6    1    1    2    0  502 -0.15502261685E+03  0.19576084992E+03 -0.89514383891E+02  0.31615051324E+03  0.17200000000E+03 0.  1.
</event>
<event>
 4    1  0.4440728E+000  0.2264045E+03  0.7818608E-02  0.1129196E+00
         21   -1    0    0  501  502  0.00000000000E+00  0.00000000000E+00  0.11920884980E+03  0.11920884980E+03  0.00000000000E+00 0.  1.
         21   -1    0    0  502  503 -0.00000000000E+00 -0.00000000000E+00 -0.55115715627E+03  0.55115715627E+03  0.00000000000E+00 0. -1.
          6    1    1    2  501    0 -0.11502269900E+03  0.91895501709E+02 -0.37313010706E+03  0.43644596609E+03  0.17200000000E+03 0.  1.
         -6    1    1    2    0  503  0.11502269900E+03 -0.91895501709E+02 -0.58818199410E+02  0.23392003997E+03  0.17200000000E+03 0. -1.
</event>
<event>
 4    1  0.4440728E+000  0.2618657E+03  0.7818608E-02  0.1106027E+00
         21   -1    0    0  503  502  0.00000000000E+00  0.00000000000E+00  0.23798512385E+04  0.23798512385E+04  0.00000000000E+00 0.  1.
         21   -1    0    0  501  503 -0.00000000000E+00 -0.00000000000E+00 -0.66184962962E+02  0.66184962962E+02  0.00000000000E+00 0.  1.
          6    1    1    2  501    0  0.11195829152E+03 -0.16264988240E+03  0.23782601940E+03  0.35374405831E+03  0.17200000000E+03 0.  1.
         -6    1    1    2    0  502 -0.11195829152E+03  0.16264988240E+03  0.20758402561E+04  0.20922921431E+04  0.17200000000E+03 0.  1.
</event>
<event>
 4    1  0.4440728E+000  0.1777550E+03  0.7818608E-02  0.1169994E+00
         21   -1    0    0  501  502  0.00000000000E+00  0.00000000000E+00  0.60811678760E+02  0.60811678760E+02  0.00000000000E+00 0. -1.
         21   -1    0    0  502  503 -0.00000000000E+00 -0.00000000000E+00 -0.52016884612E+03  0.52016884612E+03  0.00000000000E+00 0. -1.
          6    1    1    2  501    0 -0.75402222438E+01 -0.44226494529E+02 -0.21994666558E+03  0.28279563905E+03  0.17200000000E+03 0. -1.
         -6    1    1    2    0  503  0.75402222438E+01  0.44226494529E+02 -0.23941050178E+03  0.29818488582E+03  0.17200000000E+03 0. -1.
</event>
<event>
 4    1  0.4440728E+000  0.2133854E+03  0.7818608E-02  0.1138913E+00
         21   -1    0    0  501  502  0.00000000000E+00  0.00000000000E+00  0.23153008224E+03  0.23153008224E+03  0.00000000000E+00 0.  1.
         21   -1    0    0  502  503 -0.00000000000E+00 -0.00000000000E+00 -0.19825741185E+03  0.19825741185E+03  0.00000000000E+00 0.  1.
          6    1    1    2  501    0 -0.12200066660E+02 -0.12569995278E+03  0.35909669207E+02  0.21638582231E+03  0.17200000000E+03 0.  1.
         -6    1    1    2    0  503  0.12200066660E+02  0.12569995278E+03 -0.26369988101E+01  0.21340167178E+03  0.17200000000E+03 0.  1.
</event>
<event>
 4    1  0.4440728E+000  0.2343327E+03  0.7818608E-02  0.1123627E+00
         21   -1    0    0  501  502  0.00000000000E+00  0.00000000000E+00  0.95234014764E+03  0.95234014764E+03  0.00000000000E+00 0.  1.
         21   -1    0    0  502  503 -0.00000000000E+00 -0.00000000000E+00 -0.10573626212E+03  0.10573626212E+03  0.00000000000E+00 0. -1.
          6    1    1    2  501    0  0.15644524141E+03 -0.29201318986E+02  0.78003297601E+03  0.81447116232E+03  0.17200000000E+03 0.  1.
         -6    1    1    2    0  503 -0.15644524141E+03  0.29201318986E+02  0.66570909519E+02  0.24360524745E+03  0.17200000000E+03 0. -1.
</event>
<event>
 4    1  0.4440728E+000  0.1926060E+03  0.7818608E-02  0.1156132E+00
         21   -1    0    0  503  502  0.00000000000E+00  0.00000000000E+00  0.18148581113E+03  0.18148581113E+03  0.00000000000E+00 0. -1.
         21   -1    0    0  501  503 -0.00000000000E+00 -0.00000000000E+00 -0.21979316816E+03  0.21979316816E+03  0.00000000000E+00 0. -1.
          6    1    1    2  501    0 -0.86466640875E+02 -0.60499146112E+01 -0.72237955339E+02  0.20570708214E+03  0.17200000000E+03 0. -1.
         -6    1    1    2    0  502  0.86466640875E+02  0.60499146112E+01  0.33930598306E+02  0.19557189714E+03  0.17200000000E+03 0. -1.
</event>
<event>
 4    1  0.4440728E+000  0.2092286E+03  0.7818608E-02  0.1142178E+00
         21   -1    0    0  503  502  0.00000000000E+00  0.00000000000E+00  0.21077637937E+02  0.21077637937E+02  0.00000000000E+00 0.  1.
         21   -1    0    0  501  503 -0.00000000000E+00 -0.00000000000E+00 -0.22817301752E+04  0.22817301752E+04  0.00000000000E+00 0. -1.
          6    1    1    2  501    0  0.58694125461E+02 -0.10367070580E+03 -0.78536612913E+03  0.81275861877E+03  0.17200000000E+03 0.  1.
         -6    1    1    2    0  502 -0.58694125461E+02  0.10367070580E+03 -0.14752864082E+04  0.14900491944E+04  0.17200000000E+03 0. -1.
</event>
<event>
 4    1  0.4440728E+000  0.2379086E+03  0.7818608E-02  0.1121194E+00
         21   -1    0    0  503  502  0.00000000000E+00  0.00000000000E+00  0.81536036617E+03  0.81536036617E+03  0.00000000000E+00 0.  1.
         21   -1    0    0  501  503 -0.00000000000E+00 -0.00000000000E+00 -0.76816789600E+02  0.76816789600E+02  0.00000000000E+00 0.  1.
          6    1    1    2  501    0  0.85062254989E+02 -0.14064466075E+03  0.23082599141E+03  0.33148325166E+03  0.17200000000E+03 0.  1.
         -6    1    1    2    0  502 -0.85062254989E+02  0.14064466075E+03  0.50771758516E+03  0.56069390411E+03  0.17200000000E+03 0.  1.
</event>
<event>
 4    1  0.4440728E+000  0.2035788E+03  0.7818608E-02  0.1146754E+00
         21   -1    0    0  501  502  0.00000000000E+00  0.00000000000E+00  0.70203421754E+02  0.70203421754E+02  0.00000000000E+00 0.  1.
         21   -1    0    0  502  503 -0.00000000000E+00 -0.00000000000E+00 -0.77813049506E+03  0.77813049506E+03  0.00000000000E+00 0. -1.
          6    1    1    2  501    0  0.66434789819E+02 -0.86294563668E+02 -0.14559118626E+03  0.25028209392E+03  0.17200000000E+03 0.  1.
         -6    1    1    2    0  503 -0.66434789819E+02  0.86294563668E+02 -0.56233588704E+03  0.59805182290E+03  0.17200000000E+03 0. -1.
</event>
<event>
 4    1  0.4440728E+000  0.1720365E+03  0.7818608E-02  0.1175741E+00
         21   -1    0    0  501  502  0.00000000000E+00  0.00000000000E+00  0.10279414424E+04  0.10279414424E+04  0.00000000000E+00 0.  1.
         21   -1    0    0  502  503 -0.00000000000E+00 -0.00000000000E+00 -0.47239594705E+02  0.47239594705E+02  0.00000000000E+00 0.  1.
          6    1    1    2  501    0 -0.35351133220E+01 -0.22140848335E+00  0.82629559120E+03  0.84401478073E+03  0.17200000000E+03 0.  1.
         -6    1    1    2    0  503  0.35351133220E+01  0.22140848335E+00  0.15440625653E+03  0.23116625641E+03  0.17200000000E+03 0.  1.
</event>
<event>
 4    1  0.4440728E+000  0.1950935E+03  0.7818608E-02  0.1153946E+00
         21   -1    0    0  503  502  0.00000000000E+00  0.00000000000E+00  0.22211867675E+03  0.22211867675E+03  0.00000000000E+00 0. -1.
         21   -1    0    0  501  503 -0.00000000000E+00 -0.00000000000E+00 -0.19845909861E+03  0.19845909861E+03  0.00000000000E+00 0. -1.
          6    1    1    2  501    0  0.26878180793E+02 -0.88062791411E+02 -0.65881805691E+02  0.20591722647E+03  0.17200000000E+03 0. -1.
         -6    1    1    2    0  502 -0.26878180793E+02  0.88062791411E+02  0.89541383834E+02  0.21466054890E+03  0.17200000000E+03 0. -1.
</event>
<event>
 4    1  0.4440728E+000  0.1853136E+03  0.7818608E-02  0.1162757E+00
         21   -1    0    0  503  502  0.00000000000E+00  0.00000000000E+00  0.52123654132E+02  0.52123654132E+02  0.00000000000E+00 0.  1.
         21   -1    0    0  501  503 -0.00000000000E+00 -0.00000000000E+00 -0.68366609095E+03  0.68366609095E+03  0.00000000000E+00 0. -1.
          6    1    1    2  501    0 -0.99143222818E+01  0.68255565383E+02 -0.38587820586E+03  0.42806904320E+03  0.17200000000E+03 0. -1.
         -6    1    1    2    0  502  0.99143222818E+01 -0.68255565383E+02 -0.24566423096E+03  0.30772070188E+03  0.17200000000E+03 0.  1.
</event>
<event>
 4    1  0.4440728E+000  0.1740249E+03  0.7818608E-02  0.1173714E+00
         21   -1    0    0  503  502  0.00000000000E+00  0.00000000000E+00  0.32155145517E+02  0.32155145517E+02  0.00000000000E+00 0.  1.
         21   -1    0    0  501  503 -0.00000000000E+00 -0.00000000000E+00 -0.97018391761E+03  0.97018391761E+03  0.00000000000E+00 0.  1.
          6    1    1    2  501    0  0.10201516309E+01  0.26450442254E+02 -0.38333674140E+03  0.42098898312E+03  0.17200000000E+03 0.  1.
         -6    1    1    2    0  502 -0.10201516309E+01 -0.26450442254E+02 -0.55469203069E+03  0.58135008000E+03  0.17200000000E+03 0.  1.
</event>
<event>
 4    1  0.4440728E+000  0.1886218E+03  0.7818608E-02  0.1159710E+00
         21   -1    0    0  503  502  0.00000000000E+00  0.00000000000E+00  0.25838711168E+04  0.25838711168E+04  0.00000000000E+00 0.  1.
         21   -1    0    0  501  503 -0.00000000000E+00 -0.00000000000E+00 -0.24824411640E+02  0.24824411640E+02  0.00000000000E+00 0.  1.
          6    1    1    2  501    0 -0.63467635319E+02 -0.44340245860E+02  0.40909163018E+03  0.45048214174E+03  0.17200000000E+03 0. -1.
         -6    1    1    2    0  502  0.63467635319E+02  0.44340245860E+02  0.21499550749E+04  0.21582133867E+04  0.17200000000E+03 0. -1.
</event>
<event>
 4    1  0.4440728E+000  0.1722581E+03  0.7818608E-02  0.1175513E+00
         21   -1    0    0  501  502  0.00000000000E+00  0.00000000000E+00  0.31083656333E+03  0.31083656333E+03  0.00000000000E+00 0. -1.
         21   -1    0    0  502  503 -0.00000000000E+00 -0.00000000000E+00 -0.10314862564E+03  0.10314862564E+03  0.00000000000E+00 0. -1.
          6    1    1    2  501    0  0.84625691894E+01  0.41498426410E+01  0.47335557088E+02  0.17864347521E+03  0.17200000000E+03 0. -1.
         -6    1    1    2    0  503 -0.84625691894E+01 -0.41498426410E+01  0.16035238060E+03  0.23534171376E+03  0.17200000000E+03 0. -1.
</event>
<event>
 4    1  0.4440728E+000  0.2003458E+03  0.7818608E-02  0.1149448E+00
         21   -1    0    0  503  502  0.00000000000E+00  0.00000000000E+00  0.33647877224E+02  0.33647877224E+02  0.00000000000E+00 0. -1.
         21   -1    0    0  501  503 -0.00000000000E+00 -0.00000000000E+00 -0.11931113378E+04  0.11931113378E+04  0.00000000000E+00 0.  1.
          6    1    1    2  501    0  0.59505398626E+02  0.83746944646E+02 -0.58795788342E+03  0.62115450242E+03  0.17200000000E+03 0.  1.
         -6    1    1    2    0  502 -0.59505398626E+02 -0.83746944646E+02 -0.57150557712E+03  0.60560471257E+03  0.17200000000E+03 0. -1.
</event>
<event>
 4    1  0.4440728E+000  0.2140410E+03  0.7818608E-02  0.1138405E+00
         21   -1    0    0  501  502  0.00000000000E+00  0.00000000000E+00  0.11199606931E+03  0.11199606931E+03  0.00000000000E+00 0.  1.
         21   -1    0    0  502  503 -0.00000000000E+00 -0.00000000000E+00 -0.40922796085E+03  0.40922796085E+03  0.00000000000E+00 0. -1.
          6    1    1    2  501    0 -0.76115055789E+02  0.10215704676E+03 -0.14339995682E+03  0.25763755847E+03  0.17200000000E+03 0. -1.
         -6    1    1    2    0  503  0.76115055789E+02 -0.10215704676E+03 -0.15383193472E+03  0.26358647169E+03  0.17200000000E+03 0.  1.
</event>
<event>
 4    1  0.4440728E+000  0.2017408E+03  0.7818608E-02  0.1148279E+00
         21   -1    0    0  503  502  0.00000000000E+00  0.00000000000E+00  0.20103770020E+03  0.20103770020E+03  0.00000000000E+00 0.  1.
         21   -1    0    0  501  503 -0.00000000000E+00 -0.00000000000E+00 -0.22015690238E+03  0.22015690238E+03  0.00000000000E+00 0.  1.
          6    1    1    2  501    0  0.45751218707E+02 -0.94985170855E+02 -0.69290934427E+02  0.21330867373E+03  0.17200000000E+03 0.  1.
         -6    1    1    2    0  502 -0.45751218707E+02  0.94985170855E+02  0.50171732253E+02  0.20788592885E+03  0.17200000000E+03 0.  1.
</event>
<event>
 4    1  0.4440728E+000  0.2018347E+03  0.7818608E-02  0.1148200E+00
         21   -1    0    0  503  502  0.00000000000E+00  0.00000000000E+00  0.21473334062E+03  0.21473334062E+03  0.00000000000E+00 0. -1.
         21   -1    0    0  501  503 -0.00000000000E+00 -0.00000000000E+00 -0.25543312333E+03  0.25543312333E+03  0.00000000000E+00 0.  1.
          6    1    1    2  501    0 -0.91503321386E+02  0.52729213605E+02 -0.13959473070E+03  0.24540561654E+03  0.17200000000E+03 0.  1.
         -6    1    1    2    0  502  0.91503321386E+02 -0.52729213605E+02  0.98894947988E+02  0.22476084741E+03  0.17200000000E+03 0. -1.
</event>
<event>
 4    1  0.4440728E+000  0.1739146E+03  0.7818608E-02  0.1173826E+00
         21   -1    0    0  501  502  0.00000000000E+00  0.00000000000E+00  0.10762554601E+03  0.10762554601E+03  0.00000000000E+00 0. -1.
         21   -1    0    0  502  503 -0.00000000000E+00 -0.00000000000E+00 -0.36033146898E+03  0.36033146898E+03  0.00000000000E+00 0. -1.
          6    1    1    2  501    0  0.18620312561E+02 -0.17764585587E+02 -0.16589416539E+02  0.17470405056E+03  0.17200000000E+03 0. -1.
         -6    1    1    2    0  503 -0.18620312561E+02  0.17764585587E+02 -0.23611650643E+03  0.29325296444E+03  0.17200000000E+03 0. -1.
</event>
<event>
 4    1  0.4440728E+000  0.2085943E+03  0.7818608E-02  0.1142684E+00
         21   -1    0    0  503  502  0.00000000000E+00  0.00000000000E+00  0.33735892398E+02  0.33735892398E+02  0.00000000000E+00 0.  1.
         21   -1    0    0  501  503 -0.00000000000E+00 -0.00000000000E+00 -0.14143181058E+04  0.14143181058E+04  0.00000000000E+00 0.  1.
          6    1    1    2  501    0  0.11723778601E+03 -0.13523193293E+02 -0.47543482579E+03  0.51918190338E+03  0.17200000000E+03 0.  1.
         -6    1    1    2    0  502 -0.11723778601E+03  0.13523193293E+02 -0.90514738759E+03  0.92887209479E+03  0.17200000000E+03 0.  1.
</event>
<event>
 4    1  0.4440728E+000  0.2465470E+03  0.7818608E-02  0.1115507E+00
         21   -1    0    0  503  502  0.00000000000E+00  0.00000000000E+00  0.51914773004E+03  0.51914773004E+03  0.00000000000E+00 0. -1.
         21   -1    0    0  501  503 -0.00000000000E+00 -0.00000000000E+00 -0.16173414111E+03  0.16173414111E+03  0.00000000000E+00 0. -1.
          6    1    1    2  501    0  0.14065827702E+03  0.10684891372E+03 -0.16334020135E+00  0.24654709071E+03  0.17200000000E+03 0. -1.
         -6    1    1    2    0  502 -0.14065827702E+03 -0.10684891372E+03  0.35757692913E+03  0.43433478044E+03  0.17200000000E+03 0. -1.
</event>
<event>
 4    1  0.4440728E+000  0.2271511E+03  0.7818608E-02  0.1128661E+00
         21   -1    0    0  503  502  0.00000000000E+00  0.00000000000E+00  0.48259062589E+03  0.48259062589E+03  0.00000000000E+00 0. -1.
         21   -1    0    0  501  503 -0.00000000000E+00 -0.00000000000E+00 -0.13929008836E+03  0.13929008836E+03  0.00000000000E+00 0.  1.
          6    1    1    2  501    0  0.14003272966E+03 -0.49035316210E+02  0.21750037813E+02  0.22819003431E+03  0.17200000000E+03 0.  1.
         -6    1    1    2    0  502 -0.14003272966E+03  0.49035316210E+02  0.32155049971E+03  0.39369067994E+03  0.17200000000E+03 0. -1.
</event>
<event>
 4    1  0.4440728E+000  0.1728390E+03  0.7818608E-02  0.1174919E+00
         21   -1    0    0  501  502  0.00000000000E+00  0.00000000000E+00  0.71494364062E+03  0.71494364062E+03  0.00000000000E+00 0. -1.
         21   -1    0    0  502  503 -0.00000000000E+00 -0.00000000000E+00 -0.70118816153E+02  0.70118816153E+02  0.00000000000E+00 0. -1.
          6    1    1    2  501    0 -0.74411935766E+01  0.15295372697E+02  0.57193846456E+03  0.59748382993E+03  0.17200000000E+03 0.  1.
         -6    1    1    2    0  503  0.74411935766E+01 -0.15295372697E+02  0.72886359912E+02  0.18757862684E+03  0.17200000000E+03 0.  1.
</event>
<event>
 4    1  0.4440728E+000  0.2413268E+03  0.7818608E-02  0.1118912E+00
         21   -1    0    0  501  502  0.00000000000E+00  0.00000000000E+00  0.21825016732E+03  0.21825016732E+03  0.00000000000E+00 0. -1.
         21   -1    0    0  502  503 -0.00000000000E+00 -0.00000000000E+00 -0.28204281495E+03  0.28204281495E+03  0.00000000000E+00 0.  1.
          6    1    1    2  501    0 -0.35122420941E+02  0.16559297328E+03 -0.89966119041E+02  0.25755100432E+03  0.17200000000E+03 0.  1.
         -6    1    1    2    0  503  0.35122420941E+02 -0.16559297328E+03  0.26173471414E+02  0.24274197795E+03  0.17200000000E+03 0. -1.
</event>
<event>
 4    1  0.4440728E+000  0.2120679E+03  0.7818608E-02  0.1139939E+00
         21   -1    0    0  501  502  0.00000000000E+00  0.00000000000E+00  0.13570667683E+04  0.13570667683E+04  0.00000000000E+00 0. -1.
         21   -1    0    0  502  503 -0.00000000000E+00 -0.00000000000E+00 -0.45024511315E+02  0.45024511315E+02  0.00000000000E+00 0.  1.
          6    1    1    2  501    0  0.12386729078E+03  0.67581170116E+01  0.10161998383E+04  0.10380919464E+04  0.17200000000E+03 0. -1.
         -6    1    1    2    0  503 -0.12386729078E+03 -0.67581170116E+01  0.29584241869E+03  0.36399933319E+03  0.17200000000E+03 0.  1.
</event>
<event>
 4    1  0.4440728E+000  0.2156537E+03  0.7818608E-02  0.1137166E+00
         21   -1    0    0  503  502  0.00000000000E+00  0.00000000000E+00  0.70936557015E+03  0.70936557015E+03  0.00000000000E+00 0.  1.
         21   -1    0    0  501  503 -0.00000000000E+00 -0.00000000000E+00 -0.78201395511E+02  0.78201395511E+02  0.00000000000E+00 0.  1.
          6    1    1    2  501    0  0.13007988253E+03  0.13153652818E+01  0.47390204466E+03  0.52066270651E+03  0.17200000000E+03 0.  1.
         -6    1    1    2    0  502 -0.13007988253E+03 -0.13153652818E+01  0.15726212998E+03  0.26690425914E+03  0.17200000000E+03 0.  1.
</event>
<event>
 4    1  0.4440728E+000  0.2735764E+03  0.7818608E-02  0.1099250E+00
         21   -1    0    0  503  502  0.00000000000E+00  0.00000000000E+00  0.14511197358E+03  0.14511197358E+03  0.00000000000E+00 0.  1.
         21   -1    0    0  501  503 -0.00000000000E+00 -0.00000000000E+00 -0.93210948252E+03  0.93210948252E+03  0.00000000000E+00 0. -1.
          6    1    1    2  501    0 -0.16344015812E+03 -0.13618862138E+03 -0.75346907059E+03  0.80159819499E+03  0.17200000000E+03 0.  1.
         -6    1    1    2    0  502  0.16344015812E+03  0.13618862138E+03 -0.33528438353E+02  0.27562326110E+03  0.17200000000E+03 0.  1.
</event>
<event>
 4    1  0.4440728E+000  0.2029338E+03  0.7818608E-02  0.1147287E+00
         21   -1    0    0  501  502  0.00000000000E+00  0.00000000000E+00  0.28952613431E+03  0.28952613431E+03  0.00000000000E+00 0. -1.
         21   -1    0    0  502  503 -0.00000000000E+00 -0.00000000000E+00 -0.14415120428E+03  0.14415120428E+03  0.00000000000E+00 0. -1.
          6    1    1    2  501    0 -0.20143772949E+02  0.10579392756E+03  0.47718020996E+02  0.20846854973E+03  0.17200000000E+03 0. -1.
         -6    1    1    2    0  503  0.20143772949E+02 -0.10579392756E+03  0.97656909040E+02  0.22520878886E+03  0.17200000000E+03 0. -1.
</event>
<event>
 4    1  0.4440728E+000  0.1895251E+03  0.7818608E-02  0.1158890E+00
         21   -1    0    0  503  502  0.00000000000E+00  0.00000000000E+00  0.70941125007E+03  0.70941125007E+03  0.00000000000E+00 0. -1.
         21   -1    0    0  501  503 -0.00000000000E+00 -0.00000000000E+00 -0.10807840041E+03  0.10807840041E+03  0.00000000000E+00 0. -1.
          6    1    1    2  501    0 -0.31153340120E+02 -0.73247627423E+02  0.26708781142E+01  0.18954387121E+03  0.17200000000E+03 0. -1.
         -6    1    1    2    0  502  0.31153340120E+02  0.73247627423E+02  0.59866197154E+03  0.62794577927E+03  0.17200000000E+03 0. -1.
</event>
<event>
 4    1  0.4440728E+000  0.2438443E+03  0.7818608E-02  0.1117258E+00
         21   -1    0    0  503  502  0.00000000000E+00  0.00000000000E+00  0.36585378966E+03  0.36585378966E+03  0.00000000000E+00 0. -1.
         21   -1    0    0  501  503 -0.00000000000E+00 -0.00000000000E+00 -0.46171012528E+03  0.46171012528E+03  0.00000000000E+00 0. -1.
          6    1    1    2  501    0  0.58754563327E+02  0.16255439142E+03 -0.38101507351E+03  0.45236325572E+03  0.17200000000E+03 0. -1.
         -6    1    1    2    0  502 -0.58754563327E+02 -0.16255439142E+03  0.28515873790E+03  0.37520065922E+03  0.17200000000E+03 0. -1.
</event>
<event>
 4    1  0.4440728E+000  0.2013605E+03  0.7818608E-02  0.1148596E+00
         21   -1    0    0  503  502  0.00000000000E+00  0.00000000000E+00  0.22003888772E+03  0.22003888772E+03  0.00000000000E+00 0. -1.
         21   -1    0    0  501  503 -0.00000000000E+00 -0.00000000000E+00 -0.18607224510E+03  0.18607224510E+03  0.00000000000E+00 0. -1.
          6    1    1    2  501    0 -0.10251730735E+03  0.21266651646E+02 -0.30131347971E+01  0.20138308707E+03  0.17200000000E+03 0. -1.
         -6    1    1    2    0  502  0.10251730735E+03 -0.21266651646E+02  0.36979777417E+02  0.20472804575E+03  0.17200000000E+03 0. -1.
</event>
<event>
 4    1  0.4440728E+000  0.1768052E+03  0.7818608E-02  0.1170931E+00
         21   -1    0    0  501  502  0.00000000000E+00  0.00000000000E+00  0.34890953685E+03  0.34890953685E+03  0.00000000000E+00 0. -1.
         21   -1    0    0  502  503 -0.00000000000E+00 -0.00000000000E+00 -0.15807340542E+03  0.15807340542E+03  0.00000000000E+00 0. -1.
          6    1    1    2  501    0 -0.12951695464E+02 -0.38837368393E+02  0.26226374657E+03  0.31629473654E+03  0.17200000000E+03 0. -1.
         -6    1    1    2    0  503  0.12951695464E+02  0.38837368393E+02 -0.71427615140E+02  0.19068820573E+03  0.17200000000E+03 0. -1.
</event>
<event>
 4    1  0.4440728E+000  0.2393201E+03  0.7818608E-02  0.1120247E+00
         21   -1    0    0  503  502  0.00000000000E+00  0.00000000000E+00  0.27376910381E+03  0.27376910381E+03  0.00000000000E+00 0.  1.
         21   -1    0    0  501  503 -0.00000000000E+00 -0.00000000000E+00 -0.27832729701E+03  0.27832729701E+03  0.00000000000E+00 0. -1.
          6    1    1    2  501    0  0.60357778083E+02  0.15507115993E+03 -0.13984573001E+03  0.27718397179E+03  0.17200000000E+03 0. -1.
         -6    1    1    2    0  502 -0.60357778083E+02 -0.15507115993E+03  0.13528753682E+03  0.27491242903E+03  0.17200000000E+03 0. -1.
</event>
<event>
 4    1  0.4440728E+000  0.1770361E+03  0.7818608E-02  0.1170703E+00
         21   -1    0    0  503  502  0.00000000000E+00  0.00000000000E+00  0.44869353987E+02  0.44869353987E+02  0.00000000000E+00 0. -1.
         21   -1    0    0  501  503 -0.00000000000E+00 -0.00000000000E+00 -0.89134222952E+03  0.89134222952E+03  0.00000000000E+00 0.  1.
          6    1    1    2  501    0 -0.40512364262E+02 -0.10794475707E+02 -0.64096207933E+03  0.66496177297E+03  0.17200000000E+03 0.  1.
         -6    1    1    2    0  502  0.40512364262E+02  0.10794475707E+02 -0.20551079620E+03  0.27124981054E+03  0.17200000000E+03 0. -1.
</event>
<event>
 4    1  0.4440728E+000  0.3482843E+03  0.7818608E-02  0.1063321E+00
         21   -1    0    0  503  502  0.00000000000E+00  0.00000000000E+00  0.34683695691E+03  0.34683695691E+03  0.00000000000E+00 0.  1.
         21   -1    0    0  501  503 -0.00000000000E+00 -0.00000000000E+00 -0.39701880453E+03  0.39701880453E+03  0.00000000000E+00 0.  1.
          6    1    1    2  501    0  0.20690936364E+03  0.22114806201E+03 -0.15344129508E+03  0.38058662763E+03  0.17200000000E+03 0.  1.
         -6    1    1    2    0  502 -0.20690936364E+03 -0.22114806201E+03  0.10325944746E+03  0.36326913381E+03  0.17200000000E+03 0.  1.
</event>
<event>
 4    1  0.4440728E+000  0.2046951E+03  0.7818608E-02  0.1145837E+00
         21   -1    0    0  503  502  0.00000000000E+00  0.00000000000E+00  0.57027018326E+03  0.57027018326E+03  0.00000000000E+00 0.  1.
         21   -1    0    0  501  503 -0.00000000000E+00 -0.00000000000E+00 -0.74599679055E+02  0.74599679055E+02  0.00000000000E+00 0. -1.
          6    1    1    2  501    0  0.67974484555E+02 -0.87724354840E+02  0.20822933434E+03  0.29199237775E+03  0.17200000000E+03 0.  1.
         -6    1    1    2    0  502 -0.67974484555E+02  0.87724354840E+02  0.28744116986E+03  0.35287748457E+03  0.17200000000E+03 0.  1.
</event>
<event>
 4    1  0.4440728E+000  0.3654593E+03  0.7818608E-02  0.1056443E+00
         21   -1    0    0  503  502  0.00000000000E+00  0.00000000000E+00  0.97814296269E+03  0.97814296269E+03  0.00000000000E+00 0. -1.
         21   -1    0    0  501  503 -0.00000000000E+00 -0.00000000000E+00 -0.20349171565E+03  0.20349171565E+03  0.00000000000E+00 0. -1.
          6    1    1    2  501    0  0.79794293908E+01  0.32235510901E+03  0.48446631225E+02  0.36865643040E+03  0.17200000000E+03 0. -1.
         -6    1    1    2    0  502 -0.79794293908E+01 -0.32235510901E+03  0.72620461581E+03  0.81297824794E+03  0.17200000000E+03 0. -1.
</event>
<event>
 4    1  0.4440728E+000  0.2210409E+03  0.7818608E-02  0.1133109E+00
         21   -1    0    0  501  502  0.00000000000E+00  0.00000000000E+00  0.74963655715E+03  0.74963655715E+03  0.00000000000E+00 0.  1.
         21   -1    0    0  502  503 -0.00000000000E+00 -0.00000000000E+00 -0.70571511792E+02  0.70571511792E+02  0.00000000000E+00 0.  1.
          6    1    1    2  501    0  0.95720397210E+02  0.10056178509E+03  0.45291739793E+03  0.50397741657E+03  0.17200000000E+03 0.  1.
         -6    1    1    2    0  503 -0.95720397210E+02 -0.10056178509E+03  0.22614764743E+03  0.31623065238E+03  0.17200000000E+03 0.  1.
</event>
<event>
 4    1  0.4440728E+000  0.3184215E+03  0.7818608E-02  0.1076378E+00
         21   -1    0    0  501  502  0.00000000000E+00  0.00000000000E+00  0.13418469582E+03  0.13418469582E+03  0.00000000000E+00 0.  1.
         21   -1    0    0  502  503 -0.00000000000E+00 -0.00000000000E+00 -0.15889370633E+04  0.15889370633E+04  0.00000000000E+00 0. -1.
          6    1    1    2  501    0 -0.50781334927E+02 -0.26311501975E+03 -0.10344239829E+03  0.33480231086E+03  0.17200000000E+03 0.  1.
         -6    1    1    2    0  503  0.50781334927E+02  0.26311501975E+03 -0.13513099692E+04  0.13883194483E+04  0.17200000000E+03 0. -1.
</event>
<event>
 4    1  0.4440728E+000  0.1922538E+03  0.7818608E-02  0.1156444E+00
         21   -1    0    0  501  502  0.00000000000E+00  0.00000000000E+00  0.39549439986E+03  0.39549439986E+03  0.00000000000E+00 0. -1.
         21   -1    0    0  502  503 -0.00000000000E+00 -0.00000000000E+00 -0.12424276556E+03  0.12424276556E+03  0.00000000000E+00 0. -1.
          6    1    1    2  501    0  0.75667142382E+02  0.40644660762E+02  0.26498493358E+03  0.32738130659E+03  0.17200000000E+03 0. -1.
         -6    1    1    2    0  503 -0.75667142382E+02 -0.40644660762E+02  0.62667007202E+01  0.19235585882E+03  0.17200000000E+03 0. -1.
</event>
<event>
 4    1  0.4440728E+000  0.3149885E+03  0.7818608E-02  0.1077979E+00
         21   -1    0    0  503  502  0.00000000000E+00  0.00000000000E+00  0.10602797865E+03  0.10602797865E+03  0.00000000000E+00 0. -1.
         21   -1    0    0  501  503 -0.00000000000E+00 -0.00000000000E+00 -0.14377926363E+04  0.14377926363E+04  0.00000000000E+00 0. -1.
          6    1    1    2  501    0  0.47306634352E+02 -0.25960703958E+03 -0.11220039338E+04  0.11653800068E+04  0.17200000000E+03 0. -1.
         -6    1    1    2    0  502 -0.47306634352E+02  0.25960703958E+03 -0.20976072379E+03  0.37844060815E+03  0.17200000000E+03 0. -1.
</event>
<event>
 4    1  0.4440728E+000  0.2141987E+03  0.7818608E-02  0.1138284E+00
         21   -1    0    0  503  502  0.00000000000E+00  0.00000000000E+00  0.11303777357E+04  0.11303777357E+04  0.00000000000E+00 0.  1.
         21   -1    0    0  501  503 -0.00000000000E+00 -0.00000000000E+00 -0.40869262058E+02  0.40869262058E+02  0.00000000000E+00 0.  1.
          6    1    1    2  501    0  0.63959150409E+02 -0.11048220437E+03  0.49627307553E+03  0.54052572177E+03  0.17200000000E+03 0.  1.
         -6    1    1    2    0  502 -0.63959150409E+02  0.11048220437E+03  0.59323539808E+03  0.63072127595E+03  0.17200000000E+03 0.  1.
</event>
<event>
 4    1  0.4440728E+000  0.2684223E+03  0.7818608E-02  0.1102186E+00
         21   -1    0    0  501  502  0.00000000000E+00  0.00000000000E+00  0.89693196068E+03  0.89693196068E+03  0.00000000000E+00 0. -1.
         21   -1    0    0  502  503 -0.00000000000E+00 -0.00000000000E+00 -0.89235374687E+02  0.89235374687E+02  0.00000000000E+00 0. -1.
          6    1    1    2  501    0 -0.98532945021E+02  0.18099112780E+03  0.24808016782E+03  0.36550553930E+03  0.17200000000E+03 0. -1.
         -6    1    1    2    0  503  0.98532945021E+02 -0.18099112780E+03  0.55961641818E+03  0.62066179606E+03  0.17200000000E+03 0. -1.
</event>
<event>
 4    1  0.4440728E+000  0.2253947E+03  0.7818608E-02  0.1129924E+00
         21   -1    0    0  503  502  0.00000000000E+00  0.00000000000E+00  0.61198332551E+03  0.61198332551E+03  0.00000000000E+00 0. -1.
         21   -1    0    0  501  503 -0.00000000000E+00 -0.00000000000E+00 -0.13387193754E+03  0.13387193754E+03  0.00000000000E+00 0. -1.
          6    1    1    2  501    0  0.13659736227E+03 -0.50595570267E+02  0.91963413940E+01  0.22558218858E+03  0.17200000000E+03 0. -1.
         -6    1    1    2    0  502 -0.13659736227E+03  0.50595570267E+02  0.46891504657E+03  0.52027307446E+03  0.17200000000E+03 0. -1.
</event>
<event>
 4    1  0.4440728E+000  0.1727033E+03  0.7818608E-02  0.1175058E+00
         21   -1    0    0  503  502  0.00000000000E+00  0.00000000000E+00  0.42181374260E+02  0.42181374260E+02  0.00000000000E+00 0.  1.
         21   -1    0    0  501  503 -0.00000000000E+00 -0.00000000000E+00 -0.81966249052E+03  0.81966249052E+03  0.00000000000E+00 0.  1.
          6    1    1    2  501    0  0.15552672894E+02 -0.72752421519E+00 -0.54843121489E+03  0.57498105394E+03  0.17200000000E+03 0.  1.
         -6    1    1    2    0  502 -0.15552672894E+02  0.72752421519E+00 -0.22904990138E+03  0.28686281085E+03  0.17200000000E+03 0.  1.
</event>
<event>
 4    1  0.4440728E+000  0.1724494E+03  0.7818608E-02  0.1175317E+00
         21   -1    0    0  501  502  0.00000000000E+00  0.00000000000E+00  0.36802024689E+03  0.36802024689E+03  0.00000000000E+00 0. -1.
         21   -1    0    0  502  503 -0.00000000000E+00 -0.00000000000E+00 -0.20503503085E+03  0.20503503085E+03  0.00000000000E+00 0. -1.
          6    1    1    2  501    0  0.11398857440E+02  0.49851581136E+01  0.30452167256E+03  0.34996033320E+03  0.17200000000E+03 0. -1.
         -6    1    1    2    0  503 -0.11398857440E+02 -0.49851581136E+01 -0.14153645652E+03  0.22309494453E+03  0.17200000000E+03 0. -1.
</event>
<event>
 4    1  0.4440728E+000  0.2020111E+03  0.7818608E-02  0.1148053E+00
         21   -1    0    0  503  502  0.00000000000E+00  0.00000000000E+00  0.76224615351E+02  0.76224615351E+02  0.00000000000E+00 0.  1.
         21   -1    0    0  501  503 -0.00000000000E+00 -0.00000000000E+00 -0.54719667077E+03  0.54719667077E+03  0.00000000000E+00 0. -1.
          6    1    1    2  501    0 -0.99445089973E+02  0.36539826142E+02 -0.28130908510E+03  0.34632829248E+03  0.17200000000E+03 0. -1.
         -6    1    1    2    0  502  0.99445089973E+02 -0.36539826142E+02 -0.18966297032E+03  0.27709299364E+03  0.17200000000E+03 0.  1.
</event>
<event>
 4    1  0.4440728E+000  0.2741244E+03  0.7818608E-02  0.1098942E+00
         21   -1    0    0  503  502  0.00000000000E+00  0.00000000000E+00  0.24334788624E+03  0.24334788624E+03  0.00000000000E+00 0.  1.
         21   -1    0    0  501  503 -0.00000000000E+00 -0.00000000000E+00 -0.30911961186E+03  0.30911961186E+03  0.00000000000E+00 0. -1.
          6    1    1    2  501    0 -0.19536355342E+03 -0.85984123398E+02 -0.23910428301E+02  0.27516521594E+03  0.17200000000E+03 0. -1.
         -6    1    1    2    0  502  0.19536355342E+03  0.85984123398E+02 -0.41861297312E+02  0.27730228216E+03  0.17200000000E+03 0.  1.
</event>
<event>
 4    1  0.4440728E+000  0.2177337E+03  0.7818608E-02  0.1135584E+00
         21   -1    0    0  501  502  0.00000000000E+00  0.00000000000E+00  0.49035604600E+03  0.49035604600E+03  0.00000000000E+00 0.  1.
         21   -1    0    0  502  503 -0.00000000000E+00 -0.00000000000E+00 -0.10483671186E+03  0.10483671186E+03  0.00000000000E+00 0.  1.
          6    1    1    2  501    0  0.11394412503E+03 -0.69575179124E+02  0.27576570537E+03  0.35136120082E+03  0.17200000000E+03 0.  1.
         -6    1    1    2    0  503 -0.11394412503E+03  0.69575179124E+02  0.10975362877E+03  0.24383155704E+03  0.17200000000E+03 0.  1.
</event>
<event>
 4    1  0.4440728E+000  0.1895365E+03  0.7818608E-02  0.1158880E+00
         21   -1    0    0  503  502  0.00000000000E+00  0.00000000000E+00  0.12185445700E+03  0.12185445700E+03  0.00000000000E+00 0.  1.
         21   -1    0    0  501  503 -0.00000000000E+00 -0.00000000000E+00 -0.31722934963E+03  0.31722934963E+03  0.00000000000E+00 0.  1.
          6    1    1    2  501    0  0.33684170719E+02 -0.72148771469E+02 -0.39325490126E+02  0.19357314575E+03  0.17200000000E+03 0.  1.
         -6    1    1    2    0  502 -0.33684170719E+02  0.72148771469E+02 -0.15604940251E+03  0.24551066088E+03  0.17200000000E+03 0.  1.
</event>
<event>
 4    1  0.4440728E+000  0.2091971E+03  0.7818608E-02  0.1142203E+00
         21   -1    0    0  503  502  0.00000000000E+00  0.00000000000E+00  0.20109660183E+03  0.20109660183E+03  0.00000000000E+00 0. -1.
         21   -1    0    0  501  503 -0.00000000000E+00 -0.00000000000E+00 -0.31408866199E+03  0.31408866199E+03  0.00000000000E+00 0.  1.
          6    1    1    2  501    0 -0.12342498023E+02  0.11843599067E+03 -0.19925115823E+03  0.28890213775E+03  0.17200000000E+03 0.  1.
         -6    1    1    2    0  502  0.12342498023E+02 -0.11843599067E+03  0.86259098068E+02  0.22628312607E+03  0.17200000000E+03 0. -1.
</event>
<event>
 4    1  0.4440728E+000  0.2032981E+03  0.7818608E-02  0.1146986E+00
         21   -1    0    0  503  502  0.00000000000E+00  0.00000000000E+00  0.52312376000E+02  0.52312376000E+02  0.00000000000E+00 0. -1.
         21   -1    0    0  501  503 -0.00000000000E+00 -0.00000000000E+00 -0.80372838322E+03  0.80372838322E+03  0.00000000000E+00 0.  1.
          6    1    1    2  501    0  0.97682521813E+02 -0.46949291636E+02 -0.31989838451E+03  0.37903177633E+03  0.17200000000E+03 0. -1.
         -6    1    1    2    0  502 -0.97682521813E+02  0.46949291636E+02 -0.43151762271E+03  0.47700898289E+03  0.17200000000E+03 0.  1.
</event>
<event>
 4    1  0.4440728E+000  0.1720001E+03  0.7818608E-02  0.1175778E+00
         21   -1    0    0  501  502  0.00000000000E+00  0.00000000000E+00  0.49734120342E+03  0.49734120342E+03  0.00000000000E+00 0.  1.
         21   -1    0    0  502  503 -0.00000000000E+00 -0.00000000000E+00 -0.85559439072E+02  0.85559439072E+02  0.00000000000E+00 0.  1.
          6    1    1    2  501    0  0.17739473962E-01  0.14785045541E+00  0.36678620075E+03  0.40511250195E+03  0.17200000000E+03 0.  1.
         -6    1    1    2    0  503 -0.17739473962E-01 -0.14785045541E+00  0.44995563598E+02  0.17778814054E+03  0.17200000000E+03 0.  1.
</event>
<event>
 4    1  0.4440728E+000  0.1794611E+03  0.7818608E-02  0.1168326E+00
         21   -1    0    0  503  502  0.00000000000E+00  0.00000000000E+00  0.12861198646E+03  0.12861198646E+03  0.00000000000E+00 0.  1.
         21   -1    0    0  501  503 -0.00000000000E+00 -0.00000000000E+00 -0.25060028121E+03  0.25060028121E+03  0.00000000000E+00 0.  1.
          6    1    1    2  501    0 -0.39072288495E+02  0.33100714996E+02 -0.55831054468E+02  0.18794522528E+03  0.17200000000E+03 0. -1.
         -6    1    1    2    0  502  0.39072288495E+02 -0.33100714996E+02 -0.66157240284E+02  0.19126704239E+03  0.17200000000E+03 0. -1.
</event>
<event>
 4    1  0.4440728E+000  0.2107082E+03  0.7818608E-02  0.1141006E+00
         21   -1    0    0  503  502  0.00000000000E+00  0.00000000000E+00  0.23916723170E+03  0.23916723170E+03  0.00000000000E+00 0.  1.
         21   -1    0    0  501  503 -0.00000000000E+00 -0.00000000000E+00 -0.20611291427E+03  0.20611291427E+03  0.00000000000E+00 0. -1.
          6    1    1    2  501    0  0.17781973136E+01  0.12169964360E+03 -0.53648527693E+02  0.21743074705E+03  0.17200000000E+03 0. -1.
         -6    1    1    2    0  502 -0.17781973136E+01 -0.12169964360E+03  0.86702845130E+02  0.22784939893E+03  0.17200000000E+03 0. -1.
</event>
<event>
 4    1  0.4440728E+000  0.1849375E+03  0.7818608E-02  0.1163108E+00
         21   -1    0    0  503  502  0.00000000000E+00  0.00000000000E+00  0.10399995541E+04  0.10399995541E+04  0.00000000000E+00 0.  1.
         21   -1    0    0  501  503 -0.00000000000E+00 -0.00000000000E+00 -0.19255524211E+03  0.19255524211E+03  0.00000000000E+00 0.  1.
          6    1    1    2  501    0  0.22360481333E+02 -0.64170835059E+02 -0.13746612737E+03  0.23043181936E+03  0.17200000000E+03 0.  1.
         -6    1    1    2    0  502 -0.22360481333E+02  0.64170835059E+02  0.98491043940E+03  0.10021229769E+04  0.17200000000E+03 0.  1.
</event>
<event>
 4    1  0.4440728E+000  0.1727892E+03  0.7818608E-02  0.1174970E+00
         21   -1    0    0  503  502  0.00000000000E+00  0.00000000000E+00  0.15188167587E+03  0.15188167587E+03  0.00000000000E+00 0.  1.
         21   -1    0    0  501  503 -0.00000000000E+00 -0.00000000000E+00 -0.20379821425E+03  0.20379821425E+03  0.00000000000E+00 0.  1.
          6    1    1    2  501    0  0.12142190721E+02  0.11166395889E+02 -0.59439251024E+02  0.18272697052E+03  0.17200000000E+03 0.  1.
         -6    1    1    2    0  502 -0.12142190721E+02 -0.11166395889E+02  0.75227126514E+01  0.17295291960E+03  0.17200000000E+03 0.  1.
</event>
<event>
 4    1  0.4440728E+000  0.1998972E+03  0.7818608E-02  0.1149826E+00
         21   -1    0    0  501  502  0.00000000000E+00  0.00000000000E+00  0.15785055668E+03  0.15785055668E+03  0.00000000000E+00 0. -1.
         21   -1    0    0  502  503 -0.00000000000E+00 -0.00000000000E+00 -0.28737175629E+03  0.28737175629E+03  0.00000000000E+00 0.  1.
          6    1    1    2  501    0  0.42838821607E+02  0.92410602338E+02  0.12066704987E+02  0.20026105320E+03  0.17200000000E+03 0. -1.
         -6    1    1    2    0  503 -0.42838821607E+02 -0.92410602338E+02 -0.14158790459E+03  0.24496125977E+03  0.17200000000E+03 0. -1.
</event>
<event>
 4    1  0.4440728E+000  0.2029555E+03  0.7818608E-02  0.1147269E+00
         21   -1    0    0  501  502  0.00000000000E+00  0.00000000000E+00  0.71464449733E+03  0.71464449733E+03  0.00000000000E+00 0.  1.
         21   -1    0    0  502  503 -0.00000000000E+00 -0.00000000000E+00 -0.57857538560E+02  0.57857538560E+02  0.00000000000E+00 0. -1.
          6    1    1    2  501    0  0.84977760275E+02 -0.66224719705E+02  0.35216700766E+03  0.40646344795E+03  0.17200000000E+03 0.  1.
         -6    1    1    2    0  503 -0.84977760275E+02  0.66224719705E+02  0.30461995111E+03  0.36603858793E+03  0.17200000000E+03 0.  1.
</event>
<event>
 4    1  0.4440728E+000  0.2729228E+03  0.7818608E-02  0.1099618E+00
         21   -1    0    0  503  502  0.00000000000E+00  0.00000000000E+00  0.34798589687E+03  0.34798589687E+03  0.00000000000E+00 0.  1.
         21   -1    0    0  501  503 -0.00000000000E+00 -0.00000000000E+00 -0.65219373338E+03  0.65219373338E+03  0.00000000000E+00 0. -1.
          6    1    1    2  501    0  0.12255630988E+03 -0.17286643155E+03 -0.56199392517E+03  0.62475917295E+03  0.17200000000E+03 0. -1.
         -6    1    1    2    0  502 -0.12255630988E+03  0.17286643155E+03  0.25778608866E+03  0.37542045730E+03  0.17200000000E+03 0.  1.
</event>
<event>
 4    1  0.4440728E+000  0.2707238E+03  0.7818608E-02  0.1100866E+00
         21   -1    0    0  503  502  0.00000000000E+00  0.00000000000E+00  0.16332703798E+03  0.16332703798E+03  0.00000000000E+00 0. -1.
         21   -1    0    0  501  503 -0.00000000000E+00 -0.00000000000E+00 -0.51178019690E+03  0.51178019690E+03  0.00000000000E+00 0. -1.
          6    1    1    2  501    0  0.97672051043E+02 -0.18484466960E+03 -0.29269692995E+03  0.39870148512E+03  0.17200000000E+03 0. -1.
         -6    1    1    2    0  502 -0.97672051043E+02  0.18484466960E+03 -0.55756228971E+02  0.27640574976E+03  0.17200000000E+03 0. -1.
</event>
<event>
 4    1  0.4440728E+000  0.1889047E+03  0.7818608E-02  0.1159453E+00
         21   -1    0    0  503  502  0.00000000000E+00  0.00000000000E+00  0.15431198434E+03  0.15431198434E+03  0.00000000000E+00 0. -1.
         21   -1    0    0  501  503 -0.00000000000E+00 -0.00000000000E+00 -0.25232073756E+03  0.25232073756E+03  0.00000000000E+00 0. -1.
          6    1    1    2  501    0 -0.33312160968E+02 -0.70648944039E+02  0.97464370539E+01  0.18915593144E+03  0.17200000000E+03 0. -1.
         -6    1    1    2    0  502  0.33312160968E+02  0.70648944039E+02 -0.10775519027E+03  0.21747679047E+03  0.17200000000E+03 0. -1.
</event>
<event>
 4    1  0.4440728E+000  0.1768680E+03  0.7818608E-02  0.1170869E+00
         21   -1    0    0  503  502  0.00000000000E+00  0.00000000000E+00  0.10374108930E+03  0.10374108930E+03  0.00000000000E+00 0. -1.
         21   -1    0    0  501  503 -0.00000000000E+00 -0.00000000000E+00 -0.13165609964E+04  0.13165609964E+04  0.00000000000E+00 0. -1.
          6    1    1    2  501    0  0.21280281179E+02  0.35290849506E+02 -0.12299542688E+04  0.12426060509E+04  0.17200000000E+03 0. -1.
         -6    1    1    2    0  502 -0.21280281179E+02 -0.35290849506E+02  0.17134361704E+02  0.17769603478E+03  0.17200000000E+03 0. -1.
</event>
<event>
 4    1  0.4440728E+000  0.1728505E+03  0.7818608E-02  0.1174907E+00
         21   -1    0    0  501  502  0.00000000000E+00  0.00000000000E+00  0.30854334159E+03  0.30854334159E+03  0.00000000000E+00 0.  1.
         21   -1    0    0  502  503 -0.00000000000E+00 -0.00000000000E+00 -0.25531219817E+03  0.25531219817E+03  0.00000000000E+00 0.  1.
          6    1    1    2  501    0  0.17103740335E+02 -0.87329635921E+00  0.24873556882E+03  0.30289715049E+03  0.17200000000E+03 0.  1.
         -6    1    1    2    0  503 -0.17103740335E+02  0.87329635921E+00 -0.19550442540E+03  0.26095838927E+03  0.17200000000E+03 0.  1.
</event>
<event>
 4    1  0.4440728E+000  0.2209247E+03  0.7818608E-02  0.1133196E+00
         21   -1    0    0  501  502  0.00000000000E+00  0.00000000000E+00  0.10102175350E+04  0.10102175350E+04  0.00000000000E+00 0.  1.
         21   -1    0    0  502  503 -0.00000000000E+00 -0.00000000000E+00 -0.30243449621E+03  0.30243449621E+03  0.00000000000E+00 0. -1.
          6    1    1    2  501    0  0.41118653376E+02  0.13241216196E+03  0.95551356330E+03  0.98072110915E+03  0.17200000000E+03 0.  1.
         -6    1    1    2    0  503 -0.41118653376E+02 -0.13241216196E+03 -0.24773052447E+03  0.33193092210E+03  0.17200000000E+03 0. -1.
</event>
<event>
 4    1  0.4440728E+000  0.1850918E+03  0.7818608E-02  0.1162964E+00
         21   -1    0    0  503  502  0.00000000000E+00  0.00000000000E+00  0.13335114180E+03  0.13335114180E+03  0.00000000000E+00 0. -1.
         21   -1    0    0  501  503 -0.00000000000E+00 -0.00000000000E+00 -0.35921085330E+03  0.35921085330E+03  0.00000000000E+00 0. -1.
          6    1    1    2  501    0  0.21974938509E+02 -0.64746245562E+02 -0.24436153799E+03  0.30654777032E+03  0.17200000000E+03 0. -1.
         -6    1    1    2    0  502 -0.21974938509E+02  0.64746245562E+02  0.18501826486E+02  0.18601422478E+03  0.17200000000E+03 0. -1.
</event>
<event>
 4    1  0.4440728E+000  0.1906221E+03  0.7818608E-02  0.1157901E+00
         21   -1    0    0  501  502  0.00000000000E+00  0.00000000000E+00  0.36159128058E+02  0.36159128058E+02  0.00000000000E+00 0.  1.
         21   -1    0    0  502  503 -0.00000000000E+00 -0.00000000000E+00 -0.10239291085E+04  0.10239291085E+04  0.00000000000E+00 0.  1.
          6    1    1    2  501    0  0.45193813193E+02 -0.68631768087E+02 -0.56611718248E+03  0.59734869603E+03  0.17200000000E+03 0.  1.
         -6    1    1    2    0  503 -0.45193813193E+02  0.68631768087E+02 -0.42165279793E+03  0.46273954050E+03  0.17200000000E+03 0.  1.
</event>
<event>
 4    1  0.4440728E+000  0.2198229E+03  0.7818608E-02  0.1134015E+00
         21   -1    0    0  503  502  0.00000000000E+00  0.00000000000E+00  0.54267540990E+03  0.54267540990E+03  0.00000000000E+00 0. -1.
         21   -1    0    0  501  503 -0.00000000000E+00 -0.00000000000E+00 -0.21732460039E+03  0.21732460039E+03  0.00000000000E+00 0. -1.
          6    1    1    2  501    0 -0.66630118862E+02  0.11957650588E+03 -0.12927512111E+03  0.25501798061E+03  0.17200000000E+03 0. -1.
         -6    1    1    2    0  502  0.66630118862E+02 -0.11957650588E+03  0.45462593062E+03  0.50498202967E+03  0.17200000000E+03 0. -1.
</event>
<event>
 4    1  0.4440728E+000  0.1747231E+03  0.7818608E-02  0.1173010E+00
         21   -1    0    0  503  502  0.00000000000E+00  0.00000000000E+00  0.65309946807E+03  0.65309946807E+03  0.00000000000E+00 0.  1.
         21   -1    0    0  501  503 -0.00000000000E+00 -0.00000000000E+00 -0.46785431455E+02  0.46785431455E+02  0.00000000000E+00 0.  1.
          6    1    1    2  501    0 -0.28019137687E+02 -0.12612947945E+02  0.31363272054E+03  0.35901760671E+03  0.17200000000E+03 0. -1.
         -6    1    1    2    0  502  0.28019137687E+02  0.12612947945E+02  0.29268131607E+03  0.34086729281E+03  0.17200000000E+03 0. -1.
</event>
<event>
 4    1  0.4440728E+000  0.2624684E+03  0.7818608E-02  0.1105669E+00
         21   -1    0    0  503  502  0.00000000000E+00  0.00000000000E+00  0.11124603669E+03  0.11124603669E+03  0.00000000000E+00 0. -1.
         21   -1    0    0  501  503 -0.00000000000E+00 -0.00000000000E+00 -0.14299696772E+04  0.14299696772E+04  0.00000000000E+00 0. -1.
          6    1    1    2  501    0  0.14643340096E+03  0.13365218545E+03 -0.12395970271E+04  0.12670794913E+04  0.17200000000E+03 0. -1.
         -6    1    1    2    0  502 -0.14643340096E+03 -0.13365218545E+03 -0.79126613393E+02  0.27413622260E+03  0.17200000000E+03 0. -1.
</event>
<event>
 4    1  0.4440728E+000  0.2130823E+03  0.7818608E-02  0.1139148E+00
         21   -1    0    0  503  502  0.00000000000E+00  0.00000000000E+00  0.11511155029E+03  0.11511155029E+03  0.00000000000E+00 0. -1.
         21   -1    0    0  501  503 -0.00000000000E+00 -0.00000000000E+00 -0.39672532486E+03  0.39672532486E+03  0.00000000000E+00 0. -1.
          6    1    1    2  501    0 -0.11435573853E+03 -0.52371853329E+02 -0.12136280945E+03  0.24522026318E+03  0.17200000000E+03 0. -1.
         -6    1    1    2    0  502  0.11435573853E+03  0.52371853329E+02 -0.16025096512E+03  0.26661661197E+03  0.17200000000E+03 0. -1.
</event>
<event>
 4    1  0.4440728E+000  0.2094244E+03  0.7818608E-02  0.1142023E+00
         21   -1    0    0  503  502  0.00000000000E+00  0.00000000000E+00  0.65634485719E+02  0.65634485719E+02  0.00000000000E+00 0. -1.
         21   -1    0    0  501  503 -0.00000000000E+00 -0.00000000000E+00 -0.67058024358E+03  0.67058024358E+03  0.00000000000E+00 0.  1.
          6    1    1    2  501    0  0.99617031191E+01  0.11906027490E+03 -0.28065589978E+03  0.35018040875E+03  0.17200000000E+03 0.  1.
         -6    1    1    2    0  502 -0.99617031191E+01 -0.11906027490E+03 -0.32428985809E+03  0.38603432056E+03  0.17200000000E+03 0. -1.
</event>
<event>
 4    1  0.4440728E+000  0.1963027E+03  0.7818608E-02  0.1152896E+00
         21   -1    0    0  503  502  0.00000000000E+00  0.00000000000E+00  0.49170969929E+02  0.49170969929E+02  0.00000000000E+00 0.  1.
         21   -1    0    0  501  503 -0.00000000000E+00 -0.00000000000E+00 -0.86461675766E+03  0.86461675766E+03  0.00000000000E+00 0.  1.
          6    1    1    2  501    0 -0.64626686394E+02 -0.69095298670E+02 -0.54750485470E+03  0.58163247400E+03  0.17200000000E+03 0.  1.
         -6    1    1    2    0  502  0.64626686394E+02  0.69095298670E+02 -0.26794093304E+03  0.33215525359E+03  0.17200000000E+03 0.  1.
</event>
<event>
 4    1  0.4440728E+000  0.1828180E+03  0.7818608E-02  0.1165103E+00
         21   -1    0    0  503  502  0.00000000000E+00  0.00000000000E+00  0.11603178137E+03  0.11603178137E+03  0.00000000000E+00 0. -1.
         21   -1    0    0  501  503 -0.00000000000E+00 -0.00000000000E+00 -0.28818551594E+03  0.28818551594E+03  0.00000000000E+00 0. -1.
          6    1    1    2  501    0 -0.49434519495E+02 -0.37344833927E+02 -0.90535071816E+02  0.20400737136E+03  0.17200000000E+03 0. -1.
         -6    1    1    2    0  502  0.49434519495E+02  0.37344833927E+02 -0.81618662758E+02  0.20020992595E+03  0.17200000000E+03 0. -1.
</event>
<event>
 4    1  0.4440728E+000  0.2124842E+03  0.7818608E-02  0.1139614E+00
         21   -1    0    0  503  502  0.00000000000E+00  0.00000000000E+00  0.96717722586E+02  0.96717722586E+02  0.00000000000E+00 0.  1.
         21   -1    0    0  501  503 -0.00000000000E+00 -0.00000000000E+00 -0.13780812799E+04  0.13780812799E+04  0.00000000000E+00 0.  1.
          6    1    1    2  501    0 -0.42825941933E+02  0.11718129954E+03 -0.12403174977E+04  0.12583866709E+04  0.17200000000E+03 0.  1.
         -6    1    1    2    0  502  0.42825941933E+02 -0.11718129954E+03 -0.41046059581E+02  0.21641233161E+03  0.17200000000E+03 0.  1.
</event>
<event>
 4    1  0.4440728E+000  0.1789574E+03  0.7818608E-02  0.1168816E+00
         21   -1    0    0  503  502  0.00000000000E+00  0.00000000000E+00  0.63207180001E+02  0.63207180001E+02  0.00000000000E+00 0.  1.
         21   -1    0    0  501  503 -0.00000000000E+00 -0.00000000000E+00 -0.51138818770E+03  0.51138818770E+03  0.00000000000E+00 0.  1.
          6    1    1    2  501    0  0.44124058563E+02  0.22244321157E+02 -0.25166044877E+03  0.30880207875E+03  0.17200000000E+03 0.  1.
         -6    1    1    2    0  502 -0.44124058563E+02 -0.22244321157E+02 -0.19652055893E+03  0.26579328895E+03  0.17200000000E+03 0.  1.
</event>
<event>
 4    1  0.4440728E+000  0.2117003E+03  0.7818608E-02  0.1140227E+00
         21   -1    0    0  503  502  0.00000000000E+00  0.00000000000E+00  0.53371728969E+02  0.53371728969E+02  0.00000000000E+00 0. -1.
         21   -1    0    0  501  503 -0.00000000000E+00 -0.00000000000E+00 -0.84398734285E+03  0.84398734285E+03  0.00000000000E+00 0. -1.
          6    1    1    2  501    0  0.11982196296E+03  0.29592655729E+02 -0.36338404822E+03  0.42055320065E+03  0.17200000000E+03 0. -1.
         -6    1    1    2    0  502 -0.11982196296E+03 -0.29592655729E+02 -0.42723156566E+03  0.47680587117E+03  0.17200000000E+03 0. -1.
</event>
<event>
 4    1  0.4440728E+000  0.1920934E+03  0.7818608E-02  0.1156587E+00
         21   -1    0    0  501  502  0.00000000000E+00  0.00000000000E+00  0.46939686361E+03  0.46939686361E+03  0.00000000000E+00 0.  1.
         21   -1    0    0  502  503 -0.00000000000E+00 -0.00000000000E+00 -0.12004069852E+03  0.12004069852E+03  0.00000000000E+00 0.  1.
          6    1    1    2  501    0 -0.85392967235E+02  0.48890810625E+01  0.34781842335E+03  0.39733803945E+03  0.17200000000E+03 0.  1.
         -6    1    1    2    0  503  0.85392967235E+02 -0.48890810625E+01  0.15377417347E+01  0.19209952269E+03  0.17200000000E+03 0.  1.
</event>
<event>
 4    1  0.4440728E+000  0.2592209E+03  0.7818608E-02  0.1107612E+00
         21   -1    0    0  503  502  0.00000000000E+00  0.00000000000E+00  0.17327556241E+03  0.17327556241E+03  0.00000000000E+00 0. -1.
         21   -1    0    0  501  503 -0.00000000000E+00 -0.00000000000E+00 -0.40053472548E+03  0.40053472548E+03  0.00000000000E+00 0. -1.
          6    1    1    2  501    0 -0.87257462479E+01  0.19374039954E+03 -0.16479658531E+03  0.30716997833E+03  0.17200000000E+03 0. -1.
         -6    1    1    2    0  502  0.87257462479E+01 -0.19374039954E+03 -0.62462577769E+02  0.26664030956E+03  0.17200000000E+03 0. -1.
</event>
<event>
 4    1  0.4440728E+000  0.2100121E+03  0.7818608E-02  0.1141556E+00
         21   -1    0    0  501  502  0.00000000000E+00  0.00000000000E+00  0.21976216007E+03  0.21976216007E+03  0.00000000000E+00 0.  1.
         21   -1    0    0  502  503 -0.00000000000E+00 -0.00000000000E+00 -0.34113458105E+03  0.34113458105E+03  0.00000000000E+00 0.  1.
          6    1    1    2  501    0  0.77032969059E+02 -0.92666142575E+02  0.11925694584E+03  0.24151047893E+03  0.17200000000E+03 0.  1.
         -6    1    1    2    0  503 -0.77032969059E+02  0.92666142575E+02 -0.24062936681E+03  0.31938626219E+03  0.17200000000E+03 0.  1.
</event>
<event>
 4    1  0.4440728E+000  0.2639454E+03  0.7818608E-02  0.1104796E+00
         21   -1    0    0  501  502  0.00000000000E+00  0.00000000000E+00  0.75214944996E+02  0.75214944996E+02  0.00000000000E+00 0. -1.
         21   -1    0    0  502  503 -0.00000000000E+00 -0.00000000000E+00 -0.10406754555E+04  0.10406754555E+04  0.00000000000E+00 0.  1.
          6    1    1    2  501    0 -0.19113624220E+03  0.59582686729E+02 -0.66774760301E+03  0.71802090566E+03  0.17200000000E+03 0. -1.
         -6    1    1    2    0  503  0.19113624220E+03 -0.59582686729E+02 -0.29771290753E+03  0.39786949487E+03  0.17200000000E+03 0.  1.
</event>
<event>
 4    1  0.4440728E+000  0.1958560E+03  0.7818608E-02  0.1153283E+00
         21   -1    0    0  503  502  0.00000000000E+00  0.00000000000E+00  0.14940927367E+03  0.14940927367E+03  0.00000000000E+00 0.  1.
         21   -1    0    0  501  503 -0.00000000000E+00 -0.00000000000E+00 -0.26167686013E+03  0.26167686013E+03  0.00000000000E+00 0. -1.
          6    1    1    2  501    0  0.38688071146E+02  0.85315957419E+02 -0.27906178787E+02  0.19783410791E+03  0.17200000000E+03 0. -1.
         -6    1    1    2    0  502 -0.38688071146E+02 -0.85315957419E+02 -0.84361407668E+02  0.21325202588E+03  0.17200000000E+03 0.  1.
</event>
<event>
 4    1  0.4440728E+000  0.1865373E+03  0.7818608E-02  0.1161622E+00
         21   -1    0    0  501  502  0.00000000000E+00  0.00000000000E+00  0.68385665867E+03  0.68385665867E+03  0.00000000000E+00 0.  1.
         21   -1    0    0  502  503 -0.00000000000E+00 -0.00000000000E+00 -0.68335476330E+02  0.68335476330E+02  0.00000000000E+00 0.  1.
          6    1    1    2  501    0 -0.60746074585E+02  0.39013595112E+02  0.49783072943E+03  0.53163105755E+03  0.17200000000E+03 0.  1.
         -6    1    1    2    0  503  0.60746074585E+02 -0.39013595112E+02  0.11769045291E+03  0.22056107745E+03  0.17200000000E+03 0.  1.
</event>
<event>
 4    1  0.4440728E+000  0.1974299E+03  0.7818608E-02  0.1151926E+00
         21   -1    0    0  503  502  0.00000000000E+00  0.00000000000E+00  0.25925170847E+03  0.25925170847E+03  0.00000000000E+00 0.  1.
         21   -1    0    0  501  503 -0.00000000000E+00 -0.00000000000E+00 -0.21413847799E+03  0.21413847799E+03  0.00000000000E+00 0. -1.
          6    1    1    2  501    0 -0.89734999147E+02 -0.36635793233E+02 -0.10662843844E+03  0.22438399074E+03  0.17200000000E+03 0. -1.
         -6    1    1    2    0  502  0.89734999147E+02  0.36635793233E+02  0.15174166892E+03  0.24900619571E+03  0.17200000000E+03 0. -1.
</event>
<event>
 4    1  0.4440728E+000  0.1759281E+03  0.7818608E-02  0.1171803E+00
         21   -1    0    0  501  502  0.00000000000E+00  0.00000000000E+00  0.28072892861E+03  0.28072892861E+03  0.00000000000E+00 0. -1.
         21   -1    0    0  502  503 -0.00000000000E+00 -0.00000000000E+00 -0.15265953912E+03  0.15265953912E+03  0.00000000000E+00 0. -1.
          6    1    1    2  501    0 -0.33838732247E+02  0.14887968333E+02  0.17824645593E+03  0.25044462552E+03  0.17200000000E+03 0. -1.
         -6    1    1    2    0  503  0.33838732247E+02 -0.14887968333E+02 -0.50177066442E+02  0.18294384220E+03  0.17200000000E+03 0. -1.
</event>
<event>
 4    1  0.4440728E+000  0.2440588E+03  0.7818608E-02  0.1117118E+00
         21   -1    0    0  503  502  0.00000000000E+00  0.00000000000E+00  0.74621404267E+02  0.74621404267E+02  0.00000000000E+00 0.  1.
         21   -1    0    0  501  503 -0.00000000000E+00 -0.00000000000E+00 -0.12197903066E+04  0.12197903066E+04  0.00000000000E+00 0. -1.
          6    1    1    2  501    0 -0.12203067681E+03  0.12283807210E+03 -0.95306479703E+03  0.98381765861E+03  0.17200000000E+03 0. -1.
         -6    1    1    2    0  502  0.12203067681E+03 -0.12283807210E+03 -0.19210410534E+03  0.31059405230E+03  0.17200000000E+03 0.  1.
</event>
<event>
 4    1  0.4440728E+000  0.2238798E+03  0.7818608E-02  0.1131023E+00
         21   -1    0    0  503  502  0.00000000000E+00  0.00000000000E+00  0.27819533519E+03  0.27819533519E+03  0.00000000000E+00 0.  1.
         21   -1    0    0  501  503 -0.00000000000E+00 -0.00000000000E+00 -0.25010023679E+03  0.25010023679E+03  0.00000000000E+00 0.  1.
          6    1    1    2  501    0 -0.13905069224E+03 -0.34685040772E+02 -0.12562975475E+03  0.25671965711E+03  0.17200000000E+03 0.  1.
         -6    1    1    2    0  502  0.13905069224E+03  0.34685040772E+02  0.15372485315E+03  0.27157591488E+03  0.17200000000E+03 0.  1.
</event>
<event>
 4    1  0.4440728E+000  0.2213300E+03  0.7818608E-02  0.1132895E+00
         21   -1    0    0  501  502  0.00000000000E+00  0.00000000000E+00  0.19160999056E+03  0.19160999056E+03  0.00000000000E+00 0.  1.
         21   -1    0    0  502  503 -0.00000000000E+00 -0.00000000000E+00 -0.25876191589E+03  0.25876191589E+03  0.00000000000E+00 0. -1.
          6    1    1    2  501    0  0.10916217585E+03 -0.86525085314E+02 -0.58231838459E+02  0.22886222501E+03  0.17200000000E+03 0. -1.
         -6    1    1    2    0  503 -0.10916217585E+03  0.86525085314E+02 -0.89200868717E+01  0.22150968144E+03  0.17200000000E+03 0.  1.
</event>
<event>
 4    1  0.4440728E+000  0.1919520E+03  0.7818608E-02  0.1156712E+00
         21   -1    0    0  503  502  0.00000000000E+00  0.00000000000E+00  0.44737197545E+02  0.44737197545E+02  0.00000000000E+00 0.  1.
         21   -1    0    0  501  503 -0.00000000000E+00 -0.00000000000E+00 -0.82789431002E+03  0.82789431002E+03  0.00000000000E+00 0.  1.
          6    1    1    2  501    0  0.76836336888E+02  0.36847375153E+02 -0.36015431048E+03  0.40811356150E+03  0.17200000000E+03 0. -1.
         -6    1    1    2    0  502 -0.76836336888E+02 -0.36847375153E+02 -0.42300280200E+03  0.46451794607E+03  0.17200000000E+03 0. -1.
</event>
<event>
 4    1  0.4440728E+000  0.2084526E+03  0.7818608E-02  0.1142797E+00
         21   -1    0    0  503  502  0.00000000000E+00  0.00000000000E+00  0.93742322773E+02  0.93742322773E+02  0.00000000000E+00 0.  1.
         21   -1    0    0  501  503 -0.00000000000E+00 -0.00000000000E+00 -0.46369704419E+03  0.46369704419E+03  0.00000000000E+00 0. -1.
          6    1    1    2  501    0  0.52801792196E+02  0.10526371003E+03 -0.19025073368E+03  0.28221945286E+03  0.17200000000E+03 0. -1.
         -6    1    1    2    0  502 -0.52801792196E+02 -0.10526371003E+03 -0.17970398774E+03  0.27521991410E+03  0.17200000000E+03 0.  1.
</event>
<event>
 4    1  0.4440728E+000  0.2338421E+03  0.7818608E-02  0.1123964E+00
         21   -1    0    0  503  502  0.00000000000E+00  0.00000000000E+00  0.82660065998E+03  0.82660065998E+03  0.00000000000E+00 0.  1.
         21   -1    0    0  501  503 -0.00000000000E+00 -0.00000000000E+00 -0.17335420381E+03  0.17335420381E+03  0.00000000000E+00 0. -1.
          6    1    1    2  501    0  0.13842325298E+03  0.77052837174E+02 -0.66549138727E+02  0.24312738338E+03  0.17200000000E+03 0. -1.
         -6    1    1    2    0  502 -0.13842325298E+03 -0.77052837174E+02  0.71979559490E+03  0.75682748042E+03  0.17200000000E+03 0.  1.
</event>
<event>
 4    1  0.4440728E+000  0.1774777E+03  0.7818608E-02  0.1170267E+00
         21   -1    0    0  503  502  0.00000000000E+00  0.00000000000E+00  0.90818540616E+02  0.90818540616E+02  0.00000000000E+00 0. -1.
         21   -1    0    0  501  503 -0.00000000000E+00 -0.00000000000E+00 -0.95424283489E+03  0.95424283489E+03  0.00000000000E+00 0. -1.
          6    1    1    2  501    0  0.41365333206E+02  0.14256847985E+02 -0.84860581407E+03  0.86696607556E+03  0.17200000000E+03 0. -1.
         -6    1    1    2    0  502 -0.41365333206E+02 -0.14256847985E+02 -0.14818480204E+02  0.17809529994E+03  0.17200000000E+03 0. -1.
</event>
<event>
 4    1  0.4440728E+000  0.2160194E+03  0.7818608E-02  0.1136886E+00
         21   -1    0    0  503  502  0.00000000000E+00  0.00000000000E+00  0.90998160634E+02  0.90998160634E+02  0.00000000000E+00 0.  1.
         21   -1    0    0  501  503 -0.00000000000E+00 -0.00000000000E+00 -0.51338136904E+03  0.51338136904E+03  0.00000000000E+00 0.  1.
          6    1    1    2  501    0  0.11533084638E+03 -0.61474999064E+02 -0.20107280835E+03  0.29511803383E+03  0.17200000000E+03 0.  1.
         -6    1    1    2    0  502 -0.11533084638E+03  0.61474999064E+02 -0.22131040006E+03  0.30926149584E+03  0.17200000000E+03 0.  1.
</event>
<event>
 4    1  0.4440728E+000  0.3253339E+03  0.7818608E-02  0.1073220E+00
         21   -1    0    0  501  502  0.00000000000E+00  0.00000000000E+00  0.44089496405E+03  0.44089496405E+03  0.00000000000E+00 0.  1.
         21   -1    0    0  502  503 -0.00000000000E+00 -0.00000000000E+00 -0.24963092674E+03  0.24963092674E+03  0.00000000000E+00 0. -1.
          6    1    1    2  501    0  0.71276054203E+02 -0.26679180324E+03  0.16322966941E+03  0.36398635573E+03  0.17200000000E+03 0.  1.
         -6    1    1    2    0  503 -0.71276054203E+02  0.26679180324E+03  0.28034367900E+02  0.32653953507E+03  0.17200000000E+03 0. -1.
</event>
<event>
 4    1  0.4440728E+000  0.1956095E+03  0.7818608E-02  0.1153497E+00
         21   -1    0    0  503  502  0.00000000000E+00  0.00000000000E+00  0.12488436141E+04  0.12488436141E+04  0.00000000000E+00 0.  1.
         21   -1    0    0  501  503 -0.00000000000E+00 -0.00000000000E+00 -0.33175373324E+02  0.33175373324E+02  0.00000000000E+00 0.  1.
          6    1    1    2  501    0 -0.36524289059E+02 -0.85703204893E+02  0.43058637392E+03  0.47293518417E+03  0.17200000000E+03 0.  1.
         -6    1    1    2    0  502  0.36524289059E+02  0.85703204893E+02  0.78508186685E+03  0.80908380325E+03  0.17200000000E+03 0.  1.
</event>
<event>
 4    1  0.4440728E+000  0.2418117E+03  0.7818608E-02  0.1118592E+00
         21   -1    0    0  501  502  0.00000000000E+00  0.00000000000E+00  0.24748184984E+02  0.24748184984E+02  0.00000000000E+00 0.  1.
         21   -1    0    0  502  503 -0.00000000000E+00 -0.00000000000E+00 -0.23633421088E+04  0.23633421088E+04  0.00000000000E+00 0.  1.
          6    1    1    2  501    0 -0.14390500768E+03  0.90444803981E+02 -0.11887436701E+04  0.12130887960E+04  0.17200000000E+03 0.  1.
         -6    1    1    2    0  503  0.14390500768E+03 -0.90444803981E+02 -0.11498502538E+04  0.11750014978E+04  0.17200000000E+03 0.  1.
</event>
<event>
 4    1  0.4440728E+000  0.2851818E+03  0.7818608E-02  0.1092892E+00
         21   -1    0    0  503  502  0.00000000000E+00  0.00000000000E+00  0.41756748875E+03  0.41756748875E+03  0.00000000000E+00 0.  1.
         21   -1    0    0  501  503 -0.00000000000E+00 -0.00000000000E+00 -0.31590891901E+03  0.31590891901E+03  0.00000000000E+00 0.  1.
          6    1    1    2  501    0  0.44753285435E+02  0.22302869049E+03 -0.17627284416E+03  0.33526223904E+03  0.17200000000E+03 0.  1.
         -6    1    1    2    0  502 -0.44753285435E+02 -0.22302869049E+03  0.27793141390E+03  0.39821416872E+03  0.17200000000E+03 0.  1.
</event>
<event>
 4    1  0.4440728E+000  0.1851348E+03  0.7818608E-02  0.1162924E+00
         21   -1    0    0  503  502  0.00000000000E+00  0.00000000000E+00  0.24933213656E+03  0.24933213656E+03  0.00000000000E+00 0. -1.
         21   -1    0    0  501  503 -0.00000000000E+00 -0.00000000000E+00 -0.13885042363E+03  0.13885042363E+03  0.00000000000E+00 0.  1.
          6    1    1    2  501    0  0.41351483075E+02 -0.54597996753E+02  0.74615970552E+02  0.19960568495E+03  0.17200000000E+03 0. -1.
         -6    1    1    2    0  502 -0.41351483075E+02  0.54597996753E+02  0.35865742376E+02  0.18857687525E+03  0.17200000000E+03 0.  1.
</event>
<event>
 4    1  0.4440728E+000  0.3177996E+03  0.7818608E-02  0.1076666E+00
         21   -1    0    0  501  502  0.00000000000E+00  0.00000000000E+00  0.15629655838E+03  0.15629655838E+03  0.00000000000E+00 0. -1.
         21   -1    0    0  502  503 -0.00000000000E+00 -0.00000000000E+00 -0.65194626106E+03  0.65194626106E+03  0.00000000000E+00 0. -1.
          6    1    1    2  501    0 -0.25431935148E+03  0.82062328593E+02 -0.28581304504E+03  0.42741742481E+03  0.17200000000E+03 0. -1.
         -6    1    1    2    0  503  0.25431935148E+03 -0.82062328593E+02 -0.20983665764E+03  0.38082539464E+03  0.17200000000E+03 0. -1.
</event>
<event>
 4    1  0.4440728E+000  0.1927385E+03  0.7818608E-02  0.1156014E+00
         21   -1    0    0  501  502  0.00000000000E+00  0.00000000000E+00  0.19407180950E+03  0.19407180950E+03  0.00000000000E+00 0.  1.
         21   -1    0    0  502  503 -0.00000000000E+00 -0.00000000000E+00 -0.34374449017E+03  0.34374449017E+03  0.00000000000E+00 0.  1.
          6    1    1    2  501    0  0.51912745190E+02  0.69779529726E+02  0.10417440920E+03  0.21908998930E+03  0.17200000000E+03 0.  1.
         -6    1    1    2    0  503 -0.51912745190E+02 -0.69779529726E+02 -0.25384708987E+03  0.31872631037E+03  0.17200000000E+03 0.  1.
</event>
<event>
 4    1  0.4440728E+000  0.3358614E+03  0.7818608E-02  0.1068572E+00
         21   -1    0    0  503  502  0.00000000000E+00  0.00000000000E+00  0.98216148612E+02  0.98216148612E+02  0.00000000000E+00 0. -1.
         21   -1    0    0  501  503 -0.00000000000E+00 -0.00000000000E+00 -0.13876656912E+04  0.13876656912E+04  0.00000000000E+00 0.  1.
          6    1    1    2  501    0 -0.20101857722E+03 -0.20690675594E+03 -0.95314741053E+03  0.10105903523E+04  0.17200000000E+03 0.  1.
         -6    1    1    2    0  502  0.20101857722E+03  0.20690675594E+03 -0.33630213208E+03  0.47529148750E+03  0.17200000000E+03 0. -1.
</event>
<event>
 4    1  0.4440728E+000  0.2790732E+03  0.7818608E-02  0.1096196E+00
         21   -1    0    0  501  502  0.00000000000E+00  0.00000000000E+00  0.10466771470E+03  0.10466771470E+03  0.00000000000E+00 0.  1.
         21   -1    0    0  502  503 -0.00000000000E+00 -0.00000000000E+00 -0.74484453369E+03  0.74484453369E+03  0.00000000000E+00 0.  1.
          6    1    1    2  501    0 -0.15590228705E+03  0.15489451322E+03 -0.30653802773E+03  0.41454480551E+03  0.17200000000E+03 0.  1.
         -6    1    1    2    0  503  0.15590228705E+03 -0.15489451322E+03 -0.33363879126E+03  0.43496744288E+03  0.17200000000E+03 0.  1.
</event>
<event>
 4    1  0.4440728E+000  0.2562828E+03  0.7818608E-02  0.1109397E+00
         21   -1    0    0  501  502  0.00000000000E+00  0.00000000000E+00  0.13166750601E+04  0.13166750601E+04  0.00000000000E+00 0.  1.
         21   -1    0    0  502  503 -0.00000000000E+00 -0.00000000000E+00 -0.52850343047E+02  0.52850343047E+02  0.00000000000E+00 0. -1.
          6    1    1    2  501    0  0.11373924929E+03 -0.15218491538E+03  0.79414394185E+03  0.83447316654E+03  0.17200000000E+03 0. -1.
         -6    1    1    2    0  503 -0.11373924929E+03  0.15218491538E+03  0.46968077518E+03  0.53505223659E+03  0.17200000000E+03 0. -1.
</event>
<event>
 4    1  0.4440728E+000  0.2322729E+03  0.7818608E-02  0.1125050E+00
         21   -1    0    0  501  502  0.00000000000E+00  0.00000000000E+00  0.14296732755E+04  0.14296732755E+04  0.00000000000E+00 0.  1.
         21   -1    0    0  502  503 -0.00000000000E+00 -0.00000000000E+00 -0.79767194019E+02  0.79767194019E+02  0.00000000000E+00 0.  1.
          6    1    1    2  501    0 -0.88638904131E+01 -0.15584642792E+03  0.12227981591E+04  0.12446630128E+04  0.17200000000E+03 0.  1.
         -6    1    1    2    0  503  0.88638904131E+01  0.15584642792E+03  0.12710792244E+03  0.26477745674E+03  0.17200000000E+03 0.  1.
</event>
<event>
 4    1  0.4440728E+000  0.1992947E+03  0.7818608E-02  0.1150335E+00
         21   -1    0    0  501  502  0.00000000000E+00  0.00000000000E+00  0.13420128394E+03  0.13420128394E+03  0.00000000000E+00 0.  1.
         21   -1    0    0  502  503 -0.00000000000E+00 -0.00000000000E+00 -0.29771681153E+03  0.29771681153E+03  0.00000000000E+00 0. -1.
          6    1    1    2  501    0  0.91450067197E+02  0.42086533556E+02 -0.98340923709E+02  0.22223709945E+03  0.17200000000E+03 0. -1.
         -6    1    1    2    0  503 -0.91450067197E+02 -0.42086533556E+02 -0.65174603878E+02  0.20968099601E+03  0.17200000000E+03 0.  1.
</event>
<event>
 4    1  0.4440728E+000  0.2262107E+03  0.7818608E-02  0.1129336E+00
         21   -1    0    0  503  502  0.00000000000E+00  0.00000000000E+00  0.27895327124E+03  0.27895327124E+03  0.00000000000E+00 0. -1.
         21   -1    0    0  501  503 -0.00000000000E+00 -0.00000000000E+00 -0.34204583836E+03  0.34204583836E+03  0.00000000000E+00 0. -1.
          6    1    1    2  501    0  0.86530339922E+02 -0.11874251853E+03 -0.24298179644E+03  0.33198108204E+03  0.17200000000E+03 0. -1.
         -6    1    1    2    0  502 -0.86530339922E+02  0.11874251853E+03  0.17988922932E+03  0.28901802756E+03  0.17200000000E+03 0. -1.
</event>
<event>
 4    1  0.4440728E+000  0.1986135E+03  0.7818608E-02  0.1150914E+00
         21   -1    0    0  501  502  0.00000000000E+00  0.00000000000E+00  0.16210040656E+03  0.16210040656E+03  0.00000000000E+00 0.  1.
         21   -1    0    0  502  503 -0.00000000000E+00 -0.00000000000E+00 -0.24936869818E+03  0.24936869818E+03  0.00000000000E+00 0.  1.
          6    1    1    2  501    0 -0.89711923661E+02 -0.42603779233E+02 -0.11674785303E+02  0.19895630642E+03  0.17200000000E+03 0. -1.
         -6    1    1    2    0  503  0.89711923661E+02  0.42603779233E+02 -0.75593506326E+02  0.21251279832E+03  0.17200000000E+03 0. -1.
</event>
<event>
 4    1  0.4440728E+000  0.2282211E+03  0.7818608E-02  0.1127898E+00
         21   -1    0    0  503  502  0.00000000000E+00  0.00000000000E+00  0.22071322304E+03  0.22071322304E+03  0.00000000000E+00 0.  1.
         21   -1    0    0  501  503 -0.00000000000E+00 -0.00000000000E+00 -0.48899698933E+03  0.48899698933E+03  0.00000000000E+00 0.  1.
          6    1    1    2  501    0  0.14065712262E+03  0.52119476040E+02 -0.38939383805E+03  0.45134513074E+03  0.17200000000E+03 0.  1.
         -6    1    1    2    0  502 -0.14065712262E+03 -0.52119476040E+02  0.12111007176E+03  0.25836508163E+03  0.17200000000E+03 0.  1.
</event>
<event>
 4    1  0.4440728E+000  0.1881594E+03  0.7818608E-02  0.1160132E+00
         21   -1    0    0  501  502  0.00000000000E+00  0.00000000000E+00  0.10143077570E+04  0.10143077570E+04  0.00000000000E+00 0.  1.
         21   -1    0    0  502  503 -0.00000000000E+00 -0.00000000000E+00 -0.18220478703E+03  0.18220478703E+03  0.00000000000E+00 0.  1.
          6    1    1    2  501    0  0.26224232723E+02 -0.71639845724E+02  0.95396079337E+03  0.97234005017E+03  0.17200000000E+03 0.  1.
         -6    1    1    2    0  503 -0.26224232723E+02  0.71639845724E+02 -0.12185782341E+03  0.22417249386E+03  0.17200000000E+03 0.  1.
</event>
<event>
 4    1  0.4440728E+000  0.2424466E+03  0.7818608E-02  0.1118174E+00
         21   -1    0    0  501  502  0.00000000000E+00  0.00000000000E+00  0.22197092891E+02  0.22197092891E+02  0.00000000000E+00 0.  1.
         21   -1    0    0  502  503 -0.00000000000E+00 -0.00000000000E+00 -0.31570566322E+04  0.31570566322E+04  0.00000000000E+00 0.  1.
          6    1    1    2  501    0 -0.59051768160E+02  0.16034095989E+03 -0.92918053789E+03  0.96028995972E+03  0.17200000000E+03 0.  1.
         -6    1    1    2    0  503  0.59051768160E+02 -0.16034095989E+03 -0.22056790014E+04  0.22189637654E+04  0.17200000000E+03 0.  1.
</event>
<event>
 4    1  0.4440728E+000  0.1888293E+03  0.7818608E-02  0.1159521E+00
         21   -1    0    0  503  502  0.00000000000E+00  0.00000000000E+00  0.18247112505E+03  0.18247112505E+03  0.00000000000E+00 0.  1.
         21   -1    0    0  501  503 -0.00000000000E+00 -0.00000000000E+00 -0.25792116110E+03  0.25792116110E+03  0.00000000000E+00 0.  1.
          6    1    1    2  501    0 -0.36664777381E+02  0.68761874525E+02 -0.14612980329E+03  0.23876855048E+03  0.17200000000E+03 0.  1.
         -6    1    1    2    0  502  0.36664777381E+02 -0.68761874525E+02  0.70679767245E+02  0.20162373567E+03  0.17200000000E+03 0.  1.
</event>
<event>
 4    1  0.4440728E+000  0.3125838E+03  0.7818608E-02  0.1079114E+00
         21   -1    0    0  503  502  0.00000000000E+00  0.00000000000E+00  0.11624634148E+04  0.11624634148E+04  0.00000000000E+00 0.  1.
         21   -1    0    0  501  503 -0.00000000000E+00 -0.00000000000E+00 -0.92490469329E+02  0.92490469329E+02  0.00000000000E+00 0. -1.
          6    1    1    2  501    0  0.79697420766E+02 -0.24854160938E+03  0.34546703213E+03  0.46589277818E+03  0.17200000000E+03 0.  1.
         -6    1    1    2    0  502 -0.79697420766E+02  0.24854160938E+03  0.72450591339E+03  0.78906110600E+03  0.17200000000E+03 0.  1.
</event>
<event>
 4    1  0.4440728E+000  0.2650692E+03  0.7818608E-02  0.1104135E+00
         21   -1    0    0  503  502  0.00000000000E+00  0.00000000000E+00  0.12801908157E+04  0.12801908157E+04  0.00000000000E+00 0. -1.
         21   -1    0    0  501  503 -0.00000000000E+00 -0.00000000000E+00 -0.84690197922E+02  0.84690197922E+02  0.00000000000E+00 0.  1.
          6    1    1    2  501    0 -0.14471930454E+02 -0.20116714225E+03  0.19289165176E+03  0.32782441216E+03  0.17200000000E+03 0.  1.
         -6    1    1    2    0  502  0.14471930454E+02  0.20116714225E+03  0.10026089660E+04  0.10370566014E+04  0.17200000000E+03 0. -1.
</event>
<event>
 4    1  0.4440728E+000  0.2469993E+03  0.7818608E-02  0.1115216E+00
         21   -1    0    0  501  502  0.00000000000E+00  0.00000000000E+00  0.26367293303E+03  0.26367293303E+03  0.00000000000E+00 0.  1.
         21   -1    0    0  502  503 -0.00000000000E+00 -0.00000000000E+00 -0.29157906752E+03  0.29157906752E+03  0.00000000000E+00 0. -1.
          6    1    1    2  501    0 -0.14725529228E+03 -0.98694014901E+02  0.11219396350E+03  0.27128603932E+03  0.17200000000E+03 0.  1.
         -6    1    1    2    0  503  0.14725529228E+03  0.98694014901E+02 -0.14010009799E+03  0.28396596123E+03  0.17200000000E+03 0.  1.
</event>
<event>
 4    1  0.4440728E+000  0.2657320E+03  0.7818608E-02  0.1103747E+00
         21   -1    0    0  501  502  0.00000000000E+00  0.00000000000E+00  0.72840281021E+03  0.72840281021E+03  0.00000000000E+00 0. -1.
         21   -1    0    0  502  503 -0.00000000000E+00 -0.00000000000E+00 -0.97858838860E+02  0.97858838860E+02  0.00000000000E+00 0.  1.
          6    1    1    2  501    0 -0.10633179365E+03 -0.17240379836E+03  0.35523958294E+03  0.44363124475E+03  0.17200000000E+03 0.  1.
         -6    1    1    2    0  503  0.10633179365E+03  0.17240379836E+03  0.27530438841E+03  0.38263040432E+03  0.17200000000E+03 0. -1.
</event>
<event>
 4    1  0.4440728E+000  0.2183293E+03  0.7818608E-02  0.1135135E+00
         21   -1    0    0  503  502  0.00000000000E+00  0.00000000000E+00  0.38464281319E+02  0.38464281319E+02  0.00000000000E+00 0. -1.
         21   -1    0    0  501  503 -0.00000000000E+00 -0.00000000000E+00 -0.13099318099E+04  0.13099318099E+04  0.00000000000E+00 0. -1.
          6    1    1    2  501    0  0.12498093707E+03 -0.49633196194E+02 -0.47914852545E+03  0.52654629259E+03  0.17200000000E+03 0. -1.
         -6    1    1    2    0  502 -0.12498093707E+03  0.49633196194E+02 -0.79231900316E+03  0.82184979866E+03  0.17200000000E+03 0. -1.
</event>
<event>
 4    1  0.4440728E+000  0.1963633E+03  0.7818608E-02  0.1152844E+00
         21   -1    0    0  501  502  0.00000000000E+00  0.00000000000E+00  0.61077135196E+03  0.61077135196E+03  0.00000000000E+00 0.  1.
         21   -1    0    0  502  503 -0.00000000000E+00 -0.00000000000E+00 -0.66300282862E+02  0.66300282862E+02  0.00000000000E+00 0.  1.
          6    1    1    2  501    0 -0.73711880057E+02 -0.59507162243E+02  0.19821802692E+03  0.27901421078E+03  0.17200000000E+03 0.  1.
         -6    1    1    2    0  503  0.73711880057E+02  0.59507162243E+02  0.34625304217E+03  0.39805742404E+03  0.17200000000E+03 0.  1.
</event>
<event>
 4    1  0.4440728E+000  0.1736054E+03  0.7818608E-02  0.1174139E+00
         21   -1    0    0  501  502  0.00000000000E+00  0.00000000000E+00  0.17454797650E+03  0.17454797650E+03  0.00000000000E+00 0. -1.
         21   -1    0    0  502  503 -0.00000000000E+00 -0.00000000000E+00 -0.18398727700E+03  0.18398727700E+03  0.00000000000E+00 0. -1.
          6    1    1    2  501    0 -0.21518402445E+02  0.95805111429E+01 -0.49184799411E+02  0.18043827845E+03  0.17200000000E+03 0. -1.
         -6    1    1    2    0  503  0.21518402445E+02 -0.95805111429E+01  0.39745498910E+02  0.17809697505E+03  0.17200000000E+03 0. -1.
</event>
<event>
 4    1  0.4440728E+000  0.2280060E+03  0.7818608E-02  0.1128051E+00
         21   -1    0    0  501  502  0.00000000000E+00  0.00000000000E+00  0.26369006774E+03  0.26369006774E+03  0.00000000000E+00 0. -1.
         21   -1    0    0  502  503 -0.00000000000E+00 -0.00000000000E+00 -0.20065743417E+03  0.20065743417E+03  0.00000000000E+00 0.  1.
          6    1    1    2  501    0 -0.13966831816E+03  0.53809683826E+02  0.62208485855E+02  0.23634004503E+03  0.17200000000E+03 0.  1.
         -6    1    1    2    0  503  0.13966831816E+03 -0.53809683826E+02  0.82414771542E+00  0.22800745687E+03  0.17200000000E+03 0. -1.
</event>
<event>
 4    1  0.4440728E+000  0.2616050E+03  0.7818608E-02  0.1106183E+00
         21   -1    0    0  501  502  0.00000000000E+00  0.00000000000E+00  0.42955606572E+03  0.42955606572E+03  0.00000000000E+00 0.  1.
         21   -1    0    0  502  503 -0.00000000000E+00 -0.00000000000E+00 -0.70285716598E+03  0.70285716598E+03  0.00000000000E+00 0. -1.
          6    1    1    2  501    0  0.19397502507E+03 -0.35026277862E+02  0.36126508658E+03  0.44603768145E+03  0.17200000000E+03 0.  1.
         -6    1    1    2    0  503 -0.19397502507E+03  0.35026277862E+02 -0.63456618684E+03  0.68637555024E+03  0.17200000000E+03 0. -1.
</event>
<event>
 4    1  0.4440728E+000  0.2588272E+03  0.7818608E-02  0.1107850E+00
         21   -1    0    0  501  502  0.00000000000E+00  0.00000000000E+00  0.10410845464E+03  0.10410845464E+03  0.00000000000E+00 0.  1.
         21   -1    0    0  502  503 -0.00000000000E+00 -0.00000000000E+00 -0.12679665467E+04  0.12679665467E+04  0.00000000000E+00 0. -1.
          6    1    1    2  501    0  0.63196123153E+02  0.18279434560E+03 -0.10047357996E+03  0.27764449037E+03  0.17200000000E+03 0.  1.
         -6    1    1    2    0  503 -0.63196123153E+02 -0.18279434560E+03 -0.10633845120E+04  0.10944305109E+04  0.17200000000E+03 0. -1.
</event>
<event>
 4    1  0.4440728E+000  0.1904056E+03  0.7818608E-02  0.1158096E+00
         21   -1    0    0  501  502  0.00000000000E+00  0.00000000000E+00  0.71644549517E+03  0.71644549517E+03  0.00000000000E+00 0. -1.
         21   -1    0    0  502  503 -0.00000000000E+00 -0.00000000000E+00 -0.79960215377E+02  0.79960215377E+02  0.00000000000E+00 0. -1.
          6    1    1    2  501    0  0.36102734654E+02 -0.73258898926E+02  0.55952468434E+03  0.59103480956E+03  0.17200000000E+03 0. -1.
         -6    1    1    2    0  503 -0.36102734654E+02  0.73258898926E+02  0.76960595455E+02  0.20537090099E+03  0.17200000000E+03 0. -1.
</event>
<event>
 4    1  0.4440728E+000  0.1962658E+03  0.7818608E-02  0.1152928E+00
         21   -1    0    0  503  502  0.00000000000E+00  0.00000000000E+00  0.34133844097E+02  0.34133844097E+02  0.00000000000E+00 0. -1.
         21   -1    0    0  501  503 -0.00000000000E+00 -0.00000000000E+00 -0.11630125624E+04  0.11630125624E+04  0.00000000000E+00 0. -1.
          6    1    1    2  501    0  0.62033612539E+01  0.94328034844E+02 -0.66754292993E+03  0.69579725722E+03  0.17200000000E+03 0. -1.
         -6    1    1    2    0  502 -0.62033612539E+01 -0.94328034844E+02 -0.46133578833E+03  0.50134914924E+03  0.17200000000E+03 0. -1.
</event>
<event>
 4    1  0.4440728E+000  0.2323955E+03  0.7818608E-02  0.1124965E+00
         21   -1    0    0  503  502  0.00000000000E+00  0.00000000000E+00  0.13787965573E+03  0.13787965573E+03  0.00000000000E+00 0. -1.
         21   -1    0    0  501  503 -0.00000000000E+00 -0.00000000000E+00 -0.39487993433E+03  0.39487993433E+03  0.00000000000E+00 0.  1.
          6    1    1    2  501    0  0.97050306395E+02 -0.12249443562E+03 -0.10460085468E+03  0.25485091236E+03  0.17200000000E+03 0. -1.
         -6    1    1    2    0  502 -0.97050306395E+02  0.12249443562E+03 -0.15239942392E+03  0.27790867770E+03  0.17200000000E+03 0. -1.
</event>
<event>
 4    1  0.4440728E+000  0.1883467E+03  0.7818608E-02  0.1159961E+00
         21   -1    0    0  501  502  0.00000000000E+00  0.00000000000E+00  0.21469973309E+03  0.21469973309E+03  0.00000000000E+00 0.  1.
         21   -1    0    0  502  503 -0.00000000000E+00 -0.00000000000E+00 -0.16578226742E+03  0.16578226742E+03  0.00000000000E+00 0.  1.
          6    1    1    2  501    0  0.64574894777E+01  0.76477406926E+02  0.35454835677E+02  0.19165473726E+03  0.17200000000E+03 0.  1.
         -6    1    1    2    0  503 -0.64574894777E+01 -0.76477406926E+02  0.13462629992E+02  0.18882726325E+03  0.17200000000E+03 0.  1.
</event>
<event>
 4    1  0.4440728E+000  0.2218410E+03  0.7818608E-02  0.1132518E+00
         21   -1    0    0  503  502  0.00000000000E+00  0.00000000000E+00  0.35831356994E+03  0.35831356994E+03  0.00000000000E+00 0. -1.
         21   -1    0    0  501  503 -0.00000000000E+00 -0.00000000000E+00 -0.28751273229E+03  0.28751273229E+03  0.00000000000E+00 0. -1.
          6    1    1    2  501    0 -0.13336114782E+03 -0.42944665996E+02  0.26876880391E+03  0.34849692974E+03  0.17200000000E+03 0. -1.
         -6    1    1    2    0  502  0.13336114782E+03  0.42944665996E+02 -0.19796796625E+03  0.29732937249E+03  0.17200000000E+03 0. -1.
</event>
<event>
 4    1  0.4440728E+000  0.1819409E+03  0.7818608E-02  0.1165938E+00
         21   -1    0    0  503  502  0.00000000000E+00  0.00000000000E+00  0.49393966398E+03  0.49393966398E+03  0.00000000000E+00 0. -1.
         21   -1    0    0  501  503 -0.00000000000E+00 -0.00000000000E+00 -0.72899906257E+02  0.72899906257E+02  0.00000000000E+00 0. -1.
          6    1    1    2  501    0 -0.32268619847E+01  0.59229025915E+02  0.13000938263E+03  0.22361782067E+03  0.17200000000E+03 0. -1.
         -6    1    1    2    0  502  0.32268619847E+01 -0.59229025915E+02  0.29103037510E+03  0.34322174957E+03  0.17200000000E+03 0. -1.
</event>
<event>
 4    1  0.4440728E+000  0.1950058E+03  0.7818608E-02  0.1154022E+00
         21   -1    0    0  501  502  0.00000000000E+00  0.00000000000E+00  0.58233032405E+02  0.58233032405E+02  0.00000000000E+00 0.  1.
         21   -1    0    0  502  503 -0.00000000000E+00 -0.00000000000E+00 -0.65826333062E+03  0.65826333062E+03  0.00000000000E+00 0.  1.
          6    1    1    2  501    0  0.11923062322E+01  0.91879394783E+02 -0.33199318683E+03  0.38502820791E+03  0.17200000000E+03 0.  1.
         -6    1    1    2    0  503 -0.11923062322E+01 -0.91879394783E+02 -0.26803711139E+03  0.33146815512E+03  0.17200000000E+03 0.  1.
</event>
<event>
 4    1  0.4440728E+000  0.1947639E+03  0.7818608E-02  0.1154233E+00
         21   -1    0    0  503  502  0.00000000000E+00  0.00000000000E+00  0.21739145288E+02  0.21739145288E+02  0.00000000000E+00 0.  1.
         21   -1    0    0  501  503 -0.00000000000E+00 -0.00000000000E+00 -0.17484494411E+04  0.17484494411E+04  0.00000000000E+00 0. -1.
          6    1    1    2  501    0 -0.84638851971E+02  0.34427273275E+02 -0.90314664584E+03  0.92390845666E+03  0.17200000000E+03 0.  1.
         -6    1    1    2    0  502  0.84638851971E+02 -0.34427273275E+02 -0.82356365000E+03  0.84628012975E+03  0.17200000000E+03 0. -1.
</event>
<event>
 4    1  0.4440728E+000  0.2388660E+03  0.7818608E-02  0.1120551E+00
         21   -1    0    0  503  502  0.00000000000E+00  0.00000000000E+00  0.11241234393E+03  0.11241234393E+03  0.00000000000E+00 0.  1.
         21   -1    0    0  501  503 -0.00000000000E+00 -0.00000000000E+00 -0.75451407933E+03  0.75451407933E+03  0.00000000000E+00 0. -1.
          6    1    1    2  501    0 -0.12555780093E+03 -0.10820445458E+03 -0.56903231702E+03  0.61713429914E+03  0.17200000000E+03 0. -1.
         -6    1    1    2    0  502  0.12555780093E+03  0.10820445458E+03 -0.73069418380E+02  0.24979212411E+03  0.17200000000E+03 0. -1.
</event>
<event>
 4    1  0.4440728E+000  0.2140320E+03  0.7818608E-02  0.1138412E+00
         21   -1    0    0  503  502  0.00000000000E+00  0.00000000000E+00  0.54103504827E+02  0.54103504827E+02  0.00000000000E+00 0. -1.
         21   -1    0    0  501  503 -0.00000000000E+00 -0.00000000000E+00 -0.89009898136E+03  0.89009898136E+03  0.00000000000E+00 0. -1.
          6    1    1    2  501    0 -0.10620879361E+03  0.70323584286E+02 -0.52223671969E+03  0.56439428216E+03  0.17200000000E+03 0. -1.
         -6    1    1    2    0  502  0.10620879361E+03 -0.70323584286E+02 -0.31375875684E+03  0.37980820402E+03  0.17200000000E+03 0. -1.
</event>
<event>
 4    1  0.4440728E+000  0.2048722E+03  0.7818608E-02  0.1145692E+00
         21   -1    0    0  503  502  0.00000000000E+00  0.00000000000E+00  0.93380751012E+03  0.93380751012E+03  0.00000000000E+00 0. -1.
         21   -1    0    0  501  503 -0.00000000000E+00 -0.00000000000E+00 -0.46929763444E+02  0.46929763444E+02  0.00000000000E+00 0. -1.
          6    1    1    2  501    0  0.59797843920E+01 -0.11114347850E+03  0.54421134978E+03  0.58149688208E+03  0.17200000000E+03 0. -1.
         -6    1    1    2    0  502 -0.59797843920E+01  0.11114347850E+03  0.34266639690E+03  0.39924039149E+03  0.17200000000E+03 0. -1.
</event>
<event>
 4    1  0.4440728E+000  0.1846410E+03  0.7818608E-02  0.1163386E+00
         21   -1    0    0  501  502  0.00000000000E+00  0.00000000000E+00  0.77934872793E+03  0.77934872793E+03  0.00000000000E+00 0.  1.
         21   -1    0    0  502  503 -0.00000000000E+00 -0.00000000000E+00 -0.47211909817E+02  0.47211909817E+02  0.00000000000E+00 0.  1.
          6    1    1    2  501    0 -0.41595940241E+02 -0.52707497535E+02  0.47806761108E+03  0.51248506643E+03  0.17200000000E+03 0.  1.
         -6    1    1    2    0  503  0.41595940241E+02  0.52707497535E+02  0.25406920703E+03  0.31407557132E+03  0.17200000000E+03 0.  1.
</event>
<event>
 4    1  0.4440728E+000  0.2577421E+03  0.7818608E-02  0.1108507E+00
         21   -1    0    0  501  502  0.00000000000E+00  0.00000000000E+00  0.26517292628E+03  0.26517292628E+03  0.00000000000E+00 0. -1.
         21   -1    0    0  502  503 -0.00000000000E+00 -0.00000000000E+00 -0.27576974080E+03  0.27576974080E+03  0.00000000000E+00 0. -1.
          6    1    1    2  501    0  0.29590116649E+02  0.18966130828E+03 -0.87141261187E+02  0.27207459687E+03  0.17200000000E+03 0. -1.
         -6    1    1    2    0  503 -0.29590116649E+02 -0.18966130828E+03  0.76544446669E+02  0.26886807021E+03  0.17200000000E+03 0. -1.
</event>
<event>
 4    1  0.4440728E+000  0.2206279E+03  0.7818608E-02  0.1133416E+00
         21   -1    0    0  503  502  0.00000000000E+00  0.00000000000E+00  0.23453105693E+02  0.23453105693E+02  0.00000000000E+00 0. -1.
         21   -1    0    0  501  503 -0.00000000000E+00 -0.00000000000E+00 -0.22609505865E+04  0.22609505865E+04  0.00000000000E+00 0.  1.
          6    1    1    2  501    0  0.12675562010E+03 -0.55006178364E+02 -0.14458815531E+04  0.14626175619E+04  0.17200000000E+03 0.  1.
         -6    1    1    2    0  502 -0.12675562010E+03  0.55006178364E+02 -0.79161592768E+03  0.82178613023E+03  0.17200000000E+03 0. -1.
</event>
<event>
 4    1  0.4440728E+000  0.1886078E+03  0.7818608E-02  0.1159723E+00
         21   -1    0    0  503  502  0.00000000000E+00  0.00000000000E+00  0.59772811376E+02  0.59772811376E+02  0.00000000000E+00 0.  1.
         21   -1    0    0  501  503 -0.00000000000E+00 -0.00000000000E+00 -0.60950132649E+03  0.60950132649E+03  0.00000000000E+00 0. -1.
          6    1    1    2  501    0 -0.60416060356E+02 -0.48361172767E+02 -0.32623983699E+03  0.37683595187E+03  0.17200000000E+03 0.  1.
         -6    1    1    2    0  502  0.60416060356E+02  0.48361172767E+02 -0.22348867812E+03  0.29243818599E+03  0.17200000000E+03 0. -1.
</event>
<event>
 4    1  0.4440728E+000  0.1720687E+03  0.7818608E-02  0.1175708E+00
         21   -1    0    0  501  502  0.00000000000E+00  0.00000000000E+00  0.12069459879E+03  0.12069459879E+03  0.00000000000E+00 0. -1.
         21   -1    0    0  502  503 -0.00000000000E+00 -0.00000000000E+00 -0.25764446705E+03  0.25764446705E+03  0.00000000000E+00 0. -1.
          6    1    1    2  501    0  0.21349098129E+01 -0.43665228103E+01 -0.10986501357E+03  0.20415177091E+03  0.17200000000E+03 0.  1.
         -6    1    1    2    0  503 -0.21349098129E+01  0.43665228103E+01 -0.27084854688E+02  0.17418729493E+03  0.17200000000E+03 0.  1.
</event>
<event>
 4    1  0.4440728E+000  0.2293539E+03  0.7818608E-02  0.1127095E+00
         21   -1    0    0  501  502  0.00000000000E+00  0.00000000000E+00  0.20209498175E+03  0.20209498175E+03  0.00000000000E+00 0. -1.
         21   -1    0    0  502  503 -0.00000000000E+00 -0.00000000000E+00 -0.29749107914E+03  0.29749107914E+03  0.00000000000E+00 0.  1.
          6    1    1    2  501    0  0.41142509145E+02 -0.14603604057E+03 -0.13603108934E+03  0.26666024914E+03  0.17200000000E+03 0.  1.
         -6    1    1    2    0  503 -0.41142509145E+02  0.14603604057E+03  0.40634991951E+02  0.23292581174E+03  0.17200000000E+03 0. -1.
</event>
<event>
 4    1  0.4440728E+000  0.1892738E+03  0.7818608E-02  0.1159118E+00
         21   -1    0    0  503  502  0.00000000000E+00  0.00000000000E+00  0.14736170154E+03  0.14736170154E+03  0.00000000000E+00 0. -1.
         21   -1    0    0  501  503 -0.00000000000E+00 -0.00000000000E+00 -0.29504887790E+03  0.29504887790E+03  0.00000000000E+00 0.  1.
          6    1    1    2  501    0 -0.77545423011E+02 -0.15075759464E+02 -0.16665682139E+03  0.25218855499E+03  0.17200000000E+03 0.  1.
         -6    1    1    2    0  502  0.77545423011E+02  0.15075759464E+02  0.18969645022E+02  0.19022202445E+03  0.17200000000E+03 0. -1.
</event>
<event>
 4    1  0.4440728E+000  0.1946402E+03  0.7818608E-02  0.1154342E+00
         21   -1    0    0  503  502  0.00000000000E+00  0.00000000000E+00  0.18988707382E+03  0.18988707382E+03  0.00000000000E+00 0.  1.
         21   -1    0    0  501  503 -0.00000000000E+00 -0.00000000000E+00 -0.27722041311E+03  0.27722041311E+03  0.00000000000E+00 0.  1.
          6    1    1    2  501    0 -0.79987258680E+02 -0.43621411519E+02 -0.16732052808E+03  0.25667284276E+03  0.17200000000E+03 0.  1.
         -6    1    1    2    0  502  0.79987258680E+02  0.43621411519E+02  0.79987188795E+02  0.21043464417E+03  0.17200000000E+03 0.  1.
</event>
<event>
 4    1  0.4440728E+000  0.2324694E+03  0.7818608E-02  0.1124914E+00
         21   -1    0    0  503  502  0.00000000000E+00  0.00000000000E+00  0.15112166935E+03  0.15112166935E+03  0.00000000000E+00 0. -1.
         21   -1    0    0  501  503 -0.00000000000E+00 -0.00000000000E+00 -0.39602231916E+03  0.39602231916E+03  0.00000000000E+00 0. -1.
          6    1    1    2  501    0  0.44416100625E+02  0.14995073489E+03 -0.20765624786E+03  0.31171000973E+03  0.17200000000E+03 0. -1.
         -6    1    1    2    0  502 -0.44416100625E+02 -0.14995073489E+03 -0.37244401956E+02  0.23543397878E+03  0.17200000000E+03 0. -1.
</event>
<event>
 4    1  0.4440728E+000  0.2130211E+03  0.7818608E-02  0.1139196E+00
         21   -1    0    0  503  502  0.00000000000E+00  0.00000000000E+00  0.78931836593E+02  0.78931836593E+02  0.00000000000E+00 0. -1.
         21   -1    0    0  501  503 -0.00000000000E+00 -0.00000000000E+00 -0.70658278143E+03  0.70658278143E+03  0.00000000000E+00 0.  1.
          6    1    1    2  501    0 -0.10392492886E+03  0.70665533578E+02 -0.48337838278E+03  0.52823542991E+03  0.17200000000E+03 0.  1.
         -6    1    1    2    0  502  0.10392492886E+03 -0.70665533578E+02 -0.14427256206E+03  0.25727918812E+03  0.17200000000E+03 0. -1.
</event>
<event>
 4    1  0.4440728E+000  0.2061100E+03  0.7818608E-02  0.1144684E+00
         21   -1    0    0  501  502  0.00000000000E+00  0.00000000000E+00  0.84113386460E+02  0.84113386460E+02  0.00000000000E+00 0.  1.
         21   -1    0    0  502  503 -0.00000000000E+00 -0.00000000000E+00 -0.54603251798E+03  0.54603251798E+03  0.00000000000E+00 0.  1.
          6    1    1    2  501    0  0.11178470118E+03 -0.20037324559E+02 -0.14463969829E+03  0.25179745057E+03  0.17200000000E+03 0.  1.
         -6    1    1    2    0  503 -0.11178470118E+03  0.20037324559E+02 -0.31727943323E+03  0.37834845387E+03  0.17200000000E+03 0.  1.
</event>
<event>
 4    1  0.4440728E+000  0.2025386E+03  0.7818608E-02  0.1147615E+00
         21   -1    0    0  501  502  0.00000000000E+00  0.00000000000E+00  0.11389706807E+03  0.11389706807E+03  0.00000000000E+00 0.  1.
         21   -1    0    0  502  503 -0.00000000000E+00 -0.00000000000E+00 -0.11118895648E+04  0.11118895648E+04  0.00000000000E+00 0.  1.
          6    1    1    2  501    0  0.28530808412E+02 -0.10307211303E+03  0.49487041870E+01  0.20259900588E+03  0.17200000000E+03 0.  1.
         -6    1    1    2    0  503 -0.28530808412E+02  0.10307211303E+03 -0.10029412009E+04  0.10231876270E+04  0.17200000000E+03 0.  1.
</event>
<event>
 4    1  0.4440728E+000  0.3068230E+03  0.7818608E-02  0.1081879E+00
         21   -1    0    0  503  502  0.00000000000E+00  0.00000000000E+00  0.68679281373E+03  0.68679281373E+03  0.00000000000E+00 0. -1.
         21   -1    0    0  501  503 -0.00000000000E+00 -0.00000000000E+00 -0.14323086456E+03  0.14323086456E+03  0.00000000000E+00 0.  1.
          6    1    1    2  501    0  0.16016653670E+03  0.19723851916E+03  0.18572565882E+03  0.35865634424E+03  0.17200000000E+03 0.  1.
         -6    1    1    2    0  502 -0.16016653670E+03 -0.19723851916E+03  0.35783629035E+03  0.47136733405E+03  0.17200000000E+03 0. -1.
</event>
<event>
 4    1  0.4440728E+000  0.2003526E+03  0.7818608E-02  0.1149442E+00
         21   -1    0    0  503  502  0.00000000000E+00  0.00000000000E+00  0.45875441707E+02  0.45875441707E+02  0.00000000000E+00 0.  1.
         21   -1    0    0  501  503 -0.00000000000E+00 -0.00000000000E+00 -0.21966545553E+04  0.21966545553E+04  0.00000000000E+00 0.  1.
          6    1    1    2  501    0 -0.50909114594E+02 -0.89249254241E+02 -0.19451222654E+04  0.19554134588E+04  0.17200000000E+03 0.  1.
         -6    1    1    2    0  502  0.50909114594E+02  0.89249254241E+02 -0.20565684821E+03  0.28711653827E+03  0.17200000000E+03 0.  1.
</event>
<event>
 4    1  0.4440728E+000  0.3600855E+03  0.7818608E-02  0.1058550E+00
         21   -1    0    0  503  502  0.00000000000E+00  0.00000000000E+00  0.58396379691E+03  0.58396379691E+03  0.00000000000E+00 0.  1.
         21   -1    0    0  501  503 -0.00000000000E+00 -0.00000000000E+00 -0.26236301090E+03  0.26236301090E+03  0.00000000000E+00 0. -1.
          6    1    1    2  501    0 -0.31592362962E+03 -0.16427054709E+02 -0.51007054615E+01  0.36012165316E+03  0.17200000000E+03 0. -1.
         -6    1    1    2    0  502  0.31592362962E+03  0.16427054709E+02  0.32670149147E+03  0.48620515465E+03  0.17200000000E+03 0.  1.
</event>
<event>
 4    1  0.4440728E+000  0.1906940E+03  0.7818608E-02  0.1157837E+00
         21   -1    0    0  501  502  0.00000000000E+00  0.00000000000E+00  0.44385859878E+03  0.44385859878E+03  0.00000000000E+00 0.  1.
         21   -1    0    0  502  503 -0.00000000000E+00 -0.00000000000E+00 -0.22494902381E+03  0.22494902381E+03  0.00000000000E+00 0.  1.
          6    1    1    2  501    0 -0.69167165997E+02  0.44677656426E+02  0.37609766294E+03  0.42167954884E+03  0.17200000000E+03 0.  1.
         -6    1    1    2    0  503  0.69167165997E+02 -0.44677656426E+02 -0.15718808798E+03  0.24712807375E+03  0.17200000000E+03 0.  1.
</event>
<event>
 4    1  0.4440728E+000  0.2155638E+03  0.7818608E-02  0.1137234E+00
         21   -1    0    0  501  502  0.00000000000E+00  0.00000000000E+00  0.10475951468E+04  0.10475951468E+04  0.00000000000E+00 0.  1.
         21   -1    0    0  502  503 -0.00000000000E+00 -0.00000000000E+00 -0.44470150886E+02  0.44470150886E+02  0.00000000000E+00 0. -1.
          6    1    1    2  501    0  0.78910636170E+02 -0.10323200361E+03  0.47396796508E+03  0.52068547800E+03  0.17200000000E+03 0.  1.
         -6    1    1    2    0  503 -0.78910636170E+02  0.10323200361E+03  0.52915703080E+03  0.57137981966E+03  0.17200000000E+03 0.  1.
</event>
<event>
 4    1  0.4440728E+000  0.1924536E+03  0.7818608E-02  0.1156267E+00
         21   -1    0    0  503  502  0.00000000000E+00  0.00000000000E+00  0.96355831149E+02  0.96355831149E+02  0.00000000000E+00 0.  1.
         21   -1    0    0  501  503 -0.00000000000E+00 -0.00000000000E+00 -0.41248279180E+03  0.41248279180E+03  0.00000000000E+00 0.  1.
          6    1    1    2  501    0  0.17369992795E+02  0.84573376608E+02 -0.22445799363E+03  0.29566833376E+03  0.17200000000E+03 0.  1.
         -6    1    1    2    0  502 -0.17369992795E+02 -0.84573376608E+02 -0.91668967019E+02  0.21317028919E+03  0.17200000000E+03 0.  1.
</event>
<event>
 4    1  0.4440728E+000  0.1930338E+03  0.7818608E-02  0.1155753E+00
         21   -1    0    0  501  502  0.00000000000E+00  0.00000000000E+00  0.17233560012E+04  0.17233560012E+04  0.00000000000E+00 0.  1.
         21   -1    0    0  502  503 -0.00000000000E+00 -0.00000000000E+00 -0.23950424011E+02  0.23950424011E+02  0.00000000000E+00 0. -1.
          6    1    1    2  501    0  0.23233609718E+02 -0.84488212412E+02  0.57728706717E+03  0.60870552534E+03  0.17200000000E+03 0. -1.
         -6    1    1    2    0  503 -0.23233609718E+02  0.84488212412E+02  0.11221185100E+04  0.11386008998E+04  0.17200000000E+03 0.  1.
</event>
<event>
 4    1  0.4440728E+000  0.2141304E+03  0.7818608E-02  0.1138336E+00
         21   -1    0    0  501  502  0.00000000000E+00  0.00000000000E+00  0.11409576951E+03  0.11409576951E+03  0.00000000000E+00 0.  1.
         21   -1    0    0  502  503 -0.00000000000E+00 -0.00000000000E+00 -0.61980086218E+03  0.61980086218E+03  0.00000000000E+00 0. -1.
          6    1    1    2  501    0  0.11680995747E+03 -0.51217901668E+02 -0.35263679272E+02  0.21701466930E+03  0.17200000000E+03 0. -1.
         -6    1    1    2    0  503 -0.11680995747E+03  0.51217901668E+02 -0.47044141339E+03  0.51688196239E+03  0.17200000000E+03 0.  1.
</event>
<event>
 4    1  0.4440728E+000  0.2009816E+03  0.7818608E-02  0.1148913E+00
         21   -1    0    0  503  502  0.00000000000E+00  0.00000000000E+00  0.17305556069E+03  0.17305556069E+03  0.00000000000E+00 0. -1.
         21   -1    0    0  501  503 -0.00000000000E+00 -0.00000000000E+00 -0.23837115838E+03  0.23837115838E+03  0.00000000000E+00 0. -1.
          6    1    1    2  501    0  0.10834961683E+02  0.10340306899E+03 -0.29922811189E+01  0.20100384279E+03  0.17200000000E+03 0. -1.
         -6    1    1    2    0  502 -0.10834961683E+02 -0.10340306899E+03 -0.62323316574E+02  0.21042287627E+03  0.17200000000E+03 0. -1.
</event>
<event>
 4    1  0.4440728E+000  0.2774026E+03  0.7818608E-02  0.1097116E+00
         21   -1    0    0  503  502  0.00000000000E+00  0.00000000000E+00  0.73889662743E+03  0.73889662743E+03  0.00000000000E+00 0.  1.
         21   -1    0    0  501  503 -0.00000000000E+00 -0.00000000000E+00 -0.10426716638E+03  0.10426716638E+03  0.00000000000E+00 0.  1.
          6    1    1    2  501    0  0.20443834326E+03 -0.74653738249E+02  0.33175909499E+03  0.43245382868E+03  0.17200000000E+03 0.  1.
         -6    1    1    2    0  502 -0.20443834326E+03  0.74653738249E+02  0.30287036606E+03  0.41070996514E+03  0.17200000000E+03 0.  1.
</event>
<event>
 4    1  0.4440728E+000  0.2135226E+03  0.7818608E-02  0.1138806E+00
         21   -1    0    0  501  502  0.00000000000E+00  0.00000000000E+00  0.20573868176E+03  0.20573868176E+03  0.00000000000E+00 0.  1.
         21   -1    0    0  502  503 -0.00000000000E+00 -0.00000000000E+00 -0.34490703951E+03  0.34490703951E+03  0.00000000000E+00 0. -1.
          6    1    1    2  501    0 -0.11221450543E+03  0.58444833578E+02  0.95036144757E+02  0.23371727067E+03  0.17200000000E+03 0.  1.
         -6    1    1    2    0  503  0.11221450543E+03 -0.58444833578E+02 -0.23420450251E+03  0.31692845059E+03  0.17200000000E+03 0. -1.
</event>
<event>
 4    1  0.4440728E+000  0.1869959E+03  0.7818608E-02  0.1161199E+00
         21   -1    0    0  503  502  0.00000000000E+00  0.00000000000E+00  0.14734146107E+03  0.14734146107E+03  0.00000000000E+00 0. -1.
         21   -1    0    0  501  503 -0.00000000000E+00 -0.00000000000E+00 -0.69376611719E+03  0.69376611719E+03  0.00000000000E+00 0. -1.
          6    1    1    2  501    0  0.24053874824E+02 -0.69317346978E+02 -0.61433332232E+03  0.64216268530E+03  0.17200000000E+03 0. -1.
         -6    1    1    2    0  502 -0.24053874824E+02  0.69317346978E+02  0.67908666200E+02  0.19894489295E+03  0.17200000000E+03 0. -1.
</event>
<event>
 4    1  0.4440728E+000  0.2280466E+03  0.7818608E-02  0.1128022E+00
         21   -1    0    0  503  502  0.00000000000E+00  0.00000000000E+00  0.89071904475E+03  0.89071904475E+03  0.00000000000E+00 0. -1.
         21   -1    0    0  501  503 -0.00000000000E+00 -0.00000000000E+00 -0.65334373775E+02  0.65334373775E+02  0.00000000000E+00 0.  1.
          6    1    1    2  501    0 -0.84183992081E+02  0.12383185294E+03  0.25679752877E+03  0.34343884915E+03  0.17200000000E+03 0.  1.
         -6    1    1    2    0  502  0.84183992081E+02 -0.12383185294E+03  0.56858714220E+03  0.61261456937E+03  0.17200000000E+03 0. -1.
</event>
<event>
 4    1  0.4440728E+000  0.2189531E+03  0.7818608E-02  0.1134666E+00
         21   -1    0    0  501  502  0.00000000000E+00  0.00000000000E+00  0.14531953013E+04  0.14531953013E+04  0.00000000000E+00 0. -1.
         21   -1    0    0  502  503 -0.00000000000E+00 -0.00000000000E+00 -0.33789248372E+02  0.33789248372E+02  0.00000000000E+00 0.  1.
          6    1    1    2  501    0  0.88267900813E+02 -0.10278740850E+03  0.82407251951E+03  0.85266405522E+03  0.17200000000E+03 0. -1.
         -6    1    1    2    0  503 -0.88267900813E+02  0.10278740850E+03  0.59533353337E+03  0.63432049440E+03  0.17200000000E+03 0.  1.
</event>
<event>
 4    1  0.4440728E+000  0.2065393E+03  0.7818608E-02  0.1144336E+00
         21   -1    0    0  503  502  0.00000000000E+00  0.00000000000E+00  0.25546220213E+03  0.25546220213E+03  0.00000000000E+00 0. -1.
         21   -1    0    0  501  503 -0.00000000000E+00 -0.00000000000E+00 -0.17466135100E+03  0.17466135100E+03  0.00000000000E+00 0. -1.
          6    1    1    2  501    0  0.10691265613E+03 -0.40548321519E+02 -0.46841738552E+01  0.20659241008E+03  0.17200000000E+03 0. -1.
         -6    1    1    2    0  502 -0.10691265613E+03  0.40548321519E+02  0.85485024981E+02  0.22353114305E+03  0.17200000000E+03 0. -1.
</event>
<event>
 4    1  0.4440728E+000  0.2266852E+03  0.7818608E-02  0.1128995E+00
         21   -1    0    0  501  502  0.00000000000E+00  0.00000000000E+00  0.10539877071E+03  0.10539877071E+03  0.00000000000E+00 0.  1.
         21   -1    0    0  502  503 -0.00000000000E+00 -0.00000000000E+00 -0.49754306898E+03  0.49754306898E+03  0.00000000000E+00 0.  1.
          6    1    1    2  501    0 -0.14765018913E+03  0.12727146816E+01 -0.15332767931E+03  0.27367055997E+03  0.17200000000E+03 0.  1.
         -6    1    1    2    0  503  0.14765018913E+03 -0.12727146816E+01 -0.23881661896E+03  0.32927127972E+03  0.17200000000E+03 0.  1.
</event>
<event>
 4    1  0.4440728E+000  0.2038867E+03  0.7818608E-02  0.1146501E+00
         21   -1    0    0  503  502  0.00000000000E+00  0.00000000000E+00  0.15585288964E+03  0.15585288964E+03  0.00000000000E+00 0.  1.
         21   -1    0    0  501  503 -0.00000000000E+00 -0.00000000000E+00 -0.30474529860E+03  0.30474529860E+03  0.00000000000E+00 0.  1.
          6    1    1    2  501    0 -0.96100484398E+02  0.52445060981E+02 -0.15579183188E+03  0.25659478249E+03  0.17200000000E+03 0.  1.
         -6    1    1    2    0  502  0.96100484398E+02 -0.52445060981E+02  0.68994229148E+01  0.20400340575E+03  0.17200000000E+03 0.  1.
</event>
<event>
 4    1  0.4440728E+000  0.3522190E+03  0.7818608E-02  0.1061708E+00
         21   -1    0    0  501  502  0.00000000000E+00  0.00000000000E+00  0.34217158312E+03  0.34217158312E+03  0.00000000000E+00 0.  1.
         21   -1    0    0  502  503 -0.00000000000E+00 -0.00000000000E+00 -0.87369627299E+03  0.87369627299E+03  0.00000000000E+00 0. -1.
          6    1    1    2  501    0 -0.82657455955E+02 -0.29604385581E+03  0.19922794298E+03  0.40466034257E+03  0.17200000000E+03 0.  1.
         -6    1    1    2    0  503  0.82657455955E+02  0.29604385581E+03 -0.73075263285E+03  0.81120751353E+03  0.17200000000E+03 0. -1.
</event>
<event>
 4    1  0.4440728E+000  0.2372762E+03  0.7818608E-02  0.1121621E+00
         21   -1    0    0  503  502  0.00000000000E+00  0.00000000000E+00  0.33508060313E+03  0.33508060313E+03  0.00000000000E+00 0. -1.
         21   -1    0    0  501  503 -0.00000000000E+00 -0.00000000000E+00 -0.16879023238E+03  0.16879023238E+03  0.00000000000E+00 0. -1.
          6    1    1    2  501    0  0.15442073518E+03  0.53574551887E+02  0.10017202583E+03  0.25755471423E+03  0.17200000000E+03 0. -1.
         -6    1    1    2    0  502 -0.15442073518E+03 -0.53574551887E+02  0.66118344921E+02  0.24631612127E+03  0.17200000000E+03 0. -1.
</event>
<event>
 4    1  0.4440728E+000  0.1743814E+03  0.7818608E-02  0.1173354E+00
         21   -1    0    0  501  502  0.00000000000E+00  0.00000000000E+00  0.95720869893E+02  0.95720869893E+02  0.00000000000E+00 0.  1.
         21   -1    0    0  502  503 -0.00000000000E+00 -0.00000000000E+00 -0.31785780385E+03  0.31785780385E+03  0.00000000000E+00 0.  1.
          6    1    1    2  501    0 -0.20648705760E+02  0.19962815787E+02 -0.10621762031E+03  0.20418390223E+03  0.17200000000E+03 0. -1.
         -6    1    1    2    0  503  0.20648705760E+02 -0.19962815787E+02 -0.11591931365E+03  0.20939477152E+03  0.17200000000E+03 0. -1.
</event>
<event>
 4    1  0.4440728E+000  0.2099445E+03  0.7818608E-02  0.1141610E+00
         21   -1    0    0  503  502  0.00000000000E+00  0.00000000000E+00  0.73577742125E+03  0.73577742125E+03  0.00000000000E+00 0. -1.
         21   -1    0    0  501  503 -0.00000000000E+00 -0.00000000000E+00 -0.89791273064E+03  0.89791273064E+03  0.00000000000E+00 0. -1.
          6    1    1    2  501    0 -0.74245361292E+02 -0.94764595872E+02 -0.87019421115E+03  0.89516181075E+03  0.17200000000E+03 0. -1.
         -6    1    1    2    0  502  0.74245361292E+02  0.94764595872E+02  0.70805890176E+03  0.73852834114E+03  0.17200000000E+03 0. -1.
</event>
<event>
 4    1  0.4440728E+000  0.1860906E+03  0.7818608E-02  0.1162035E+00
         21   -1    0    0  503  502  0.00000000000E+00  0.00000000000E+00  0.41413229332E+03  0.41413229332E+03  0.00000000000E+00 0.  1.
         21   -1    0    0  501  503 -0.00000000000E+00 -0.00000000000E+00 -0.83632361848E+02  0.83632361848E+02  0.00000000000E+00 0.  1.
          6    1    1    2  501    0 -0.86073753700E+00  0.71028015508E+02  0.16828246950E+03  0.25089581383E+03  0.17200000000E+03 0.  1.
         -6    1    1    2    0  502  0.86073753700E+00 -0.71028015508E+02  0.16221746198E+03  0.24686884135E+03  0.17200000000E+03 0.  1.
</event>
<event>
 4    1  0.4440728E+000  0.2483809E+03  0.7818608E-02  0.1114332E+00
         21   -1    0    0  501  502  0.00000000000E+00  0.00000000000E+00  0.48698147605E+03  0.48698147605E+03  0.00000000000E+00 0.  1.
         21   -1    0    0  502  503 -0.00000000000E+00 -0.00000000000E+00 -0.13320563420E+03  0.13320563420E+03  0.00000000000E+00 0. -1.
          6    1    1    2  501    0 -0.17580002892E+03 -0.34690531551E+02  0.24549795807E+03  0.34923105613E+03  0.17200000000E+03 0.  1.
         -6    1    1    2    0  503  0.17580002892E+03  0.34690531551E+02  0.10827788378E+03  0.27095605412E+03  0.17200000000E+03 0. -1.
</event>
<event>
 4    1  0.4440728E+000  0.2342536E+03  0.7818608E-02  0.1123681E+00
         21   -1    0    0  503  502  0.00000000000E+00  0.00000000000E+00  0.48983913765E+02  0.48983913765E+02  0.00000000000E+00 0. -1.
         21   -1    0    0  501  503 -0.00000000000E+00 -0.00000000000E+00 -0.11698379595E+04  0.11698379595E+04  0.00000000000E+00 0. -1.
          6    1    1    2  501    0 -0.15815550931E+03 -0.16660667505E+02 -0.68588248978E+03  0.72478240373E+03  0.17200000000E+03 0. -1.
         -6    1    1    2    0  502  0.15815550931E+03  0.16660667505E+02 -0.43497155592E+03  0.49403946950E+03  0.17200000000E+03 0. -1.
</event>
<event>
 4    1  0.4440728E+000  0.2065850E+03  0.7818608E-02  0.1144299E+00
         21   -1    0    0  503  502  0.00000000000E+00  0.00000000000E+00  0.97221290301E+03  0.97221290301E+03  0.00000000000E+00 0.  1.
         21   -1    0    0  501  503 -0.00000000000E+00 -0.00000000000E+00 -0.45092756643E+02  0.45092756643E+02  0.00000000000E+00 0. -1.
          6    1    1    2  501    0 -0.11111906752E+03 -0.27311418588E+02  0.38073439283E+03  0.43316975729E+03  0.17200000000E+03 0. -1.
         -6    1    1    2    0  502  0.11111906752E+03  0.27311418588E+02  0.54638575354E+03  0.58413590236E+03  0.17200000000E+03 0.  1.
</event>
<event>
 4    1  0.4440728E+000  0.2084029E+03  0.7818608E-02  0.1142837E+00
         21   -1    0    0  503  502  0.00000000000E+00  0.00000000000E+00  0.13546865701E+03  0.13546865701E+03  0.00000000000E+00 0. -1.
         21   -1    0    0  501  503 -0.00000000000E+00 -0.00000000000E+00 -0.32899558774E+03  0.32899558774E+03  0.00000000000E+00 0.  1.
          6    1    1    2  501    0 -0.59226749847E+02  0.10168556544E+03 -0.59673597759E+02  0.21677799793E+03  0.17200000000E+03 0.  1.
         -6    1    1    2    0  502  0.59226749847E+02 -0.10168556544E+03 -0.13385333297E+03  0.24768624682E+03  0.17200000000E+03 0.  1.
</event>
<event>
 4    1  0.4440728E+000  0.1840720E+03  0.7818608E-02  0.1163919E+00
         21   -1    0    0  503  502  0.00000000000E+00  0.00000000000E+00  0.49714273764E+03  0.49714273764E+03  0.00000000000E+00 0.  1.
         21   -1    0    0  501  503 -0.00000000000E+00 -0.00000000000E+00 -0.93739645379E+02  0.93739645379E+02  0.00000000000E+00 0.  1.
          6    1    1    2  501    0 -0.60619362588E+02 -0.24975975311E+02  0.47352667580E+02  0.19006520352E+03  0.17200000000E+03 0.  1.
         -6    1    1    2    0  502  0.60619362588E+02  0.24975975311E+02  0.35605042468E+03  0.40081717950E+03  0.17200000000E+03 0.  1.
</event>
<event>
 4    1  0.4440728E+000  0.2027697E+03  0.7818608E-02  0.1147423E+00
         21   -1    0    0  501  502  0.00000000000E+00  0.00000000000E+00  0.12162282666E+04  0.12162282666E+04  0.00000000000E+00 0. -1.
         21   -1    0    0  502  503 -0.00000000000E+00 -0.00000000000E+00 -0.66221923293E+02  0.66221923293E+02  0.00000000000E+00 0. -1.
          6    1    1    2  501    0  0.10738268095E+03  0.70685535698E+00  0.10236352433E+04  0.10435251080E+04  0.17200000000E+03 0. -1.
         -6    1    1    2    0  503 -0.10738268095E+03 -0.70685535698E+00  0.12637110000E+03  0.23892508183E+03  0.17200000000E+03 0. -1.
</event>
<event>
 4    1  0.4440728E+000  0.2596240E+03  0.7818608E-02  0.1107369E+00
         21   -1    0    0  503  502  0.00000000000E+00  0.00000000000E+00  0.14544450484E+04  0.14544450484E+04  0.00000000000E+00 0.  1.
         21   -1    0    0  501  503 -0.00000000000E+00 -0.00000000000E+00 -0.47796458883E+02  0.47796458883E+02  0.00000000000E+00 0. -1.
          6    1    1    2  501    0 -0.17924781363E+03  0.75437652325E+02  0.57238118254E+03  0.62851001282E+03  0.17200000000E+03 0. -1.
         -6    1    1    2    0  502  0.17924781363E+03 -0.75437652325E+02  0.83426740695E+03  0.87373149444E+03  0.17200000000E+03 0.  1.
</event>
<event>
 4    1  0.4440728E+000  0.1896973E+03  0.7818608E-02  0.1158735E+00
         21   -1    0    0  503  502  0.00000000000E+00  0.00000000000E+00  0.54227447488E+03  0.54227447488E+03  0.00000000000E+00 0.  1.
         21   -1    0    0  501  503 -0.00000000000E+00 -0.00000000000E+00 -0.98354748119E+02  0.98354748119E+02  0.00000000000E+00 0.  1.
          6    1    1    2  501    0 -0.27120133853E+01 -0.79960754185E+02  0.39266972491E+02  0.19371879711E+03  0.17200000000E+03 0.  1.
         -6    1    1    2    0  502  0.27120133853E+01  0.79960754185E+02  0.40465275427E+03  0.44691042588E+03  0.17200000000E+03 0.  1.
</event>
<event>
 4    1  0.4440728E+000  0.2209331E+03  0.7818608E-02  0.1133189E+00
         21   -1    0    0  503  502  0.00000000000E+00  0.00000000000E+00  0.12004946311E+03  0.12004946311E+03  0.00000000000E+00 0.  1.
         21   -1    0    0  501  503 -0.00000000000E+00 -0.00000000000E+00 -0.40668210392E+03  0.40668210392E+03  0.00000000000E+00 0. -1.
          6    1    1    2  501    0 -0.15031194324E+02  0.13784587671E+03 -0.13944562074E+03  0.26125945662E+03  0.17200000000E+03 0. -1.
         -6    1    1    2    0  502  0.15031194324E+02 -0.13784587671E+03 -0.14718702007E+03  0.26547211041E+03  0.17200000000E+03 0. -1.
</event>
<event>
 4    1  0.4440728E+000  0.1884699E+03  0.7818608E-02  0.1159849E+00
         21   -1    0    0  503  502  0.00000000000E+00  0.00000000000E+00  0.19232423149E+04  0.19232423149E+04  0.00000000000E+00 0. -1.
         21   -1    0    0  501  503 -0.00000000000E+00 -0.00000000000E+00 -0.72257581567E+02  0.72257581567E+02  0.00000000000E+00 0. -1.
          6    1    1    2  501    0 -0.16390470469E+02  0.75287759504E+02  0.64649406238E+02  0.19924969255E+03  0.17200000000E+03 0. -1.
         -6    1    1    2    0  502  0.16390470469E+02 -0.75287759504E+02  0.17863353271E+04  0.17962502039E+04  0.17200000000E+03 0. -1.
</event>
<event>
 4    1  0.4440728E+000  0.2505271E+03  0.7818608E-02  0.1112972E+00
         21   -1    0    0  503  502  0.00000000000E+00  0.00000000000E+00  0.60210977883E+03  0.60210977883E+03  0.00000000000E+00 0. -1.
         21   -1    0    0  501  503 -0.00000000000E+00 -0.00000000000E+00 -0.19594583118E+03  0.19594583118E+03  0.00000000000E+00 0.  1.
          6    1    1    2  501    0 -0.95899111399E+02  0.15486500636E+03 -0.69900061527E+02  0.26009580613E+03  0.17200000000E+03 0.  1.
         -6    1    1    2    0  502  0.95899111399E+02 -0.15486500636E+03  0.47606400917E+03  0.53795980388E+03  0.17200000000E+03 0. -1.
</event>
<event>
 4    1  0.4440728E+000  0.2231482E+03  0.7818608E-02  0.1131557E+00
         21   -1    0    0  501  502  0.00000000000E+00  0.00000000000E+00  0.97715131003E+02  0.97715131003E+02  0.00000000000E+00 0. -1.
         21   -1    0    0  502  503 -0.00000000000E+00 -0.00000000000E+00 -0.63791891772E+03  0.63791891772E+03  0.00000000000E+00 0. -1.
          6    1    1    2  501    0  0.14121397248E+03  0.16423441805E+02 -0.10513250901E+03  0.24667379251E+03  0.17200000000E+03 0. -1.
         -6    1    1    2    0  503 -0.14121397248E+03 -0.16423441805E+02 -0.43507127771E+03  0.48896025621E+03  0.17200000000E+03 0. -1.
</event>
<event>
 4    1  0.4440728E+000  0.1778346E+03  0.7818608E-02  0.1169915E+00
         21   -1    0    0  503  502  0.00000000000E+00  0.00000000000E+00  0.13386111385E+03  0.13386111385E+03  0.00000000000E+00 0. -1.
         21   -1    0    0  501  503 -0.00000000000E+00 -0.00000000000E+00 -0.24616870862E+03  0.24616870862E+03  0.00000000000E+00 0. -1.
          6    1    1    2  501    0 -0.44306356641E+02 -0.88368202222E+01 -0.94288861707E+02  0.20128470402E+03  0.17200000000E+03 0. -1.
         -6    1    1    2    0  502  0.44306356641E+02  0.88368202222E+01 -0.18018733063E+02  0.17874511846E+03  0.17200000000E+03 0. -1.
</event>
<event>
 4    1  0.4440728E+000  0.2707492E+03  0.7818608E-02  0.1100852E+00
         21   -1    0    0  503  502  0.00000000000E+00  0.00000000000E+00  0.63935340190E+03  0.63935340190E+03  0.00000000000E+00 0. -1.
         21   -1    0    0  501  503 -0.00000000000E+00 -0.00000000000E+00 -0.12265860040E+03  0.12265860040E+03  0.00000000000E+00 0. -1.
          6    1    1    2  501    0  0.13964965519E+02  0.20862912585E+03  0.16102280206E+03  0.31501345241E+03  0.17200000000E+03 0. -1.
         -6    1    1    2    0  502 -0.13964965519E+02 -0.20862912585E+03  0.35567199944E+03  0.44699854989E+03  0.17200000000E+03 0. -1.
</event>
<event>
 4    1  0.4440728E+000  0.1844944E+03  0.7818608E-02  0.1163523E+00
         21   -1    0    0  503  502  0.00000000000E+00  0.00000000000E+00  0.93392640813E+03  0.93392640813E+03  0.00000000000E+00 0. -1.
         21   -1    0    0  501  503 -0.00000000000E+00 -0.00000000000E+00 -0.56477680396E+02  0.56477680396E+02  0.00000000000E+00 0. -1.
          6    1    1    2  501    0 -0.89647680671E+01 -0.66134873422E+02  0.14380782073E+03  0.23392066572E+03  0.17200000000E+03 0. -1.
         -6    1    1    2    0  502  0.89647680671E+01  0.66134873422E+02  0.73364090700E+03  0.75648342280E+03  0.17200000000E+03 0. -1.
</event>
<event>
 4    1  0.4440728E+000  0.2166935E+03  0.7818608E-02  0.1136372E+00
         21   -1    0    0  503  502  0.00000000000E+00  0.00000000000E+00  0.23179012674E+03  0.23179012674E+03  0.00000000000E+00 0. -1.
         21   -1    0    0  501  503 -0.00000000000E+00 -0.00000000000E+00 -0.23466830858E+03  0.23466830858E+03  0.00000000000E+00 0. -1.
          6    1    1    2  501    0  0.19377435604E+02 -0.13037103171E+03 -0.87682868956E+02  0.23376136641E+03  0.17200000000E+03 0. -1.
         -6    1    1    2    0  502 -0.19377435604E+02  0.13037103171E+03  0.84804687119E+02  0.23269706890E+03  0.17200000000E+03 0. -1.
</event>
<event>
 4    1  0.4440728E+000  0.1950419E+03  0.7818608E-02  0.1153991E+00
         21   -1    0    0  503  502  0.00000000000E+00  0.00000000000E+00  0.10963340613E+04  0.10963340613E+04  0.00000000000E+00 0.  1.
         21   -1    0    0  501  503 -0.00000000000E+00 -0.00000000000E+00 -0.68070099070E+02  0.68070099070E+02  0.00000000000E+00 0.  1.
          6    1    1    2  501    0 -0.67380139250E+02  0.62588155044E+02  0.10648633651E+03  0.22221768647E+03  0.17200000000E+03 0.  1.
         -6    1    1    2    0  502  0.67380139250E+02 -0.62588155044E+02  0.92177762573E+03  0.94218647391E+03  0.17200000000E+03 0.  1.
</event>
<event>
 4    1  0.4440728E+000  0.1988729E+03  0.7818608E-02  0.1150693E+00
         21   -1    0    0  501  502  0.00000000000E+00  0.00000000000E+00  0.33899848290E+03  0.33899848290E+03  0.00000000000E+00 0. -1.
         21   -1    0    0  502  503 -0.00000000000E+00 -0.00000000000E+00 -0.11667723143E+03  0.11667723143E+03  0.00000000000E+00 0. -1.
          6    1    1    2  501    0  0.43829745942E+02  0.89696023994E+02  0.10918264553E+03  0.22687281335E+03  0.17200000000E+03 0. -1.
         -6    1    1    2    0  503 -0.43829745942E+02 -0.89696023994E+02  0.11313860593E+03  0.22880290099E+03  0.17200000000E+03 0. -1.
</event>
<event>
 4    1  0.4440728E+000  0.1841238E+03  0.7818608E-02  0.1163871E+00
         21   -1    0    0  503  502  0.00000000000E+00  0.00000000000E+00  0.17232997965E+03  0.17232997965E+03  0.00000000000E+00 0.  1.
         21   -1    0    0  501  503 -0.00000000000E+00 -0.00000000000E+00 -0.19682123297E+03  0.19682123297E+03  0.00000000000E+00 0.  1.
          6    1    1    2  501    0  0.50948657714E+02 -0.41494571624E+02 -0.81581562518E+01  0.18430442401E+03  0.17200000000E+03 0.  1.
         -6    1    1    2    0  502 -0.50948657714E+02  0.41494571624E+02 -0.16333097065E+02  0.18484678860E+03  0.17200000000E+03 0.  1.
</event>
<event>
 4    1  0.4440728E+000  0.3924835E+03  0.7818608E-02  0.1046414E+00
         21   -1    0    0  501  502  0.00000000000E+00  0.00000000000E+00  0.59478076799E+03  0.59478076799E+03  0.00000000000E+00 0.  1.
         21   -1    0    0  502  503 -0.00000000000E+00 -0.00000000000E+00 -0.38617652921E+03  0.38617652921E+03  0.00000000000E+00 0. -1.
          6    1    1    2  501    0 -0.30249833661E+03 -0.18153246106E+03  0.38578036567E+03  0.55033605061E+03  0.17200000000E+03 0.  1.
         -6    1    1    2    0  503  0.30249833661E+03  0.18153246106E+03 -0.17717612689E+03  0.43062124658E+03  0.17200000000E+03 0. -1.
</event>
<event>
 4    1  0.4440728E+000  0.1791641E+03  0.7818608E-02  0.1168614E+00
         21   -1    0    0  501  502  0.00000000000E+00  0.00000000000E+00  0.70159957099E+02  0.70159957099E+02  0.00000000000E+00 0.  1.
         21   -1    0    0  502  503 -0.00000000000E+00 -0.00000000000E+00 -0.46013145651E+03  0.46013145651E+03  0.00000000000E+00 0.  1.
          6    1    1    2  501    0  0.32572933629E+02  0.38141539501E+02 -0.17502116107E+03  0.25046392926E+03  0.17200000000E+03 0.  1.
         -6    1    1    2    0  503 -0.32572933629E+02 -0.38141539501E+02 -0.21495033834E+03  0.27982748435E+03  0.17200000000E+03 0.  1.
</event>
<event>
 4    1  0.4440728E+000  0.3038938E+03  0.7818608E-02  0.1083310E+00
         21   -1    0    0  503  502  0.00000000000E+00  0.00000000000E+00  0.20722496781E+03  0.20722496781E+03  0.00000000000E+00 0. -1.
         21   -1    0    0  501  503 -0.00000000000E+00 -0.00000000000E+00 -0.77974279055E+03  0.77974279055E+03  0.00000000000E+00 0.  1.
          6    1    1    2  501    0  0.14899536237E+02 -0.25009088865E+03 -0.60927614113E+03  0.68085891704E+03  0.17200000000E+03 0.  1.
         -6    1    1    2    0  502 -0.14899536237E+02  0.25009088865E+03  0.36758318381E+02  0.30610884132E+03  0.17200000000E+03 0. -1.
</event>
<event>
 4    1  0.4440728E+000  0.2598128E+03  0.7818608E-02  0.1107256E+00
         21   -1    0    0  503  502  0.00000000000E+00  0.00000000000E+00  0.95967673055E+02  0.95967673055E+02  0.00000000000E+00 0. -1.
         21   -1    0    0  501  503 -0.00000000000E+00 -0.00000000000E+00 -0.87323728090E+03  0.87323728090E+03  0.00000000000E+00 0.  1.
          6    1    1    2  501    0  0.17506486345E+03  0.85269977060E+02 -0.60235676127E+03  0.65600026162E+03  0.17200000000E+03 0. -1.
         -6    1    1    2    0  502 -0.17506486345E+03 -0.85269977060E+02 -0.17491284658E+03  0.31320469233E+03  0.17200000000E+03 0.  1.
</event>
<event>
 4    1  0.4440728E+000  0.2372349E+03  0.7818608E-02  0.1121649E+00
         21   -1    0    0  501  502  0.00000000000E+00  0.00000000000E+00  0.22803950004E+03  0.22803950004E+03  0.00000000000E+00 0.  1.
         21   -1    0    0  502  503 -0.00000000000E+00 -0.00000000000E+00 -0.75374141424E+03  0.75374141424E+03  0.00000000000E+00 0.  1.
          6    1    1    2  501    0 -0.14260294021E+03 -0.79754580213E+02  0.13972870408E+03  0.27532617450E+03  0.17200000000E+03 0.  1.
         -6    1    1    2    0  503  0.14260294021E+03  0.79754580213E+02 -0.66543061828E+03  0.70645473978E+03  0.17200000000E+03 0.  1.
</event>
<event>
 4    1  0.4440728E+000  0.1880518E+03  0.7818608E-02  0.1160230E+00
         21   -1    0    0  501  502  0.00000000000E+00  0.00000000000E+00  0.21749880514E+03  0.21749880514E+03  0.00000000000E+00 0. -1.
         21   -1    0    0  502  503 -0.00000000000E+00 -0.00000000000E+00 -0.20225244172E+03  0.20225244172E+03  0.00000000000E+00 0.  1.
          6    1    1    2  501    0  0.40043076679E+02 -0.64622109811E+02  0.10056184457E+03  0.21325137667E+03  0.17200000000E+03 0. -1.
         -6    1    1    2    0  503 -0.40043076679E+02  0.64622109811E+02 -0.85315481155E+02  0.20649987020E+03  0.17200000000E+03 0.  1.
</event>
<event>
 4    1  0.4440728E+000  0.2598040E+03  0.7818608E-02  0.1107261E+00
         21   -1    0    0  501  502  0.00000000000E+00  0.00000000000E+00  0.86870613555E+02  0.86870613555E+02  0.00000000000E+00 0.  1.
         21   -1    0    0  502  503 -0.00000000000E+00 -0.00000000000E+00 -0.77699799183E+03  0.77699799183E+03  0.00000000000E+00 0. -1.
          6    1    1    2  501    0 -0.12614481894E+03  0.14832942588E+03 -0.34440210517E+03  0.43140577647E+03  0.17200000000E+03 0. -1.
         -6    1    1    2    0  503  0.12614481894E+03 -0.14832942588E+03 -0.34572527310E+03  0.43246282891E+03  0.17200000000E+03 0. -1.
</event>
<event>
 4    1  0.4440728E+000  0.1889213E+03  0.7818608E-02  0.1159438E+00
         21   -1    0    0  501  502  0.00000000000E+00  0.00000000000E+00  0.12894711937E+04  0.12894711937E+04  0.00000000000E+00 0. -1.
         21   -1    0    0  502  503 -0.00000000000E+00 -0.00000000000E+00 -0.27756700004E+02  0.27756700004E+02  0.00000000000E+00 0.  1.
          6    1    1    2  501    0  0.77998988144E+02  0.48372708629E+01  0.59600534357E+03  0.62523084609E+03  0.17200000000E+03 0.  1.
         -6    1    1    2    0  503 -0.77998988144E+02 -0.48372708629E+01  0.66570915011E+03  0.69199704760E+03  0.17200000000E+03 0.  1.
</event>
<event>
 4    1  0.4440728E+000  0.2035999E+03  0.7818608E-02  0.1146737E+00
         21   -1    0    0  501  502  0.00000000000E+00  0.00000000000E+00  0.46287830431E+02  0.46287830431E+02  0.00000000000E+00 0.  1.
         21   -1    0    0  502  503 -0.00000000000E+00 -0.00000000000E+00 -0.89672780688E+03  0.89672780688E+03  0.00000000000E+00 0.  1.
          6    1    1    2  501    0 -0.25323202305E+02  0.10596054221E+03 -0.44233407233E+03  0.48694181646E+03  0.17200000000E+03 0.  1.
         -6    1    1    2    0  503  0.25323202305E+02 -0.10596054221E+03 -0.40810590412E+03  0.45607382084E+03  0.17200000000E+03 0.  1.
</event>
<event>
 4    1  0.4440728E+000  0.1964658E+03  0.7818608E-02  0.1152756E+00
         21   -1    0    0  503  502  0.00000000000E+00  0.00000000000E+00  0.43761784564E+03  0.43761784564E+03  0.00000000000E+00 0.  1.
         21   -1    0    0  501  503 -0.00000000000E+00 -0.00000000000E+00 -0.11733513065E+03  0.11733513065E+03  0.00000000000E+00 0.  1.
          6    1    1    2  501    0  0.94340382407E+02  0.10709380844E+02  0.21878592842E+02  0.19768022515E+03  0.17200000000E+03 0.  1.
         -6    1    1    2    0  502 -0.94340382407E+02 -0.10709380844E+02  0.29840412215E+03  0.35727275114E+03  0.17200000000E+03 0.  1.
</event>
<event>
 4    1  0.4440728E+000  0.1984850E+03  0.7818608E-02  0.1151024E+00
         21   -1    0    0  501  502  0.00000000000E+00  0.00000000000E+00  0.16606674387E+04  0.16606674387E+04  0.00000000000E+00 0. -1.
         21   -1    0    0  502  503 -0.00000000000E+00 -0.00000000000E+00 -0.24330417964E+02  0.24330417964E+02  0.00000000000E+00 0.  1.
          6    1    1    2  501    0 -0.83328415588E+02  0.53560059129E+02  0.68506923005E+03  0.71324340498E+03  0.17200000000E+03 0.  1.
         -6    1    1    2    0  503  0.83328415588E+02 -0.53560059129E+02  0.95126779063E+03  0.97175445164E+03  0.17200000000E+03 0. -1.
</event>
<event>
 4    1  0.4440728E+000  0.2282740E+03  0.7818608E-02  0.1127861E+00
         21   -1    0    0  501  502  0.00000000000E+00  0.00000000000E+00  0.97179402643E+02  0.97179402643E+02  0.00000000000E+00 0.  1.
         21   -1    0    0  502  503 -0.00000000000E+00 -0.00000000000E+00 -0.10024657984E+04  0.10024657984E+04  0.00000000000E+00 0. -1.
          6    1    1    2  501    0 -0.69618071652E+02 -0.13295993863E+03 -0.77672134890E+02  0.24112648490E+03  0.17200000000E+03 0.  1.
         -6    1    1    2    0  503  0.69618071652E+02  0.13295993863E+03 -0.82761426091E+03  0.85851871619E+03  0.17200000000E+03 0. -1.
</event>
<event>
 4    1  0.4440728E+000  0.1877362E+03  0.7818608E-02  0.1160519E+00
         21   -1    0    0  501  502  0.00000000000E+00  0.00000000000E+00  0.11340604356E+03  0.11340604356E+03  0.00000000000E+00 0. -1.
         21   -1    0    0  502  503 -0.00000000000E+00 -0.00000000000E+00 -0.36584515735E+03  0.36584515735E+03  0.00000000000E+00 0. -1.
          6    1    1    2  501    0 -0.69077977693E+02 -0.29817974629E+02 -0.33257883895E+02  0.19065929155E+03  0.17200000000E+03 0. -1.
         -6    1    1    2    0  503  0.69077977693E+02  0.29817974629E+02 -0.21918122989E+03  0.28859190936E+03  0.17200000000E+03 0. -1.
</event>
<event>
 4    1  0.4440728E+000  0.2181728E+03  0.7818608E-02  0.1135253E+00
         21   -1    0    0  503  502  0.00000000000E+00  0.00000000000E+00  0.24791787613E+03  0.24791787613E+03  0.00000000000E+00 0. -1.
         21   -1    0    0  501  503 -0.00000000000E+00 -0.00000000000E+00 -0.19300083654E+03  0.19300083654E+03  0.00000000000E+00 0.  1.
          6    1    1    2  501    0 -0.10128600599E+03  0.88071194742E+02  0.11555996974E+02  0.21847867497E+03  0.17200000000E+03 0. -1.
         -6    1    1    2    0  502  0.10128600599E+03 -0.88071194742E+02  0.43361042624E+02  0.22244003770E+03  0.17200000000E+03 0.  1.
</event>
<event>
 4    1  0.4440728E+000  0.1886898E+03  0.7818608E-02  0.1159648E+00
         21   -1    0    0  503  502  0.00000000000E+00  0.00000000000E+00  0.45890729511E+02  0.45890729511E+02  0.00000000000E+00 0. -1.
         21   -1    0    0  501  503 -0.00000000000E+00 -0.00000000000E+00 -0.87012185075E+03  0.87012185075E+03  0.00000000000E+00 0. -1.
          6    1    1    2  501    0 -0.43151509054E+02 -0.64480812788E+02 -0.56287941882E+03  0.59366410375E+03  0.17200000000E+03 0. -1.
         -6    1    1    2    0  502  0.43151509054E+02  0.64480812788E+02 -0.26135170242E+03  0.32234847651E+03  0.17200000000E+03 0. -1.
</event>
<event>
 4    1  0.4440728E+000  0.2392809E+03  0.7818608E-02  0.1120273E+00
         21   -1    0    0  501  502  0.00000000000E+00  0.00000000000E+00  0.54513893387E+03  0.54513893387E+03  0.00000000000E+00 0. -1.
         21   -1    0    0  502  503 -0.00000000000E+00 -0.00000000000E+00 -0.16711299380E+03  0.16711299380E+03  0.00000000000E+00 0.  1.
          6    1    1    2  501    0 -0.14392030167E+03 -0.83416403489E+02  0.40607739693E+03  0.47133236882E+03  0.17200000000E+03 0.  1.
         -6    1    1    2    0  503  0.14392030167E+03  0.83416403489E+02 -0.28051456857E+02  0.24091955885E+03  0.17200000000E+03 0.  1.
</event>
<event>
 4    1  0.4440728E+000  0.3406553E+03  0.7818608E-02  0.1066517E+00
         21   -1    0    0  501  502  0.00000000000E+00  0.00000000000E+00  0.15143703137E+03  0.15143703137E+03  0.00000000000E+00 0. -1.
         21   -1    0    0  502  503 -0.00000000000E+00 -0.00000000000E+00 -0.95263132356E+03  0.95263132356E+03  0.00000000000E+00 0.  1.
          6    1    1    2  501    0 -0.17798319572E+03  0.23405990013E+03 -0.15645229619E+03  0.37486447656E+03  0.17200000000E+03 0. -1.
         -6    1    1    2    0  503  0.17798319572E+03 -0.23405990013E+03 -0.64474199600E+03  0.72920387836E+03  0.17200000000E+03 0. -1.
</event>
<event>
 4    1  0.4440728E+000  0.2320064E+03  0.7818608E-02  0.1125235E+00
         21   -1    0    0  503  502  0.00000000000E+00  0.00000000000E+00  0.71636938984E+02  0.71636938984E+02  0.00000000000E+00 0.  1.
         21   -1    0    0  501  503 -0.00000000000E+00 -0.00000000000E+00 -0.81720185928E+03  0.81720185928E+03  0.00000000000E+00 0. -1.
          6    1    1    2  501    0 -0.60365715200E+02  0.14352332543E+03 -0.49890564423E+03  0.55021251017E+03  0.17200000000E+03 0.  1.
         -6    1    1    2    0  502  0.60365715200E+02 -0.14352332543E+03 -0.24665927607E+03  0.33862628809E+03  0.17200000000E+03 0. -1.
</event>
<event>
 4    1  0.4440728E+000  0.2165553E+03  0.7818608E-02  0.1136478E+00
         21   -1    0    0  503  502  0.00000000000E+00  0.00000000000E+00  0.78331682581E+03  0.78331682581E+03  0.00000000000E+00 0. -1.
         21   -1    0    0  501  503 -0.00000000000E+00 -0.00000000000E+00 -0.99565353491E+02  0.99565353491E+02  0.00000000000E+00 0.  1.
          6    1    1    2  501    0  0.82574872623E+02  0.10243822398E+03  0.63138294839E+02  0.22557181472E+03  0.17200000000E+03 0.  1.
         -6    1    1    2    0  502 -0.82574872623E+02 -0.10243822398E+03  0.62061317748E+03  0.65731036458E+03  0.17200000000E+03 0. -1.
</event>
<event>
 4    1  0.4440728E+000  0.2843853E+03  0.7818608E-02  0.1093318E+00
         21   -1    0    0  503  502  0.00000000000E+00  0.00000000000E+00  0.11445546406E+03  0.11445546406E+03  0.00000000000E+00 0.  1.
         21   -1    0    0  501  503 -0.00000000000E+00 -0.00000000000E+00 -0.92834443426E+03  0.92834443426E+03  0.00000000000E+00 0. -1.
          6    1    1    2  501    0 -0.11621118770E+03  0.19438604551E+03 -0.66176618843E+03  0.72028429317E+03  0.17200000000E+03 0. -1.
         -6    1    1    2    0  502  0.11621118770E+03 -0.19438604551E+03 -0.15212278176E+03  0.32251560515E+03  0.17200000000E+03 0.  1.
</event>
<event>
 4    1  0.4440728E+000  0.1879949E+03  0.7818608E-02  0.1160282E+00
         21   -1    0    0  501  502  0.00000000000E+00  0.00000000000E+00  0.22204628638E+02  0.22204628638E+02  0.00000000000E+00 0.  1.
         21   -1    0    0  502  503 -0.00000000000E+00 -0.00000000000E+00 -0.27492416667E+04  0.27492416667E+04  0.00000000000E+00 0.  1.
          6    1    1    2  501    0  0.36243710170E+02  0.66666965681E+02 -0.46433794138E+03  0.50095091042E+03  0.17200000000E+03 0.  1.
         -6    1    1    2    0  503 -0.36243710170E+02 -0.66666965681E+02 -0.22626990967E+04  0.22704953850E+04  0.17200000000E+03 0.  1.
</event>
<event>
 4    1  0.4440728E+000  0.2015085E+03  0.7818608E-02  0.1148472E+00
         21   -1    0    0  501  502  0.00000000000E+00  0.00000000000E+00  0.71450940264E+02  0.71450940264E+02  0.00000000000E+00 0. -1.
         21   -1    0    0  502  503 -0.00000000000E+00 -0.00000000000E+00 -0.58691401418E+03  0.58691401418E+03  0.00000000000E+00 0. -1.
          6    1    1    2  501    0 -0.74128389575E+02  0.74341521878E+02 -0.31635229372E+03  0.37507926330E+03  0.17200000000E+03 0. -1.
         -6    1    1    2    0  503  0.74128389575E+02 -0.74341521878E+02 -0.19911078020E+03  0.28328569114E+03  0.17200000000E+03 0. -1.
</event>
<event>
 4    1  0.4440728E+000  0.2142615E+03  0.7818608E-02  0.1138235E+00
         21   -1    0    0  503  502  0.00000000000E+00  0.00000000000E+00  0.22587998579E+03  0.22587998579E+03  0.00000000000E+00 0.  1.
         21   -1    0    0  501  503 -0.00000000000E+00 -0.00000000000E+00 -0.97586832866E+03  0.97586832866E+03  0.00000000000E+00 0.  1.
          6    1    1    2  501    0  0.10297948115E+03  0.75625452960E+02 -0.90964846764E+03  0.93454176865E+03  0.17200000000E+03 0.  1.
         -6    1    1    2    0  502 -0.10297948115E+03 -0.75625452960E+02  0.15966012478E+03  0.26720654580E+03  0.17200000000E+03 0.  1.
</event>
<event>
 4    1  0.4440728E+000  0.2154209E+03  0.7818608E-02  0.1137344E+00
         21   -1    0    0  501  502  0.00000000000E+00  0.00000000000E+00  0.25892927061E+03  0.25892927061E+03  0.00000000000E+00 0.  1.
         21   -1    0    0  502  503 -0.00000000000E+00 -0.00000000000E+00 -0.20606130372E+03  0.20606130372E+03  0.00000000000E+00 0.  1.
          6    1    1    2  501    0  0.12504977112E+03  0.34419622854E+02  0.11033961671E+03  0.24203509396E+03  0.17200000000E+03 0.  1.
         -6    1    1    2    0  503 -0.12504977112E+03 -0.34419622854E+02 -0.57471649815E+02  0.22295548037E+03  0.17200000000E+03 0.  1.
</event>
<event>
 4    1  0.4440728E+000  0.2151334E+03  0.7818608E-02  0.1137564E+00
         21   -1    0    0  503  502  0.00000000000E+00  0.00000000000E+00  0.15396471500E+03  0.15396471500E+03  0.00000000000E+00 0.  1.
         21   -1    0    0  501  503 -0.00000000000E+00 -0.00000000000E+00 -0.32234046471E+03  0.32234046471E+03  0.00000000000E+00 0. -1.
          6    1    1    2  501    0  0.41515978460E+01 -0.12915543166E+03 -0.14603157385E+03  0.26001458008E+03  0.17200000000E+03 0. -1.
         -6    1    1    2    0  502 -0.41515978460E+01  0.12915543166E+03 -0.22344175858E+02  0.21629059963E+03  0.17200000000E+03 0.  1.
</event>
<event>
 4    1  0.4440728E+000  0.2151233E+03  0.7818608E-02  0.1137572E+00
         21   -1    0    0  503  502  0.00000000000E+00  0.00000000000E+00  0.11021602537E+03  0.11021602537E+03  0.00000000000E+00 0. -1.
         21   -1    0    0  501  503 -0.00000000000E+00 -0.00000000000E+00 -0.10788440522E+04  0.10788440522E+04  0.00000000000E+00 0. -1.
          6    1    1    2  501    0 -0.98063112852E+02  0.84128908061E+02 -0.94896162189E+03  0.97303967396E+03  0.17200000000E+03 0. -1.
         -6    1    1    2    0  502  0.98063112852E+02 -0.84128908061E+02 -0.19666404883E+02  0.21602040356E+03  0.17200000000E+03 0. -1.
</event>
<event>
 4    1  0.4440728E+000  0.1924981E+03  0.7818608E-02  0.1156227E+00
         21   -1    0    0  503  502  0.00000000000E+00  0.00000000000E+00  0.20458773760E+02  0.20458773760E+02  0.00000000000E+00 0.  1.
         21   -1    0    0  501  503 -0.00000000000E+00 -0.00000000000E+00 -0.18242661636E+04  0.18242661636E+04  0.00000000000E+00 0.  1.
          6    1    1    2  501    0  0.82163066454E+02  0.26847006909E+02 -0.97987654994E+03  0.99860582033E+03  0.17200000000E+03 0.  1.
         -6    1    1    2    0  502 -0.82163066454E+02 -0.26847006909E+02 -0.82393083986E+03  0.84611911700E+03  0.17200000000E+03 0.  1.
</event>
<event>
 4    1  0.4440728E+000  0.1743787E+03  0.7818608E-02  0.1173357E+00
         21   -1    0    0  503  502  0.00000000000E+00  0.00000000000E+00  0.28138841582E+03  0.28138841582E+03  0.00000000000E+00 0.  1.
         21   -1    0    0  501  503 -0.00000000000E+00 -0.00000000000E+00 -0.14700972664E+03  0.14700972664E+03  0.00000000000E+00 0.  1.
          6    1    1    2  501    0 -0.13805883130E+02  0.25165966085E+02 -0.43059751817E+02  0.17961645382E+03  0.17200000000E+03 0.  1.
         -6    1    1    2    0  502  0.13805883130E+02 -0.25165966085E+02  0.17743844099E+03  0.24878168863E+03  0.17200000000E+03 0.  1.
</event>
<event>
 4    1  0.4440728E+000  0.1796214E+03  0.7818608E-02  0.1168170E+00
         21   -1    0    0  503  502  0.00000000000E+00  0.00000000000E+00  0.64054730810E+02  0.64054730810E+02  0.00000000000E+00 0.  1.
         21   -1    0    0  501  503 -0.00000000000E+00 -0.00000000000E+00 -0.52081542713E+03  0.52081542713E+03  0.00000000000E+00 0.  1.
          6    1    1    2  501    0  0.21848073347E+02  0.46930939582E+02 -0.28140571701E+03  0.33384581616E+03  0.17200000000E+03 0.  1.
         -6    1    1    2    0  502 -0.21848073347E+02 -0.46930939582E+02 -0.17535497931E+03  0.25102434178E+03  0.17200000000E+03 0.  1.
</event>
<event>
 4    1  0.4440728E+000  0.4524893E+03  0.7818608E-02  0.1026982E+00
         21   -1    0    0  503  502  0.00000000000E+00  0.00000000000E+00  0.10458089316E+04  0.10458089316E+04  0.00000000000E+00 0.  1.
         21   -1    0    0  501  503 -0.00000000000E+00 -0.00000000000E+00 -0.44307558189E+03  0.44307558189E+03  0.00000000000E+00 0. -1.
          6    1    1    2  501    0  0.39657254888E+03  0.13376388898E+03 -0.25479606452E+03  0.51929529077E+03  0.17200000000E+03 0. -1.
         -6    1    1    2    0  502 -0.39657254888E+03 -0.13376388898E+03  0.85752941419E+03  0.96958922268E+03  0.17200000000E+03 0.  1.
</event>
<event>
 4    1  0.4440728E+000  0.2358947E+03  0.7818608E-02  0.1122558E+00
         21   -1    0    0  501  502  0.00000000000E+00  0.00000000000E+00  0.41805245152E+03  0.41805245152E+03  0.00000000000E+00 0. -1.
         21   -1    0    0  502  503 -0.00000000000E+00 -0.00000000000E+00 -0.14433719864E+03  0.14433719864E+03  0.00000000000E+00 0. -1.
          6    1    1    2  501    0 -0.36766950951E+02 -0.15719573982E+03  0.58427289991E+02  0.24302275103E+03  0.17200000000E+03 0. -1.
         -6    1    1    2    0  503  0.36766950951E+02  0.15719573982E+03  0.21528796288E+03  0.31936689914E+03  0.17200000000E+03 0. -1.
</event>
<event>
 4    1  0.4440728E+000  0.2051157E+03  0.7818608E-02  0.1145493E+00
         21   -1    0    0  503  502  0.00000000000E+00  0.00000000000E+00  0.14218937715E+03  0.14218937715E+03  0.00000000000E+00 0.  1.
         21   -1    0    0  501  503 -0.00000000000E+00 -0.00000000000E+00 -0.31088160829E+03  0.31088160829E+03  0.00000000000E+00 0. -1.
          6    1    1    2  501    0 -0.11723840235E+00 -0.11175164498E+03 -0.13409231303E+03  0.24505752858E+03  0.17200000000E+03 0. -1.
         -6    1    1    2    0  502  0.11723840235E+00  0.11175164498E+03 -0.34599918101E+02  0.20801345685E+03  0.17200000000E+03 0.  1.
</event>
<event>
 4    1  0.4440728E+000  0.1798193E+03  0.7818608E-02  0.1167978E+00
         21   -1    0    0  501  502  0.00000000000E+00  0.00000000000E+00  0.21710011301E+03  0.21710011301E+03  0.00000000000E+00 0.  1.
         21   -1    0    0  502  503 -0.00000000000E+00 -0.00000000000E+00 -0.19406019627E+03  0.19406019627E+03  0.00000000000E+00 0.  1.
          6    1    1    2  501    0  0.33372439635E+02 -0.40463117150E+02  0.11064796874E+03  0.21113492502E+03  0.17200000000E+03 0.  1.
         -6    1    1    2    0  503 -0.33372439635E+02  0.40463117150E+02 -0.87608051994E+02  0.20002538427E+03  0.17200000000E+03 0.  1.
</event>
<event>
 4    1  0.4440728E+000  0.1980378E+03  0.7818608E-02  0.1151405E+00
         21   -1    0    0  501  502  0.00000000000E+00  0.00000000000E+00  0.40278631460E+03  0.40278631460E+03  0.00000000000E+00 0. -1.
         21   -1    0    0  502  503 -0.00000000000E+00 -0.00000000000E+00 -0.10184698811E+03  0.10184698811E+03  0.00000000000E+00 0.  1.
          6    1    1    2  501    0 -0.69242247691E+02  0.69573426891E+02  0.20337594909E+03  0.28386744664E+03  0.17200000000E+03 0. -1.
         -6    1    1    2    0  503  0.69242247691E+02 -0.69573426891E+02  0.97563377409E+02  0.22076585607E+03  0.17200000000E+03 0.  1.
</event>
<event>
 4    1  0.4440728E+000  0.1752283E+03  0.7818608E-02  0.1172503E+00
         21   -1    0    0  501  502  0.00000000000E+00  0.00000000000E+00  0.20822345262E+03  0.20822345262E+03  0.00000000000E+00 0.  1.
         21   -1    0    0  502  503 -0.00000000000E+00 -0.00000000000E+00 -0.45399066848E+03  0.45399066848E+03  0.00000000000E+00 0.  1.
          6    1    1    2  501    0 -0.15922651155E+02  0.29452197966E+02  0.14918649048E+03  0.23013381266E+03  0.17200000000E+03 0.  1.
         -6    1    1    2    0  503  0.15922651155E+02 -0.29452197966E+02 -0.39495370635E+03  0.43208030844E+03  0.17200000000E+03 0.  1.
</event>
<event>
 4    1  0.4440728E+000  0.1938457E+03  0.7818608E-02  0.1155038E+00
         21   -1    0    0  501  502  0.00000000000E+00  0.00000000000E+00  0.22570128370E+03  0.22570128370E+03  0.00000000000E+00 0. -1.
         21   -1    0    0  502  503 -0.00000000000E+00 -0.00000000000E+00 -0.24141046642E+03  0.24141046642E+03  0.00000000000E+00 0. -1.
          6    1    1    2  501    0 -0.60927410823E+01 -0.89190924625E+02  0.12225942485E+03  0.22918008093E+03  0.17200000000E+03 0. -1.
         -6    1    1    2    0  503  0.60927410823E+01  0.89190924625E+02 -0.13796860758E+03  0.23793166919E+03  0.17200000000E+03 0. -1.
</event>
<event>
 4    1  0.4440728E+000  0.1731183E+03  0.7818608E-02  0.1174634E+00
         21   -1    0    0  503  502  0.00000000000E+00  0.00000000000E+00  0.10852919204E+03  0.10852919204E+03  0.00000000000E+00 0.  1.
         21   -1    0    0  501  503 -0.00000000000E+00 -0.00000000000E+00 -0.37320453052E+03  0.37320453052E+03  0.00000000000E+00 0.  1.
          6    1    1    2  501    0 -0.22176601804E+01 -0.19520353778E+02 -0.25517184600E+03  0.30835471979E+03  0.17200000000E+03 0.  1.
         -6    1    1    2    0  502  0.22176601804E+01  0.19520353778E+02 -0.95034924784E+01  0.17337900276E+03  0.17200000000E+03 0.  1.
</event>
<event>
 4    1  0.4440728E+000  0.2163293E+03  0.7818608E-02  0.1136650E+00
         21   -1    0    0  501  502  0.00000000000E+00  0.00000000000E+00  0.12645020261E+03  0.12645020261E+03  0.00000000000E+00 0. -1.
         21   -1    0    0  502  503 -0.00000000000E+00 -0.00000000000E+00 -0.37225001061E+03  0.37225001061E+03  0.00000000000E+00 0. -1.
          6    1    1    2  501    0 -0.11797033634E+03 -0.57422672870E+02 -0.10391993827E+03  0.23999524409E+03  0.17200000000E+03 0. -1.
         -6    1    1    2    0  503  0.11797033634E+03  0.57422672870E+02 -0.14187986974E+03  0.25870496913E+03  0.17200000000E+03 0. -1.
</event>
<event>
 4    1  0.4440728E+000  0.2018549E+03  0.7818608E-02  0.1148183E+00
         21   -1    0    0  503  502  0.00000000000E+00  0.00000000000E+00  0.58003771775E+03  0.58003771775E+03  0.00000000000E+00 0. -1.
         21   -1    0    0  501  503 -0.00000000000E+00 -0.00000000000E+00 -0.72252808072E+02  0.72252808072E+02  0.00000000000E+00 0. -1.
          6    1    1    2  501    0  0.44003258748E+02  0.96047472678E+02  0.19953954812E+03  0.28383346359E+03  0.17200000000E+03 0. -1.
         -6    1    1    2    0  502 -0.44003258748E+02 -0.96047472678E+02  0.30824536156E+03  0.36845706224E+03  0.17200000000E+03 0. -1.
</event>
<event>
 4    1  0.4440728E+000  0.1994967E+03  0.7818608E-02  0.1150164E+00
         21   -1    0    0  501  502  0.00000000000E+00  0.00000000000E+00  0.32872552748E+03  0.32872552748E+03  0.00000000000E+00 0.  1.
         21   -1    0    0  502  503 -0.00000000000E+00 -0.00000000000E+00 -0.15341302622E+03  0.15341302622E+03  0.00000000000E+00 0.  1.
          6    1    1    2  501    0  0.63865130390E+02 -0.78333794088E+02  0.19834366511E+03  0.28131681014E+03  0.17200000000E+03 0.  1.
         -6    1    1    2    0  503 -0.63865130390E+02  0.78333794088E+02 -0.23031163851E+02  0.20082174355E+03  0.17200000000E+03 0.  1.
</event>
<event>
 4    1  0.4440728E+000  0.1857074E+03  0.7818608E-02  0.1162391E+00
         21   -1    0    0  501  502  0.00000000000E+00  0.00000000000E+00  0.26636738047E+02  0.26636738047E+02  0.00000000000E+00 0.  1.
         21   -1    0    0  502  503 -0.00000000000E+00 -0.00000000000E+00 -0.17125475539E+04  0.17125475539E+04  0.00000000000E+00 0.  1.
          6    1    1    2  501    0  0.67662409452E+02  0.18029221748E+02 -0.41342871937E+03  0.45322241835E+03  0.17200000000E+03 0. -1.
         -6    1    1    2    0  503 -0.67662409452E+02 -0.18029221748E+02 -0.12724820965E+04  0.12859618736E+04  0.17200000000E+03 0. -1.
</event>
<event>
 4    1  0.4440728E+000  0.2871224E+03  0.7818608E-02  0.1091861E+00
         21   -1    0    0  501  502  0.00000000000E+00  0.00000000000E+00  0.51807908497E+03  0.51807908497E+03  0.00000000000E+00 0.  1.
         21   -1    0    0  502  503 -0.00000000000E+00 -0.00000000000E+00 -0.17583182923E+03  0.17583182923E+03  0.00000000000E+00 0. -1.
          6    1    1    2  501    0  0.21378393586E+03 -0.84567618028E+02  0.27807196294E+03  0.39970397775E+03  0.17200000000E+03 0.  1.
         -6    1    1    2    0  503 -0.21378393586E+03  0.84567618028E+02  0.64175292805E+02  0.29420693646E+03  0.17200000000E+03 0. -1.
</event>
<event>
 4    1  0.4440728E+000  0.2290409E+03  0.7818608E-02  0.1127317E+00
         21   -1    0    0  503  502  0.00000000000E+00  0.00000000000E+00  0.45399426931E+03  0.45399426931E+03  0.00000000000E+00 0.  1.
         21   -1    0    0  501  503 -0.00000000000E+00 -0.00000000000E+00 -0.12537890448E+03  0.12537890448E+03  0.00000000000E+00 0.  1.
          6    1    1    2  501    0 -0.66257221873E+02  0.13596216951E+03  0.83205045550E+02  0.24368588509E+03  0.17200000000E+03 0.  1.
         -6    1    1    2    0  502  0.66257221873E+02 -0.13596216951E+03  0.24541031927E+03  0.33568728870E+03  0.17200000000E+03 0.  1.
</event>
<event>
 4    1  0.4440728E+000  0.1964412E+03  0.7818608E-02  0.1152777E+00
         21   -1    0    0  503  502  0.00000000000E+00  0.00000000000E+00  0.24339644516E+03  0.24339644516E+03  0.00000000000E+00 0.  1.
         21   -1    0    0  501  503 -0.00000000000E+00 -0.00000000000E+00 -0.32383793798E+03  0.32383793798E+03  0.00000000000E+00 0.  1.
          6    1    1    2  501    0  0.81864574454E+02  0.47993205851E+02 -0.24284739302E+03  0.31235238539E+03  0.17200000000E+03 0.  1.
         -6    1    1    2    0  502 -0.81864574454E+02 -0.47993205851E+02  0.16240590021E+03  0.25488199776E+03  0.17200000000E+03 0.  1.
</event>
<event>
 4    1  0.4440728E+000  0.1895113E+03  0.7818608E-02  0.1158903E+00
         21   -1    0    0  503  502  0.00000000000E+00  0.00000000000E+00  0.75488742076E+02  0.75488742076E+02  0.00000000000E+00 0. -1.
         21   -1    0    0  501  503 -0.00000000000E+00 -0.00000000000E+00 -0.58792771449E+03  0.58792771449E+03  0.00000000000E+00 0. -1.
          6    1    1    2  501    0 -0.64471753834E+02  0.46625200044E+02 -0.40110614879E+03  0.44362220292E+03  0.17200000000E+03 0. -1.
         -6    1    1    2    0  502  0.64471753834E+02 -0.46625200044E+02 -0.11133282362E+03  0.21979425365E+03  0.17200000000E+03 0. -1.
</event>
<event>
 4    1  0.4440728E+000  0.1997934E+03  0.7818608E-02  0.1149913E+00
         21   -1    0    0  503  502  0.00000000000E+00  0.00000000000E+00  0.11325668873E+03  0.11325668873E+03  0.00000000000E+00 0. -1.
         21   -1    0    0  501  503 -0.00000000000E+00 -0.00000000000E+00 -0.73184631760E+03  0.73184631760E+03  0.00000000000E+00 0. -1.
          6    1    1    2  501    0  0.79530033677E+02 -0.63311657518E+02 -0.61353452227E+03  0.64524569138E+03  0.17200000000E+03 0. -1.
         -6    1    1    2    0  502 -0.79530033677E+02  0.63311657518E+02 -0.50551066086E+01  0.19985731495E+03  0.17200000000E+03 0. -1.
</event>
<event>
 4    1  0.4440728E+000  0.1812965E+03  0.7818608E-02  0.1166554E+00
         21   -1    0    0  501  502  0.00000000000E+00  0.00000000000E+00  0.51567473278E+03  0.51567473278E+03  0.00000000000E+00 0.  1.
         21   -1    0    0  502  503 -0.00000000000E+00 -0.00000000000E+00 -0.76549936136E+02  0.76549936136E+02  0.00000000000E+00 0.  1.
          6    1    1    2  501    0 -0.46609626462E+02  0.33345929349E+02  0.34070043949E+03  0.38593418837E+03  0.17200000000E+03 0.  1.
         -6    1    1    2    0  503  0.46609626462E+02 -0.33345929349E+02  0.98424357151E+02  0.20629048055E+03  0.17200000000E+03 0.  1.
</event>
<event>
 4    1  0.4440728E+000  0.2479574E+03  0.7818608E-02  0.1114603E+00
         21   -1    0    0  503  502  0.00000000000E+00  0.00000000000E+00  0.15949565198E+03  0.15949565198E+03  0.00000000000E+00 0.  1.
         21   -1    0    0  501  503 -0.00000000000E+00 -0.00000000000E+00 -0.50541672071E+03  0.50541672071E+03  0.00000000000E+00 0.  1.
          6    1    1    2  501    0 -0.12832968113E+03 -0.12421906931E+03 -0.33491018731E+03  0.41671059239E+03  0.17200000000E+03 0.  1.
         -6    1    1    2    0  502  0.12832968113E+03  0.12421906931E+03 -0.11010881416E+02  0.24820178031E+03  0.17200000000E+03 0.  1.
</event>
<event>
 4    1  0.4440728E+000  0.2497178E+03  0.7818608E-02  0.1113483E+00
         21   -1    0    0  501  502  0.00000000000E+00  0.00000000000E+00  0.11828166454E+04  0.11828166454E+04  0.00000000000E+00 0.  1.
         21   -1    0    0  502  503 -0.00000000000E+00 -0.00000000000E+00 -0.23434382634E+03  0.23434382634E+03  0.00000000000E+00 0.  1.
          6    1    1    2  501    0 -0.67028114918E+02  0.16817317969E+03  0.10980398763E+04  0.11260775091E+04  0.17200000000E+03 0.  1.
         -6    1    1    2    0  503  0.67028114918E+02 -0.16817317969E+03 -0.14956705721E+03  0.29108296267E+03  0.17200000000E+03 0.  1.
</event>
<event>
 4    1  0.4440728E+000  0.2043417E+03  0.7818608E-02  0.1146127E+00
         21   -1    0    0  501  502  0.00000000000E+00  0.00000000000E+00  0.71763125636E+03  0.71763125636E+03  0.00000000000E+00 0.  1.
         21   -1    0    0  502  503 -0.00000000000E+00 -0.00000000000E+00 -0.22418994539E+03  0.22418994539E+03  0.00000000000E+00 0.  1.
          6    1    1    2  501    0  0.71161930407E+02  0.84305988068E+02  0.65194044791E+03  0.68321436430E+03  0.17200000000E+03 0.  1.
         -6    1    1    2    0  503 -0.71161930407E+02 -0.84305988068E+02 -0.15849913694E+03  0.25860683745E+03  0.17200000000E+03 0.  1.
</event>
<event>
 4    1  0.4440728E+000  0.1730060E+03  0.7818608E-02  0.1174749E+00
         21   -1    0    0  503  502  0.00000000000E+00  0.00000000000E+00  0.82719647612E+03  0.82719647612E+03  0.00000000000E+00 0. -1.
         21   -1    0    0  501  503 -0.00000000000E+00 -0.00000000000E+00 -0.53675639271E+02  0.53675639271E+02  0.00000000000E+00 0. -1.
          6    1    1    2  501    0  0.74807870640E+01 -0.17061836687E+02  0.13533299530E+03  0.21964992161E+03  0.17200000000E+03 0. -1.
         -6    1    1    2    0  502 -0.74807870640E+01  0.17061836687E+02  0.63818784155E+03  0.66122219378E+03  0.17200000000E+03 0. -1.
</event>
<event>
 4    1  0.4440728E+000  0.1775841E+03  0.7818608E-02  0.1170162E+00
         21   -1    0    0  503  502  0.00000000000E+00  0.00000000000E+00  0.38890935595E+03  0.38890935595E+03  0.00000000000E+00 0. -1.
         21   -1    0    0  501  503 -0.00000000000E+00 -0.00000000000E+00 -0.84558884613E+02  0.84558884613E+02  0.00000000000E+00 0. -1.
          6    1    1    2  501    0  0.23996014787E+01  0.44117562339E+02  0.20013349684E+03  0.26756220576E+03  0.17200000000E+03 0. -1.
         -6    1    1    2    0  502 -0.23996014787E+01 -0.44117562339E+02  0.10421697449E+03  0.20590603480E+03  0.17200000000E+03 0. -1.
</event>
<event>
 4    1  0.4440728E+000  0.2526314E+03  0.7818608E-02  0.1111653E+00
         21   -1    0    0  503  502  0.00000000000E+00  0.00000000000E+00  0.16903535977E+03  0.16903535977E+03  0.00000000000E+00 0. -1.
         21   -1    0    0  501  503 -0.00000000000E+00 -0.00000000000E+00 -0.72681418713E+03  0.72681418713E+03  0.00000000000E+00 0.  1.
          6    1    1    2  501    0  0.50799756089E+02 -0.17792690854E+03 -0.58938703330E+03  0.64124852828E+03  0.17200000000E+03 0.  1.
         -6    1    1    2    0  502 -0.50799756089E+02  0.17792690854E+03  0.31608205927E+02  0.25460101862E+03  0.17200000000E+03 0. -1.
</event>
<event>
 4    1  0.4440728E+000  0.1771885E+03  0.7818608E-02  0.1170552E+00
         21   -1    0    0  501  502  0.00000000000E+00  0.00000000000E+00  0.24259214945E+04  0.24259214945E+04  0.00000000000E+00 0.  1.
         21   -1    0    0  502  503 -0.00000000000E+00 -0.00000000000E+00 -0.14667457711E+02  0.14667457711E+02  0.00000000000E+00 0.  1.
          6    1    1    2  501    0  0.12342636144E+02  0.40736083172E+02  0.16241946826E+04  0.16338311223E+04  0.17200000000E+03 0.  1.
         -6    1    1    2    0  503 -0.12342636144E+02 -0.40736083172E+02  0.78705935415E+03  0.80675782989E+03  0.17200000000E+03 0.  1.
</event>
<event>
 4    1  0.4440728E+000  0.2324725E+03  0.7818608E-02  0.1124912E+00
         21   -1    0    0  503  502  0.00000000000E+00  0.00000000000E+00  0.11190773044E+04  0.11190773044E+04  0.00000000000E+00 0.  1.
         21   -1    0    0  501  503 -0.00000000000E+00 -0.00000000000E+00 -0.10596337935E+03  0.10596337935E+03  0.00000000000E+00 0. -1.
          6    1    1    2  501    0 -0.10311901045E+03  0.11758366495E+03  0.54680697357E+02  0.23881672312E+03  0.17200000000E+03 0. -1.
         -6    1    1    2    0  502  0.10311901045E+03 -0.11758366495E+03  0.95843322768E+03  0.98622396062E+03  0.17200000000E+03 0.  1.
</event>
<event>
 4    1  0.4440728E+000  0.1721549E+03  0.7818608E-02  0.1175619E+00
         21   -1    0    0  501  502  0.00000000000E+00  0.00000000000E+00  0.21394951278E+03  0.21394951278E+03  0.00000000000E+00 0.  1.
         21   -1    0    0  502  503 -0.00000000000E+00 -0.00000000000E+00 -0.48575327050E+03  0.48575327050E+03  0.00000000000E+00 0.  1.
          6    1    1    2  501    0  0.12554186090E+01  0.71927966675E+01  0.15988806565E+03  0.23495000731E+03  0.17200000000E+03 0.  1.
         -6    1    1    2    0  503 -0.12554186090E+01 -0.71927966675E+01 -0.43169182337E+03  0.46475277596E+03  0.17200000000E+03 0.  1.
</event>
<event>
 4    1  0.4440728E+000  0.1726733E+03  0.7818608E-02  0.1175088E+00
         21   -1    0    0  501  502  0.00000000000E+00  0.00000000000E+00  0.69949863727E+03  0.69949863727E+03  0.00000000000E+00 0.  1.
         21   -1    0    0  502  503 -0.00000000000E+00 -0.00000000000E+00 -0.86620752230E+02  0.86620752230E+02  0.00000000000E+00 0.  1.
          6    1    1    2  501    0  0.15554627142E+01  0.15153952432E+02  0.58656492219E+03  0.61145275344E+03  0.17200000000E+03 0.  1.
         -6    1    1    2    0  503 -0.15554627142E+01 -0.15153952432E+02  0.26312962842E+02  0.17466663606E+03  0.17200000000E+03 0.  1.
</event>
<event>
 4    1  0.4440728E+000  0.2379162E+03  0.7818608E-02  0.1121189E+00
         21   -1    0    0  501  502  0.00000000000E+00  0.00000000000E+00  0.96628272430E+02  0.96628272430E+02  0.00000000000E+00 0.  1.
         21   -1    0    0  502  503 -0.00000000000E+00 -0.00000000000E+00 -0.78661160563E+03  0.78661160563E+03  0.00000000000E+00 0. -1.
          6    1    1    2  501    0  0.60416001989E+02 -0.15287260695E+03 -0.12185502039E+03  0.26730651553E+03  0.17200000000E+03 0.  1.
         -6    1    1    2    0  503 -0.60416001989E+02  0.15287260695E+03 -0.56812831281E+03  0.61593336252E+03  0.17200000000E+03 0. -1.
</event>
<event>
 4    1  0.4440728E+000  0.1750457E+03  0.7818608E-02  0.1172686E+00
         21   -1    0    0  501  502  0.00000000000E+00  0.00000000000E+00  0.52577189992E+03  0.52577189992E+03  0.00000000000E+00 0. -1.
         21   -1    0    0  502  503 -0.00000000000E+00 -0.00000000000E+00 -0.13797098096E+03  0.13797098096E+03  0.00000000000E+00 0. -1.
          6    1    1    2  501    0 -0.84905748481E+01  0.31383222282E+02  0.44612405971E+03  0.47923655240E+03  0.17200000000E+03 0. -1.
         -6    1    1    2    0  503  0.84905748481E+01 -0.31383222282E+02 -0.58323140759E+02  0.18450632848E+03  0.17200000000E+03 0. -1.
</event>
<event>
 4    1  0.4440728E+000  0.1914760E+03  0.7818608E-02  0.1157137E+00
         21   -1    0    0  501  502  0.00000000000E+00  0.00000000000E+00  0.84922622468E+03  0.84922622468E+03  0.00000000000E+00 0.  1.
         21   -1    0    0  502  503 -0.00000000000E+00 -0.00000000000E+00 -0.45415857474E+02  0.45415857474E+02  0.00000000000E+00 0.  1.
          6    1    1    2  501    0  0.79809930905E+02  0.26635259886E+02  0.50132723247E+03  0.53664891331E+03  0.17200000000E+03 0. -1.
         -6    1    1    2    0  503 -0.79809930905E+02 -0.26635259886E+02  0.30248313474E+03  0.35799316885E+03  0.17200000000E+03 0. -1.
</event>
<event>
 4    1  0.4440728E+000  0.3101585E+03  0.7818608E-02  0.1080270E+00
         21   -1    0    0  503  502  0.00000000000E+00  0.00000000000E+00  0.76154902296E+03  0.76154902296E+03  0.00000000000E+00 0.  1.
         21   -1    0    0  501  503 -0.00000000000E+00 -0.00000000000E+00 -0.20298501627E+03  0.20298501627E+03  0.00000000000E+00 0. -1.
          6    1    1    2  501    0  0.13952348898E+03 -0.21713468475E+03 -0.17103126369E+02  0.31062967056E+03  0.17200000000E+03 0. -1.
         -6    1    1    2    0  502 -0.13952348898E+03  0.21713468475E+03  0.57566713306E+03  0.65390436868E+03  0.17200000000E+03 0.  1.
</event>
<event>
 4    1  0.4440728E+000  0.2180240E+03  0.7818608E-02  0.1135365E+00
         21   -1    0    0  501  502  0.00000000000E+00  0.00000000000E+00  0.40535892737E+03  0.40535892737E+03  0.00000000000E+00 0.  1.
         21   -1    0    0  502  503 -0.00000000000E+00 -0.00000000000E+00 -0.76099438899E+03  0.76099438899E+03  0.00000000000E+00 0. -1.
          6    1    1    2  501    0  0.10621231515E+03  0.81666339730E+02  0.35854803065E+03  0.41963214512E+03  0.17200000000E+03 0.  1.
         -6    1    1    2    0  503 -0.10621231515E+03 -0.81666339730E+02 -0.71418349228E+03  0.74672117124E+03  0.17200000000E+03 0. -1.
</event>
<event>
 4    1  0.4440728E+000  0.1774109E+03  0.7818608E-02  0.1170333E+00
         21   -1    0    0  501  502  0.00000000000E+00  0.00000000000E+00  0.60343263824E+03  0.60343263824E+03  0.00000000000E+00 0.  1.
         21   -1    0    0  502  503 -0.00000000000E+00 -0.00000000000E+00 -0.58430745430E+02  0.58430745430E+02  0.00000000000E+00 0.  1.
          6    1    1    2  501    0 -0.13938543842E+02 -0.41186574724E+02  0.38091906721E+03  0.42020703552E+03  0.17200000000E+03 0.  1.
         -6    1    1    2    0  503  0.13938543842E+02  0.41186574724E+02  0.16408282561E+03  0.24165634815E+03  0.17200000000E+03 0.  1.
</event>
<event>
 4    1  0.4440728E+000  0.1741372E+03  0.7818608E-02  0.1173601E+00
         21   -1    0    0  501  502  0.00000000000E+00  0.00000000000E+00  0.77869862503E+02  0.77869862503E+02  0.00000000000E+00 0. -1.
         21   -1    0    0  502  503 -0.00000000000E+00 -0.00000000000E+00 -0.12243037660E+04  0.12243037660E+04  0.00000000000E+00 0. -1.
          6    1    1    2  501    0 -0.21268575105E+02  0.16953570765E+02 -0.35556196499E+02  0.17773018584E+03  0.17200000000E+03 0. -1.
         -6    1    1    2    0  503  0.21268575105E+02 -0.16953570765E+02 -0.11108777070E+04  0.11244434427E+04  0.17200000000E+03 0. -1.
</event>
<event>
 4    1  0.4440728E+000  0.2188579E+03  0.7818608E-02  0.1134737E+00
         21   -1    0    0  503  502  0.00000000000E+00  0.00000000000E+00  0.46546802645E+02  0.46546802645E+02  0.00000000000E+00 0. -1.
         21   -1    0    0  501  503 -0.00000000000E+00 -0.00000000000E+00 -0.10983557196E+04  0.10983557196E+04  0.00000000000E+00 0. -1.
          6    1    1    2  501    0  0.51288930031E+02 -0.12523675171E+03 -0.38210267755E+03  0.44034220160E+03  0.17200000000E+03 0. -1.
         -6    1    1    2    0  502 -0.51288930031E+02  0.12523675171E+03 -0.66970623943E+03  0.70456032067E+03  0.17200000000E+03 0. -1.
</event>
<event>
 4    1  0.4440728E+000  0.2323106E+03  0.7818608E-02  0.1125024E+00
         21   -1    0    0  503  502  0.00000000000E+00  0.00000000000E+00  0.91511109103E+02  0.91511109103E+02  0.00000000000E+00 0.  1.
         21   -1    0    0  501  503 -0.00000000000E+00 -0.00000000000E+00 -0.60178551138E+03  0.60178551138E+03  0.00000000000E+00 0. -1.
          6    1    1    2  501    0  0.10833551669E+03 -0.11246162345E+03 -0.30417085532E+03  0.38273765186E+03  0.17200000000E+03 0.  1.
         -6    1    1    2    0  502 -0.10833551669E+03  0.11246162345E+03 -0.20610354696E+03  0.31055896863E+03  0.17200000000E+03 0. -1.
</event>
<event>
 4    1  0.4440728E+000  0.3150996E+03  0.7818608E-02  0.1077927E+00
         21   -1    0    0  501  502  0.00000000000E+00  0.00000000000E+00  0.34655282951E+03  0.34655282951E+03  0.00000000000E+00 0. -1.
         21   -1    0    0  502  503 -0.00000000000E+00 -0.00000000000E+00 -0.35893927751E+03  0.35893927751E+03  0.00000000000E+00 0.  1.
          6    1    1    2  501    0  0.14654796255E+02 -0.26360762653E+03  0.15227260554E+03  0.34996384130E+03  0.17200000000E+03 0. -1.
         -6    1    1    2    0  503 -0.14654796255E+02  0.26360762653E+03 -0.16465905353E+03  0.35552826572E+03  0.17200000000E+03 0.  1.
</event>
<event>
 4    1  0.4440728E+000  0.1800910E+03  0.7818608E-02  0.1167715E+00
         21   -1    0    0  503  502  0.00000000000E+00  0.00000000000E+00  0.49578419419E+03  0.49578419419E+03  0.00000000000E+00 0. -1.
         21   -1    0    0  501  503 -0.00000000000E+00 -0.00000000000E+00 -0.11378602664E+03  0.11378602664E+03  0.00000000000E+00 0. -1.
          6    1    1    2  501    0  0.49029548550E+02  0.21091597729E+02 -0.77168148383E+01  0.18025621031E+03  0.17200000000E+03 0. -1.
         -6    1    1    2    0  502 -0.49029548550E+02 -0.21091597729E+02  0.38971498238E+03  0.42931401051E+03  0.17200000000E+03 0. -1.
</event>
<event>
 4    1  0.4440728E+000  0.3484096E+03  0.7818608E-02  0.1063270E+00
         21   -1    0    0  501  502  0.00000000000E+00  0.00000000000E+00  0.61684727807E+03  0.61684727807E+03  0.00000000000E+00 0.  1.
         21   -1    0    0  502  503 -0.00000000000E+00 -0.00000000000E+00 -0.19814482950E+03  0.19814482950E+03  0.00000000000E+00 0. -1.
          6    1    1    2  501    0  0.58524278889E+02  0.29728805519E+03  0.24304886748E+03  0.42480822845E+03  0.17200000000E+03 0.  1.
         -6    1    1    2    0  503 -0.58524278889E+02 -0.29728805519E+03  0.17565358109E+03  0.39018387912E+03  0.17200000000E+03 0.  1.
</event>
<event>
 4    1  0.4440728E+000  0.2424846E+03  0.7818608E-02  0.1118149E+00
         21   -1    0    0  503  502  0.00000000000E+00  0.00000000000E+00  0.98881786535E+03  0.98881786535E+03  0.00000000000E+00 0.  1.
         21   -1    0    0  501  503 -0.00000000000E+00 -0.00000000000E+00 -0.90249714537E+02  0.90249714537E+02  0.00000000000E+00 0.  1.
          6    1    1    2  501    0  0.12088498560E+03 -0.12083699030E+03  0.13416656007E+03  0.27712708964E+03  0.17200000000E+03 0.  1.
         -6    1    1    2    0  502 -0.12088498560E+03  0.12083699030E+03  0.76440159075E+03  0.80194049025E+03  0.17200000000E+03 0.  1.
</event>
<event>
 4    1  0.4440728E+000  0.3071083E+03  0.7818608E-02  0.1081740E+00
         21   -1    0    0  501  502  0.00000000000E+00  0.00000000000E+00  0.29015164793E+03  0.29015164793E+03  0.00000000000E+00 0. -1.
         21   -1    0    0  502  503 -0.00000000000E+00 -0.00000000000E+00 -0.41837027567E+03  0.41837027567E+03  0.00000000000E+00 0.  1.
          6    1    1    2  501    0  0.39601200336E+02  0.25132306382E+03  0.10319876180E+03  0.32398382971E+03  0.17200000000E+03 0. -1.
         -6    1    1    2    0  503 -0.39601200336E+02 -0.25132306382E+03 -0.23141738954E+03  0.38453809390E+03  0.17200000000E+03 0. -1.
</event>
<event>
 4    1  0.4440728E+000  0.1778071E+03  0.7818608E-02  0.1169942E+00
         21   -1    0    0  501  502  0.00000000000E+00  0.00000000000E+00  0.51839773914E+03  0.51839773914E+03  0.00000000000E+00 0. -1.
         21   -1    0    0  502  503 -0.00000000000E+00 -0.00000000000E+00 -0.69646442184E+02  0.69646442184E+02  0.00000000000E+00 0.  1.
          6    1    1    2  501    0 -0.44050438627E+02  0.95347112077E+01  0.32805295983E+03  0.37314085318E+03  0.17200000000E+03 0. -1.
         -6    1    1    2    0  503  0.44050438627E+02 -0.95347112077E+01  0.12069833713E+03  0.21490332814E+03  0.17200000000E+03 0.  1.
</event>
<event>
 4    1  0.4440728E+000  0.1791528E+03  0.7818608E-02  0.1168625E+00
         21   -1    0    0  503  502  0.00000000000E+00  0.00000000000E+00  0.73336271205E+02  0.73336271205E+02  0.00000000000E+00 0.  1.
         21   -1    0    0  501  503 -0.00000000000E+00 -0.00000000000E+00 -0.44303871052E+03  0.44303871052E+03  0.00000000000E+00 0.  1.
          6    1    1    2  501    0  0.48579680112E+02  0.12318559503E+02 -0.21332168809E+03  0.27857113066E+03  0.17200000000E+03 0.  1.
         -6    1    1    2    0  502 -0.48579680112E+02 -0.12318559503E+02 -0.15638075123E+03  0.23780385107E+03  0.17200000000E+03 0.  1.
</event>
<event>
 4    1  0.4440728E+000  0.2053519E+03  0.7818608E-02  0.1145301E+00
         21   -1    0    0  503  502  0.00000000000E+00  0.00000000000E+00  0.45046241956E+03  0.45046241956E+03  0.00000000000E+00 0. -1.
         21   -1    0    0  501  503 -0.00000000000E+00 -0.00000000000E+00 -0.27916715573E+03  0.27916715573E+03  0.00000000000E+00 0.  1.
          6    1    1    2  501    0  0.10349413841E+03 -0.43293828424E+02 -0.21177564653E+03  0.29498867221E+03  0.17200000000E+03 0.  1.
         -6    1    1    2    0  502 -0.10349413841E+03  0.43293828424E+02  0.38307091036E+03  0.43464090308E+03  0.17200000000E+03 0. -1.
</event>
<event>
 4    1  0.4440728E+000  0.2410158E+03  0.7818608E-02  0.1119118E+00
         21   -1    0    0  503  502  0.00000000000E+00  0.00000000000E+00  0.78502755824E+03  0.78502755824E+03  0.00000000000E+00 0.  1.
         21   -1    0    0  501  503 -0.00000000000E+00 -0.00000000000E+00 -0.77815363781E+02  0.77815363781E+02  0.00000000000E+00 0. -1.
          6    1    1    2  501    0  0.88203117168E+02  0.14396120939E+03  0.25802218014E+03  0.35307798732E+03  0.17200000000E+03 0. -1.
         -6    1    1    2    0  502 -0.88203117168E+02 -0.14396120939E+03  0.44919001432E+03  0.50976493470E+03  0.17200000000E+03 0. -1.
</event>
<event>
 4    1  0.4440728E+000  0.2426130E+03  0.7818608E-02  0.1118064E+00
         21   -1    0    0  501  502  0.00000000000E+00  0.00000000000E+00  0.71608535797E+03  0.71608535797E+03  0.00000000000E+00 0.  1.
         21   -1    0    0  502  503 -0.00000000000E+00 -0.00000000000E+00 -0.82234278418E+02  0.82234278418E+02  0.00000000000E+00 0.  1.
          6    1    1    2  501    0 -0.12835555534E+03  0.11314565600E+03  0.30859083610E+03  0.39254221707E+03  0.17200000000E+03 0.  1.
         -6    1    1    2    0  503  0.12835555534E+03 -0.11314565600E+03  0.32526024346E+03  0.40577741932E+03  0.17200000000E+03 0.  1.
</event>
<event>
 4    1  0.4440728E+000  0.1845119E+03  0.7818608E-02  0.1163506E+00
         21   -1    0    0  503  502  0.00000000000E+00  0.00000000000E+00  0.16008729926E+03  0.16008729926E+03  0.00000000000E+00 0.  1.
         21   -1    0    0  501  503 -0.00000000000E+00 -0.00000000000E+00 -0.30214903671E+03  0.30214903671E+03  0.00000000000E+00 0.  1.
          6    1    1    2  501    0 -0.57926851831E+02 -0.33243281048E+02 -0.19680787661E+03  0.26977393535E+03  0.17200000000E+03 0. -1.
         -6    1    1    2    0  502  0.57926851831E+02  0.33243281048E+02  0.54746139168E+02  0.19246240062E+03  0.17200000000E+03 0. -1.
</event>
<event>
 4    1  0.4440728E+000  0.2143438E+03  0.7818608E-02  0.1138172E+00
         21   -1    0    0  503  502  0.00000000000E+00  0.00000000000E+00  0.23441784808E+02  0.23441784808E+02  0.00000000000E+00 0.  1.
         21   -1    0    0  501  503 -0.00000000000E+00 -0.00000000000E+00 -0.19609432140E+04  0.19609432140E+04  0.00000000000E+00 0.  1.
          6    1    1    2  501    0  0.78486961514E+02 -0.10099030755E+03 -0.94572176713E+03  0.96970763953E+03  0.17200000000E+03 0.  1.
         -6    1    1    2    0  502 -0.78486961514E+02  0.10099030755E+03 -0.99177966209E+03  0.10146773593E+04  0.17200000000E+03 0.  1.
</event>
<event>
 4    1  0.4440728E+000  0.1966885E+03  0.7818608E-02  0.1152563E+00
         21   -1    0    0  501  502  0.00000000000E+00  0.00000000000E+00  0.60747131906E+03  0.60747131906E+03  0.00000000000E+00 0. -1.
         21   -1    0    0  502  503 -0.00000000000E+00 -0.00000000000E+00 -0.75303210131E+02  0.75303210131E+02  0.00000000000E+00 0.  1.
          6    1    1    2  501    0 -0.24286191205E+02 -0.92263543625E+02  0.40018240183E+03  0.44590619563E+03  0.17200000000E+03 0. -1.
         -6    1    1    2    0  503  0.24286191205E+02  0.92263543625E+02  0.13198570709E+03  0.23686833356E+03  0.17200000000E+03 0.  1.
</event>
<event>
 4    1  0.4440728E+000  0.2435385E+03  0.7818608E-02  0.1117458E+00
         21   -1    0    0  501  502  0.00000000000E+00  0.00000000000E+00  0.31346937552E+03  0.31346937552E+03  0.00000000000E+00 0. -1.
         21   -1    0    0  502  503 -0.00000000000E+00 -0.00000000000E+00 -0.20064805938E+03  0.20064805938E+03  0.00000000000E+00 0. -1.
          6    1    1    2  501    0 -0.16125638530E+03  0.61019361993E+02  0.11779035089E+03  0.27052828152E+03  0.17200000000E+03 0. -1.
         -6    1    1    2    0  503  0.16125638530E+03 -0.61019361993E+02 -0.49690347447E+01  0.24358915338E+03  0.17200000000E+03 0. -1.
</event>
<event>
 4    1  0.4440728E+000  0.2041420E+03  0.7818608E-02  0.1146291E+00
         21   -1    0    0  503  502  0.00000000000E+00  0.00000000000E+00  0.54865771634E+02  0.54865771634E+02  0.00000000000E+00 0. -1.
         21   -1    0    0  501  503 -0.00000000000E+00 -0.00000000000E+00 -0.80690839954E+03  0.80690839954E+03  0.00000000000E+00 0.  1.
          6    1    1    2  501    0 -0.76097838303E+02  0.79366746240E+02 -0.27164683433E+03  0.33980283107E+03  0.17200000000E+03 0.  1.
         -6    1    1    2    0  502  0.76097838303E+02 -0.79366746240E+02 -0.48039579358E+03  0.52197134011E+03  0.17200000000E+03 0.  1.
</event>
<event>
 4    1  0.4440728E+000  0.1771188E+03  0.7818608E-02  0.1170621E+00
         21   -1    0    0  501  502  0.00000000000E+00  0.00000000000E+00  0.30792219778E+02  0.30792219778E+02  0.00000000000E+00 0. -1.
         21   -1    0    0  502  503 -0.00000000000E+00 -0.00000000000E+00 -0.13416249174E+04  0.13416249174E+04  0.00000000000E+00 0. -1.
          6    1    1    2  501    0 -0.96448891572E+01  0.41158597560E+02 -0.31880759787E+03  0.36470445363E+03  0.17200000000E+03 0. -1.
         -6    1    1    2    0  503  0.96448891572E+01 -0.41158597560E+02 -0.99202509972E+03  0.10077126835E+04  0.17200000000E+03 0. -1.
</event>
<event>
 4    1  0.4440728E+000  0.2687522E+03  0.7818608E-02  0.1101996E+00
         21   -1    0    0  501  502  0.00000000000E+00  0.00000000000E+00  0.69577605541E+03  0.69577605541E+03  0.00000000000E+00 0.  1.
         21   -1    0    0  502  503 -0.00000000000E+00 -0.00000000000E+00 -0.13217301876E+03  0.13217301876E+03  0.00000000000E+00 0. -1.
          6    1    1    2  501    0 -0.10759277847E+03 -0.17625992913E+03  0.47357415264E+03  0.54451836209E+03  0.17200000000E+03 0. -1.
         -6    1    1    2    0  503  0.10759277847E+03  0.17625992913E+03  0.90028884001E+02  0.28343071208E+03  0.17200000000E+03 0. -1.
</event>
<event>
 4    1  0.4440728E+000  0.2753607E+03  0.7818608E-02  0.1098250E+00
         21   -1    0    0  503  502  0.00000000000E+00  0.00000000000E+00  0.10470659820E+04  0.10470659820E+04  0.00000000000E+00 0. -1.
         21   -1    0    0  501  503 -0.00000000000E+00 -0.00000000000E+00 -0.85567048342E+02  0.85567048342E+02  0.00000000000E+00 0. -1.
          6    1    1    2  501    0  0.12169966773E+03  0.17728142043E+03  0.25872591131E+03  0.37783939490E+03  0.17200000000E+03 0. -1.
         -6    1    1    2    0  502 -0.12169966773E+03 -0.17728142043E+03  0.70277302230E+03  0.75479363539E+03  0.17200000000E+03 0. -1.
</event>
<event>
 4    1  0.4440728E+000  0.2396323E+03  0.7818608E-02  0.1120038E+00
         21   -1    0    0  501  502  0.00000000000E+00  0.00000000000E+00  0.30719098288E+03  0.30719098288E+03  0.00000000000E+00 0. -1.
         21   -1    0    0  502  503 -0.00000000000E+00 -0.00000000000E+00 -0.35249415940E+03  0.35249415940E+03  0.00000000000E+00 0. -1.
          6    1    1    2  501    0 -0.91354761807E+02 -0.13962070628E+03  0.20340236149E+03  0.31431855622E+03  0.17200000000E+03 0. -1.
         -6    1    1    2    0  503  0.91354761807E+02  0.13962070628E+03 -0.24870553801E+03  0.34536658605E+03  0.17200000000E+03 0. -1.
</event>
<event>
 4    1  0.4440728E+000  0.2174793E+03  0.7818608E-02  0.1135776E+00
         21   -1    0    0  503  502  0.00000000000E+00  0.00000000000E+00  0.55108037654E+02  0.55108037654E+02  0.00000000000E+00 0. -1.
         21   -1    0    0  501  503 -0.00000000000E+00 -0.00000000000E+00 -0.26388576399E+04  0.26388576399E+04  0.00000000000E+00 0. -1.
          6    1    1    2  501    0 -0.47375024349E+02 -0.12437389464E+03 -0.23983366914E+04  0.24081769337E+04  0.17200000000E+03 0. -1.
         -6    1    1    2    0  502  0.47375024349E+02  0.12437389464E+03 -0.18541291077E+03  0.28578874380E+03  0.17200000000E+03 0. -1.
</event>
<event>
 4    1  0.4440728E+000  0.2038658E+03  0.7818608E-02  0.1146518E+00
         21   -1    0    0  501  502  0.00000000000E+00  0.00000000000E+00  0.31240469155E+02  0.31240469155E+02  0.00000000000E+00 0.  1.
         21   -1    0    0  502  503 -0.00000000000E+00 -0.00000000000E+00 -0.15406302493E+04  0.15406302493E+04  0.00000000000E+00 0.  1.
          6    1    1    2  501    0  0.10670214416E+03  0.24329080091E+02 -0.46434575015E+03  0.50712742717E+03  0.17200000000E+03 0.  1.
         -6    1    1    2    0  503 -0.10670214416E+03 -0.24329080091E+02 -0.10450440300E+04  0.10647432913E+04  0.17200000000E+03 0.  1.
</event>
