<event>
 4    1 -0.6483339E-004  0.2406635E+03  0.7818608E-02  0.1119352E+00
          5   -1    0    0  501    0  0.00000000000E+00  0.00000000000E+00  0.14181381985E+04  0.14181459869E+04  0.47000000000E+01 0. -1.
         -5   -1    0    0    0  501 -0.00000000000E+00 -0.00000000000E+00 -0.42370239119E+02  0.42630120373E+02  0.47000000000E+01 0.  1.
          6    1    1    2  502    0 -0.18702311641E+02 -0.16728757623E+03  0.83250451323E+03  0.86659256527E+03  0.17200000000E+03 0. -1.
         -6    1    1    2    0  502  0.18702311641E+02  0.16728757623E+03  0.54326344616E+03  0.59418354198E+03  0.17200000000E+03 0.  1.
</event>
<event>
 4    1 -0.6483339E-004  0.2034141E+03  0.7818608E-02  0.1146890E+00
         -5   -1    0    0    0  501 -0.00000000000E+00  0.00000000000E+00  0.21804122927E+03  0.21809187894E+03  0.47000000000E+01 0.  1.
          5   -1    0    0  501    0  0.00000000000E+00 -0.00000000000E+00 -0.32187521731E+03  0.32190953002E+03  0.47000000000E+01 0. -1.
          6    1    1    2  502    0  0.10138621917E+02  0.10812259559E+03 -0.22493288562E+03  0.30326900660E+03  0.17200000000E+03 0. -1.
         -6    1    1    2    0  502 -0.10138621917E+02 -0.10812259559E+03  0.12109889758E+03  0.23673240236E+03  0.17200000000E+03 0.  1.
</event>
<event>
 4    1 -0.6483339E-004  0.2203023E+03  0.7818608E-02  0.1133658E+00
         -5   -1    0    0    0  501 -0.00000000000E+00  0.00000000000E+00  0.18436951788E+03  0.18442941502E+03  0.47000000000E+01 0.  1.
          5   -1    0    0  501    0  0.00000000000E+00 -0.00000000000E+00 -0.30543696361E+03  0.30547312278E+03  0.47000000000E+01 0. -1.
          6    1    1    2  502    0  0.10635818850E+03  0.87390133960E+02 -0.15169989413E+03  0.26748076128E+03  0.17200000000E+03 0. -1.
         -6    1    1    2    0  502 -0.10635818850E+03 -0.87390133960E+02  0.30632448392E+02  0.22242177652E+03  0.17200000000E+03 0.  1.
</event>
<event>
 4    1 -0.6483339E-004  0.2228776E+03  0.7818608E-02  0.1131756E+00
         -5   -1    0    0    0  501 -0.00000000000E+00  0.00000000000E+00  0.19705465493E+03  0.19711069740E+03  0.47000000000E+01 0.  1.
          5   -1    0    0  501    0  0.00000000000E+00 -0.00000000000E+00 -0.30036585002E+03  0.30040261959E+03  0.47000000000E+01 0. -1.
          6    1    1    2  502    0 -0.13290182236E+03 -0.49270143655E+02 -0.15149002424E+03  0.26948778986E+03  0.17200000000E+03 0. -1.
         -6    1    1    2    0  502  0.13290182236E+03  0.49270143655E+02  0.48178829146E+02  0.22802552712E+03  0.17200000000E+03 0.  1.
</event>
<event>
 4    1 -0.6483339E-004  0.2689044E+03  0.7818608E-02  0.1101908E+00
         -5   -1    0    0    0  501 -0.00000000000E+00  0.00000000000E+00  0.13430615905E+03  0.13438837137E+03  0.47000000000E+01 0.  1.
          5   -1    0    0  501    0  0.00000000000E+00 -0.00000000000E+00 -0.90925156486E+03  0.90926371214E+03  0.47000000000E+01 0. -1.
          6    1    1    2  502    0 -0.20555815882E+03  0.21712415068E+02 -0.72083348105E+03  0.76935719469E+03  0.17200000000E+03 0. -1.
         -6    1    1    2    0  502  0.20555815882E+03 -0.21712415068E+02 -0.54111924768E+02  0.27429488881E+03  0.17200000000E+03 0.  1.
</event>
<event>
 4    1 -0.6483339E-004  0.2201280E+03  0.7818608E-02  0.1133788E+00
          5   -1    0    0  501    0  0.00000000000E+00  0.00000000000E+00  0.72982842961E+02  0.73134023318E+02  0.47000000000E+01 0. -1.
         -5   -1    0    0    0  501 -0.00000000000E+00 -0.00000000000E+00 -0.69663188881E+03  0.69664774349E+03  0.47000000000E+01 0.  1.
          6    1    1    2  502    0  0.26953877676E+02  0.13470639982E+03 -0.39626409838E+03  0.45330074050E+03  0.17200000000E+03 0.  1.
         -6    1    1    2    0  502 -0.26953877676E+02 -0.13470639982E+03 -0.22738494746E+03  0.31648102630E+03  0.17200000000E+03 0. -1.
</event>
<event>
 4    1 -0.6483339E-004  0.4140724E+03  0.7818608E-02  0.1039013E+00
         -5   -1    0    0    0  501 -0.00000000000E+00  0.00000000000E+00  0.26198545975E+03  0.26202761518E+03  0.47000000000E+01 0.  1.
          5   -1    0    0  501    0  0.00000000000E+00 -0.00000000000E+00 -0.65668913632E+03  0.65670595533E+03  0.47000000000E+01 0. -1.
          6    1    1    2  502    0 -0.36729722756E+03  0.83454882543E+02 -0.16990861551E+03  0.44757670674E+03  0.17200000000E+03 0. -1.
         -6    1    1    2    0  502  0.36729722756E+03 -0.83454882543E+02 -0.22479506107E+03  0.47115686377E+03  0.17200000000E+03 0. -1.
</event>
<event>
 4    1 -0.6483339E-004  0.2642748E+03  0.7818608E-02  0.1104602E+00
          5   -1    0    0  501    0  0.00000000000E+00  0.00000000000E+00  0.54329264081E+02  0.54532182568E+02  0.47000000000E+01 0. -1.
         -5   -1    0    0    0  501 -0.00000000000E+00 -0.00000000000E+00 -0.13869778803E+04  0.13869858436E+04  0.47000000000E+01 0.  1.
          6    1    1    2  502    0 -0.16933514071E+03  0.10762336189E+03 -0.46891221922E+03  0.53825630255E+03  0.17200000000E+03 0. -1.
         -6    1    1    2    0  502  0.16933514071E+03 -0.10762336189E+03 -0.86373639701E+03  0.90326172366E+03  0.17200000000E+03 0.  1.
</event>
<event>
 4    1 -0.6483339E-004  0.2209309E+03  0.7818608E-02  0.1133191E+00
         -5   -1    0    0    0  501 -0.00000000000E+00  0.00000000000E+00  0.30312008700E+03  0.30315652252E+03  0.47000000000E+01 0.  1.
          5   -1    0    0  501    0  0.00000000000E+00 -0.00000000000E+00 -0.18694518124E+03  0.18700425340E+03  0.47000000000E+01 0. -1.
          6    1    1    2  502    0 -0.12950694965E+03 -0.49541988668E+02 -0.33284224707E+02  0.22342403242E+03  0.17200000000E+03 0. -1.
         -6    1    1    2    0  502  0.12950694965E+03  0.49541988668E+02  0.14945913047E+03  0.26673674349E+03  0.17200000000E+03 0.  1.
</event>
<event>
 4    1 -0.6483339E-004  0.2778434E+03  0.7818608E-02  0.1096873E+00
         -5   -1    0    0    0  501 -0.00000000000E+00  0.00000000000E+00  0.31927855723E+03  0.31931314897E+03  0.47000000000E+01 0.  1.
          5   -1    0    0  501    0  0.00000000000E+00 -0.00000000000E+00 -0.24199339887E+03  0.24203903631E+03  0.47000000000E+01 0. -1.
          6    1    1    2  502    0  0.12290116637E+03  0.18030049538E+03  0.29125673222E+02  0.27936583572E+03  0.17200000000E+03 0. -1.
         -6    1    1    2    0  502 -0.12290116637E+03 -0.18030049538E+03  0.48159485141E+02  0.28198634956E+03  0.17200000000E+03 0. -1.
</event>
<event>
 4    1 -0.6483339E-004  0.2268568E+03  0.7818608E-02  0.1128872E+00
         -5   -1    0    0    0  501 -0.00000000000E+00  0.00000000000E+00  0.37458166805E+03  0.37461115312E+03  0.47000000000E+01 0.  1.
          5   -1    0    0  501    0  0.00000000000E+00 -0.00000000000E+00 -0.13874561572E+03  0.13882519901E+03  0.47000000000E+01 0. -1.
          6    1    1    2  502    0  0.41815810797E+02  0.14188530449E+03  0.91864855261E+02  0.24475120694E+03  0.17200000000E+03 0.  1.
         -6    1    1    2    0  502 -0.41815810797E+02 -0.14188530449E+03  0.14397119707E+03  0.26868514520E+03  0.17200000000E+03 0. -1.
</event>
<event>
 4    1 -0.6483339E-004  0.4191264E+03  0.7818608E-02  0.1037351E+00
          5   -1    0    0  501    0  0.00000000000E+00  0.00000000000E+00  0.98906963432E+03  0.98908080132E+03  0.47000000000E+01 0. -1.
         -5   -1    0    0    0  501 -0.00000000000E+00 -0.00000000000E+00 -0.19124310977E+03  0.19130085477E+03  0.47000000000E+01 0.  1.
          6    1    1    2  502    0  0.34497803618E+01 -0.38219243117E+03  0.55672221284E+03  0.69685477519E+03  0.17200000000E+03 0. -1.
         -6    1    1    2    0  502 -0.34497803618E+01  0.38219243117E+03  0.24110431171E+03  0.48352688090E+03  0.17200000000E+03 0.  1.
</event>
<event>
 4    1 -0.6483339E-004  0.1837234E+03  0.7818608E-02  0.1164247E+00
         -5   -1    0    0    0  501 -0.00000000000E+00  0.00000000000E+00  0.57548592359E+03  0.57550511575E+03  0.47000000000E+01 0.  1.
          5   -1    0    0  501    0  0.00000000000E+00 -0.00000000000E+00 -0.67775209910E+02  0.67937979645E+02  0.47000000000E+01 0. -1.
          6    1    1    2  502    0  0.58894946030E+02 -0.26489202263E+02  0.37244967938E+03  0.41529875533E+03  0.17200000000E+03 0. -1.
         -6    1    1    2    0  502 -0.58894946030E+02  0.26489202263E+02  0.13526103430E+03  0.22814434007E+03  0.17200000000E+03 0. -1.
</event>
<event>
 4    1 -0.6483339E-004  0.3546391E+03  0.7818608E-02  0.1060727E+00
          5   -1    0    0  501    0  0.00000000000E+00  0.00000000000E+00  0.21191114926E+03  0.21196326376E+03  0.47000000000E+01 0. -1.
         -5   -1    0    0    0  501 -0.00000000000E+00 -0.00000000000E+00 -0.66311401981E+03  0.66313067586E+03  0.47000000000E+01 0.  1.
          6    1    1    2  502    0 -0.10618711854E+03 -0.29139180219E+03 -0.83702058635E+02  0.36438293202E+03  0.17200000000E+03 0. -1.
         -6    1    1    2    0  502  0.10618711854E+03  0.29139180219E+03 -0.36750081191E+03  0.51071100760E+03  0.17200000000E+03 0.  1.
</event>
<event>
 4    1 -0.6483339E-004  0.2458870E+03  0.7818608E-02  0.1115932E+00
         -5   -1    0    0    0  501 -0.00000000000E+00  0.00000000000E+00  0.52942632581E+03  0.52944718760E+03  0.47000000000E+01 0.  1.
          5   -1    0    0  501    0  0.00000000000E+00 -0.00000000000E+00 -0.16153047252E+03  0.16159883525E+03  0.47000000000E+01 0. -1.
          6    1    1    2  502    0  0.16722639114E+03 -0.53960479654E+02 -0.31675172788E+01  0.24590736554E+03  0.17200000000E+03 0.  1.
         -6    1    1    2    0  502 -0.16722639114E+03  0.53960479654E+02  0.37106337057E+03  0.44513865731E+03  0.17200000000E+03 0.  1.
</event>
<event>
 4    1 -0.6483339E-004  0.2185054E+03  0.7818608E-02  0.1135002E+00
          5   -1    0    0  501    0  0.00000000000E+00  0.00000000000E+00  0.18838078391E+03  0.18843940603E+03  0.47000000000E+01 0. -1.
         -5   -1    0    0    0  501 -0.00000000000E+00 -0.00000000000E+00 -0.31193269186E+03  0.31196809813E+03  0.47000000000E+01 0.  1.
          6    1    1    2  502    0 -0.24796777961E+02 -0.13246025965E+03  0.46657506484E+02  0.22343125004E+03  0.17200000000E+03 0. -1.
         -6    1    1    2    0  502  0.24796777961E+02  0.13246025965E+03 -0.17020941444E+03  0.27697625412E+03  0.17200000000E+03 0. -1.
</event>
<event>
 4    1 -0.6483339E-004  0.1931784E+03  0.7818608E-02  0.1155625E+00
         -5   -1    0    0    0  501 -0.00000000000E+00  0.00000000000E+00  0.53507184263E+03  0.53509248432E+03  0.47000000000E+01 0.  1.
          5   -1    0    0  501    0  0.00000000000E+00 -0.00000000000E+00 -0.12120641274E+03  0.12129750405E+03  0.47000000000E+01 0. -1.
          6    1    1    2  502    0  0.96812487112E+01  0.87408007758E+02 -0.70022372010E+01  0.19330524494E+03  0.17200000000E+03 0. -1.
         -6    1    1    2    0  502 -0.96812487112E+01 -0.87408007758E+02  0.42086766708E+03  0.46308474343E+03  0.17200000000E+03 0.  1.
</event>
<event>
 4    1 -0.6483339E-004  0.4735741E+03  0.7818608E-02  0.1020916E+00
          5   -1    0    0  501    0  0.00000000000E+00  0.00000000000E+00  0.21516968594E+03  0.21522101140E+03  0.47000000000E+01 0. -1.
         -5   -1    0    0    0  501 -0.00000000000E+00 -0.00000000000E+00 -0.15389170442E+04  0.15389242213E+04  0.47000000000E+01 0.  1.
          6    1    1    2  502    0  0.70455730068E+02  0.43557368550E+03 -0.16355500940E+03  0.50102164274E+03  0.17200000000E+03 0. -1.
         -6    1    1    2    0  502 -0.70455730068E+02 -0.43557368550E+03 -0.11601923488E+04  0.12531235900E+04  0.17200000000E+03 0.  1.
</event>
<event>
 4    1 -0.6483339E-004  0.2724711E+03  0.7818608E-02  0.1099874E+00
         -5   -1    0    0    0  501 -0.00000000000E+00  0.00000000000E+00  0.73432244709E+03  0.73433748802E+03  0.47000000000E+01 0.  1.
          5   -1    0    0  501    0  0.00000000000E+00 -0.00000000000E+00 -0.10409221796E+03  0.10419827177E+03  0.47000000000E+01 0. -1.
          6    1    1    2  502    0 -0.15382698784E+03  0.14489216383E+03  0.38698524612E+03  0.47328433530E+03  0.17200000000E+03 0. -1.
         -6    1    1    2    0  502  0.15382698784E+03 -0.14489216383E+03  0.24324498302E+03  0.36525142449E+03  0.17200000000E+03 0. -1.
</event>
<event>
 4    1 -0.6483339E-004  0.2594107E+03  0.7818608E-02  0.1107498E+00
          5   -1    0    0  501    0  0.00000000000E+00  0.00000000000E+00  0.93619762190E+02  0.93737665175E+02  0.47000000000E+01 0. -1.
         -5   -1    0    0    0  501 -0.00000000000E+00 -0.00000000000E+00 -0.14988072262E+04  0.14988145953E+04  0.47000000000E+01 0.  1.
          6    1    1    2  502    0  0.11998685479E+03  0.15268623204E+03 -0.12797194606E+03  0.28925896659E+03  0.17200000000E+03 0. -1.
         -6    1    1    2    0  502 -0.11998685479E+03 -0.15268623204E+03 -0.12772155179E+04  0.13032932939E+04  0.17200000000E+03 0.  1.
</event>
<event>
 4    1 -0.6483339E-004  0.2800544E+03  0.7818608E-02  0.1095659E+00
          5   -1    0    0  501    0  0.00000000000E+00  0.00000000000E+00  0.16039788282E+03  0.16046672806E+03  0.47000000000E+01 0. -1.
         -5   -1    0    0    0  501 -0.00000000000E+00 -0.00000000000E+00 -0.52277522275E+03  0.52279634995E+03  0.47000000000E+01 0.  1.
          6    1    1    2  502    0  0.97521478886E+02 -0.19833306717E+03 -0.94089778249E+02  0.29543752427E+03  0.17200000000E+03 0. -1.
         -6    1    1    2    0  502 -0.97521478886E+02  0.19833306717E+03 -0.26828756168E+03  0.38782555374E+03  0.17200000000E+03 0. -1.
</event>
<event>
 4    1 -0.6483339E-004  0.2366907E+03  0.7818608E-02  0.1122017E+00
          5   -1    0    0  501    0  0.00000000000E+00  0.00000000000E+00  0.24239719037E+03  0.24244275179E+03  0.47000000000E+01 0. -1.
         -5   -1    0    0    0  501 -0.00000000000E+00 -0.00000000000E+00 -0.36812419555E+03  0.36815419779E+03  0.47000000000E+01 0.  1.
          6    1    1    2  502    0  0.15913551032E+03 -0.33382374450E+02  0.12342724929E+03  0.26693965505E+03  0.17200000000E+03 0. -1.
         -6    1    1    2    0  502 -0.15913551032E+03  0.33382374450E+02 -0.24915425447E+03  0.34365729454E+03  0.17200000000E+03 0.  1.
</event>
<event>
 4    1 -0.6483339E-004  0.2450048E+03  0.7818608E-02  0.1116503E+00
         -5   -1    0    0    0  501 -0.00000000000E+00  0.00000000000E+00  0.13669767781E+03  0.13677845268E+03  0.47000000000E+01 0.  1.
          5   -1    0    0  501    0  0.00000000000E+00 -0.00000000000E+00 -0.57195644538E+03  0.57197575596E+03  0.47000000000E+01 0. -1.
          6    1    1    2  502    0  0.96117255004E+02  0.14561882691E+03 -0.38853638061E+03  0.45933417957E+03  0.17200000000E+03 0. -1.
         -6    1    1    2    0  502 -0.96117255004E+02 -0.14561882691E+03 -0.46722386962E+02  0.24942002908E+03  0.17200000000E+03 0.  1.
</event>
<event>
 4    1 -0.6483339E-004  0.2398954E+03  0.7818608E-02  0.1119862E+00
         -5   -1    0    0    0  501 -0.00000000000E+00  0.00000000000E+00  0.13336475575E+04  0.13336558392E+04  0.47000000000E+01 0.  1.
          5   -1    0    0  501    0  0.00000000000E+00 -0.00000000000E+00 -0.43140768248E+02  0.43396035361E+02  0.47000000000E+01 0. -1.
          6    1    1    2  502    0 -0.51398414901E+02  0.15913525440E+03  0.68220076011E+03  0.72315123131E+03  0.17200000000E+03 0.  1.
         -6    1    1    2    0  502  0.51398414901E+02 -0.15913525440E+03  0.60830602910E+03  0.65390064329E+03  0.17200000000E+03 0.  1.
</event>
<event>
 4    1 -0.6483339E-004  0.2802325E+03  0.7818608E-02  0.1095562E+00
          5   -1    0    0  501    0  0.00000000000E+00  0.00000000000E+00  0.23098574822E+03  0.23103356007E+03  0.47000000000E+01 0. -1.
         -5   -1    0    0    0  501 -0.00000000000E+00 -0.00000000000E+00 -0.48365569153E+03  0.48367852748E+03  0.47000000000E+01 0.  1.
          6    1    1    2  502    0  0.22079392523E+03  0.14011422831E+02  0.68488988179E+02  0.28848053468E+03  0.17200000000E+03 0. -1.
         -6    1    1    2    0  502 -0.22079392523E+03 -0.14011422831E+02 -0.32115893149E+03  0.42623155287E+03  0.17200000000E+03 0.  1.
</event>
<event>
 4    1 -0.6483339E-004  0.1751077E+03  0.7818608E-02  0.1172624E+00
         -5   -1    0    0    0  501 -0.00000000000E+00  0.00000000000E+00  0.16582850759E+03  0.16589509917E+03  0.47000000000E+01 0.  1.
          5   -1    0    0  501    0  0.00000000000E+00 -0.00000000000E+00 -0.18941020266E+03  0.18946850628E+03  0.47000000000E+01 0. -1.
          6    1    1    2  502    0 -0.26863236886E+02  0.18896542752E+02  0.16002817357E+02  0.17583743341E+03  0.17200000000E+03 0.  1.
         -6    1    1    2    0  502  0.26863236886E+02 -0.18896542752E+02 -0.39584512424E+02  0.17952617204E+03  0.17200000000E+03 0. -1.
</event>
<event>
 4    1 -0.6483339E-004  0.2055989E+03  0.7818608E-02  0.1145099E+00
          5   -1    0    0  501    0  0.00000000000E+00  0.00000000000E+00  0.35574154368E+02  0.35883289412E+02  0.47000000000E+01 0. -1.
         -5   -1    0    0    0  501 -0.00000000000E+00 -0.00000000000E+00 -0.11829277028E+04  0.11829370398E+04  0.47000000000E+01 0.  1.
          6    1    1    2  502    0  0.10801656838E+03  0.31927151406E+02 -0.58016047291E+03  0.61551368495E+03  0.17200000000E+03 0. -1.
         -6    1    1    2    0  502 -0.10801656838E+03 -0.31927151406E+02 -0.56719307552E+03  0.60330664422E+03  0.17200000000E+03 0. -1.
</event>
<event>
 4    1 -0.6483339E-004  0.1924330E+03  0.7818608E-02  0.1156285E+00
         -5   -1    0    0    0  501 -0.00000000000E+00  0.00000000000E+00  0.13173782033E+04  0.13173865874E+04  0.47000000000E+01 0.  1.
          5   -1    0    0  501    0  0.00000000000E+00 -0.00000000000E+00 -0.28368080382E+02  0.28754790637E+02  0.47000000000E+01 0. -1.
          6    1    1    2  502    0 -0.80657047328E+02  0.30674180207E+02  0.55903492371E+03  0.59122796834E+03  0.17200000000E+03 0.  1.
         -6    1    1    2    0  502  0.80657047328E+02 -0.30674180207E+02  0.72997519925E+03  0.75491340970E+03  0.17200000000E+03 0. -1.
</event>
<event>
 4    1 -0.6483339E-004  0.2877235E+03  0.7818608E-02  0.1091544E+00
          5   -1    0    0  501    0  0.00000000000E+00  0.00000000000E+00  0.20404143804E+04  0.20404197935E+04  0.47000000000E+01 0. -1.
         -5   -1    0    0    0  501 -0.00000000000E+00 -0.00000000000E+00 -0.58880467608E+02  0.59067753180E+02  0.47000000000E+01 0.  1.
          6    1    1    2  502    0 -0.23002402042E+03 -0.17023149380E+02  0.15772080208E+04  0.16032373432E+04  0.17200000000E+03 0. -1.
         -6    1    1    2    0  502  0.23002402042E+03  0.17023149380E+02  0.40432589200E+03  0.49625020355E+03  0.17200000000E+03 0.  1.
</event>
<event>
 4    1 -0.6483339E-004  0.2512779E+03  0.7818608E-02  0.1112500E+00
          5   -1    0    0  501    0  0.00000000000E+00  0.00000000000E+00  0.83268511980E+03  0.83269838401E+03  0.47000000000E+01 0. -1.
         -5   -1    0    0    0  501 -0.00000000000E+00 -0.00000000000E+00 -0.12448428667E+03  0.12457298113E+03  0.47000000000E+01 0.  1.
          6    1    1    2  502    0 -0.18022816591E+03  0.32778277175E+02  0.65344937534E+03  0.70009763131E+03  0.17200000000E+03 0. -1.
         -6    1    1    2    0  502  0.18022816591E+03 -0.32778277175E+02  0.54751457794E+02  0.25717373383E+03  0.17200000000E+03 0.  1.
</event>
<event>
 4    1 -0.6483339E-004  0.1980221E+03  0.7818608E-02  0.1151419E+00
         -5   -1    0    0    0  501 -0.00000000000E+00  0.00000000000E+00  0.42867193650E+03  0.42869770135E+03  0.47000000000E+01 0.  1.
          5   -1    0    0  501    0  0.00000000000E+00 -0.00000000000E+00 -0.10524813014E+03  0.10535302036E+03  0.47000000000E+01 0. -1.
          6    1    1    2  502    0  0.97349070327E+02  0.12324645227E+02  0.64867615279E+02  0.20837597243E+03  0.17200000000E+03 0. -1.
         -6    1    1    2    0  502 -0.97349070327E+02 -0.12324645227E+02  0.25855619108E+03  0.32567474928E+03  0.17200000000E+03 0.  1.
</event>
<event>
 4    1 -0.6483339E-004  0.2362387E+03  0.7818608E-02  0.1122324E+00
          5   -1    0    0  501    0  0.00000000000E+00  0.00000000000E+00  0.31560025766E+03  0.31563525252E+03  0.47000000000E+01 0. -1.
         -5   -1    0    0    0  501 -0.00000000000E+00 -0.00000000000E+00 -0.20490587835E+03  0.20495977406E+03  0.47000000000E+01 0.  1.
          6    1    1    2  502    0 -0.16118771385E+03  0.15596460171E+02  0.15180120520E+03  0.28080657856E+03  0.17200000000E+03 0. -1.
         -6    1    1    2    0  502  0.16118771385E+03 -0.15596460171E+02 -0.41106825887E+02  0.23978844801E+03  0.17200000000E+03 0.  1.
</event>
<event>
 4    1 -0.6483339E-004  0.1781953E+03  0.7818608E-02  0.1169561E+00
          5   -1    0    0  501    0  0.00000000000E+00  0.00000000000E+00  0.29348192903E+03  0.29351956097E+03  0.47000000000E+01 0. -1.
         -5   -1    0    0    0  501 -0.00000000000E+00 -0.00000000000E+00 -0.11672172198E+03  0.11681631043E+03  0.47000000000E+01 0.  1.
          6    1    1    2  502    0  0.33548884611E+02 -0.32311413549E+02  0.14410764705E+03  0.22917366568E+03  0.17200000000E+03 0.  1.
         -6    1    1    2    0  502 -0.33548884611E+02  0.32311413549E+02  0.32652560007E+02  0.18116220571E+03  0.17200000000E+03 0.  1.
</event>
<event>
 4    1 -0.6483339E-004  0.1765387E+03  0.7818608E-02  0.1171196E+00
          5   -1    0    0  501    0  0.00000000000E+00  0.00000000000E+00  0.11354129787E+03  0.11363853361E+03  0.47000000000E+01 0. -1.
         -5   -1    0    0    0  501 -0.00000000000E+00 -0.00000000000E+00 -0.32218937938E+03  0.32222365864E+03  0.47000000000E+01 0.  1.
          6    1    1    2  502    0  0.39427796135E+02  0.52306659623E+01 -0.18836625206E+03  0.25816226659E+03  0.17200000000E+03 0.  1.
         -6    1    1    2    0  502 -0.39427796135E+02 -0.52306659623E+01 -0.20281829451E+02  0.17769992566E+03  0.17200000000E+03 0. -1.
</event>
<event>
 4    1 -0.6483339E-004  0.1836808E+03  0.7818608E-02  0.1164288E+00
          5   -1    0    0  501    0  0.00000000000E+00  0.00000000000E+00  0.39033199460E+03  0.39036029000E+03  0.47000000000E+01 0. -1.
         -5   -1    0    0    0  501 -0.00000000000E+00 -0.00000000000E+00 -0.19707221947E+03  0.19712825695E+03  0.47000000000E+01 0.  1.
          6    1    1    2  502    0 -0.36432848969E+02 -0.53172090796E+02  0.31675041220E+03  0.36615494992E+03  0.17200000000E+03 0. -1.
         -6    1    1    2    0  502  0.36432848969E+02  0.53172090796E+02 -0.12349063708E+03  0.22133359702E+03  0.17200000000E+03 0.  1.
</event>
<event>
 4    1 -0.6483339E-004  0.1966995E+03  0.7818608E-02  0.1152554E+00
          5   -1    0    0  501    0  0.00000000000E+00  0.00000000000E+00  0.91728692359E+02  0.91849022869E+02  0.47000000000E+01 0. -1.
         -5   -1    0    0    0  501 -0.00000000000E+00 -0.00000000000E+00 -0.45003151983E+03  0.45005606189E+03  0.47000000000E+01 0.  1.
          6    1    1    2  502    0 -0.89216043156E+02  0.33869975245E+02 -0.24750148220E+03  0.31614500039E+03  0.17200000000E+03 0. -1.
         -6    1    1    2    0  502  0.89216043156E+02 -0.33869975245E+02 -0.11080134527E+03  0.22576008437E+03  0.17200000000E+03 0.  1.
</event>
<event>
 4    1 -0.6483339E-004  0.2623568E+03  0.7818608E-02  0.1105735E+00
         -5   -1    0    0    0  501 -0.00000000000E+00  0.00000000000E+00  0.94201656544E+02  0.94318832137E+02  0.47000000000E+01 0.  1.
          5   -1    0    0  501    0  0.00000000000E+00 -0.00000000000E+00 -0.91637029005E+03  0.91638234296E+03  0.47000000000E+01 0. -1.
          6    1    1    2  502    0  0.16595939191E+03 -0.10818767921E+03 -0.18326059715E+03  0.32002428058E+03  0.17200000000E+03 0. -1.
         -6    1    1    2    0  502 -0.16595939191E+03  0.10818767921E+03 -0.63890803635E+03  0.69067689451E+03  0.17200000000E+03 0. -1.
</event>
<event>
 4    1 -0.6483339E-004  0.1920377E+03  0.7818608E-02  0.1156636E+00
          5   -1    0    0  501    0  0.00000000000E+00  0.00000000000E+00  0.46051018417E+03  0.46053416782E+03  0.47000000000E+01 0. -1.
         -5   -1    0    0    0  501 -0.00000000000E+00 -0.00000000000E+00 -0.15274530338E+03  0.15281759619E+03  0.47000000000E+01 0.  1.
          6    1    1    2  502    0 -0.29104436331E+02  0.80295859398E+02  0.36545248613E+03  0.41283654498E+03  0.17200000000E+03 0. -1.
         -6    1    1    2    0  502  0.29104436331E+02 -0.80295859398E+02 -0.57687605343E+02  0.20051521903E+03  0.17200000000E+03 0.  1.
</event>
<event>
 4    1 -0.6483339E-004  0.2092586E+03  0.7818608E-02  0.1142154E+00
         -5   -1    0    0    0  501 -0.00000000000E+00  0.00000000000E+00  0.71512961849E+02  0.71667242953E+02  0.47000000000E+01 0.  1.
          5   -1    0    0  501    0  0.00000000000E+00 -0.00000000000E+00 -0.63227486535E+03  0.63229233378E+03  0.47000000000E+01 0. -1.
          6    1    1    2  502    0  0.66134318868E+02  0.99153482877E+02 -0.34417160580E+03  0.40279430922E+03  0.17200000000E+03 0.  1.
         -6    1    1    2    0  502 -0.66134318868E+02 -0.99153482877E+02 -0.21659029771E+03  0.30116526752E+03  0.17200000000E+03 0.  1.
</event>
<event>
 4    1 -0.6483339E-004  0.2777669E+03  0.7818608E-02  0.1096915E+00
         -5   -1    0    0    0  501 -0.00000000000E+00  0.00000000000E+00  0.17998852582E+03  0.18004988039E+03  0.47000000000E+01 0.  1.
          5   -1    0    0  501    0  0.00000000000E+00 -0.00000000000E+00 -0.71420171948E+03  0.71421718413E+03  0.47000000000E+01 0. -1.
          6    1    1    2  502    0 -0.21778989196E+03  0.11748232026E+02 -0.54988497901E+03  0.61605839669E+03  0.17200000000E+03 0. -1.
         -6    1    1    2    0  502  0.21778989196E+03 -0.11748232026E+02  0.15671785354E+02  0.27820866782E+03  0.17200000000E+03 0.  1.
</event>
<event>
 4    1 -0.6483339E-004  0.1875541E+03  0.7818608E-02  0.1160686E+00
          5   -1    0    0  501    0  0.00000000000E+00  0.00000000000E+00  0.73753888192E+02  0.73903491281E+02  0.47000000000E+01 0. -1.
         -5   -1    0    0    0  501 -0.00000000000E+00 -0.00000000000E+00 -0.75534153815E+03  0.75535616053E+03  0.47000000000E+01 0.  1.
          6    1    1    2  502    0 -0.65009429766E+02 -0.36963856810E+02 -0.88809018209E+02  0.20751769656E+03  0.17200000000E+03 0. -1.
         -6    1    1    2    0  502  0.65009429766E+02  0.36963856810E+02 -0.59277863175E+03  0.62174195526E+03  0.17200000000E+03 0.  1.
</event>
<event>
 4    1 -0.6483339E-004  0.2426701E+03  0.7818608E-02  0.1118027E+00
          5   -1    0    0  501    0  0.00000000000E+00  0.00000000000E+00  0.11172690758E+03  0.11182572100E+03  0.47000000000E+01 0. -1.
         -5   -1    0    0    0  501 -0.00000000000E+00 -0.00000000000E+00 -0.10368739520E+04  0.10368846041E+04  0.47000000000E+01 0.  1.
          6    1    1    2  502    0  0.16723671787E+03  0.36560462139E+02 -0.59728959070E+02  0.24991265623E+03  0.17200000000E+03 0. -1.
         -6    1    1    2    0  502 -0.16723671787E+03 -0.36560462139E+02 -0.86541808533E+03  0.89879766889E+03  0.17200000000E+03 0.  1.
</event>
<event>
 4    1 -0.6483339E-004  0.3514979E+03  0.7818608E-02  0.1062002E+00
         -5   -1    0    0    0  501 -0.00000000000E+00  0.00000000000E+00  0.67685183475E+03  0.67686815275E+03  0.47000000000E+01 0.  1.
          5   -1    0    0  501    0  0.00000000000E+00 -0.00000000000E+00 -0.25632630708E+03  0.25636939307E+03  0.47000000000E+01 0. -1.
          6    1    1    2  502    0  0.63165559996E+02 -0.29996147551E+03 -0.40144511719E+02  0.35378292296E+03  0.17200000000E+03 0. -1.
         -6    1    1    2    0  502 -0.63165559996E+02  0.29996147551E+03  0.46067003939E+03  0.57945462286E+03  0.17200000000E+03 0.  1.
</event>
<event>
 4    1 -0.6483339E-004  0.1831536E+03  0.7818608E-02  0.1164785E+00
         -5   -1    0    0    0  501 -0.00000000000E+00  0.00000000000E+00  0.27361740257E+02  0.27762471610E+02  0.47000000000E+01 0.  1.
          5   -1    0    0  501    0  0.00000000000E+00 -0.00000000000E+00 -0.13700756594E+04  0.13700837210E+04  0.47000000000E+01 0. -1.
          6    1    1    2  502    0 -0.52356688423E+02  0.34929014939E+02 -0.43752289637E+03  0.47431165256E+03  0.17200000000E+03 0.  1.
         -6    1    1    2    0  502  0.52356688423E+02 -0.34929014939E+02 -0.90519102277E+03  0.92353454002E+03  0.17200000000E+03 0. -1.
</event>
<event>
 4    1 -0.6483339E-004  0.2080215E+03  0.7818608E-02  0.1143142E+00
          5   -1    0    0  501    0  0.00000000000E+00  0.00000000000E+00  0.40764589318E+03  0.40767298688E+03  0.47000000000E+01 0. -1.
         -5   -1    0    0    0  501 -0.00000000000E+00 -0.00000000000E+00 -0.11154986454E+03  0.11164883465E+03  0.47000000000E+01 0.  1.
          6    1    1    2  502    0  0.10225624609E+03  0.56856099879E+02  0.20556306356E+03  0.29245363574E+03  0.17200000000E+03 0. -1.
         -6    1    1    2    0  502 -0.10225624609E+03 -0.56856099879E+02  0.90532965079E+02  0.22686818579E+03  0.17200000000E+03 0.  1.
</event>
<event>
 4    1 -0.6483339E-004  0.1935916E+03  0.7818608E-02  0.1155261E+00
         -5   -1    0    0    0  501 -0.00000000000E+00  0.00000000000E+00  0.14043301738E+03  0.14051164496E+03  0.47000000000E+01 0.  1.
          5   -1    0    0  501    0  0.00000000000E+00 -0.00000000000E+00 -0.30985723452E+03  0.30989287792E+03  0.47000000000E+01 0. -1.
          6    1    1    2  502    0 -0.73611235392E+02  0.49750241931E+02 -0.68011340411E+00  0.19359277647E+03  0.17200000000E+03 0.  1.
         -6    1    1    2    0  502  0.73611235392E+02 -0.49750241931E+02 -0.16874410373E+03  0.25681174641E+03  0.17200000000E+03 0. -1.
</event>
<event>
 4    1 -0.6483339E-004  0.4901902E+03  0.7818608E-02  0.1016372E+00
         -5   -1    0    0    0  501 -0.00000000000E+00  0.00000000000E+00  0.10764839806E+04  0.10764942408E+04  0.47000000000E+01 0.  1.
          5   -1    0    0  501    0  0.00000000000E+00 -0.00000000000E+00 -0.29543071564E+03  0.29546809936E+03  0.47000000000E+01 0. -1.
          6    1    1    2  502    0  0.45833824762E+03 -0.25069504393E+02  0.51314154105E+02  0.49286871649E+03  0.17200000000E+03 0. -1.
         -6    1    1    2    0  502 -0.45833824762E+03  0.25069504393E+02  0.72973911089E+03  0.87909362371E+03  0.17200000000E+03 0.  1.
</event>
<event>
 4    1 -0.6483339E-004  0.1873795E+03  0.7818608E-02  0.1160846E+00
         -5   -1    0    0    0  501 -0.00000000000E+00  0.00000000000E+00  0.81512903789E+03  0.81514258778E+03  0.47000000000E+01 0.  1.
          5   -1    0    0  501    0  0.00000000000E+00 -0.00000000000E+00 -0.63601705963E+02  0.63775128392E+02  0.47000000000E+01 0. -1.
          6    1    1    2  502    0  0.61845084350E+02 -0.41258317251E+02  0.12568809375E+03  0.22562925367E+03  0.17200000000E+03 0. -1.
         -6    1    1    2    0  502 -0.61845084350E+02  0.41258317251E+02  0.62583923817E+03  0.65328846250E+03  0.17200000000E+03 0.  1.
</event>
<event>
 4    1 -0.6483339E-004  0.1964978E+03  0.7818608E-02  0.1152728E+00
          5   -1    0    0  501    0  0.00000000000E+00  0.00000000000E+00  0.19367088782E+03  0.19372790916E+03  0.47000000000E+01 0. -1.
         -5   -1    0    0    0  501 -0.00000000000E+00 -0.00000000000E+00 -0.34539568363E+03  0.34542765997E+03  0.47000000000E+01 0.  1.
          6    1    1    2  502    0  0.38653949398E+02  0.86794448097E+02  0.99466041766E+02  0.22023827435E+03  0.17200000000E+03 0. -1.
         -6    1    1    2    0  502 -0.38653949398E+02 -0.86794448097E+02 -0.25119083758E+03  0.31891729478E+03  0.17200000000E+03 0.  1.
</event>
<event>
 4    1 -0.6483339E-004  0.1786346E+03  0.7818608E-02  0.1169131E+00
          5   -1    0    0  501    0  0.00000000000E+00  0.00000000000E+00  0.23345135793E+03  0.23349866492E+03  0.47000000000E+01 0. -1.
         -5   -1    0    0    0  501 -0.00000000000E+00 -0.00000000000E+00 -0.18243717110E+03  0.18249770245E+03  0.47000000000E+01 0.  1.
          6    1    1    2  502    0  0.19915840211E+02 -0.43928052664E+02  0.12974586561E+03  0.22078112271E+03  0.17200000000E+03 0. -1.
         -6    1    1    2    0  502 -0.19915840211E+02  0.43928052664E+02 -0.78731678787E+02  0.19521524466E+03  0.17200000000E+03 0.  1.
</event>
<event>
 4    1 -0.6483339E-004  0.2377010E+03  0.7818608E-02  0.1121334E+00
          5   -1    0    0  501    0  0.00000000000E+00  0.00000000000E+00  0.65688289757E+03  0.65689971161E+03  0.47000000000E+01 0. -1.
         -5   -1    0    0    0  501 -0.00000000000E+00 -0.00000000000E+00 -0.11730798515E+03  0.11740210125E+03  0.47000000000E+01 0.  1.
          6    1    1    2  502    0 -0.10633996945E+03  0.12493836261E+03  0.46989901314E+03  0.52659934115E+03  0.17200000000E+03 0. -1.
         -6    1    1    2    0  502  0.10633996945E+03 -0.12493836261E+03  0.69675899286E+02  0.24770247172E+03  0.17200000000E+03 0.  1.
</event>
<event>
 4    1 -0.6483339E-004  0.2452495E+03  0.7818608E-02  0.1116344E+00
          5   -1    0    0  501    0  0.00000000000E+00  0.00000000000E+00  0.52339992774E+03  0.52342102972E+03  0.47000000000E+01 0. -1.
         -5   -1    0    0    0  501 -0.00000000000E+00 -0.00000000000E+00 -0.21527654797E+03  0.21532784795E+03  0.47000000000E+01 0.  1.
          6    1    1    2  502    0  0.52711103848E+02  0.16668792192E+03 -0.98174704431E+02  0.26416963560E+03  0.17200000000E+03 0.  1.
         -6    1    1    2    0  502 -0.52711103848E+02 -0.16668792192E+03  0.40629808421E+03  0.47457924208E+03  0.17200000000E+03 0. -1.
</event>
<event>
 4    1 -0.6483339E-004  0.1917777E+03  0.7818608E-02  0.1156868E+00
         -5   -1    0    0    0  501 -0.00000000000E+00  0.00000000000E+00  0.81234521396E+03  0.81235881029E+03  0.47000000000E+01 0.  1.
          5   -1    0    0  501    0  0.00000000000E+00 -0.00000000000E+00 -0.14845952464E+03  0.14853390339E+03  0.47000000000E+01 0. -1.
          6    1    1    2  502    0  0.65133112514E+02 -0.54335645840E+02 -0.68630610587E+02  0.20368810830E+03  0.17200000000E+03 0. -1.
         -6    1    1    2    0  502 -0.65133112514E+02  0.54335645840E+02  0.73251629991E+03  0.75720460537E+03  0.17200000000E+03 0.  1.
</event>
<event>
 4    1 -0.6483339E-004  0.2383950E+03  0.7818608E-02  0.1120867E+00
          5   -1    0    0  501    0  0.00000000000E+00  0.00000000000E+00  0.56591500994E+03  0.56593452667E+03  0.47000000000E+01 0. -1.
         -5   -1    0    0    0  501 -0.00000000000E+00 -0.00000000000E+00 -0.16122114935E+03  0.16128964318E+03  0.47000000000E+01 0.  1.
          6    1    1    2  502    0  0.40670570228E+02 -0.15998149158E+03  0.42569904341E+03  0.48790557333E+03  0.17200000000E+03 0. -1.
         -6    1    1    2    0  502 -0.40670570228E+02  0.15998149158E+03 -0.21005182820E+02  0.23931859651E+03  0.17200000000E+03 0.  1.
</event>
<event>
 4    1 -0.6483339E-004  0.3892092E+03  0.7818608E-02  0.1047582E+00
         -5   -1    0    0    0  501 -0.00000000000E+00  0.00000000000E+00  0.58720253865E+03  0.58722134787E+03  0.47000000000E+01 0.  1.
          5   -1    0    0  501    0  0.00000000000E+00 -0.00000000000E+00 -0.26136142764E+03  0.26140368371E+03  0.47000000000E+01 0. -1.
          6    1    1    2  502    0 -0.12241285735E+03 -0.32697845252E+03  0.11431516520E+03  0.40564981579E+03  0.17200000000E+03 0. -1.
         -6    1    1    2    0  502  0.12241285735E+03  0.32697845252E+03  0.21152594581E+03  0.44297521579E+03  0.17200000000E+03 0.  1.
</event>
<event>
 4    1 -0.6483339E-004  0.2189609E+03  0.7818608E-02  0.1134660E+00
         -5   -1    0    0    0  501 -0.00000000000E+00  0.00000000000E+00  0.18230038111E+04  0.18230098698E+04  0.47000000000E+01 0.  1.
          5   -1    0    0  501    0  0.00000000000E+00 -0.00000000000E+00 -0.26849627207E+02  0.27257888420E+02  0.47000000000E+01 0. -1.
          6    1    1    2  502    0 -0.13491184477E+03  0.12596384922E+02  0.10531676847E+04  0.10756886385E+04  0.17200000000E+03 0.  1.
         -6    1    1    2    0  502  0.13491184477E+03 -0.12596384922E+02  0.74298649920E+03  0.77457911976E+03  0.17200000000E+03 0.  1.
</event>
<event>
 4    1 -0.6483339E-004  0.1771192E+03  0.7818608E-02  0.1170621E+00
         -5   -1    0    0    0  501 -0.00000000000E+00  0.00000000000E+00  0.42550267330E+03  0.42552863004E+03  0.47000000000E+01 0.  1.
          5   -1    0    0  501    0  0.00000000000E+00 -0.00000000000E+00 -0.73882140636E+02  0.74031484552E+02  0.47000000000E+01 0. -1.
          6    1    1    2  502    0  0.36321657217E+02 -0.21632031459E+02  0.16107089323E+03  0.23940559771E+03  0.17200000000E+03 0.  1.
         -6    1    1    2    0  502 -0.36321657217E+02  0.21632031459E+02  0.19054963943E+03  0.26015451688E+03  0.17200000000E+03 0. -1.
</event>
<event>
 4    1 -0.6483339E-004  0.1871641E+03  0.7818608E-02  0.1161044E+00
         -5   -1    0    0    0  501 -0.00000000000E+00  0.00000000000E+00  0.58332339648E+03  0.58334233078E+03  0.47000000000E+01 0.  1.
          5   -1    0    0  501    0  0.00000000000E+00 -0.00000000000E+00 -0.67559522457E+02  0.67722810593E+02  0.47000000000E+01 0. -1.
          6    1    1    2  502    0 -0.65838727924E+02  0.33341656549E+02  0.14872246024E+03  0.23905809824E+03  0.17200000000E+03 0. -1.
         -6    1    1    2    0  502  0.65838727924E+02 -0.33341656549E+02  0.36704141378E+03  0.41200704313E+03  0.17200000000E+03 0.  1.
</event>
<event>
 4    1 -0.6483339E-004  0.1975857E+03  0.7818608E-02  0.1151792E+00
          5   -1    0    0  501    0  0.00000000000E+00  0.00000000000E+00  0.12348615062E+03  0.12357556148E+03  0.47000000000E+01 0. -1.
         -5   -1    0    0    0  501 -0.00000000000E+00 -0.00000000000E+00 -0.32184684486E+03  0.32188116059E+03  0.47000000000E+01 0.  1.
          6    1    1    2  502    0 -0.84733476165E+02 -0.47711013080E+02 -0.68982681613E+02  0.20928142085E+03  0.17200000000E+03 0. -1.
         -6    1    1    2    0  502  0.84733476165E+02  0.47711013080E+02 -0.12937801263E+03  0.23617530121E+03  0.17200000000E+03 0.  1.
</event>
<event>
 4    1 -0.6483339E-004  0.2489011E+03  0.7818608E-02  0.1114001E+00
         -5   -1    0    0    0  501 -0.00000000000E+00  0.00000000000E+00  0.12833067933E+04  0.12833153999E+04  0.47000000000E+01 0.  1.
          5   -1    0    0  501    0  0.00000000000E+00 -0.00000000000E+00 -0.89786804670E+02  0.89909734138E+02  0.47000000000E+01 0. -1.
          6    1    1    2  502    0  0.17705746764E+03 -0.31912844954E+02  0.12968308079E+03  0.28065900656E+03  0.17200000000E+03 0. -1.
         -6    1    1    2    0  502 -0.17705746764E+03  0.31912844954E+02  0.10638369078E+04  0.10925661275E+04  0.17200000000E+03 0.  1.
</event>
<event>
 4    1 -0.6483339E-004  0.2501532E+03  0.7818608E-02  0.1113208E+00
         -5   -1    0    0    0  501 -0.00000000000E+00  0.00000000000E+00  0.19196185680E+03  0.19201938565E+03  0.47000000000E+01 0.  1.
          5   -1    0    0  501    0  0.00000000000E+00 -0.00000000000E+00 -0.43543764405E+03  0.43546300860E+03  0.47000000000E+01 0. -1.
          6    1    1    2  502    0  0.40650616964E+02  0.17703147219E+03 -0.27910844968E+03  0.37480413750E+03  0.17200000000E+03 0. -1.
         -6    1    1    2    0  502 -0.40650616964E+02 -0.17703147219E+03  0.35632662429E+02  0.25267825675E+03  0.17200000000E+03 0.  1.
</event>
<event>
 4    1 -0.6483339E-004  0.1817487E+03  0.7818608E-02  0.1166121E+00
         -5   -1    0    0    0  501 -0.00000000000E+00  0.00000000000E+00  0.14541980392E+03  0.14549573661E+03  0.47000000000E+01 0.  1.
          5   -1    0    0  501    0  0.00000000000E+00 -0.00000000000E+00 -0.22721572451E+03  0.22726432951E+03  0.47000000000E+01 0. -1.
          6    1    1    2  502    0 -0.45142187153E+02 -0.37560283590E+02 -0.46721586442E+02  0.18765792977E+03  0.17200000000E+03 0. -1.
         -6    1    1    2    0  502  0.45142187153E+02  0.37560283590E+02 -0.35074334155E+02  0.18510213635E+03  0.17200000000E+03 0. -1.
</event>
<event>
 4    1 -0.6483339E-004  0.2790323E+03  0.7818608E-02  0.1096219E+00
          5   -1    0    0  501    0  0.00000000000E+00  0.00000000000E+00  0.67747675527E+03  0.67749305822E+03  0.47000000000E+01 0. -1.
         -5   -1    0    0    0  501 -0.00000000000E+00 -0.00000000000E+00 -0.11591435575E+03  0.11600960248E+03  0.47000000000E+01 0.  1.
          6    1    1    2  502    0 -0.17186031047E+03 -0.13689065248E+03  0.24294677663E+03  0.36997588209E+03  0.17200000000E+03 0.  1.
         -6    1    1    2    0  502  0.17186031047E+03  0.13689065248E+03  0.31861562290E+03  0.42352677862E+03  0.17200000000E+03 0.  1.
</event>
<event>
 4    1 -0.6483339E-004  0.2310910E+03  0.7818608E-02  0.1125874E+00
         -5   -1    0    0    0  501 -0.00000000000E+00  0.00000000000E+00  0.25174130814E+03  0.25178517873E+03  0.47000000000E+01 0.  1.
          5   -1    0    0  501    0  0.00000000000E+00 -0.00000000000E+00 -0.29314346026E+03  0.29318113563E+03  0.47000000000E+01 0. -1.
          6    1    1    2  502    0  0.10732982569E+03 -0.11090253457E+03 -0.16399793409E+03  0.28336969853E+03  0.17200000000E+03 0. -1.
         -6    1    1    2    0  502 -0.10732982569E+03  0.11090253457E+03  0.12259578197E+03  0.26159661583E+03  0.17200000000E+03 0.  1.
</event>
<event>
 4    1 -0.6483339E-004  0.1721155E+03  0.7818608E-02  0.1175659E+00
         -5   -1    0    0    0  501 -0.00000000000E+00  0.00000000000E+00  0.60068236493E+03  0.60070075207E+03  0.47000000000E+01 0.  1.
          5   -1    0    0  501    0  0.00000000000E+00 -0.00000000000E+00 -0.66333231449E+02  0.66499530784E+02  0.47000000000E+01 0. -1.
          6    1    1    2  502    0  0.51261460015E+01 -0.36704406715E+01  0.97832895998E+02  0.19797733468E+03  0.17200000000E+03 0. -1.
         -6    1    1    2    0  502 -0.51261460015E+01  0.36704406715E+01  0.43651623749E+03  0.46922294818E+03  0.17200000000E+03 0.  1.
</event>
<event>
 4    1 -0.6483339E-004  0.2777397E+03  0.7818608E-02  0.1096930E+00
         -5   -1    0    0    0  501 -0.00000000000E+00  0.00000000000E+00  0.31703425940E+03  0.31706909599E+03  0.47000000000E+01 0.  1.
          5   -1    0    0  501    0  0.00000000000E+00 -0.00000000000E+00 -0.39502843178E+03  0.39505639080E+03  0.47000000000E+01 0. -1.
          6    1    1    2  502    0  0.16068306173E+03 -0.14743233787E+03 -0.25968870975E+03  0.38023356841E+03  0.17200000000E+03 0. -1.
         -6    1    1    2    0  502 -0.16068306173E+03  0.14743233787E+03  0.18169453737E+03  0.33189191838E+03  0.17200000000E+03 0.  1.
</event>
<event>
 4    1 -0.6483339E-004  0.1741427E+03  0.7818608E-02  0.1173595E+00
          5   -1    0    0  501    0  0.00000000000E+00  0.00000000000E+00  0.25612250554E+03  0.25616562581E+03  0.47000000000E+01 0. -1.
         -5   -1    0    0    0  501 -0.00000000000E+00 -0.00000000000E+00 -0.12648861461E+03  0.12657590460E+03  0.47000000000E+01 0.  1.
          6    1    1    2  502    0 -0.26754774906E+02  0.50861641852E+01  0.11347318426E+03  0.20785054869E+03  0.17200000000E+03 0. -1.
         -6    1    1    2    0  502  0.26754774906E+02 -0.50861641852E+01  0.16160706673E+02  0.17489098172E+03  0.17200000000E+03 0. -1.
</event>
<event>
 4    1 -0.6483339E-004  0.2470752E+03  0.7818608E-02  0.1115167E+00
         -5   -1    0    0    0  501 -0.00000000000E+00  0.00000000000E+00  0.80023902229E+03  0.80025282430E+03  0.47000000000E+01 0.  1.
          5   -1    0    0  501    0  0.00000000000E+00 -0.00000000000E+00 -0.92118136374E+02  0.92237958829E+02  0.47000000000E+01 0. -1.
          6    1    1    2  502    0  0.30836492243E+02 -0.17467480348E+03  0.16869467446E+03  0.29917230723E+03  0.17200000000E+03 0. -1.
         -6    1    1    2    0  502 -0.30836492243E+02  0.17467480348E+03  0.53942621146E+03  0.59331847589E+03  0.17200000000E+03 0.  1.
</event>
<event>
 4    1 -0.6483339E-004  0.2325752E+03  0.7818608E-02  0.1124840E+00
         -5   -1    0    0    0  501 -0.00000000000E+00  0.00000000000E+00  0.31518432390E+03  0.31521936494E+03  0.47000000000E+01 0.  1.
          5   -1    0    0  501    0  0.00000000000E+00 -0.00000000000E+00 -0.19739418426E+03  0.19745013036E+03  0.47000000000E+01 0. -1.
          6    1    1    2  502    0 -0.72786962403E+02 -0.13859760479E+03 -0.33850338845E+02  0.23502570793E+03  0.17200000000E+03 0. -1.
         -6    1    1    2    0  502  0.72786962403E+02  0.13859760479E+03  0.15164047849E+03  0.27764378737E+03  0.17200000000E+03 0.  1.
</event>
<event>
 4    1 -0.6483339E-004  0.2049417E+03  0.7818608E-02  0.1145635E+00
          5   -1    0    0  501    0  0.00000000000E+00  0.00000000000E+00  0.55058518967E+02  0.55258759585E+02  0.47000000000E+01 0. -1.
         -5   -1    0    0    0  501 -0.00000000000E+00 -0.00000000000E+00 -0.77751351523E+03  0.77752772064E+03  0.47000000000E+01 0.  1.
          6    1    1    2  502    0 -0.29646102945E+01 -0.11139267814E+03 -0.42143613743E+03  0.46862515467E+03  0.17200000000E+03 0.  1.
         -6    1    1    2    0  502  0.29646102945E+01  0.11139267814E+03 -0.30101885884E+03  0.36416132556E+03  0.17200000000E+03 0. -1.
</event>
<event>
 4    1 -0.6483339E-004  0.5046336E+03  0.7818608E-02  0.1012577E+00
          5   -1    0    0  501    0  0.00000000000E+00  0.00000000000E+00  0.22180663728E+04  0.22180713523E+04  0.47000000000E+01 0. -1.
         -5   -1    0    0    0  501 -0.00000000000E+00 -0.00000000000E+00 -0.38369581774E+03  0.38372460249E+03  0.47000000000E+01 0.  1.
          6    1    1    2  502    0  0.46973340390E+03 -0.66494956112E+02  0.20062128049E+04  0.20687060855E+04  0.17200000000E+03 0. -1.
         -6    1    1    2    0  502 -0.46973340390E+03  0.66494956112E+02 -0.17184224981E+03  0.53308986930E+03  0.17200000000E+03 0.  1.
</event>
<event>
 4    1 -0.6483339E-004  0.3427062E+03  0.7818608E-02  0.1065649E+00
         -5   -1    0    0    0  501 -0.00000000000E+00  0.00000000000E+00  0.58404940577E+03  0.58406831654E+03  0.47000000000E+01 0.  1.
          5   -1    0    0  501    0  0.00000000000E+00 -0.00000000000E+00 -0.86954337843E+03  0.86955608041E+03  0.47000000000E+01 0. -1.
          6    1    1    2  502    0  0.21675881350E+03 -0.20218586849E+03 -0.78000386835E+03  0.85197038874E+03  0.17200000000E+03 0. -1.
         -6    1    1    2    0  502 -0.21675881350E+03  0.20218586849E+03  0.49450989570E+03  0.60165400820E+03  0.17200000000E+03 0.  1.
</event>
<event>
 4    1 -0.6483339E-004  0.1732246E+03  0.7818608E-02  0.1174526E+00
          5   -1    0    0  501    0  0.00000000000E+00  0.00000000000E+00  0.68739960987E+02  0.68900451642E+02  0.47000000000E+01 0. -1.
         -5   -1    0    0    0  501 -0.00000000000E+00 -0.00000000000E+00 -0.48984074201E+03  0.48986328963E+03  0.47000000000E+01 0.  1.
          6    1    1    2  502    0 -0.13687548817E+02  0.15343150489E+02 -0.11780879048E+03  0.20948907459E+03  0.17200000000E+03 0. -1.
         -6    1    1    2    0  502  0.13687548817E+02 -0.15343150489E+02 -0.30329199054E+03  0.34927466668E+03  0.17200000000E+03 0.  1.
</event>
<event>
 4    1 -0.6483339E-004  0.2479508E+03  0.7818608E-02  0.1114607E+00
         -5   -1    0    0    0  501 -0.00000000000E+00  0.00000000000E+00  0.16474649128E+03  0.16481352005E+03  0.47000000000E+01 0.  1.
          5   -1    0    0  501    0  0.00000000000E+00 -0.00000000000E+00 -0.38514714900E+03  0.38517582528E+03  0.47000000000E+01 0. -1.
          6    1    1    2  502    0 -0.10073903654E+03  0.14746939355E+03 -0.15899271558E+03  0.29454754985E+03  0.17200000000E+03 0. -1.
         -6    1    1    2    0  502  0.10073903654E+03 -0.14746939355E+03 -0.61407942138E+02  0.25544179548E+03  0.17200000000E+03 0.  1.
</event>
<event>
 4    1 -0.6483339E-004  0.1930762E+03  0.7818608E-02  0.1155716E+00
         -5   -1    0    0    0  501 -0.00000000000E+00  0.00000000000E+00  0.49770226034E+02  0.49991653298E+02  0.47000000000E+01 0.  1.
          5   -1    0    0  501    0  0.00000000000E+00 -0.00000000000E+00 -0.76675481637E+03  0.76676922110E+03  0.47000000000E+01 0. -1.
          6    1    1    2  502    0  0.53997784620E+02  0.69127753563E+02 -0.29314983649E+03  0.35102027533E+03  0.17200000000E+03 0.  1.
         -6    1    1    2    0  502 -0.53997784620E+02 -0.69127753563E+02 -0.42383475385E+03  0.46574059907E+03  0.17200000000E+03 0. -1.
</event>
<event>
 4    1 -0.6483339E-004  0.1886146E+03  0.7818608E-02  0.1159717E+00
         -5   -1    0    0    0  501 -0.00000000000E+00  0.00000000000E+00  0.59599105183E+03  0.59600958370E+03  0.47000000000E+01 0.  1.
          5   -1    0    0  501    0  0.00000000000E+00 -0.00000000000E+00 -0.11681388232E+03  0.11690839621E+03  0.47000000000E+01 0. -1.
          6    1    1    2  502    0 -0.63576957939E+02  0.44152589834E+02 -0.97545812896E+01  0.18886670598E+03  0.17200000000E+03 0. -1.
         -6    1    1    2    0  502  0.63576957939E+02 -0.44152589834E+02  0.48893175080E+03  0.52405127393E+03  0.17200000000E+03 0.  1.
</event>
<event>
 4    1 -0.6483339E-004  0.2376452E+03  0.7818608E-02  0.1121372E+00
         -5   -1    0    0    0  501 -0.00000000000E+00  0.00000000000E+00  0.13711378067E+04  0.13711458621E+04  0.47000000000E+01 0.  1.
          5   -1    0    0  501    0  0.00000000000E+00 -0.00000000000E+00 -0.54760699612E+02  0.54962025272E+02  0.47000000000E+01 0. -1.
          6    1    1    2  502    0  0.47338720086E+02  0.15700410231E+03  0.10142420138E+04  0.10417111428E+04  0.17200000000E+03 0.  1.
         -6    1    1    2    0  502 -0.47338720086E+02 -0.15700410231E+03  0.30213509332E+03  0.38439674449E+03  0.17200000000E+03 0. -1.
</event>
<event>
 4    1 -0.6483339E-004  0.2167333E+03  0.7818608E-02  0.1136342E+00
          5   -1    0    0  501    0  0.00000000000E+00  0.00000000000E+00  0.12707490536E+04  0.12707577453E+04  0.47000000000E+01 0. -1.
         -5   -1    0    0    0  501 -0.00000000000E+00 -0.00000000000E+00 -0.47516673014E+02  0.47748551961E+02  0.47000000000E+01 0.  1.
          6    1    1    2  502    0 -0.10267501746E+03 -0.82747491695E+02  0.92370080071E+03  0.94878684425E+03  0.17200000000E+03 0. -1.
         -6    1    1    2    0  502  0.10267501746E+03  0.82747491695E+02  0.29953157992E+03  0.36971945305E+03  0.17200000000E+03 0.  1.
</event>
<event>
 4    1 -0.6483339E-004  0.2665579E+03  0.7818608E-02  0.1103266E+00
         -5   -1    0    0    0  501 -0.00000000000E+00  0.00000000000E+00  0.83532105739E+03  0.83533427974E+03  0.47000000000E+01 0.  1.
          5   -1    0    0  501    0  0.00000000000E+00 -0.00000000000E+00 -0.13908958710E+03  0.13916897370E+03  0.47000000000E+01 0. -1.
          6    1    1    2  502    0  0.20192924128E+03  0.26337960396E+02  0.44341361526E+02  0.27022076712E+03  0.17200000000E+03 0. -1.
         -6    1    1    2    0  502 -0.20192924128E+03 -0.26337960396E+02  0.65189010876E+03  0.70428248632E+03  0.17200000000E+03 0. -1.
</event>
<event>
 4    1 -0.6483339E-004  0.1729508E+03  0.7818608E-02  0.1174805E+00
         -5   -1    0    0    0  501 -0.00000000000E+00  0.00000000000E+00  0.51041220657E+02  0.51257157610E+02  0.47000000000E+01 0.  1.
          5   -1    0    0  501    0  0.00000000000E+00 -0.00000000000E+00 -0.60186689611E+03  0.60188524706E+03  0.47000000000E+01 0. -1.
          6    1    1    2  502    0 -0.10362405363E+02  0.14852388122E+02 -0.22006670066E+03  0.27989520471E+03  0.17200000000E+03 0.  1.
         -6    1    1    2    0  502  0.10362405363E+02 -0.14852388122E+02 -0.33075897479E+03  0.37324719997E+03  0.17200000000E+03 0. -1.
</event>
<event>
 4    1 -0.6483339E-004  0.2343062E+03  0.7818608E-02  0.1123645E+00
         -5   -1    0    0    0  501 -0.00000000000E+00  0.00000000000E+00  0.65609890260E+03  0.65611573674E+03  0.47000000000E+01 0.  1.
          5   -1    0    0  501    0  0.00000000000E+00 -0.00000000000E+00 -0.15893492122E+03  0.15900439988E+03  0.47000000000E+01 0. -1.
          6    1    1    2  502    0 -0.72622081403E+02 -0.14156775393E+03 -0.31925092542E+02  0.23647115510E+03  0.17200000000E+03 0. -1.
         -6    1    1    2    0  502  0.72622081403E+02  0.14156775393E+03  0.52908907393E+03  0.57864898152E+03  0.17200000000E+03 0.  1.
</event>
<event>
 4    1 -0.6483339E-004  0.1846420E+03  0.7818608E-02  0.1163385E+00
          5   -1    0    0  501    0  0.00000000000E+00  0.00000000000E+00  0.11666932084E+03  0.11676395173E+03  0.47000000000E+01 0. -1.
         -5   -1    0    0    0  501 -0.00000000000E+00 -0.00000000000E+00 -0.29850988073E+03  0.29854687889E+03  0.47000000000E+01 0.  1.
          6    1    1    2  502    0 -0.55787827002E+02  0.37368432001E+02 -0.12161591825E+03  0.22109525758E+03  0.17200000000E+03 0. -1.
         -6    1    1    2    0  502  0.55787827002E+02 -0.37368432001E+02 -0.60224641652E+02  0.19421557305E+03  0.17200000000E+03 0. -1.
</event>
<event>
 4    1 -0.6483339E-004  0.2470950E+03  0.7818608E-02  0.1115155E+00
          5   -1    0    0  501    0  0.00000000000E+00  0.00000000000E+00  0.54621849558E+02  0.54823685111E+02  0.47000000000E+01 0. -1.
         -5   -1    0    0    0  501 -0.00000000000E+00 -0.00000000000E+00 -0.11407425086E+04  0.11407521908E+04  0.47000000000E+01 0.  1.
          6    1    1    2  502    0 -0.75895136796E+02 -0.16034914736E+03 -0.45418815516E+03  0.51705202942E+03  0.17200000000E+03 0. -1.
         -6    1    1    2    0  502  0.75895136796E+02  0.16034914736E+03 -0.63193250384E+03  0.67852384649E+03  0.17200000000E+03 0.  1.
</event>
<event>
 4    1 -0.6483339E-004  0.2775776E+03  0.7818608E-02  0.1097019E+00
          5   -1    0    0  501    0  0.00000000000E+00  0.00000000000E+00  0.25112447621E+03  0.25116845453E+03  0.47000000000E+01 0. -1.
         -5   -1    0    0    0  501 -0.00000000000E+00 -0.00000000000E+00 -0.32781729529E+03  0.32785098611E+03  0.47000000000E+01 0.  1.
          6    1    1    2  502    0 -0.11229009703E+03 -0.18669836362E+03  0.35074695615E+02  0.27978488012E+03  0.17200000000E+03 0. -1.
         -6    1    1    2    0  502  0.11229009703E+03  0.18669836362E+03 -0.11176751470E+03  0.29923456052E+03  0.17200000000E+03 0.  1.
</event>
<event>
 4    1 -0.6483339E-004  0.2513066E+03  0.7818608E-02  0.1112482E+00
          5   -1    0    0  501    0  0.00000000000E+00  0.00000000000E+00  0.85090214086E+02  0.85219918641E+02  0.47000000000E+01 0. -1.
         -5   -1    0    0    0  501 -0.00000000000E+00 -0.00000000000E+00 -0.75834501056E+03  0.75835957503E+03  0.47000000000E+01 0.  1.
          6    1    1    2  502    0 -0.45265922816E+02 -0.17754438396E+03 -0.39946622622E+03  0.47194096870E+03  0.17200000000E+03 0. -1.
         -6    1    1    2    0  502  0.45265922816E+02  0.17754438396E+03 -0.27378857025E+03  0.37163852497E+03  0.17200000000E+03 0. -1.
</event>
<event>
 4    1 -0.6483339E-004  0.1857566E+03  0.7818608E-02  0.1162345E+00
         -5   -1    0    0    0  501 -0.00000000000E+00  0.00000000000E+00  0.37300948981E+03  0.37303909914E+03  0.47000000000E+01 0.  1.
          5   -1    0    0  501    0  0.00000000000E+00 -0.00000000000E+00 -0.12587677839E+03  0.12596449237E+03  0.47000000000E+01 0. -1.
          6    1    1    2  502    0  0.11604336766E+02 -0.69187065351E+02 -0.50098306183E+01  0.18582413473E+03  0.17200000000E+03 0. -1.
         -6    1    1    2    0  502 -0.11604336766E+02  0.69187065351E+02  0.25214254204E+03  0.31317945678E+03  0.17200000000E+03 0. -1.
</event>
<event>
 4    1 -0.6483339E-004  0.6120044E+03  0.7818608E-02  0.9880809E-01
          5   -1    0    0  501    0  0.00000000000E+00  0.00000000000E+00  0.93833996398E+03  0.93835173469E+03  0.47000000000E+01 0. -1.
         -5   -1    0    0    0  501 -0.00000000000E+00 -0.00000000000E+00 -0.49861799031E+03  0.49864014105E+03  0.47000000000E+01 0.  1.
          6    1    1    2  502    0 -0.55135530346E+03  0.20241727261E+03  0.54078465909E+03  0.81669913090E+03  0.17200000000E+03 0. -1.
         -6    1    1    2    0  502  0.55135530346E+03 -0.20241727261E+03 -0.10106268543E+03  0.62029274483E+03  0.17200000000E+03 0.  1.
</event>
<event>
 4    1 -0.6483339E-004  0.2368108E+03  0.7818608E-02  0.1121936E+00
         -5   -1    0    0    0  501 -0.00000000000E+00  0.00000000000E+00  0.75952606033E+03  0.75954060215E+03  0.47000000000E+01 0.  1.
          5   -1    0    0  501    0  0.00000000000E+00 -0.00000000000E+00 -0.79840714730E+02  0.79978933030E+02  0.47000000000E+01 0. -1.
          6    1    1    2  502    0 -0.13713413626E+03 -0.87690259653E+02  0.22396910621E+03  0.32594710231E+03  0.17200000000E+03 0. -1.
         -6    1    1    2    0  502  0.13713413626E+03  0.87690259653E+02  0.45571623938E+03  0.51357243287E+03  0.17200000000E+03 0.  1.
</event>
<event>
 4    1 -0.6483339E-004  0.1797793E+03  0.7818608E-02  0.1168017E+00
          5   -1    0    0  501    0  0.00000000000E+00  0.00000000000E+00  0.10038172731E+03  0.10049169706E+03  0.47000000000E+01 0. -1.
         -5   -1    0    0    0  501 -0.00000000000E+00 -0.00000000000E+00 -0.47920343859E+03  0.47922648670E+03  0.47000000000E+01 0.  1.
          6    1    1    2  502    0  0.33304568978E+02  0.40341286355E+02 -0.23243587466E+02  0.18127569627E+03  0.17200000000E+03 0. -1.
         -6    1    1    2    0  502 -0.33304568978E+02 -0.40341286355E+02 -0.35557812382E+03  0.39844248749E+03  0.17200000000E+03 0.  1.
</event>
<event>
 4    1 -0.6483339E-004  0.2356095E+03  0.7818608E-02  0.1122753E+00
          5   -1    0    0  501    0  0.00000000000E+00  0.00000000000E+00  0.24140895424E+03  0.24145470215E+03  0.47000000000E+01 0. -1.
         -5   -1    0    0    0  501 -0.00000000000E+00 -0.00000000000E+00 -0.30371643450E+03  0.30375279848E+03  0.47000000000E+01 0.  1.
          6    1    1    2  502    0 -0.72178834143E+02 -0.14393758902E+03  0.10325753153E+03  0.25724294247E+03  0.17200000000E+03 0. -1.
         -6    1    1    2    0  502  0.72178834143E+02  0.14393758902E+03 -0.16556501178E+03  0.28796455816E+03  0.17200000000E+03 0.  1.
</event>
<event>
 4    1 -0.6483339E-004  0.3431373E+03  0.7818608E-02  0.1065468E+00
         -5   -1    0    0    0  501 -0.00000000000E+00  0.00000000000E+00  0.82101691860E+03  0.82103037132E+03  0.47000000000E+01 0.  1.
          5   -1    0    0  501    0  0.00000000000E+00 -0.00000000000E+00 -0.14501684503E+03  0.14509298860E+03  0.47000000000E+01 0. -1.
          6    1    1    2  502    0  0.27118609649E+03 -0.12090198548E+03  0.28635519910E+03  0.44692559680E+03  0.17200000000E+03 0. -1.
         -6    1    1    2    0  502 -0.27118609649E+03  0.12090198548E+03  0.38964487448E+03  0.51919776312E+03  0.17200000000E+03 0.  1.
</event>
<event>
 4    1 -0.6483339E-004  0.2149740E+03  0.7818608E-02  0.1137687E+00
          5   -1    0    0  501    0  0.00000000000E+00  0.00000000000E+00  0.35702839230E+03  0.35705932687E+03  0.47000000000E+01 0. -1.
         -5   -1    0    0    0  501 -0.00000000000E+00 -0.00000000000E+00 -0.22326723505E+03  0.22331669944E+03  0.47000000000E+01 0.  1.
          6    1    1    2  502    0 -0.77360207267E+02 -0.10317561937E+03  0.25503685276E+03  0.33355300383E+03  0.17200000000E+03 0. -1.
         -6    1    1    2    0  502  0.77360207267E+02  0.10317561937E+03 -0.12127569552E+03  0.24682302248E+03  0.17200000000E+03 0.  1.
</event>
<event>
 4    1 -0.6483339E-004  0.2001852E+03  0.7818608E-02  0.1149583E+00
          5   -1    0    0  501    0  0.00000000000E+00  0.00000000000E+00  0.37762435981E+03  0.37765360732E+03  0.47000000000E+01 0. -1.
         -5   -1    0    0    0  501 -0.00000000000E+00 -0.00000000000E+00 -0.11537395864E+03  0.11546965113E+03  0.47000000000E+01 0.  1.
          6    1    1    2  502    0  0.10029007554E+03 -0.20784648520E+02  0.20123041345E+03  0.28384464089E+03  0.17200000000E+03 0. -1.
         -6    1    1    2    0  502 -0.10029007554E+03  0.20784648520E+02  0.61019987727E+02  0.20927861756E+03  0.17200000000E+03 0.  1.
</event>
<event>
 4    1 -0.6483339E-004  0.1927815E+03  0.7818608E-02  0.1155976E+00
         -5   -1    0    0    0  501 -0.00000000000E+00  0.00000000000E+00  0.50762966522E+02  0.50980082092E+02  0.47000000000E+01 0.  1.
          5   -1    0    0  501    0  0.00000000000E+00 -0.00000000000E+00 -0.11302551323E+04  0.11302649044E+04  0.47000000000E+01 0. -1.
          6    1    1    2  502    0 -0.42816915676E+02 -0.75811649854E+02 -0.18845739277E+03  0.26959392317E+03  0.17200000000E+03 0.  1.
         -6    1    1    2    0  502  0.42816915676E+02  0.75811649854E+02 -0.89103477302E+03  0.91165106332E+03  0.17200000000E+03 0. -1.
</event>
<event>
 4    1 -0.6483339E-004  0.2208300E+03  0.7818608E-02  0.1133266E+00
         -5   -1    0    0    0  501 -0.00000000000E+00  0.00000000000E+00  0.45897256053E+03  0.45899662452E+03  0.47000000000E+01 0.  1.
          5   -1    0    0  501    0  0.00000000000E+00 -0.00000000000E+00 -0.10777475926E+03  0.10787719284E+03  0.47000000000E+01 0. -1.
          6    1    1    2  502    0  0.10873024699E+03  0.85788168397E+02  0.14104658503E+03  0.26203056233E+03  0.17200000000E+03 0. -1.
         -6    1    1    2    0  502 -0.10873024699E+03 -0.85788168397E+02  0.21015121624E+03  0.30484325502E+03  0.17200000000E+03 0.  1.
</event>
<event>
 4    1 -0.6483339E-004  0.1947845E+03  0.7818608E-02  0.1154215E+00
         -5   -1    0    0    0  501 -0.00000000000E+00  0.00000000000E+00  0.91701670752E+03  0.91702875193E+03  0.47000000000E+01 0.  1.
          5   -1    0    0  501    0  0.00000000000E+00 -0.00000000000E+00 -0.12228034988E+03  0.12237064176E+03  0.47000000000E+01 0. -1.
          6    1    1    2  502    0 -0.58973759370E+02 -0.69850660872E+02 -0.25414302841E+02  0.19643550063E+03  0.17200000000E+03 0. -1.
         -6    1    1    2    0  502  0.58973759370E+02  0.69850660872E+02  0.82015066049E+03  0.84296389307E+03  0.17200000000E+03 0.  1.
</event>
<event>
 4    1 -0.6483339E-004  0.3560640E+03  0.7818608E-02  0.1060153E+00
          5   -1    0    0  501    0  0.00000000000E+00  0.00000000000E+00  0.24742009465E+03  0.24746473130E+03  0.47000000000E+01 0. -1.
         -5   -1    0    0    0  501 -0.00000000000E+00 -0.00000000000E+00 -0.65916037806E+03  0.65917713401E+03  0.47000000000E+01 0.  1.
          6    1    1    2  502    0  0.12757242037E+02  0.31150413232E+03  0.80851052308E+01  0.35615578137E+03  0.17200000000E+03 0. -1.
         -6    1    1    2    0  502 -0.12757242037E+02 -0.31150413232E+03 -0.41982538863E+03  0.55048608395E+03  0.17200000000E+03 0.  1.
</event>
<event>
 4    1 -0.6483339E-004  0.3030689E+03  0.7818608E-02  0.1083716E+00
          5   -1    0    0  501    0  0.00000000000E+00  0.00000000000E+00  0.14806884012E+03  0.14814341502E+03  0.47000000000E+01 0. -1.
         -5   -1    0    0    0  501 -0.00000000000E+00 -0.00000000000E+00 -0.77541987020E+03  0.77543411397E+03  0.47000000000E+01 0.  1.
          6    1    1    2  502    0  0.21714535921E+03 -0.12294163050E+03 -0.10700238569E+03  0.32140358131E+03  0.17200000000E+03 0. -1.
         -6    1    1    2    0  502 -0.21714535921E+03  0.12294163050E+03 -0.52034864440E+03  0.60217394768E+03  0.17200000000E+03 0.  1.
</event>
<event>
 4    1 -0.6483339E-004  0.2041708E+03  0.7818608E-02  0.1146267E+00
         -5   -1    0    0    0  501 -0.00000000000E+00  0.00000000000E+00  0.88581178199E+02  0.88705778453E+02  0.47000000000E+01 0.  1.
          5   -1    0    0  501    0  0.00000000000E+00 -0.00000000000E+00 -0.53227417196E+03  0.53229492214E+03  0.47000000000E+01 0. -1.
          6    1    1    2  502    0  0.99567761688E+02 -0.46775822345E+02 -0.32792996333E+03  0.38629493599E+03  0.17200000000E+03 0. -1.
         -6    1    1    2    0  502 -0.99567761688E+02  0.46775822345E+02 -0.11576303044E+03  0.23470576461E+03  0.17200000000E+03 0.  1.
</event>
<event>
 4    1 -0.6483339E-004  0.1891768E+03  0.7818608E-02  0.1159206E+00
         -5   -1    0    0    0  501 -0.00000000000E+00  0.00000000000E+00  0.27972408708E+03  0.27976356963E+03  0.47000000000E+01 0.  1.
          5   -1    0    0  501    0  0.00000000000E+00 -0.00000000000E+00 -0.15035694112E+03  0.15043038172E+03  0.47000000000E+01 0. -1.
          6    1    1    2  502    0 -0.50996149638E+02  0.60027191984E+02 -0.18507317523E+02  0.19007996175E+03  0.17200000000E+03 0. -1.
         -6    1    1    2    0  502  0.50996149638E+02 -0.60027191984E+02  0.14787446348E+03  0.24011398961E+03  0.17200000000E+03 0.  1.
</event>
<event>
 4    1 -0.6483339E-004  0.3725563E+03  0.7818608E-02  0.1053720E+00
          5   -1    0    0  501    0  0.00000000000E+00  0.00000000000E+00  0.50768643616E+03  0.50770819125E+03  0.47000000000E+01 0. -1.
         -5   -1    0    0    0  501 -0.00000000000E+00 -0.00000000000E+00 -0.27409515009E+03  0.27413544336E+03  0.47000000000E+01 0.  1.
          6    1    1    2  502    0  0.20337404515E+03 -0.26048648459E+03  0.96357410565E+02  0.38481549016E+03  0.17200000000E+03 0. -1.
         -6    1    1    2    0  502 -0.20337404515E+03  0.26048648459E+03  0.13723387550E+03  0.39702814444E+03  0.17200000000E+03 0.  1.
</event>
<event>
 4    1 -0.6483339E-004  0.2426541E+03  0.7818608E-02  0.1118037E+00
         -5   -1    0    0    0  501 -0.00000000000E+00  0.00000000000E+00  0.52612194134E+02  0.52821709283E+02  0.47000000000E+01 0.  1.
          5   -1    0    0  501    0  0.00000000000E+00 -0.00000000000E+00 -0.15453480372E+04  0.15453551844E+04  0.47000000000E+01 0. -1.
          6    1    1    2  502    0 -0.53988728074E+02 -0.16242610358E+03 -0.11671863943E+04  0.11921430706E+04  0.17200000000E+03 0.  1.
         -6    1    1    2    0  502  0.53988728074E+02  0.16242610358E+03 -0.32554944879E+03  0.40603382308E+03  0.17200000000E+03 0.  1.
</event>
<event>
 4    1 -0.6483339E-004  0.2193304E+03  0.7818608E-02  0.1134383E+00
          5   -1    0    0  501    0  0.00000000000E+00  0.00000000000E+00  0.28399577322E+03  0.28403466198E+03  0.47000000000E+01 0. -1.
         -5   -1    0    0    0  501 -0.00000000000E+00 -0.00000000000E+00 -0.27301941103E+03  0.27305986303E+03  0.47000000000E+01 0.  1.
          6    1    1    2  502    0  0.26529782255E+01 -0.13606902658E+03  0.17713921394E+03  0.28192928086E+03  0.17200000000E+03 0. -1.
         -6    1    1    2    0  502 -0.26529782255E+01  0.13606902658E+03 -0.16616285175E+03  0.27516524416E+03  0.17200000000E+03 0.  1.
</event>
<event>
 4    1 -0.6483339E-004  0.1763728E+03  0.7818608E-02  0.1171360E+00
          5   -1    0    0  501    0  0.00000000000E+00  0.00000000000E+00  0.80920922054E+02  0.81057298413E+02  0.47000000000E+01 0. -1.
         -5   -1    0    0    0  501 -0.00000000000E+00 -0.00000000000E+00 -0.39306303891E+03  0.39309113772E+03  0.47000000000E+01 0.  1.
          6    1    1    2  502    0  0.36904032816E+02  0.12706145295E+02 -0.11996518293E+03  0.21330494341E+03  0.17200000000E+03 0. -1.
         -6    1    1    2    0  502 -0.36904032816E+02 -0.12706145295E+02 -0.19217693393E+03  0.26084349273E+03  0.17200000000E+03 0. -1.
</event>
<event>
 4    1 -0.6483339E-004  0.4489908E+03  0.7818608E-02  0.1028023E+00
          5   -1    0    0  501    0  0.00000000000E+00  0.00000000000E+00  0.23999621978E+04  0.23999668000E+04  0.47000000000E+01 0. -1.
         -5   -1    0    0    0  501 -0.00000000000E+00 -0.00000000000E+00 -0.11107636218E+03  0.11117575381E+03  0.47000000000E+01 0.  1.
          6    1    1    2  502    0  0.39376486861E+03  0.13022276289E+03  0.17648387518E+04  0.18210569897E+04  0.17200000000E+03 0. -1.
         -6    1    1    2    0  502 -0.39376486861E+03 -0.13022276289E+03  0.52404708383E+03  0.69008556412E+03  0.17200000000E+03 0.  1.
</event>
<event>
 4    1 -0.6483339E-004  0.2466800E+03  0.7818608E-02  0.1115421E+00
          5   -1    0    0  501    0  0.00000000000E+00  0.00000000000E+00  0.87500738693E+03  0.87502000959E+03  0.47000000000E+01 0. -1.
         -5   -1    0    0    0  501 -0.00000000000E+00 -0.00000000000E+00 -0.18061539801E+03  0.18067653970E+03  0.47000000000E+01 0.  1.
          6    1    1    2  502    0  0.11592365782E+03 -0.13352418891E+03  0.76116465429E+03  0.80013913441E+03  0.17200000000E+03 0. -1.
         -6    1    1    2    0  502 -0.11592365782E+03  0.13352418891E+03 -0.66772665368E+02  0.25555741489E+03  0.17200000000E+03 0.  1.
</event>
<event>
 4    1 -0.6483339E-004  0.2695877E+03  0.7818608E-02  0.1101516E+00
          5   -1    0    0  501    0  0.00000000000E+00  0.00000000000E+00  0.86973342502E+02  0.87100242858E+02  0.47000000000E+01 0. -1.
         -5   -1    0    0    0  501 -0.00000000000E+00 -0.00000000000E+00 -0.10251050665E+04  0.10251158409E+04  0.47000000000E+01 0.  1.
          6    1    1    2  502    0  0.20677706654E+03 -0.18351302793E+02 -0.22952963134E+03  0.35406408633E+03  0.17200000000E+03 0. -1.
         -6    1    1    2    0  502 -0.20677706654E+03  0.18351302793E+02 -0.70860209262E+03  0.75815199744E+03  0.17200000000E+03 0.  1.
</event>
<event>
 4    1 -0.6483339E-004  0.1794159E+03  0.7818608E-02  0.1168370E+00
          5   -1    0    0  501    0  0.00000000000E+00  0.00000000000E+00  0.12847068623E+03  0.12855663040E+03  0.47000000000E+01 0. -1.
         -5   -1    0    0    0  501 -0.00000000000E+00 -0.00000000000E+00 -0.39145194159E+03  0.39148015604E+03  0.47000000000E+01 0.  1.
          6    1    1    2  502    0  0.25712249861E+02  0.44101628837E+02  0.24583202292E+02  0.18109226183E+03  0.17200000000E+03 0. -1.
         -6    1    1    2    0  502 -0.25712249861E+02 -0.44101628837E+02 -0.28756445765E+03  0.33894452461E+03  0.17200000000E+03 0.  1.
</event>
<event>
 4    1 -0.6483339E-004  0.2181093E+03  0.7818608E-02  0.1135301E+00
         -5   -1    0    0    0  501 -0.00000000000E+00  0.00000000000E+00  0.89567481414E+03  0.89568714554E+03  0.47000000000E+01 0.  1.
          5   -1    0    0  501    0  0.00000000000E+00 -0.00000000000E+00 -0.55181822373E+02  0.55381617170E+02  0.47000000000E+01 0. -1.
          6    1    1    2  502    0 -0.63103012956E+02 -0.11834558128E+03  0.51470618430E+03  0.55901173781E+03  0.17200000000E+03 0.  1.
         -6    1    1    2    0  502  0.63103012956E+02  0.11834558128E+03  0.32578680747E+03  0.39205702490E+03  0.17200000000E+03 0. -1.
</event>
<event>
 4    1 -0.6483339E-004  0.1780781E+03  0.7818608E-02  0.1169676E+00
          5   -1    0    0  501    0  0.00000000000E+00  0.00000000000E+00  0.57789552984E+02  0.57980362487E+02  0.47000000000E+01 0. -1.
         -5   -1    0    0    0  501 -0.00000000000E+00 -0.00000000000E+00 -0.98110407609E+03  0.98111533375E+03  0.47000000000E+01 0.  1.
          6    1    1    2  502    0 -0.64118968629E+01  0.45680245912E+02 -0.11635579121E+03  0.21272157257E+03  0.17200000000E+03 0. -1.
         -6    1    1    2    0  502  0.64118968629E+01 -0.45680245912E+02 -0.80695873189E+03  0.82637412366E+03  0.17200000000E+03 0.  1.
</event>
<event>
 4    1 -0.6483339E-004  0.2094051E+03  0.7818608E-02  0.1142038E+00
         -5   -1    0    0    0  501 -0.00000000000E+00  0.00000000000E+00  0.61310036847E+02  0.61489922900E+02  0.47000000000E+01 0.  1.
          5   -1    0    0  501    0  0.00000000000E+00 -0.00000000000E+00 -0.90314384789E+03  0.90315607731E+03  0.47000000000E+01 0. -1.
          6    1    1    2  502    0 -0.13591747158E+02 -0.11866658500E+03 -0.64162612995E+03  0.67493302232E+03  0.17200000000E+03 0. -1.
         -6    1    1    2    0  502  0.13591747158E+02  0.11866658500E+03 -0.20020768109E+03  0.28971297788E+03  0.17200000000E+03 0.  1.
</event>
<event>
 4    1 -0.6483339E-004  0.1778921E+03  0.7818608E-02  0.1169859E+00
          5   -1    0    0  501    0  0.00000000000E+00  0.00000000000E+00  0.23235701280E+03  0.23240454255E+03  0.47000000000E+01 0. -1.
         -5   -1    0    0    0  501 -0.00000000000E+00 -0.00000000000E+00 -0.13936390508E+03  0.13944313550E+03  0.47000000000E+01 0.  1.
          6    1    1    2  502    0 -0.15830547894E+02  0.42555700178E+02  0.18020888596E+02  0.17880253435E+03  0.17200000000E+03 0.  1.
         -6    1    1    2    0  502  0.15830547894E+02 -0.42555700178E+02  0.74972219127E+02  0.19304514370E+03  0.17200000000E+03 0. -1.
</event>
<event>
 4    1 -0.6483339E-004  0.2372882E+03  0.7818608E-02  0.1121613E+00
         -5   -1    0    0    0  501 -0.00000000000E+00  0.00000000000E+00  0.74471815322E+02  0.74619979077E+02  0.47000000000E+01 0.  1.
          5   -1    0    0  501    0  0.00000000000E+00 -0.00000000000E+00 -0.88897367136E+03  0.88898609571E+03  0.47000000000E+01 0. -1.
          6    1    1    2  502    0  0.45962143837E+02  0.15687310948E+03 -0.59416215177E+03  0.63979243020E+03  0.17200000000E+03 0. -1.
         -6    1    1    2    0  502 -0.45962143837E+02 -0.15687310948E+03 -0.22033970427E+03  0.32381364459E+03  0.17200000000E+03 0.  1.
</event>
<event>
 4    1 -0.6483339E-004  0.1922649E+03  0.7818608E-02  0.1156434E+00
          5   -1    0    0  501    0  0.00000000000E+00  0.00000000000E+00  0.43483877582E+02  0.43737142220E+02  0.47000000000E+01 0. -1.
         -5   -1    0    0    0  501 -0.00000000000E+00 -0.00000000000E+00 -0.97000298373E+03  0.97001437022E+03  0.47000000000E+01 0.  1.
          6    1    1    2  502    0  0.12811097077E+02  0.84956934109E+02 -0.28306171472E+03  0.34218377986E+03  0.17200000000E+03 0. -1.
         -6    1    1    2    0  502 -0.12811097077E+02 -0.84956934109E+02 -0.64345739143E+03  0.67156773258E+03  0.17200000000E+03 0.  1.
</event>
<event>
 4    1 -0.6483339E-004  0.8025100E+03  0.7818608E-02  0.9556391E-01
          5   -1    0    0  501    0  0.00000000000E+00  0.00000000000E+00  0.14757773640E+04  0.14757848482E+04  0.47000000000E+01 0. -1.
         -5   -1    0    0    0  501 -0.00000000000E+00 -0.00000000000E+00 -0.74299797858E+03  0.74301284388E+03  0.47000000000E+01 0.  1.
          6    1    1    2  502    0 -0.31127518824E+03 -0.71940674087E+03  0.10790603146E+04  0.13447652078E+04  0.17200000000E+03 0. -1.
         -6    1    1    2    0  502  0.31127518824E+03  0.71940674087E+03 -0.34628092915E+03  0.87403248425E+03  0.17200000000E+03 0.  1.
</event>
<event>
 4    1 -0.6483339E-004  0.1893111E+03  0.7818608E-02  0.1159084E+00
         -5   -1    0    0    0  501 -0.00000000000E+00  0.00000000000E+00  0.25562797831E+03  0.25567118198E+03  0.47000000000E+01 0.  1.
          5   -1    0    0  501    0  0.00000000000E+00 -0.00000000000E+00 -0.15732599109E+03  0.15739617998E+03  0.47000000000E+01 0. -1.
          6    1    1    2  502    0  0.21057098816E+02  0.76231918011E+02 -0.19156294762E+02  0.19027787670E+03  0.17200000000E+03 0.  1.
         -6    1    1    2    0  502 -0.21057098816E+02 -0.76231918011E+02  0.11745828198E+03  0.22278948525E+03  0.17200000000E+03 0.  1.
</event>
<event>
 4    1 -0.6483339E-004  0.3439723E+03  0.7818608E-02  0.1065117E+00
         -5   -1    0    0    0  501 -0.00000000000E+00  0.00000000000E+00  0.22748778408E+03  0.22753633096E+03  0.47000000000E+01 0.  1.
          5   -1    0    0  501    0  0.00000000000E+00 -0.00000000000E+00 -0.54560991080E+03  0.54563015382E+03  0.47000000000E+01 0. -1.
          6    1    1    2  502    0 -0.23954179209E+03  0.17706689743E+03 -0.24282975924E+03  0.42105017314E+03  0.17200000000E+03 0.  1.
         -6    1    1    2    0  502  0.23954179209E+03 -0.17706689743E+03 -0.75292367473E+02  0.35211631164E+03  0.17200000000E+03 0. -1.
</event>
<event>
 4    1 -0.6483339E-004  0.2347208E+03  0.7818608E-02  0.1123360E+00
          5   -1    0    0  501    0  0.00000000000E+00  0.00000000000E+00  0.35570739722E+03  0.35573844667E+03  0.47000000000E+01 0. -1.
         -5   -1    0    0    0  501 -0.00000000000E+00 -0.00000000000E+00 -0.15812977391E+03  0.15819960618E+03  0.47000000000E+01 0.  1.
          6    1    1    2  502    0  0.12394320220E+03  0.10073695912E+03  0.13599954823E+03  0.27127426974E+03  0.17200000000E+03 0.  1.
         -6    1    1    2    0  502 -0.12394320220E+03 -0.10073695912E+03  0.61578075084E+02  0.24266378311E+03  0.17200000000E+03 0. -1.
</event>
<event>
 4    1 -0.6483339E-004  0.3645682E+03  0.7818608E-02  0.1056790E+00
          5   -1    0    0  501    0  0.00000000000E+00  0.00000000000E+00  0.11666764479E+03  0.11676227705E+03  0.47000000000E+01 0. -1.
         -5   -1    0    0    0  501 -0.00000000000E+00 -0.00000000000E+00 -0.11433644694E+04  0.11433741294E+04  0.47000000000E+01 0.  1.
          6    1    1    2  502    0 -0.23900845627E+03  0.21494407512E+03 -0.55377228473E+03  0.66300357536E+03  0.17200000000E+03 0. -1.
         -6    1    1    2    0  502  0.23900845627E+03 -0.21494407512E+03 -0.47292453983E+03  0.59713283109E+03  0.17200000000E+03 0.  1.
</event>
<event>
 4    1 -0.6483339E-004  0.1920571E+03  0.7818608E-02  0.1156619E+00
          5   -1    0    0  501    0  0.00000000000E+00  0.00000000000E+00  0.10982106859E+04  0.10982207431E+04  0.47000000000E+01 0. -1.
         -5   -1    0    0    0  501 -0.00000000000E+00 -0.00000000000E+00 -0.35504565408E+02  0.35814301122E+02  0.47000000000E+01 0.  1.
          6    1    1    2  502    0  0.55168762656E+01 -0.85273045300E+02  0.39435175503E+03  0.43863337182E+03  0.17200000000E+03 0. -1.
         -6    1    1    2    0  502 -0.55168762656E+01  0.85273045300E+02  0.66835436545E+03  0.69540167241E+03  0.17200000000E+03 0. -1.
</event>
<event>
 4    1 -0.6483339E-004  0.1861417E+03  0.7818608E-02  0.1161988E+00
         -5   -1    0    0    0  501 -0.00000000000E+00  0.00000000000E+00  0.13403005809E+03  0.13411243966E+03  0.47000000000E+01 0.  1.
          5   -1    0    0  501    0  0.00000000000E+00 -0.00000000000E+00 -0.80136406428E+03  0.80137784692E+03  0.47000000000E+01 0. -1.
          6    1    1    2  502    0 -0.66917981209E+02 -0.24222328490E+02 -0.71868170370E+03  0.74239620731E+03  0.17200000000E+03 0. -1.
         -6    1    1    2    0  502  0.66917981209E+02  0.24222328490E+02  0.51347697499E+02  0.19309407926E+03  0.17200000000E+03 0.  1.
</event>
<event>
 4    1 -0.6483339E-004  0.1826426E+03  0.7818608E-02  0.1165270E+00
          5   -1    0    0  501    0  0.00000000000E+00  0.00000000000E+00  0.23104329719E+03  0.23109109714E+03  0.47000000000E+01 0. -1.
         -5   -1    0    0    0  501 -0.00000000000E+00 -0.00000000000E+00 -0.14777210080E+03  0.14784682537E+03  0.47000000000E+01 0.  1.
          6    1    1    2  502    0  0.16711164376E+02  0.59119003169E+02  0.70748716771E+02  0.19586653741E+03  0.17200000000E+03 0. -1.
         -6    1    1    2    0  502 -0.16711164376E+02 -0.59119003169E+02  0.12522479628E+02  0.18307138511E+03  0.17200000000E+03 0.  1.
</event>
<event>
 4    1 -0.6483339E-004  0.1941534E+03  0.7818608E-02  0.1154768E+00
          5   -1    0    0  501    0  0.00000000000E+00  0.00000000000E+00  0.34598792658E+02  0.34916564170E+02  0.47000000000E+01 0. -1.
         -5   -1    0    0    0  501 -0.00000000000E+00 -0.00000000000E+00 -0.13317207125E+04  0.13317290062E+04  0.47000000000E+01 0.  1.
          6    1    1    2  502    0  0.85743146412E+02 -0.27562151952E+02 -0.35400336746E+03  0.40374985269E+03  0.17200000000E+03 0. -1.
         -6    1    1    2    0  502 -0.85743146412E+02  0.27562151952E+02 -0.94311855234E+03  0.96289571769E+03  0.17200000000E+03 0.  1.
</event>
<event>
 4    1 -0.6483339E-004  0.2046486E+03  0.7818608E-02  0.1145875E+00
         -5   -1    0    0    0  501 -0.00000000000E+00  0.00000000000E+00  0.85056977231E+03  0.85058275763E+03  0.47000000000E+01 0.  1.
          5   -1    0    0  501    0  0.00000000000E+00 -0.00000000000E+00 -0.12087603758E+03  0.12096737767E+03  0.47000000000E+01 0. -1.
          6    1    1    2  502    0 -0.10928886250E+03 -0.18788361756E+02  0.73887818170E+03  0.76669552326E+03  0.17200000000E+03 0.  1.
         -6    1    1    2    0  502  0.10928886250E+03  0.18788361756E+02 -0.91844469633E+01  0.20485461203E+03  0.17200000000E+03 0. -1.
</event>
<event>
 4    1 -0.6483339E-004  0.2068586E+03  0.7818608E-02  0.1144078E+00
         -5   -1    0    0    0  501 -0.00000000000E+00  0.00000000000E+00  0.15219809377E+03  0.15227064637E+03  0.47000000000E+01 0.  1.
          5   -1    0    0  501    0  0.00000000000E+00 -0.00000000000E+00 -0.35937402861E+03  0.35940476129E+03  0.47000000000E+01 0. -1.
          6    1    1    2  502    0 -0.11490523641E+03 -0.18058195072E+01 -0.22305227123E+03  0.30420846477E+03  0.17200000000E+03 0. -1.
         -6    1    1    2    0  502  0.11490523641E+03  0.18058195072E+01  0.15876336387E+02  0.20746694290E+03  0.17200000000E+03 0.  1.
</event>
<event>
 4    1 -0.6483339E-004  0.2710994E+03  0.7818608E-02  0.1100652E+00
          5   -1    0    0  501    0  0.00000000000E+00  0.00000000000E+00  0.66241342511E+03  0.66243009878E+03  0.47000000000E+01 0. -1.
         -5   -1    0    0    0  501 -0.00000000000E+00 -0.00000000000E+00 -0.25776727638E+03  0.25781012155E+03  0.47000000000E+01 0.  1.
          6    1    1    2  502    0  0.37320184409E+02 -0.20619915034E+03  0.54959682568E+03  0.61282261427E+03  0.17200000000E+03 0. -1.
         -6    1    1    2    0  502 -0.37320184409E+02  0.20619915034E+03 -0.14495067695E+03  0.30741760605E+03  0.17200000000E+03 0.  1.
</event>
<event>
 4    1 -0.6483339E-004  0.1996911E+03  0.7818608E-02  0.1150000E+00
         -5   -1    0    0    0  501 -0.00000000000E+00  0.00000000000E+00  0.10113537213E+03  0.10124452329E+03  0.47000000000E+01 0.  1.
          5   -1    0    0  501    0  0.00000000000E+00 -0.00000000000E+00 -0.40740818182E+03  0.40743529132E+03  0.47000000000E+01 0. -1.
          6    1    1    2  502    0 -0.34821181157E+02  0.95289054009E+02 -0.19935068670E+03  0.28216522599E+03  0.17200000000E+03 0. -1.
         -6    1    1    2    0  502  0.34821181157E+02 -0.95289054009E+02 -0.10692212300E+03  0.22651458862E+03  0.17200000000E+03 0. -1.
</event>
<event>
 4    1 -0.6483339E-004  0.8941125E+03  0.7818608E-02  0.9432971E-01
         -5   -1    0    0    0  501 -0.00000000000E+00  0.00000000000E+00  0.89307428981E+03  0.89308665712E+03  0.47000000000E+01 0.  1.
          5   -1    0    0  501    0  0.00000000000E+00 -0.00000000000E+00 -0.94723912072E+03  0.94725078085E+03  0.47000000000E+01 0. -1.
          6    1    1    2  502    0 -0.87730595548E+03  0.13689884643E+02 -0.24290690784E+03  0.92652086772E+03  0.17200000000E+03 0. -1.
         -6    1    1    2    0  502  0.87730595548E+03 -0.13689884643E+02  0.18874207693E+03  0.91381657025E+03  0.17200000000E+03 0.  1.
</event>
<event>
 4    1 -0.6483339E-004  0.2046916E+03  0.7818608E-02  0.1145840E+00
         -5   -1    0    0    0  501 -0.00000000000E+00  0.00000000000E+00  0.39552971133E+03  0.39555763492E+03  0.47000000000E+01 0.  1.
          5   -1    0    0  501    0  0.00000000000E+00 -0.00000000000E+00 -0.10945371254E+03  0.10955457631E+03  0.47000000000E+01 0. -1.
          6    1    1    2  502    0  0.96259283440E+02  0.55215905980E+02  0.18885858362E+03  0.27850711037E+03  0.17200000000E+03 0.  1.
         -6    1    1    2    0  502 -0.96259283440E+02 -0.55215905980E+02  0.97217415167E+02  0.22660510085E+03  0.17200000000E+03 0. -1.
</event>
<event>
 4    1 -0.6483339E-004  0.2522338E+03  0.7818608E-02  0.1111901E+00
         -5   -1    0    0    0  501 -0.00000000000E+00  0.00000000000E+00  0.60387848979E+02  0.60570473865E+02  0.47000000000E+01 0.  1.
          5   -1    0    0  501    0  0.00000000000E+00 -0.00000000000E+00 -0.13322244049E+04  0.13322326955E+04  0.47000000000E+01 0. -1.
          6    1    1    2  502    0  0.24819514733E+02  0.18281653621E+03 -0.95541487540E+03  0.98814952227E+03  0.17200000000E+03 0. -1.
         -6    1    1    2    0  502 -0.24819514733E+02 -0.18281653621E+03 -0.31642168053E+03  0.40465364712E+03  0.17200000000E+03 0.  1.
</event>
<event>
 4    1 -0.6483339E-004  0.1929581E+03  0.7818608E-02  0.1155820E+00
         -5   -1    0    0    0  501 -0.00000000000E+00  0.00000000000E+00  0.78390319092E+02  0.78531090196E+02  0.47000000000E+01 0.  1.
          5   -1    0    0  501    0  0.00000000000E+00 -0.00000000000E+00 -0.48158783105E+03  0.48161076506E+03  0.47000000000E+01 0. -1.
          6    1    1    2  502    0  0.52735848835E+02 -0.69769241340E+02 -0.16736127257E+03  0.25542633448E+03  0.17200000000E+03 0.  1.
         -6    1    1    2    0  502 -0.52735848835E+02  0.69769241340E+02 -0.23583623939E+03  0.30471552077E+03  0.17200000000E+03 0. -1.
</event>
<event>
 4    1 -0.6483339E-004  0.2170984E+03  0.7818608E-02  0.1136065E+00
          5   -1    0    0  501    0  0.00000000000E+00  0.00000000000E+00  0.19278353079E+03  0.19284081451E+03  0.47000000000E+01 0. -1.
         -5   -1    0    0    0  501 -0.00000000000E+00 -0.00000000000E+00 -0.50628969810E+03  0.50631151320E+03  0.47000000000E+01 0.  1.
          6    1    1    2  502    0 -0.11898205361E+03 -0.58232149380E+02  0.94662719757E+02  0.23683906522E+03  0.17200000000E+03 0. -1.
         -6    1    1    2    0  502  0.11898205361E+03  0.58232149380E+02 -0.40816888707E+03  0.46231326249E+03  0.17200000000E+03 0.  1.
</event>
<event>
 4    1 -0.6483339E-004  0.2099601E+03  0.7818608E-02  0.1141598E+00
         -5   -1    0    0    0  501 -0.00000000000E+00  0.00000000000E+00  0.16489200035E+04  0.16489267018E+04  0.47000000000E+01 0.  1.
          5   -1    0    0  501    0  0.00000000000E+00 -0.00000000000E+00 -0.35241388067E+02  0.35553416613E+02  0.47000000000E+01 0. -1.
          6    1    1    2  502    0 -0.11382774924E+03 -0.39274283112E+02  0.12236197971E+04  0.12415025709E+04  0.17200000000E+03 0. -1.
         -6    1    1    2    0  502  0.11382774924E+03  0.39274283112E+02  0.39005881834E+03  0.44297754748E+03  0.17200000000E+03 0.  1.
</event>
<event>
 4    1 -0.6483339E-004  0.2146238E+03  0.7818608E-02  0.1137956E+00
         -5   -1    0    0    0  501 -0.00000000000E+00  0.00000000000E+00  0.36479876122E+03  0.36482903693E+03  0.47000000000E+01 0.  1.
          5   -1    0    0  501    0  0.00000000000E+00 -0.00000000000E+00 -0.12806751249E+03  0.12815372705E+03  0.47000000000E+01 0. -1.
          6    1    1    2  502    0  0.20646335391E+02 -0.12670091576E+03  0.88545487937E+02  0.23217169650E+03  0.17200000000E+03 0. -1.
         -6    1    1    2    0  502 -0.20646335391E+02  0.12670091576E+03  0.14818576079E+03  0.26081106748E+03  0.17200000000E+03 0. -1.
</event>
<event>
 4    1 -0.6483339E-004  0.1967175E+03  0.7818608E-02  0.1152538E+00
         -5   -1    0    0    0  501 -0.00000000000E+00  0.00000000000E+00  0.10788122698E+03  0.10798355956E+03  0.47000000000E+01 0.  1.
          5   -1    0    0  501    0  0.00000000000E+00 -0.00000000000E+00 -0.49183753178E+03  0.49185998787E+03  0.47000000000E+01 0. -1.
          6    1    1    2  502    0 -0.26073283666E+02  0.91836551982E+02 -0.34816616933E+03  0.39989679902E+03  0.17200000000E+03 0. -1.
         -6    1    1    2    0  502  0.26073283666E+02 -0.91836551982E+02 -0.35790135461E+02  0.19994674840E+03  0.17200000000E+03 0.  1.
</event>
<event>
 4    1 -0.6483339E-004  0.1728933E+03  0.7818608E-02  0.1174864E+00
         -5   -1    0    0    0  501 -0.00000000000E+00  0.00000000000E+00  0.86031894683E+03  0.86033178499E+03  0.47000000000E+01 0.  1.
          5   -1    0    0  501    0  0.00000000000E+00 -0.00000000000E+00 -0.35477173991E+02  0.35787146776E+02  0.47000000000E+01 0. -1.
          6    1    1    2  502    0  0.16960810993E+02 -0.45202206053E+01  0.34122901296E+03  0.38253018285E+03  0.17200000000E+03 0. -1.
         -6    1    1    2    0  502 -0.16960810993E+02  0.45202206053E+01  0.48361275988E+03  0.51358874892E+03  0.17200000000E+03 0.  1.
</event>
<event>
 4    1 -0.6483339E-004  0.2320000E+03  0.7818608E-02  0.1125240E+00
          5   -1    0    0  501    0  0.00000000000E+00  0.00000000000E+00  0.62061382475E+03  0.62063162139E+03  0.47000000000E+01 0. -1.
         -5   -1    0    0    0  501 -0.00000000000E+00 -0.00000000000E+00 -0.11571288668E+03  0.11580829912E+03  0.47000000000E+01 0.  1.
          6    1    1    2  502    0  0.14789193542E+03  0.48661896852E+02  0.67997363667E+02  0.24175948013E+03  0.17200000000E+03 0.  1.
         -6    1    1    2    0  502 -0.14789193542E+03 -0.48661896852E+02  0.43690357440E+03  0.49468044038E+03  0.17200000000E+03 0. -1.
</event>
<event>
 4    1 -0.6483339E-004  0.1837961E+03  0.7818608E-02  0.1164179E+00
         -5   -1    0    0    0  501 -0.00000000000E+00  0.00000000000E+00  0.15345882340E+04  0.15345954314E+04  0.47000000000E+01 0.  1.
          5   -1    0    0  501    0  0.00000000000E+00 -0.00000000000E+00 -0.23198191406E+02  0.23669518046E+02  0.47000000000E+01 0. -1.
          6    1    1    2  502    0 -0.35973945938E+02  0.53878399786E+02  0.94800030566E+03  0.96565293262E+03  0.17200000000E+03 0.  1.
         -6    1    1    2    0  502  0.35973945938E+02 -0.53878399786E+02  0.56338973698E+03  0.59261201683E+03  0.17200000000E+03 0. -1.
</event>
<event>
 4    1 -0.6483339E-004  0.2089160E+03  0.7818608E-02  0.1142427E+00
         -5   -1    0    0    0  501 -0.00000000000E+00  0.00000000000E+00  0.12701484290E+03  0.12710177150E+03  0.47000000000E+01 0.  1.
          5   -1    0    0  501    0  0.00000000000E+00 -0.00000000000E+00 -0.35006490190E+03  0.35009645177E+03  0.47000000000E+01 0. -1.
          6    1    1    2  502    0  0.89082904859E+02  0.78269596934E+02 -0.78627313793E+02  0.22322219472E+03  0.17200000000E+03 0.  1.
         -6    1    1    2    0  502 -0.89082904859E+02 -0.78269596934E+02 -0.14442274520E+03  0.25397602854E+03  0.17200000000E+03 0.  1.
</event>
<event>
 4    1 -0.6483339E-004  0.2023113E+03  0.7818608E-02  0.1147803E+00
          5   -1    0    0  501    0  0.00000000000E+00  0.00000000000E+00  0.22635691795E+03  0.22640570732E+03  0.47000000000E+01 0. -1.
         -5   -1    0    0    0  501 -0.00000000000E+00 -0.00000000000E+00 -0.20320367907E+03  0.20325802613E+03  0.47000000000E+01 0.  1.
          6    1    1    2  502    0 -0.79721893323E+02  0.70641920062E+02  0.83016606277E+02  0.21868154486E+03  0.17200000000E+03 0. -1.
         -6    1    1    2    0  502  0.79721893323E+02 -0.70641920062E+02 -0.59863367393E+02  0.21098218859E+03  0.17200000000E+03 0.  1.
</event>
<event>
 4    1 -0.6483339E-004  0.2578007E+03  0.7818608E-02  0.1108472E+00
          5   -1    0    0  501    0  0.00000000000E+00  0.00000000000E+00  0.30253488203E+03  0.30257138802E+03  0.47000000000E+01 0. -1.
         -5   -1    0    0    0  501 -0.00000000000E+00 -0.00000000000E+00 -0.43197069573E+03  0.43199626383E+03  0.47000000000E+01 0.  1.
          6    1    1    2  502    0 -0.15794330810E+03  0.10922965756E+03  0.19278264726E+03  0.32191047785E+03  0.17200000000E+03 0. -1.
         -6    1    1    2    0  502  0.15794330810E+03 -0.10922965756E+03 -0.32221846096E+03  0.41265717400E+03  0.17200000000E+03 0.  1.
</event>
<event>
 4    1 -0.6483339E-004  0.2181963E+03  0.7818608E-02  0.1135235E+00
          5   -1    0    0  501    0  0.00000000000E+00  0.00000000000E+00  0.16848581118E+03  0.16855135291E+03  0.47000000000E+01 0. -1.
         -5   -1    0    0    0  501 -0.00000000000E+00 -0.00000000000E+00 -0.38281657529E+03  0.38284542614E+03  0.47000000000E+01 0.  1.
          6    1    1    2  502    0 -0.13312882552E+03 -0.17388237259E+02  0.33994940400E+02  0.22082864613E+03  0.17200000000E+03 0. -1.
         -6    1    1    2    0  502  0.13312882552E+03  0.17388237259E+02 -0.24832570451E+03  0.33056813292E+03  0.17200000000E+03 0.  1.
</event>
<event>
 4    1 -0.6483339E-004  0.1964156E+03  0.7818608E-02  0.1152799E+00
          5   -1    0    0  501    0  0.00000000000E+00  0.00000000000E+00  0.96674553710E+03  0.96675696196E+03  0.47000000000E+01 0. -1.
         -5   -1    0    0    0  501 -0.00000000000E+00 -0.00000000000E+00 -0.43155268101E+02  0.43410449950E+02  0.47000000000E+01 0.  1.
          6    1    1    2  502    0 -0.71761657784E+02  0.62010926225E+02  0.32049465237E+03  0.37589348584E+03  0.17200000000E+03 0.  1.
         -6    1    1    2    0  502  0.71761657784E+02 -0.62010926225E+02  0.60309561663E+03  0.63427392607E+03  0.17200000000E+03 0. -1.
</event>
<event>
 4    1 -0.6483339E-004  0.2403847E+03  0.7818608E-02  0.1119537E+00
          5   -1    0    0  501    0  0.00000000000E+00  0.00000000000E+00  0.78597564863E+03  0.78598970110E+03  0.47000000000E+01 0. -1.
         -5   -1    0    0    0  501 -0.00000000000E+00 -0.00000000000E+00 -0.73436357972E+02  0.73586606609E+02  0.47000000000E+01 0.  1.
          6    1    1    2  502    0  0.12653294808E+03  0.11040924389E+03  0.35226834516E+03  0.42647130629E+03  0.17200000000E+03 0.  1.
         -6    1    1    2    0  502 -0.12653294808E+03 -0.11040924389E+03  0.36027094549E+03  0.43310500142E+03  0.17200000000E+03 0. -1.
</event>
<event>
 4    1 -0.6483339E-004  0.1804053E+03  0.7818608E-02  0.1167411E+00
          5   -1    0    0  501    0  0.00000000000E+00  0.00000000000E+00  0.44342502398E+02  0.44590890537E+02  0.47000000000E+01 0. -1.
         -5   -1    0    0    0  501 -0.00000000000E+00 -0.00000000000E+00 -0.98227347676E+03  0.98228472102E+03  0.47000000000E+01 0.  1.
          6    1    1    2  502    0  0.40965349087E+02  0.35831508729E+02 -0.20965942562E+03  0.27659199481E+03  0.17200000000E+03 0. -1.
         -6    1    1    2    0  502 -0.40965349087E+02 -0.35831508729E+02 -0.72827154875E+03  0.75028361675E+03  0.17200000000E+03 0.  1.
</event>
<event>
 4    1 -0.6483339E-004  0.4254019E+03  0.7818608E-02  0.1035322E+00
         -5   -1    0    0    0  501 -0.00000000000E+00  0.00000000000E+00  0.24066778740E+03  0.24071367616E+03  0.47000000000E+01 0.  1.
          5   -1    0    0  501    0  0.00000000000E+00 -0.00000000000E+00 -0.75252911901E+03  0.75254379604E+03  0.47000000000E+01 0. -1.
          6    1    1    2  502    0  0.11302403844E+02  0.38891517485E+03 -0.27127136277E+03  0.50453434949E+03  0.17200000000E+03 0. -1.
         -6    1    1    2    0  502 -0.11302403844E+02 -0.38891517485E+03 -0.24058996884E+03  0.48872312271E+03  0.17200000000E+03 0.  1.
</event>
<event>
 4    1 -0.6483339E-004  0.2008445E+03  0.7818608E-02  0.1149028E+00
         -5   -1    0    0    0  501 -0.00000000000E+00  0.00000000000E+00  0.82361367311E+02  0.82495362447E+02  0.47000000000E+01 0.  1.
          5   -1    0    0  501    0  0.00000000000E+00 -0.00000000000E+00 -0.50380720219E+03  0.50382912479E+03  0.47000000000E+01 0. -1.
          6    1    1    2  502    0 -0.84375482974E+01  0.10336011151E+03 -0.26058008184E+03  0.32899921569E+03  0.17200000000E+03 0. -1.
         -6    1    1    2    0  502  0.84375482974E+01 -0.10336011151E+03 -0.16086575304E+03  0.25732527154E+03  0.17200000000E+03 0.  1.
</event>
<event>
 4    1 -0.6483339E-004  0.2598138E+03  0.7818608E-02  0.1107255E+00
          5   -1    0    0  501    0  0.00000000000E+00  0.00000000000E+00  0.87470161550E+03  0.87471424258E+03  0.47000000000E+01 0. -1.
         -5   -1    0    0    0  501 -0.00000000000E+00 -0.00000000000E+00 -0.87086866313E+02  0.87213601487E+02  0.47000000000E+01 0.  1.
          6    1    1    2  502    0 -0.22553567227E+02 -0.19341807662E+03  0.55664017085E+03  0.61428942328E+03  0.17200000000E+03 0. -1.
         -6    1    1    2    0  502  0.22553567227E+02  0.19341807662E+03  0.23097457835E+03  0.34763842078E+03  0.17200000000E+03 0.  1.
</event>
<event>
 4    1 -0.6483339E-004  0.1759922E+03  0.7818608E-02  0.1171739E+00
          5   -1    0    0  501    0  0.00000000000E+00  0.00000000000E+00  0.17743054147E+03  0.17749278027E+03  0.47000000000E+01 0. -1.
         -5   -1    0    0    0  501 -0.00000000000E+00 -0.00000000000E+00 -0.36611309431E+03  0.36614326134E+03  0.47000000000E+01 0.  1.
          6    1    1    2  502    0 -0.36333154563E+02  0.83155147820E+01  0.10230488313E+03  0.20356702832E+03  0.17200000000E+03 0. -1.
         -6    1    1    2    0  502  0.36333154563E+02 -0.83155147820E+01 -0.29098743597E+03  0.34006901329E+03  0.17200000000E+03 0.  1.
</event>
<event>
 4    1 -0.6483339E-004  0.2550190E+03  0.7818608E-02  0.1110173E+00
          5   -1    0    0  501    0  0.00000000000E+00  0.00000000000E+00  0.35818380854E+03  0.35821464333E+03  0.47000000000E+01 0. -1.
         -5   -1    0    0    0  501 -0.00000000000E+00 -0.00000000000E+00 -0.18176673700E+03  0.18182749154E+03  0.47000000000E+01 0.  1.
          6    1    1    2  502    0  0.50069105107E+02  0.18150423944E+03  0.98571287967E+02  0.27340629662E+03  0.17200000000E+03 0.  1.
         -6    1    1    2    0  502 -0.50069105107E+02 -0.18150423944E+03  0.77845783571E+02  0.26663583825E+03  0.17200000000E+03 0. -1.
</event>
<event>
 4    1 -0.6483339E-004  0.1751171E+03  0.7818608E-02  0.1172614E+00
         -5   -1    0    0    0  501 -0.00000000000E+00  0.00000000000E+00  0.61668507673E+03  0.61670298674E+03  0.47000000000E+01 0.  1.
          5   -1    0    0  501    0  0.00000000000E+00 -0.00000000000E+00 -0.52363092523E+02  0.52573600395E+02  0.47000000000E+01 0. -1.
          6    1    1    2  502    0 -0.29737739359E+02  0.14059232869E+02  0.20542598952E+03  0.26993671914E+03  0.17200000000E+03 0. -1.
         -6    1    1    2    0  502  0.29737739359E+02 -0.14059232869E+02  0.35889599468E+03  0.39933986799E+03  0.17200000000E+03 0.  1.
</event>
<event>
 4    1 -0.6483339E-004  0.2493962E+03  0.7818608E-02  0.1113687E+00
          5   -1    0    0  501    0  0.00000000000E+00  0.00000000000E+00  0.24346540508E+03  0.24351076664E+03  0.47000000000E+01 0. -1.
         -5   -1    0    0    0  501 -0.00000000000E+00 -0.00000000000E+00 -0.25753326878E+03  0.25757615287E+03  0.47000000000E+01 0.  1.
          6    1    1    2  502    0 -0.15031475912E+03 -0.10009973627E+03  0.15867561693E+02  0.24990050725E+03  0.17200000000E+03 0. -1.
         -6    1    1    2    0  502  0.15031475912E+03  0.10009973627E+03 -0.29935425398E+02  0.25118641226E+03  0.17200000000E+03 0.  1.
</event>
<event>
 4    1 -0.6483339E-004  0.1942004E+03  0.7818608E-02  0.1154726E+00
         -5   -1    0    0    0  501 -0.00000000000E+00  0.00000000000E+00  0.89653149791E+03  0.89654381753E+03  0.47000000000E+01 0.  1.
          5   -1    0    0  501    0  0.00000000000E+00 -0.00000000000E+00 -0.58933711221E+02  0.59120828126E+02  0.47000000000E+01 0. -1.
          6    1    1    2  502    0  0.67928885859E+02  0.59291277172E+02  0.16259236158E+03  0.25327863141E+03  0.17200000000E+03 0. -1.
         -6    1    1    2    0  502 -0.67928885859E+02 -0.59291277172E+02  0.67500542511E+03  0.70238601425E+03  0.17200000000E+03 0.  1.
</event>
<event>
 4    1 -0.6483339E-004  0.3062656E+03  0.7818608E-02  0.1082150E+00
          5   -1    0    0  501    0  0.00000000000E+00  0.00000000000E+00  0.28432719974E+03  0.28436604318E+03  0.47000000000E+01 0. -1.
         -5   -1    0    0    0  501 -0.00000000000E+00 -0.00000000000E+00 -0.44096558561E+03  0.44099063221E+03  0.47000000000E+01 0.  1.
          6    1    1    2  502    0  0.19875704014E+03 -0.15719500913E+03  0.10374914538E+03  0.32336127948E+03  0.17200000000E+03 0. -1.
         -6    1    1    2    0  502 -0.19875704014E+03  0.15719500913E+03 -0.26038753125E+03  0.40199539591E+03  0.17200000000E+03 0.  1.
</event>
<event>
 4    1 -0.6483339E-004  0.1891248E+03  0.7818608E-02  0.1159253E+00
          5   -1    0    0  501    0  0.00000000000E+00  0.00000000000E+00  0.35620160604E+02  0.35928899808E+02  0.47000000000E+01 0. -1.
         -5   -1    0    0    0  501 -0.00000000000E+00 -0.00000000000E+00 -0.10900695787E+04  0.10900797111E+04  0.47000000000E+01 0.  1.
          6    1    1    2  502    0 -0.72782806580E+02 -0.29779936045E+02 -0.36497183757E+03  0.41106279781E+03  0.17200000000E+03 0.  1.
         -6    1    1    2    0  502  0.72782806580E+02  0.29779936045E+02 -0.68947758055E+03  0.71494581306E+03  0.17200000000E+03 0. -1.
</event>
<event>
 4    1 -0.6483339E-004  0.2421683E+03  0.7818608E-02  0.1118357E+00
         -5   -1    0    0    0  501 -0.00000000000E+00  0.00000000000E+00  0.60601694882E+03  0.60603517411E+03  0.47000000000E+01 0.  1.
          5   -1    0    0  501    0  0.00000000000E+00 -0.00000000000E+00 -0.13133025117E+03  0.13141432521E+03  0.47000000000E+01 0. -1.
          6    1    1    2  502    0 -0.28611434227E+02 -0.16805613529E+03  0.48072576646E+02  0.24689360340E+03  0.17200000000E+03 0. -1.
         -6    1    1    2    0  502  0.28611434227E+02  0.16805613529E+03  0.42661412101E+03  0.49055589592E+03  0.17200000000E+03 0.  1.
</event>
<event>
 4    1 -0.6483339E-004  0.2241764E+03  0.7818608E-02  0.1130807E+00
          5   -1    0    0  501    0  0.00000000000E+00  0.00000000000E+00  0.14865572351E+03  0.14873000414E+03  0.47000000000E+01 0. -1.
         -5   -1    0    0    0  501 -0.00000000000E+00 -0.00000000000E+00 -0.33805804589E+03  0.33809071621E+03  0.47000000000E+01 0.  1.
          6    1    1    2  502    0  0.11415382841E+03  0.87406918822E+02 -0.89248891086E+02  0.24128910162E+03  0.17200000000E+03 0. -1.
         -6    1    1    2    0  502 -0.11415382841E+03 -0.87406918822E+02 -0.10015343130E+03  0.24553161874E+03  0.17200000000E+03 0. -1.
</event>
<event>
 4    1 -0.6483339E-004  0.2299441E+03  0.7818608E-02  0.1126679E+00
         -5   -1    0    0    0  501 -0.00000000000E+00  0.00000000000E+00  0.10612343523E+04  0.10612447599E+04  0.47000000000E+01 0.  1.
          5   -1    0    0  501    0  0.00000000000E+00 -0.00000000000E+00 -0.50004693692E+02  0.50225087269E+02  0.47000000000E+01 0. -1.
          6    1    1    2  502    0  0.10773389227E+03 -0.10809118127E+03  0.54876189693E+03  0.59499068441E+03  0.17200000000E+03 0. -1.
         -6    1    1    2    0  502 -0.10773389227E+03  0.10809118127E+03  0.46246776165E+03  0.51647916278E+03  0.17200000000E+03 0.  1.
</event>
<event>
 4    1 -0.6483339E-004  0.2259754E+03  0.7818608E-02  0.1129505E+00
         -5   -1    0    0    0  501 -0.00000000000E+00  0.00000000000E+00  0.22391306891E+03  0.22396239066E+03  0.47000000000E+01 0.  1.
          5   -1    0    0  501    0  0.00000000000E+00 -0.00000000000E+00 -0.23394579152E+03  0.23399299855E+03  0.47000000000E+01 0. -1.
          6    1    1    2  502    0 -0.14331694207E+03 -0.30678122013E+02 -0.41641099873E+02  0.22978005625E+03  0.17200000000E+03 0.  1.
         -6    1    1    2    0  502  0.14331694207E+03  0.30678122013E+02  0.31608377264E+02  0.22817533295E+03  0.17200000000E+03 0.  1.
</event>
<event>
 4    1 -0.6483339E-004  0.2722638E+03  0.7818608E-02  0.1099991E+00
         -5   -1    0    0    0  501 -0.00000000000E+00  0.00000000000E+00  0.61713157233E+03  0.61714946938E+03  0.47000000000E+01 0.  1.
          5   -1    0    0  501    0  0.00000000000E+00 -0.00000000000E+00 -0.13835338110E+03  0.13843318989E+03  0.47000000000E+01 0. -1.
          6    1    1    2  502    0 -0.21099356017E+03  0.50317091919E+01  0.10203199065E+03  0.29075441123E+03  0.17200000000E+03 0. -1.
         -6    1    1    2    0  502  0.21099356017E+03 -0.50317091919E+01  0.37674620058E+03  0.46482824805E+03  0.17200000000E+03 0.  1.
</event>
<event>
 4    1 -0.6483339E-004  0.1792026E+03  0.7818608E-02  0.1168577E+00
         -5   -1    0    0    0  501 -0.00000000000E+00  0.00000000000E+00  0.13234417397E+04  0.13234500854E+04  0.47000000000E+01 0.  1.
          5   -1    0    0  501    0  0.00000000000E+00 -0.00000000000E+00 -0.28754601922E+02  0.29136182518E+02  0.47000000000E+01 0. -1.
          6    1    1    2  502    0 -0.49868163582E+02  0.65384970894E+01  0.91949128138E+03  0.93679122659E+03  0.17200000000E+03 0.  1.
         -6    1    1    2    0  502  0.49868163582E+02 -0.65384970894E+01  0.37519585641E+03  0.41579504128E+03  0.17200000000E+03 0. -1.
</event>
<event>
 4    1 -0.6483339E-004  0.2494329E+03  0.7818608E-02  0.1113664E+00
         -5   -1    0    0    0  501 -0.00000000000E+00  0.00000000000E+00  0.38077947079E+03  0.38080847597E+03  0.47000000000E+01 0.  1.
          5   -1    0    0  501    0  0.00000000000E+00 -0.00000000000E+00 -0.25172509841E+03  0.25176897181E+03  0.47000000000E+01 0. -1.
          6    1    1    2  502    0  0.15680214316E+03  0.89698582764E+02 -0.12287556368E+03  0.27805602313E+03  0.17200000000E+03 0. -1.
         -6    1    1    2    0  502 -0.15680214316E+03 -0.89698582764E+02  0.25192993606E+03  0.35452142465E+03  0.17200000000E+03 0.  1.
</event>
<event>
 4    1 -0.6483339E-004  0.3350337E+03  0.7818608E-02  0.1068931E+00
         -5   -1    0    0    0  501 -0.00000000000E+00  0.00000000000E+00  0.63713078915E+02  0.63886199017E+02  0.47000000000E+01 0.  1.
          5   -1    0    0  501    0  0.00000000000E+00 -0.00000000000E+00 -0.19792595875E+04  0.19792651678E+04  0.47000000000E+01 0. -1.
          6    1    1    2  502    0 -0.13087233315E+03 -0.25600001003E+03 -0.12983928554E+04  0.13409219141E+04  0.17200000000E+03 0. -1.
         -6    1    1    2    0  502  0.13087233315E+03  0.25600001003E+03 -0.61715365311E+03  0.70222945272E+03  0.17200000000E+03 0.  1.
</event>
<event>
 4    1 -0.6483339E-004  0.1763504E+03  0.7818608E-02  0.1171383E+00
          5   -1    0    0  501    0  0.00000000000E+00  0.00000000000E+00  0.97674901895E+02  0.97787915717E+02  0.47000000000E+01 0. -1.
         -5   -1    0    0    0  501 -0.00000000000E+00 -0.00000000000E+00 -0.31812519107E+03  0.31815990822E+03  0.47000000000E+01 0.  1.
          6    1    1    2  502    0 -0.29476865008E+02 -0.25428009345E+02 -0.10783842617E+03  0.20670896301E+03  0.17200000000E+03 0.  1.
         -6    1    1    2    0  502  0.29476865008E+02  0.25428009345E+02 -0.11261186301E+03  0.20923886093E+03  0.17200000000E+03 0.  1.
</event>
<event>
 4    1 -0.6483339E-004  0.2917814E+03  0.7818608E-02  0.1089423E+00
         -5   -1    0    0    0  501 -0.00000000000E+00  0.00000000000E+00  0.16220350011E+04  0.16220418104E+04  0.47000000000E+01 0.  1.
          5   -1    0    0  501    0  0.00000000000E+00 -0.00000000000E+00 -0.60847035444E+02  0.61028286248E+02  0.47000000000E+01 0. -1.
          6    1    1    2  502    0 -0.22962037507E+03  0.53168185389E+02  0.10940800823E+04  0.11323195658E+04  0.17200000000E+03 0. -1.
         -6    1    1    2    0  502  0.22962037507E+03 -0.53168185389E+02  0.46710788337E+03  0.55075053091E+03  0.17200000000E+03 0.  1.
</event>
<event>
 4    1 -0.6483339E-004  0.1891682E+03  0.7818608E-02  0.1159214E+00
         -5   -1    0    0    0  501 -0.00000000000E+00  0.00000000000E+00  0.10909716687E+03  0.10919835996E+03  0.47000000000E+01 0.  1.
          5   -1    0    0  501    0  0.00000000000E+00 -0.00000000000E+00 -0.34526538816E+03  0.34529737656E+03  0.47000000000E+01 0. -1.
          6    1    1    2  502    0  0.71456865848E+02  0.33083710536E+02 -0.16927744120E+03  0.25384930112E+03  0.17200000000E+03 0. -1.
         -6    1    1    2    0  502 -0.71456865848E+02 -0.33083710536E+02 -0.66890780089E+02  0.20064643540E+03  0.17200000000E+03 0.  1.
</event>
<event>
 4    1 -0.6483339E-004  0.2700328E+03  0.7818608E-02  0.1101261E+00
          5   -1    0    0  501    0  0.00000000000E+00  0.00000000000E+00  0.54708129550E+03  0.54710148409E+03  0.47000000000E+01 0. -1.
         -5   -1    0    0    0  501 -0.00000000000E+00 -0.00000000000E+00 -0.22980118525E+03  0.22984924351E+03  0.47000000000E+01 0.  1.
          6    1    1    2  502    0  0.13944875020E+03  0.15455671564E+03  0.41043710020E+03  0.49130066711E+03  0.17200000000E+03 0. -1.
         -6    1    1    2    0  502 -0.13944875020E+03 -0.15455671564E+03 -0.93156989945E+02  0.28565006049E+03  0.17200000000E+03 0.  1.
</event>
<event>
 4    1 -0.6483339E-004  0.1822152E+03  0.7818608E-02  0.1165676E+00
          5   -1    0    0  501    0  0.00000000000E+00  0.00000000000E+00  0.28911616185E+03  0.28915436196E+03  0.47000000000E+01 0. -1.
         -5   -1    0    0    0  501 -0.00000000000E+00 -0.00000000000E+00 -0.16835730029E+03  0.16842289203E+03  0.47000000000E+01 0.  1.
          6    1    1    2  502    0  0.52954293003E+02  0.28534382862E+02 -0.68679738773E+02  0.19472872071E+03  0.17200000000E+03 0.  1.
         -6    1    1    2    0  502 -0.52954293003E+02 -0.28534382862E+02  0.18943860033E+03  0.26284853328E+03  0.17200000000E+03 0. -1.
</event>
<event>
 4    1 -0.6483339E-004  0.1842369E+03  0.7818608E-02  0.1163764E+00
         -5   -1    0    0    0  501 -0.00000000000E+00  0.00000000000E+00  0.15559287732E+03  0.15566384768E+03  0.47000000000E+01 0.  1.
          5   -1    0    0  501    0  0.00000000000E+00 -0.00000000000E+00 -0.23174445880E+03  0.23179211415E+03  0.47000000000E+01 0. -1.
          6    1    1    2  502    0  0.43103688450E+02  0.50013032848E+02  0.90773834734E+01  0.18446037597E+03  0.17200000000E+03 0. -1.
         -6    1    1    2    0  502 -0.43103688450E+02 -0.50013032848E+02 -0.85228964950E+02  0.20299558586E+03  0.17200000000E+03 0. -1.
</event>
<event>
 4    1 -0.6483339E-004  0.2203963E+03  0.7818608E-02  0.1133588E+00
         -5   -1    0    0    0  501 -0.00000000000E+00  0.00000000000E+00  0.37234313502E+03  0.37237279734E+03  0.47000000000E+01 0.  1.
          5   -1    0    0  501    0  0.00000000000E+00 -0.00000000000E+00 -0.25077034698E+03  0.25081438740E+03  0.47000000000E+01 0. -1.
          6    1    1    2  502    0 -0.11976991024E+03 -0.68159248228E+02 -0.15507076033E+03  0.26948368267E+03  0.17200000000E+03 0. -1.
         -6    1    1    2    0  502  0.11976991024E+03  0.68159248228E+02  0.27664354837E+03  0.35370350206E+03  0.17200000000E+03 0.  1.
</event>
<event>
 4    1 -0.6483339E-004  0.1898047E+03  0.7818608E-02  0.1158638E+00
          5   -1    0    0  501    0  0.00000000000E+00  0.00000000000E+00  0.10340303799E+03  0.10350979792E+03  0.47000000000E+01 0. -1.
         -5   -1    0    0    0  501 -0.00000000000E+00 -0.00000000000E+00 -0.37842596168E+03  0.37845514724E+03  0.47000000000E+01 0.  1.
          6    1    1    2  502    0 -0.58452049597E+02 -0.55001657673E+02 -0.69304855983E+02  0.20206184081E+03  0.17200000000E+03 0. -1.
         -6    1    1    2    0  502  0.58452049597E+02  0.55001657673E+02 -0.20571806771E+03  0.27990310436E+03  0.17200000000E+03 0.  1.
</event>
<event>
 4    1 -0.6483339E-004  0.2140422E+03  0.7818608E-02  0.1138404E+00
         -5   -1    0    0    0  501 -0.00000000000E+00  0.00000000000E+00  0.18092875225E+03  0.18098978808E+03  0.47000000000E+01 0.  1.
          5   -1    0    0  501    0  0.00000000000E+00 -0.00000000000E+00 -0.31341066603E+03  0.31344590535E+03  0.47000000000E+01 0. -1.
          6    1    1    2  502    0 -0.20553577480E+02 -0.12572833053E+03 -0.17467974504E+03  0.27627355279E+03  0.17200000000E+03 0. -1.
         -6    1    1    2    0  502  0.20553577480E+02  0.12572833053E+03  0.42197831261E+02  0.21816214064E+03  0.17200000000E+03 0.  1.
</event>
<event>
 4    1 -0.6483339E-004  0.2355648E+03  0.7818608E-02  0.1122783E+00
          5   -1    0    0  501    0  0.00000000000E+00  0.00000000000E+00  0.95524917419E+03  0.95526073655E+03  0.47000000000E+01 0. -1.
         -5   -1    0    0    0  501 -0.00000000000E+00 -0.00000000000E+00 -0.60209974344E+02  0.60393137114E+02  0.47000000000E+01 0.  1.
          6    1    1    2  502    0 -0.11717036123E+03 -0.11035341523E+03  0.54501636254E+03  0.59374540440E+03  0.17200000000E+03 0. -1.
         -6    1    1    2    0  502  0.11717036123E+03  0.11035341523E+03  0.35002283730E+03  0.42190846927E+03  0.17200000000E+03 0.  1.
</event>
<event>
 4    1 -0.6483339E-004  0.1901213E+03  0.7818608E-02  0.1158352E+00
         -5   -1    0    0    0  501 -0.00000000000E+00  0.00000000000E+00  0.17173281653E+03  0.17179711951E+03  0.47000000000E+01 0.  1.
          5   -1    0    0  501    0  0.00000000000E+00 -0.00000000000E+00 -0.21695222949E+03  0.21700313335E+03  0.47000000000E+01 0. -1.
          6    1    1    2  502    0 -0.90936449958E+01 -0.80494893613E+02 -0.56516034053E+02  0.19834360182E+03  0.17200000000E+03 0. -1.
         -6    1    1    2    0  502  0.90936449958E+01  0.80494893613E+02  0.11296621084E+02  0.19045665104E+03  0.17200000000E+03 0. -1.
</event>
<event>
 4    1 -0.6483339E-004  0.2673866E+03  0.7818608E-02  0.1102785E+00
          5   -1    0    0  501    0  0.00000000000E+00  0.00000000000E+00  0.36139138834E+03  0.36142194948E+03  0.47000000000E+01 0. -1.
         -5   -1    0    0    0  501 -0.00000000000E+00 -0.00000000000E+00 -0.19783912439E+03  0.19789494470E+03  0.47000000000E+01 0.  1.
          6    1    1    2  502    0 -0.19987776305E+03 -0.44277278873E+02  0.76452915172E+02  0.27810186232E+03  0.17200000000E+03 0. -1.
         -6    1    1    2    0  502  0.19987776305E+03  0.44277278873E+02  0.87099348779E+02  0.28121503186E+03  0.17200000000E+03 0.  1.
</event>
<event>
 4    1 -0.6483339E-004  0.2075781E+03  0.7818608E-02  0.1143498E+00
         -5   -1    0    0    0  501 -0.00000000000E+00  0.00000000000E+00  0.94441164335E+02  0.94558043132E+02  0.47000000000E+01 0.  1.
          5   -1    0    0  501    0  0.00000000000E+00 -0.00000000000E+00 -0.68105763090E+03  0.68107384813E+03  0.47000000000E+01 0. -1.
          6    1    1    2  502    0 -0.78458085457E+02 -0.85726379451E+02 -0.51630230487E+03  0.55646810629E+03  0.17200000000E+03 0.  1.
         -6    1    1    2    0  502  0.78458085457E+02  0.85726379451E+02 -0.70314161695E+02  0.21916378497E+03  0.17200000000E+03 0.  1.
</event>
<event>
 4    1 -0.6483339E-004  0.2878951E+03  0.7818608E-02  0.1091453E+00
         -5   -1    0    0    0  501 -0.00000000000E+00  0.00000000000E+00  0.13029880963E+04  0.13029965729E+04  0.47000000000E+01 0.  1.
          5   -1    0    0  501    0  0.00000000000E+00 -0.00000000000E+00 -0.66845029896E+02  0.67010059109E+02  0.47000000000E+01 0. -1.
          6    1    1    2  502    0  0.19387937301E+02 -0.23005157066E+03  0.77076184206E+03  0.82277423055E+03  0.17200000000E+03 0. -1.
         -6    1    1    2    0  502 -0.19387937301E+02  0.23005157066E+03  0.46538122431E+03  0.54723240147E+03  0.17200000000E+03 0. -1.
</event>
<event>
 4    1 -0.6483339E-004  0.2016346E+03  0.7818608E-02  0.1148367E+00
         -5   -1    0    0    0  501 -0.00000000000E+00  0.00000000000E+00  0.19634467144E+03  0.19640091651E+03  0.47000000000E+01 0.  1.
          5   -1    0    0  501    0  0.00000000000E+00 -0.00000000000E+00 -0.32067424477E+03  0.32070868598E+03  0.47000000000E+01 0. -1.
          6    1    1    2  502    0 -0.16470081782E+02 -0.10392907147E+03  0.91782033496E+02  0.22154109588E+03  0.17200000000E+03 0.  1.
         -6    1    1    2    0  502  0.16470081782E+02  0.10392907147E+03 -0.21611160683E+03  0.29556850660E+03  0.17200000000E+03 0. -1.
</event>
<event>
 4    1 -0.6483339E-004  0.4500169E+03  0.7818608E-02  0.1027717E+00
         -5   -1    0    0    0  501 -0.00000000000E+00  0.00000000000E+00  0.10920796931E+04  0.10920898068E+04  0.47000000000E+01 0.  1.
          5   -1    0    0  501    0  0.00000000000E+00 -0.00000000000E+00 -0.26192078090E+03  0.26196294674E+03  0.47000000000E+01 0. -1.
          6    1    1    2  502    0 -0.34479577889E+03 -0.23248022853E+03  0.49179727584E+02  0.45269618002E+03  0.17200000000E+03 0. -1.
         -6    1    1    2    0  502  0.34479577889E+03  0.23248022853E+03  0.78097918465E+03  0.90135657354E+03  0.17200000000E+03 0.  1.
</event>
<event>
 4    1 -0.6483339E-004  0.2847747E+03  0.7818608E-02  0.1093109E+00
         -5   -1    0    0    0  501 -0.00000000000E+00  0.00000000000E+00  0.20856576287E+03  0.20861871307E+03  0.47000000000E+01 0.  1.
          5   -1    0    0  501    0  0.00000000000E+00 -0.00000000000E+00 -0.47213996932E+03  0.47216336223E+03  0.47000000000E+01 0. -1.
          6    1    1    2  502    0 -0.16939667538E+03  0.15105434737E+03 -0.27486024935E+03  0.39578378714E+03  0.17200000000E+03 0. -1.
         -6    1    1    2    0  502  0.16939667538E+03 -0.15105434737E+03  0.11286042896E+02  0.28499828816E+03  0.17200000000E+03 0. -1.
</event>
<event>
 4    1 -0.6483339E-004  0.2723825E+03  0.7818608E-02  0.1099924E+00
         -5   -1    0    0    0  501 -0.00000000000E+00  0.00000000000E+00  0.25696979189E+03  0.25701277000E+03  0.47000000000E+01 0.  1.
          5   -1    0    0  501    0  0.00000000000E+00 -0.00000000000E+00 -0.29013936680E+03  0.29017743222E+03  0.47000000000E+01 0. -1.
          6    1    1    2  502    0 -0.14233803892E+03  0.15603877200E+03 -0.36293562298E+02  0.27478980759E+03  0.17200000000E+03 0.  1.
         -6    1    1    2    0  502  0.14233803892E+03 -0.15603877200E+03  0.31239873830E+01  0.27240039462E+03  0.17200000000E+03 0.  1.
</event>
<event>
 4    1 -0.6483339E-004  0.1833513E+03  0.7818608E-02  0.1164598E+00
         -5   -1    0    0    0  501 -0.00000000000E+00  0.00000000000E+00  0.67100501471E+02  0.67264903908E+02  0.47000000000E+01 0.  1.
          5   -1    0    0  501    0  0.00000000000E+00 -0.00000000000E+00 -0.51027297289E+03  0.51029461771E+03  0.47000000000E+01 0. -1.
          6    1    1    2  502    0  0.35718759838E+02 -0.52515506723E+02 -0.26211853637E+03  0.31988097061E+03  0.17200000000E+03 0. -1.
         -6    1    1    2    0  502 -0.35718759838E+02  0.52515506723E+02 -0.18105393505E+03  0.25767855100E+03  0.17200000000E+03 0. -1.
</event>
<event>
 4    1 -0.6483339E-004  0.2335490E+03  0.7818608E-02  0.1124166E+00
          5   -1    0    0  501    0  0.00000000000E+00  0.00000000000E+00  0.40628335009E+03  0.40631053464E+03  0.47000000000E+01 0. -1.
         -5   -1    0    0    0  501 -0.00000000000E+00 -0.00000000000E+00 -0.18430431088E+03  0.18436422920E+03  0.47000000000E+01 0.  1.
          6    1    1    2  502    0  0.76388322002E+02  0.13829657332E+03  0.26496603795E+03  0.35320266023E+03  0.17200000000E+03 0. -1.
         -6    1    1    2    0  502 -0.76388322002E+02 -0.13829657332E+03 -0.42986998737E+02  0.23747210360E+03  0.17200000000E+03 0.  1.
</event>
<event>
 4    1 -0.6483339E-004  0.2096143E+03  0.7818608E-02  0.1141872E+00
         -5   -1    0    0    0  501 -0.00000000000E+00  0.00000000000E+00  0.14178949431E+04  0.14179027328E+04  0.47000000000E+01 0.  1.
          5   -1    0    0  501    0  0.00000000000E+00 -0.00000000000E+00 -0.33067537316E+02  0.33399880601E+02  0.47000000000E+01 0. -1.
          6    1    1    2  502    0  0.57174429117E+02 -0.10528639470E+03  0.50348558637E+03  0.54537682013E+03  0.17200000000E+03 0. -1.
         -6    1    1    2    0  502 -0.57174429117E+02  0.10528639470E+03  0.88134181938E+03  0.90592579323E+03  0.17200000000E+03 0.  1.
</event>
<event>
 4    1 -0.6483339E-004  0.1930621E+03  0.7818608E-02  0.1155728E+00
          5   -1    0    0  501    0  0.00000000000E+00  0.00000000000E+00  0.16198883791E+04  0.16198951974E+04  0.47000000000E+01 0. -1.
         -5   -1    0    0    0  501 -0.00000000000E+00 -0.00000000000E+00 -0.24549171629E+02  0.24995036061E+02  0.47000000000E+01 0.  1.
          6    1    1    2  502    0 -0.62821818993E+02 -0.61175129628E+02  0.10174432693E+04  0.10355982733E+04  0.17200000000E+03 0. -1.
         -6    1    1    2    0  502  0.62821818993E+02  0.61175129628E+02  0.57789593818E+03  0.60929196022E+03  0.17200000000E+03 0. -1.
</event>
<event>
 4    1 -0.6483339E-004  0.3339662E+03  0.7818608E-02  0.1069395E+00
         -5   -1    0    0    0  501 -0.00000000000E+00  0.00000000000E+00  0.30855795985E+03  0.30859375332E+03  0.47000000000E+01 0.  1.
          5   -1    0    0  501    0  0.00000000000E+00 -0.00000000000E+00 -0.45049543140E+03  0.45051994818E+03  0.47000000000E+01 0. -1.
          6    1    1    2  502    0  0.16394581069E+03  0.23467254220E+03 -0.23975683223E+03  0.41111649141E+03  0.17200000000E+03 0. -1.
         -6    1    1    2    0  502 -0.16394581069E+03 -0.23467254220E+03  0.97819360680E+02  0.34799721009E+03  0.17200000000E+03 0.  1.
</event>
<event>
 4    1 -0.6483339E-004  0.2301875E+03  0.7818608E-02  0.1126508E+00
         -5   -1    0    0    0  501 -0.00000000000E+00  0.00000000000E+00  0.24293694753E+03  0.24298240775E+03  0.47000000000E+01 0.  1.
          5   -1    0    0  501    0  0.00000000000E+00 -0.00000000000E+00 -0.76878168688E+03  0.76879605363E+03  0.47000000000E+01 0. -1.
          6    1    1    2  502    0 -0.86755887195E+02 -0.12599875644E+03 -0.69109152225E+03  0.72841867268E+03  0.17200000000E+03 0. -1.
         -6    1    1    2    0  502  0.86755887195E+02  0.12599875644E+03  0.16524678290E+03  0.28335978869E+03  0.17200000000E+03 0.  1.
</event>
<event>
 4    1 -0.6483339E-004  0.2632548E+03  0.7818608E-02  0.1105203E+00
         -5   -1    0    0    0  501 -0.00000000000E+00  0.00000000000E+00  0.27384055517E+03  0.27388088589E+03  0.47000000000E+01 0.  1.
          5   -1    0    0  501    0  0.00000000000E+00 -0.00000000000E+00 -0.26350453329E+03  0.26354644574E+03  0.47000000000E+01 0. -1.
          6    1    1    2  502    0  0.13471899236E+02 -0.19884066086E+03 -0.48481686340E+02  0.26768185293E+03  0.17200000000E+03 0. -1.
         -6    1    1    2    0  502 -0.13471899236E+02  0.19884066086E+03  0.58817708221E+02  0.26974547870E+03  0.17200000000E+03 0.  1.
</event>
<event>
 4    1 -0.6483339E-004  0.1817673E+03  0.7818608E-02  0.1166104E+00
          5   -1    0    0  501    0  0.00000000000E+00  0.00000000000E+00  0.48655471263E+02  0.48881948445E+02  0.47000000000E+01 0. -1.
         -5   -1    0    0    0  501 -0.00000000000E+00 -0.00000000000E+00 -0.10349620349E+04  0.10349727068E+04  0.47000000000E+01 0.  1.
          6    1    1    2  502    0  0.38500141701E+02 -0.44419585130E+02 -0.17458401131E+03  0.25202963607E+03  0.17200000000E+03 0. -1.
         -6    1    1    2    0  502 -0.38500141701E+02  0.44419585130E+02 -0.81172255235E+03  0.83182501912E+03  0.17200000000E+03 0.  1.
</event>
<event>
 4    1 -0.6483339E-004  0.2124222E+03  0.7818608E-02  0.1139662E+00
          5   -1    0    0  501    0  0.00000000000E+00  0.00000000000E+00  0.55702251843E+03  0.55704234672E+03  0.47000000000E+01 0. -1.
         -5   -1    0    0    0  501 -0.00000000000E+00 -0.00000000000E+00 -0.10191869458E+03  0.10202700773E+03  0.47000000000E+01 0.  1.
          6    1    1    2  502    0  0.11259836745E+03  0.53486500795E+02  0.37703230896E+03  0.43275461883E+03  0.17200000000E+03 0. -1.
         -6    1    1    2    0  502 -0.11259836745E+03 -0.53486500795E+02  0.78071514885E+02  0.22631473561E+03  0.17200000000E+03 0.  1.
</event>
<event>
 4    1 -0.6483339E-004  0.1997815E+03  0.7818608E-02  0.1149924E+00
          5   -1    0    0  501    0  0.00000000000E+00  0.00000000000E+00  0.25448573193E+03  0.25452912949E+03  0.47000000000E+01 0. -1.
         -5   -1    0    0    0  501 -0.00000000000E+00 -0.00000000000E+00 -0.15925712889E+03  0.15932646705E+03  0.47000000000E+01 0.  1.
          6    1    1    2  502    0  0.99768958797E+02 -0.19359516996E+02  0.73596990580E+02  0.21290644204E+03  0.17200000000E+03 0.  1.
         -6    1    1    2    0  502 -0.99768958797E+02  0.19359516996E+02  0.21631612457E+02  0.20094915450E+03  0.17200000000E+03 0. -1.
</event>
<event>
 4    1 -0.6483339E-004  0.2902418E+03  0.7818608E-02  0.1090223E+00
          5   -1    0    0  501    0  0.00000000000E+00  0.00000000000E+00  0.13908173899E+03  0.13916113006E+03  0.47000000000E+01 0. -1.
         -5   -1    0    0    0  501 -0.00000000000E+00 -0.00000000000E+00 -0.60700113372E+03  0.60701932946E+03  0.47000000000E+01 0.  1.
          6    1    1    2  502    0  0.20142027041E+03 -0.11868531873E+03 -0.21496803137E+03  0.36118081999E+03  0.17200000000E+03 0. -1.
         -6    1    1    2    0  502 -0.20142027041E+03  0.11868531873E+03 -0.25295136336E+03  0.38499963953E+03  0.17200000000E+03 0. -1.
</event>
<event>
 4    1 -0.6483339E-004  0.2854485E+03  0.7818608E-02  0.1092750E+00
          5   -1    0    0  501    0  0.00000000000E+00  0.00000000000E+00  0.25235194064E+04  0.25235237832E+04  0.47000000000E+01 0. -1.
         -5   -1    0    0    0  501 -0.00000000000E+00 -0.00000000000E+00 -0.79128868024E+02  0.79268327564E+02  0.47000000000E+01 0.  1.
          6    1    1    2  502    0  0.77307926406E+02 -0.21429023896E+03  0.22237899147E+04  0.22420353269E+04  0.17200000000E+03 0. -1.
         -6    1    1    2    0  502 -0.77307926406E+02  0.21429023896E+03  0.22060062364E+03  0.36075678393E+03  0.17200000000E+03 0.  1.
</event>
<event>
 4    1 -0.6483339E-004  0.2192687E+03  0.7818608E-02  0.1134429E+00
          5   -1    0    0  501    0  0.00000000000E+00  0.00000000000E+00  0.30066734937E+03  0.30070408208E+03  0.47000000000E+01 0. -1.
         -5   -1    0    0    0  501 -0.00000000000E+00 -0.00000000000E+00 -0.51027155115E+03  0.51029319603E+03  0.47000000000E+01 0.  1.
          6    1    1    2  502    0 -0.12488049013E+03  0.53848336315E+02  0.23121715051E+03  0.31865365341E+03  0.17200000000E+03 0. -1.
         -6    1    1    2    0  502  0.12488049013E+03 -0.53848336315E+02 -0.44082135230E+03  0.49234362470E+03  0.17200000000E+03 0.  1.
</event>
<event>
 4    1 -0.6483339E-004  0.2563476E+03  0.7818608E-02  0.1109358E+00
         -5   -1    0    0    0  501 -0.00000000000E+00  0.00000000000E+00  0.10016746723E+04  0.10016856987E+04  0.47000000000E+01 0.  1.
          5   -1    0    0  501    0  0.00000000000E+00 -0.00000000000E+00 -0.13252847510E+03  0.13261178949E+03  0.47000000000E+01 0. -1.
          6    1    1    2  502    0  0.22252258920E+02  0.18877211514E+03  0.31466485101E+02  0.25827158994E+03  0.17200000000E+03 0. -1.
         -6    1    1    2    0  502 -0.22252258920E+02 -0.18877211514E+03  0.83767971205E+03  0.87602589828E+03  0.17200000000E+03 0.  1.
</event>
<event>
 4    1 -0.6483339E-004  0.1903852E+03  0.7818608E-02  0.1158114E+00
          5   -1    0    0  501    0  0.00000000000E+00  0.00000000000E+00  0.15440020639E+03  0.15447172471E+03  0.47000000000E+01 0. -1.
         -5   -1    0    0    0  501 -0.00000000000E+00 -0.00000000000E+00 -0.35436225365E+03  0.35439342095E+03  0.47000000000E+01 0.  1.
          6    1    1    2  502    0  0.58020417305E+02 -0.57412039802E+02  0.47905170084E+02  0.19631967925E+03  0.17200000000E+03 0. -1.
         -6    1    1    2    0  502 -0.58020417305E+02  0.57412039802E+02 -0.24786721734E+03  0.31254546641E+03  0.17200000000E+03 0.  1.
</event>
<event>
 4    1 -0.6483339E-004  0.3847587E+03  0.7818608E-02  0.1049189E+00
          5   -1    0    0  501    0  0.00000000000E+00  0.00000000000E+00  0.11857925940E+04  0.11858019084E+04  0.47000000000E+01 0. -1.
         -5   -1    0    0    0  501 -0.00000000000E+00 -0.00000000000E+00 -0.19832500671E+03  0.19838069030E+03  0.47000000000E+01 0.  1.
          6    1    1    2  502    0  0.34339951964E+03  0.23066305616E+02  0.91507337602E+03  0.99267243744E+03  0.17200000000E+03 0. -1.
         -6    1    1    2    0  502 -0.34339951964E+03 -0.23066305616E+02  0.72394211246E+02  0.39151016125E+03  0.17200000000E+03 0.  1.
</event>
<event>
 4    1 -0.6483339E-004  0.1923475E+03  0.7818608E-02  0.1156361E+00
         -5   -1    0    0    0  501 -0.00000000000E+00  0.00000000000E+00  0.16023194832E+03  0.16030086483E+03  0.47000000000E+01 0.  1.
          5   -1    0    0  501    0  0.00000000000E+00 -0.00000000000E+00 -0.26776672035E+03  0.26780796577E+03  0.47000000000E+01 0. -1.
          6    1    1    2  502    0 -0.37196881347E+02 -0.77652885368E+02 -0.13332981426E+03  0.23403935131E+03  0.17200000000E+03 0. -1.
         -6    1    1    2    0  502  0.37196881347E+02  0.77652885368E+02  0.25795042233E+02  0.19406947929E+03  0.17200000000E+03 0.  1.
</event>
<event>
 4    1 -0.6483339E-004  0.2002236E+03  0.7818608E-02  0.1149551E+00
          5   -1    0    0  501    0  0.00000000000E+00  0.00000000000E+00  0.22471864975E+03  0.22476779472E+03  0.47000000000E+01 0. -1.
         -5   -1    0    0    0  501 -0.00000000000E+00 -0.00000000000E+00 -0.28244755720E+03  0.28248665910E+03  0.47000000000E+01 0.  1.
          6    1    1    2  502    0  0.10207952125E+03  0.92330712465E+01  0.12512009726E+03  0.23610276788E+03  0.17200000000E+03 0. -1.
         -6    1    1    2    0  502 -0.10207952125E+03 -0.92330712465E+01 -0.18284900471E+03  0.27115168594E+03  0.17200000000E+03 0.  1.
</event>
<event>
 4    1 -0.6483339E-004  0.2390916E+03  0.7818608E-02  0.1120399E+00
          5   -1    0    0  501    0  0.00000000000E+00  0.00000000000E+00  0.48387310272E+03  0.48389592841E+03  0.47000000000E+01 0. -1.
         -5   -1    0    0    0  501 -0.00000000000E+00 -0.00000000000E+00 -0.11848726877E+03  0.11858044889E+03  0.47000000000E+01 0.  1.
          6    1    1    2  502    0 -0.16353537378E+03  0.28930572820E+02  0.16477578930E+03  0.29037192919E+03  0.17200000000E+03 0.  1.
         -6    1    1    2    0  502  0.16353537378E+03 -0.28930572820E+02  0.20061004464E+03  0.31210444811E+03  0.17200000000E+03 0.  1.
</event>
<event>
 4    1 -0.6483339E-004  0.2498741E+03  0.7818608E-02  0.1113384E+00
         -5   -1    0    0    0  501 -0.00000000000E+00  0.00000000000E+00  0.70634572313E+03  0.70636135978E+03  0.47000000000E+01 0.  1.
          5   -1    0    0  501    0  0.00000000000E+00 -0.00000000000E+00 -0.88315595622E+02  0.88440570046E+02  0.47000000000E+01 0. -1.
          6    1    1    2  502    0 -0.17874125820E+03  0.30077377141E+02  0.30959132392E+03  0.39784905912E+03  0.17200000000E+03 0.  1.
         -6    1    1    2    0  502  0.17874125820E+03 -0.30077377141E+02  0.30843880359E+03  0.39695287070E+03  0.17200000000E+03 0. -1.
</event>
<event>
 4    1 -0.6483339E-004  0.1814982E+03  0.7818608E-02  0.1166361E+00
          5   -1    0    0  501    0  0.00000000000E+00  0.00000000000E+00  0.11598624933E+03  0.11608143708E+03  0.47000000000E+01 0. -1.
         -5   -1    0    0    0  501 -0.00000000000E+00 -0.00000000000E+00 -0.30667452784E+03  0.30671054110E+03  0.47000000000E+01 0.  1.
          6    1    1    2  502    0 -0.30850642644E+02 -0.49049364102E+02 -0.37599418397E+02  0.18535187761E+03  0.17200000000E+03 0.  1.
         -6    1    1    2    0  502  0.30850642644E+02  0.49049364102E+02 -0.15308886010E+03  0.23744010057E+03  0.17200000000E+03 0. -1.
</event>
<event>
 4    1 -0.6483339E-004  0.2358289E+03  0.7818608E-02  0.1122603E+00
         -5   -1    0    0    0  501 -0.00000000000E+00  0.00000000000E+00  0.10173408243E+03  0.10184259192E+03  0.47000000000E+01 0.  1.
          5   -1    0    0  501    0  0.00000000000E+00 -0.00000000000E+00 -0.69563293664E+03  0.69564881408E+03  0.47000000000E+01 0. -1.
          6    1    1    2  502    0  0.72857863221E+02  0.14395493534E+03 -0.48170512078E+03  0.53633489074E+03  0.17200000000E+03 0. -1.
         -6    1    1    2    0  502 -0.72857863221E+02 -0.14395493534E+03 -0.11219373343E+03  0.26115651526E+03  0.17200000000E+03 0.  1.
</event>
<event>
 4    1 -0.6483339E-004  0.3330796E+03  0.7818608E-02  0.1069782E+00
          5   -1    0    0  501    0  0.00000000000E+00  0.00000000000E+00  0.60356455187E+03  0.60358285121E+03  0.47000000000E+01 0. -1.
         -5   -1    0    0    0  501 -0.00000000000E+00 -0.00000000000E+00 -0.31728529698E+03  0.31732010601E+03  0.47000000000E+01 0.  1.
          6    1    1    2  502    0  0.28506528613E+03  0.97888273812E+01  0.44181214548E+03  0.55329920512E+03  0.17200000000E+03 0. -1.
         -6    1    1    2    0  502 -0.28506528613E+03 -0.97888273812E+01 -0.15553289059E+03  0.36760375209E+03  0.17200000000E+03 0.  1.
</event>
<event>
 4    1 -0.6483339E-004  0.2900559E+03  0.7818608E-02  0.1090320E+00
          5   -1    0    0  501    0  0.00000000000E+00  0.00000000000E+00  0.30727137429E+03  0.30730731761E+03  0.47000000000E+01 0. -1.
         -5   -1    0    0    0  501 -0.00000000000E+00 -0.00000000000E+00 -0.47413108677E+03  0.47415438145E+03  0.47000000000E+01 0.  1.
          6    1    1    2  502    0 -0.14074907107E+03  0.18638164697E+03  0.17057641966E+03  0.33649477601E+03  0.17200000000E+03 0. -1.
         -6    1    1    2    0  502  0.14074907107E+03 -0.18638164697E+03 -0.33743613215E+03  0.44496692305E+03  0.17200000000E+03 0. -1.
</event>
<event>
 4    1 -0.6483339E-004  0.1990451E+03  0.7818608E-02  0.1150547E+00
          5   -1    0    0  501    0  0.00000000000E+00  0.00000000000E+00  0.30428409493E+03  0.30432039108E+03  0.47000000000E+01 0. -1.
         -5   -1    0    0    0  501 -0.00000000000E+00 -0.00000000000E+00 -0.21745864024E+03  0.21750942558E+03  0.47000000000E+01 0.  1.
          6    1    1    2  502    0  0.18020761093E+02  0.98540334762E+02  0.20872934595E+03  0.28842136756E+03  0.17200000000E+03 0. -1.
         -6    1    1    2    0  502 -0.18020761093E+02 -0.98540334762E+02 -0.12190389127E+03  0.23340844910E+03  0.17200000000E+03 0.  1.
</event>
<event>
 4    1 -0.6483339E-004  0.3101820E+03  0.7818608E-02  0.1080259E+00
         -5   -1    0    0    0  501 -0.00000000000E+00  0.00000000000E+00  0.33003812910E+03  0.33007159323E+03  0.47000000000E+01 0.  1.
          5   -1    0    0  501    0  0.00000000000E+00 -0.00000000000E+00 -0.31536135766E+03  0.31539637903E+03  0.47000000000E+01 0. -1.
          6    1    1    2  502    0 -0.13847594880E+03  0.21783773904E+03 -0.81513100772E+02  0.32071366442E+03  0.17200000000E+03 0. -1.
         -6    1    1    2    0  502  0.13847594880E+03 -0.21783773904E+03  0.96189872215E+02  0.32475430784E+03  0.17200000000E+03 0.  1.
</event>
<event>
 4    1 -0.6483339E-004  0.1819946E+03  0.7818608E-02  0.1165887E+00
         -5   -1    0    0    0  501 -0.00000000000E+00  0.00000000000E+00  0.12828705456E+03  0.12837312168E+03  0.47000000000E+01 0.  1.
          5   -1    0    0  501    0  0.00000000000E+00 -0.00000000000E+00 -0.25910673556E+03  0.25914935928E+03  0.47000000000E+01 0. -1.
          6    1    1    2  502    0 -0.60210404791E+01  0.59175773147E+02 -0.52708213174E+02  0.18947343031E+03  0.17200000000E+03 0. -1.
         -6    1    1    2    0  502  0.60210404791E+01 -0.59175773147E+02 -0.78111467824E+02  0.19804905065E+03  0.17200000000E+03 0. -1.
</event>
<event>
 4    1 -0.6483339E-004  0.1820350E+03  0.7818608E-02  0.1165848E+00
         -5   -1    0    0    0  501 -0.00000000000E+00  0.00000000000E+00  0.32977626525E+02  0.33310866864E+02  0.47000000000E+01 0.  1.
          5   -1    0    0  501    0  0.00000000000E+00 -0.00000000000E+00 -0.14379777786E+04  0.14379854595E+04  0.47000000000E+01 0. -1.
          6    1    1    2  502    0  0.12186074353E+02 -0.58345981551E+02 -0.11087078600E+04  0.11235523454E+04  0.17200000000E+03 0. -1.
         -6    1    1    2    0  502 -0.12186074353E+02  0.58345981551E+02 -0.29629229204E+03  0.34774398096E+03  0.17200000000E+03 0.  1.
</event>
<event>
 4    1 -0.6483339E-004  0.2674484E+03  0.7818608E-02  0.1102749E+00
          5   -1    0    0  501    0  0.00000000000E+00  0.00000000000E+00  0.58019584683E+03  0.58021488319E+03  0.47000000000E+01 0. -1.
         -5   -1    0    0    0  501 -0.00000000000E+00 -0.00000000000E+00 -0.19944668709E+03  0.19950205762E+03  0.47000000000E+01 0.  1.
          6    1    1    2  502    0  0.12340566877E+03  0.16344934462E+03  0.43133950220E+03  0.50752577620E+03  0.17200000000E+03 0. -1.
         -6    1    1    2    0  502 -0.12340566877E+03 -0.16344934462E+03 -0.50590342469E+02  0.27219116461E+03  0.17200000000E+03 0.  1.
</event>
<event>
 4    1 -0.6483339E-004  0.1772559E+03  0.7818608E-02  0.1170486E+00
         -5   -1    0    0    0  501 -0.00000000000E+00  0.00000000000E+00  0.55752594660E+02  0.55950351307E+02  0.47000000000E+01 0.  1.
          5   -1    0    0  501    0  0.00000000000E+00 -0.00000000000E+00 -0.71049535608E+03  0.71051090141E+03  0.47000000000E+01 0. -1.
          6    1    1    2  502    0  0.26314907421E+02  0.33810835326E+02 -0.50233929046E+03  0.53269541924E+03  0.17200000000E+03 0. -1.
         -6    1    1    2    0  502 -0.26314907421E+02 -0.33810835326E+02 -0.15240347096E+03  0.23376583347E+03  0.17200000000E+03 0.  1.
</event>
<event>
 4    1 -0.6483339E-004  0.2624109E+03  0.7818608E-02  0.1105703E+00
          5   -1    0    0  501    0  0.00000000000E+00  0.00000000000E+00  0.27132654150E+03  0.27136724586E+03  0.47000000000E+01 0. -1.
         -5   -1    0    0    0  501 -0.00000000000E+00 -0.00000000000E+00 -0.38843952715E+03  0.38846796039E+03  0.47000000000E+01 0.  1.
          6    1    1    2  502    0  0.50797468355E+02 -0.19155960280E+03  0.13572780207E+03  0.29543442668E+03  0.17200000000E+03 0. -1.
         -6    1    1    2    0  502 -0.50797468355E+02  0.19155960280E+03 -0.25284078771E+03  0.36440077956E+03  0.17200000000E+03 0.  1.
</event>
<event>
 4    1 -0.6483339E-004  0.2182783E+03  0.7818608E-02  0.1135173E+00
          5   -1    0    0  501    0  0.00000000000E+00  0.00000000000E+00  0.32350655170E+03  0.32354069140E+03  0.47000000000E+01 0. -1.
         -5   -1    0    0    0  501 -0.00000000000E+00 -0.00000000000E+00 -0.14783261500E+03  0.14790730901E+03  0.47000000000E+01 0.  1.
          6    1    1    2  502    0 -0.31183728489E+02 -0.13072483807E+03  0.72405601206E+02  0.22997386655E+03  0.17200000000E+03 0. -1.
         -6    1    1    2    0  502  0.31183728489E+02  0.13072483807E+03  0.10326833549E+03  0.24147413386E+03  0.17200000000E+03 0.  1.
</event>
<event>
 4    1 -0.6483339E-004  0.2324874E+03  0.7818608E-02  0.1124901E+00
          5   -1    0    0  501    0  0.00000000000E+00  0.00000000000E+00  0.23235262645E+03  0.23240015709E+03  0.47000000000E+01 0. -1.
         -5   -1    0    0    0  501 -0.00000000000E+00 -0.00000000000E+00 -0.23315078539E+03  0.23319815335E+03  0.47000000000E+01 0.  1.
          6    1    1    2  502    0  0.14488309437E+03 -0.58951703265E+02  0.11637260510E+02  0.23277852174E+03  0.17200000000E+03 0. -1.
         -6    1    1    2    0  502 -0.14488309437E+03  0.58951703265E+02 -0.12435419449E+02  0.23281978870E+03  0.17200000000E+03 0. -1.
</event>
<event>
 4    1 -0.6483339E-004  0.1841834E+03  0.7818608E-02  0.1163815E+00
         -5   -1    0    0    0  501 -0.00000000000E+00  0.00000000000E+00  0.41298368366E+03  0.41301042719E+03  0.47000000000E+01 0.  1.
          5   -1    0    0  501    0  0.00000000000E+00 -0.00000000000E+00 -0.18364222030E+03  0.18370235457E+03  0.47000000000E+01 0. -1.
          6    1    1    2  502    0 -0.16268750357E+02 -0.63834557115E+02 -0.10717009414E+03  0.21309376340E+03  0.17200000000E+03 0. -1.
         -6    1    1    2    0  502  0.16268750357E+02  0.63834557115E+02  0.33651155750E+03  0.38361901837E+03  0.17200000000E+03 0.  1.
</event>
<event>
 4    1 -0.6483339E-004  0.1723072E+03  0.7818608E-02  0.1175463E+00
          5   -1    0    0  501    0  0.00000000000E+00  0.00000000000E+00  0.65393823615E+03  0.65395512590E+03  0.47000000000E+01 0. -1.
         -5   -1    0    0    0  501 -0.00000000000E+00 -0.00000000000E+00 -0.45346093362E+02  0.45589013843E+02  0.47000000000E+01 0.  1.
          6    1    1    2  502    0  0.99068776602E+01 -0.27624119599E+01  0.28930692660E+03  0.33673175515E+03  0.17200000000E+03 0. -1.
         -6    1    1    2    0  502 -0.99068776602E+01  0.27624119599E+01  0.31928521618E+03  0.36281238460E+03  0.17200000000E+03 0. -1.
</event>
<event>
 4    1 -0.6483339E-004  0.2450196E+03  0.7818608E-02  0.1116493E+00
          5   -1    0    0  501    0  0.00000000000E+00  0.00000000000E+00  0.25121278821E+03  0.25125675107E+03  0.47000000000E+01 0. -1.
         -5   -1    0    0    0  501 -0.00000000000E+00 -0.00000000000E+00 -0.27703111914E+03  0.27707098544E+03  0.47000000000E+01 0.  1.
          6    1    1    2  502    0 -0.14395276386E+03 -0.98631667261E+02 -0.11091036160E+03  0.26895299277E+03  0.17200000000E+03 0. -1.
         -6    1    1    2    0  502  0.14395276386E+03  0.98631667261E+02  0.85092030665E+02  0.25937474375E+03  0.17200000000E+03 0.  1.
</event>
<event>
 4    1 -0.6483339E-004  0.1737227E+03  0.7818608E-02  0.1174020E+00
         -5   -1    0    0    0  501 -0.00000000000E+00  0.00000000000E+00  0.31516759370E+03  0.31520263660E+03  0.47000000000E+01 0.  1.
          5   -1    0    0  501    0  0.00000000000E+00 -0.00000000000E+00 -0.35173308330E+03  0.35176448355E+03  0.47000000000E+01 0. -1.
          6    1    1    2  502    0 -0.21031873726E+02 -0.12378812729E+02  0.26621809590E+03  0.31788622069E+03  0.17200000000E+03 0.  1.
         -6    1    1    2    0  502  0.21031873726E+02  0.12378812729E+02 -0.30278358550E+03  0.34908089946E+03  0.17200000000E+03 0. -1.
</event>
<event>
 4    1 -0.6483339E-004  0.2067547E+03  0.7818608E-02  0.1144162E+00
          5   -1    0    0  501    0  0.00000000000E+00  0.00000000000E+00  0.59071571271E+03  0.59073441007E+03  0.47000000000E+01 0. -1.
         -5   -1    0    0    0  501 -0.00000000000E+00 -0.00000000000E+00 -0.10329085648E+03  0.10339773224E+03  0.47000000000E+01 0.  1.
          6    1    1    2  502    0 -0.58319115230E+02  0.98804892924E+02  0.43377643545E+03  0.48053045899E+03  0.17200000000E+03 0. -1.
         -6    1    1    2    0  502  0.58319115230E+02 -0.98804892924E+02  0.53648420787E+02  0.21360168333E+03  0.17200000000E+03 0.  1.
</event>
<event>
 4    1 -0.6483339E-004  0.2515489E+03  0.7818608E-02  0.1112330E+00
         -5   -1    0    0    0  501 -0.00000000000E+00  0.00000000000E+00  0.61592644396E+02  0.61771707469E+02  0.47000000000E+01 0.  1.
          5   -1    0    0  501    0  0.00000000000E+00 -0.00000000000E+00 -0.12077549077E+04  0.12077640528E+04  0.47000000000E+01 0. -1.
          6    1    1    2  502    0  0.14190028455E+03 -0.11643517443E+03 -0.32663026331E+03  0.41226710942E+03  0.17200000000E+03 0. -1.
         -6    1    1    2    0  502 -0.14190028455E+03  0.11643517443E+03 -0.81953200002E+03  0.85726865080E+03  0.17200000000E+03 0.  1.
</event>
<event>
 4    1 -0.6483339E-004  0.1966797E+03  0.7818608E-02  0.1152571E+00
         -5   -1    0    0    0  501 -0.00000000000E+00  0.00000000000E+00  0.69743954501E+03  0.69745538132E+03  0.47000000000E+01 0.  1.
          5   -1    0    0  501    0  0.00000000000E+00 -0.00000000000E+00 -0.78350991551E+02  0.78491833187E+02  0.47000000000E+01 0. -1.
          6    1    1    2  502    0 -0.14504915566E+02  0.94279003131E+02  0.99574722208E+02  0.22044965028E+03  0.17200000000E+03 0. -1.
         -6    1    1    2    0  502  0.14504915566E+02 -0.94279003131E+02  0.51951383125E+03  0.55549756423E+03  0.17200000000E+03 0.  1.
</event>
<event>
 4    1 -0.6483339E-004  0.3937943E+03  0.7818608E-02  0.1045950E+00
          5   -1    0    0  501    0  0.00000000000E+00  0.00000000000E+00  0.11534004210E+04  0.11534099970E+04  0.47000000000E+01 0. -1.
         -5   -1    0    0    0  501 -0.00000000000E+00 -0.00000000000E+00 -0.13814114301E+03  0.13822107434E+03  0.47000000000E+01 0.  1.
          6    1    1    2  502    0  0.28388926433E+02 -0.35310627597E+03  0.61390019508E+03  0.72934725803E+03  0.17200000000E+03 0. -1.
         -6    1    1    2    0  502 -0.28388926433E+02  0.35310627597E+03  0.40135908293E+03  0.56228381332E+03  0.17200000000E+03 0.  1.
</event>
<event>
 4    1 -0.6483339E-004  0.3342803E+03  0.7818608E-02  0.1069259E+00
         -5   -1    0    0    0  501 -0.00000000000E+00  0.00000000000E+00  0.69387050985E+03  0.69388642762E+03  0.47000000000E+01 0.  1.
          5   -1    0    0  501    0  0.00000000000E+00 -0.00000000000E+00 -0.16192592204E+03  0.16199411788E+03  0.47000000000E+01 0. -1.
          6    1    1    2  502    0 -0.27555778118E+03 -0.78912657102E+02  0.23347028987E+03  0.40773971412E+03  0.17200000000E+03 0. -1.
         -6    1    1    2    0  502  0.27555778118E+03  0.78912657102E+02  0.29847429794E+03  0.44814083138E+03  0.17200000000E+03 0.  1.
</event>
<event>
 4    1 -0.6483339E-004  0.2511065E+03  0.7818608E-02  0.1112608E+00
         -5   -1    0    0    0  501 -0.00000000000E+00  0.00000000000E+00  0.49676991273E+03  0.49679214586E+03  0.47000000000E+01 0.  1.
          5   -1    0    0  501    0  0.00000000000E+00 -0.00000000000E+00 -0.15043547310E+03  0.15050887537E+03  0.47000000000E+01 0. -1.
          6    1    1    2  502    0  0.13656035751E+03 -0.12174459293E+03  0.30124693289E+03  0.39217877522E+03  0.17200000000E+03 0.  1.
         -6    1    1    2    0  502 -0.13656035751E+03  0.12174459293E+03  0.45087506734E+02  0.25512224602E+03  0.17200000000E+03 0. -1.
</event>
<event>
 4    1 -0.6483339E-004  0.2493546E+03  0.7818608E-02  0.1113713E+00
          5   -1    0    0  501    0  0.00000000000E+00  0.00000000000E+00  0.46702431913E+03  0.46704796826E+03  0.47000000000E+01 0. -1.
         -5   -1    0    0    0  501 -0.00000000000E+00 -0.00000000000E+00 -0.14173711158E+03  0.14181501612E+03  0.47000000000E+01 0.  1.
          6    1    1    2  502    0  0.17408674108E+03 -0.47828183645E+02  0.23790799564E+03  0.34464176033E+03  0.17200000000E+03 0.  1.
         -6    1    1    2    0  502 -0.17408674108E+03  0.47828183645E+02  0.87379211910E+02  0.26422122406E+03  0.17200000000E+03 0.  1.
</event>
<event>
 4    1 -0.6483339E-004  0.2471392E+03  0.7818608E-02  0.1115126E+00
         -5   -1    0    0    0  501 -0.00000000000E+00  0.00000000000E+00  0.16668257261E+03  0.16674882312E+03  0.47000000000E+01 0.  1.
          5   -1    0    0  501    0  0.00000000000E+00 -0.00000000000E+00 -0.41140733128E+03  0.41143417728E+03  0.47000000000E+01 0. -1.
          6    1    1    2  502    0 -0.54335359915E+02 -0.16894215702E+03 -0.21809957505E+03  0.32961372603E+03  0.17200000000E+03 0.  1.
         -6    1    1    2    0  502  0.54335359915E+02  0.16894215702E+03 -0.26625183619E+02  0.24856927436E+03  0.17200000000E+03 0.  1.
</event>
<event>
 4    1 -0.6483339E-004  0.1779609E+03  0.7818608E-02  0.1169791E+00
          5   -1    0    0  501    0  0.00000000000E+00  0.00000000000E+00  0.21737073293E+03  0.21742153881E+03  0.47000000000E+01 0. -1.
         -5   -1    0    0    0  501 -0.00000000000E+00 -0.00000000000E+00 -0.15401580686E+03  0.15408750359E+03  0.47000000000E+01 0.  1.
          6    1    1    2  502    0 -0.41944770223E+01 -0.45480747833E+02  0.75106000733E+02  0.19316056380E+03  0.17200000000E+03 0. -1.
         -6    1    1    2    0  502  0.41944770223E+01  0.45480747833E+02 -0.11751074654E+02  0.17834847859E+03  0.17200000000E+03 0.  1.
</event>
<event>
 4    1 -0.6483339E-004  0.2715252E+03  0.7818608E-02  0.1100410E+00
         -5   -1    0    0    0  501 -0.00000000000E+00  0.00000000000E+00  0.10962849608E+04  0.10962950357E+04  0.47000000000E+01 0.  1.
          5   -1    0    0  501    0  0.00000000000E+00 -0.00000000000E+00 -0.67355767503E+02  0.67519548398E+02  0.47000000000E+01 0. -1.
          6    1    1    2  502    0  0.14578946905E+03  0.15128574589E+03  0.48298965739E+03  0.55408027879E+03  0.17200000000E+03 0. -1.
         -6    1    1    2    0  502 -0.14578946905E+03 -0.15128574589E+03  0.54593953593E+03  0.60973430532E+03  0.17200000000E+03 0.  1.
</event>
<event>
 4    1 -0.6483339E-004  0.3461614E+03  0.7818608E-02  0.1064202E+00
          5   -1    0    0  501    0  0.00000000000E+00  0.00000000000E+00  0.13364948651E+04  0.13365031292E+04  0.47000000000E+01 0. -1.
         -5   -1    0    0    0  501 -0.00000000000E+00 -0.00000000000E+00 -0.93066629638E+02  0.93185232479E+02  0.47000000000E+01 0.  1.
          6    1    1    2  502    0 -0.26174803103E+03 -0.14741676702E+03  0.75982032477E+03  0.83495787970E+03  0.17200000000E+03 0. -1.
         -6    1    1    2    0  502  0.26174803103E+03  0.14741676702E+03  0.48360791071E+03  0.59473048202E+03  0.17200000000E+03 0.  1.
</event>
<event>
 4    1 -0.6483339E-004  0.2570092E+03  0.7818608E-02  0.1108954E+00
          5   -1    0    0  501    0  0.00000000000E+00  0.00000000000E+00  0.71380131011E+03  0.71381678344E+03  0.47000000000E+01 0. -1.
         -5   -1    0    0    0  501 -0.00000000000E+00 -0.00000000000E+00 -0.21534537999E+03  0.21539666359E+03  0.47000000000E+01 0.  1.
          6    1    1    2  502    0 -0.17799368130E+03  0.69195249923E+02  0.60011149224E+03  0.65283040394E+03  0.17200000000E+03 0. -1.
         -6    1    1    2    0  502  0.17799368130E+03 -0.69195249923E+02 -0.10165556211E+03  0.27638304308E+03  0.17200000000E+03 0.  1.
</event>
<event>
 4    1 -0.6483339E-004  0.2331449E+03  0.7818608E-02  0.1124446E+00
         -5   -1    0    0    0  501 -0.00000000000E+00  0.00000000000E+00  0.86211277725E+02  0.86339298162E+02  0.47000000000E+01 0.  1.
          5   -1    0    0  501    0  0.00000000000E+00 -0.00000000000E+00 -0.10820187143E+04  0.10820289220E+04  0.47000000000E+01 0. -1.
          6    1    1    2  502    0 -0.13533305598E+03 -0.80358571588E+02 -0.87550243342E+03  0.90601382274E+03  0.17200000000E+03 0. -1.
         -6    1    1    2    0  502  0.13533305598E+03  0.80358571588E+02 -0.12030500313E+03  0.26235439742E+03  0.17200000000E+03 0. -1.
</event>
<event>
 4    1 -0.6483339E-004  0.3088291E+03  0.7818608E-02  0.1080908E+00
         -5   -1    0    0    0  501 -0.00000000000E+00  0.00000000000E+00  0.41272456428E+03  0.41275132460E+03  0.47000000000E+01 0.  1.
          5   -1    0    0  501    0  0.00000000000E+00 -0.00000000000E+00 -0.24287665305E+03  0.24292212456E+03  0.47000000000E+01 0. -1.
          6    1    1    2  502    0  0.16018381489E+03  0.20033105420E+03  0.12528142780E+02  0.30908306358E+03  0.17200000000E+03 0. -1.
         -6    1    1    2    0  502 -0.16018381489E+03 -0.20033105420E+03  0.15731976844E+03  0.34659038558E+03  0.17200000000E+03 0.  1.
</event>
<event>
 4    1 -0.6483339E-004  0.2271557E+03  0.7818608E-02  0.1128658E+00
         -5   -1    0    0    0  501 -0.00000000000E+00  0.00000000000E+00  0.40725232431E+02  0.40995543130E+02  0.47000000000E+01 0.  1.
          5   -1    0    0  501    0  0.00000000000E+00 -0.00000000000E+00 -0.15129060921E+04  0.15129133926E+04  0.47000000000E+01 0. -1.
          6    1    1    2  502    0 -0.12960810166E+03  0.72231825438E+02 -0.10521177931E+04  0.10763603241E+04  0.17200000000E+03 0. -1.
         -6    1    1    2    0  502  0.12960810166E+03 -0.72231825438E+02 -0.42006306649E+03  0.47754861161E+03  0.17200000000E+03 0.  1.
</event>
<event>
 4    1 -0.6483339E-004  0.1820987E+03  0.7818608E-02  0.1165787E+00
          5   -1    0    0  501    0  0.00000000000E+00  0.00000000000E+00  0.25221887905E+03  0.25226266658E+03  0.47000000000E+01 0. -1.
         -5   -1    0    0    0  501 -0.00000000000E+00 -0.00000000000E+00 -0.13620701945E+03  0.13628808512E+03  0.47000000000E+01 0.  1.
          6    1    1    2  502    0  0.45481024857E+02 -0.38825505419E+02  0.21433706164E+02  0.18335579416E+03  0.17200000000E+03 0.  1.
         -6    1    1    2    0  502 -0.45481024857E+02  0.38825505419E+02  0.94578153441E+02  0.20519495754E+03  0.17200000000E+03 0.  1.
</event>
<event>
 4    1 -0.6483339E-004  0.2584226E+03  0.7818608E-02  0.1108095E+00
         -5   -1    0    0    0  501 -0.00000000000E+00  0.00000000000E+00  0.10037149740E+04  0.10037259781E+04  0.47000000000E+01 0.  1.
          5   -1    0    0  501    0  0.00000000000E+00 -0.00000000000E+00 -0.12214891676E+03  0.12223930573E+03  0.47000000000E+01 0. -1.
          6    1    1    2  502    0 -0.17955374547E+03  0.70417978867E+02  0.60801444387E+02  0.26547891611E+03  0.17200000000E+03 0. -1.
         -6    1    1    2    0  502  0.17955374547E+03 -0.70417978867E+02  0.82076461287E+03  0.86048636770E+03  0.17200000000E+03 0.  1.
</event>
<event>
 4    1 -0.6483339E-004  0.2127924E+03  0.7818608E-02  0.1139374E+00
          5   -1    0    0  501    0  0.00000000000E+00  0.00000000000E+00  0.23971013183E+03  0.23975620388E+03  0.47000000000E+01 0. -1.
         -5   -1    0    0    0  501 -0.00000000000E+00 -0.00000000000E+00 -0.20016002984E+03  0.20021520309E+03  0.47000000000E+01 0.  1.
          6    1    1    2  502    0  0.98995710821E+02  0.76788331505E+02  0.72160484768E+02  0.22469475779E+03  0.17200000000E+03 0.  1.
         -6    1    1    2    0  502 -0.98995710821E+02 -0.76788331505E+02 -0.32610382785E+02  0.21527664918E+03  0.17200000000E+03 0.  1.
</event>
<event>
 4    1 -0.6483339E-004  0.1804459E+03  0.7818608E-02  0.1167372E+00
          5   -1    0    0  501    0  0.00000000000E+00  0.00000000000E+00  0.48663116797E+03  0.48665386430E+03  0.47000000000E+01 0. -1.
         -5   -1    0    0    0  501 -0.00000000000E+00 -0.00000000000E+00 -0.71608083624E+02  0.71762160226E+02  0.47000000000E+01 0.  1.
          6    1    1    2  502    0  0.35249426668E+02  0.41643657307E+02  0.13528176128E+03  0.22552576618E+03  0.17200000000E+03 0.  1.
         -6    1    1    2    0  502 -0.35249426668E+02 -0.41643657307E+02  0.27974132307E+03  0.33289025835E+03  0.17200000000E+03 0. -1.
</event>
<event>
 4    1 -0.6483339E-004  0.3426989E+03  0.7818608E-02  0.1065652E+00
         -5   -1    0    0    0  501 -0.00000000000E+00  0.00000000000E+00  0.42271116523E+03  0.42273729337E+03  0.47000000000E+01 0.  1.
          5   -1    0    0  501    0  0.00000000000E+00 -0.00000000000E+00 -0.28133471955E+03  0.28137397609E+03  0.47000000000E+01 0. -1.
          6    1    1    2  502    0 -0.19718318616E+03  0.22130815935E+03  0.31102752105E+02  0.34410738366E+03  0.17200000000E+03 0. -1.
         -6    1    1    2    0  502  0.19718318616E+03 -0.22130815935E+03  0.11027369357E+03  0.36000388580E+03  0.17200000000E+03 0.  1.
</event>
<event>
 4    1 -0.6483339E-004  0.1769402E+03  0.7818608E-02  0.1170798E+00
          5   -1    0    0  501    0  0.00000000000E+00  0.00000000000E+00  0.38234991855E+03  0.38237880461E+03  0.47000000000E+01 0. -1.
         -5   -1    0    0    0  501 -0.00000000000E+00 -0.00000000000E+00 -0.85153064226E+02  0.85282673194E+02  0.47000000000E+01 0.  1.
          6    1    1    2  502    0 -0.21568821804E+02  0.35477073174E+02  0.19507082396E+03  0.26336374685E+03  0.17200000000E+03 0. -1.
         -6    1    1    2    0  502  0.21568821804E+02 -0.35477073174E+02  0.10212603036E+03  0.20429773095E+03  0.17200000000E+03 0.  1.
</event>
<event>
 4    1 -0.6483339E-004  0.2841741E+03  0.7818608E-02  0.1093431E+00
         -5   -1    0    0    0  501 -0.00000000000E+00  0.00000000000E+00  0.16565464998E+03  0.16572131142E+03  0.47000000000E+01 0.  1.
          5   -1    0    0  501    0  0.00000000000E+00 -0.00000000000E+00 -0.68203201568E+03  0.68204820974E+03  0.47000000000E+01 0. -1.
          6    1    1    2  502    0  0.10336054522E+03  0.20121515169E+03 -0.48466430298E+03  0.56183131468E+03  0.17200000000E+03 0. -1.
         -6    1    1    2    0  502 -0.10336054522E+03 -0.20121515169E+03 -0.31713062727E+02  0.28593820648E+03  0.17200000000E+03 0.  1.
</event>
<event>
 4    1 -0.6483339E-004  0.3885873E+03  0.7818608E-02  0.1047805E+00
          5   -1    0    0  501    0  0.00000000000E+00  0.00000000000E+00  0.11223874234E+04  0.11223972640E+04  0.47000000000E+01 0. -1.
         -5   -1    0    0    0  501 -0.00000000000E+00 -0.00000000000E+00 -0.14406500621E+03  0.14414165260E+03  0.47000000000E+01 0.  1.
          6    1    1    2  502    0 -0.34538086831E+03  0.46131448860E+02  0.65242811465E+03  0.75938297291E+03  0.17200000000E+03 0. -1.
         -6    1    1    2    0  502  0.34538086831E+03 -0.46131448860E+02  0.32589430256E+03  0.50715594368E+03  0.17200000000E+03 0.  1.
</event>
<event>
 4    1 -0.6483339E-004  0.1721319E+03  0.7818608E-02  0.1175643E+00
          5   -1    0    0  501    0  0.00000000000E+00  0.00000000000E+00  0.20853583902E+03  0.20858879681E+03  0.47000000000E+01 0. -1.
         -5   -1    0    0    0  501 -0.00000000000E+00 -0.00000000000E+00 -0.19678861908E+03  0.19684473730E+03  0.47000000000E+01 0.  1.
          6    1    1    2  502    0  0.56379532871E+01 -0.36875373327E+01 -0.10108342741E+03  0.19961774407E+03  0.17200000000E+03 0.  1.
         -6    1    1    2    0  502 -0.56379532871E+01  0.36875373327E+01  0.11283064735E+03  0.20581579004E+03  0.17200000000E+03 0. -1.
</event>
<event>
 4    1 -0.6483339E-004  0.2912092E+03  0.7818608E-02  0.1089720E+00
         -5   -1    0    0    0  501 -0.00000000000E+00  0.00000000000E+00  0.10008525704E+04  0.10008636059E+04  0.47000000000E+01 0.  1.
          5   -1    0    0  501    0  0.00000000000E+00 -0.00000000000E+00 -0.85273003746E+02  0.85402430690E+02  0.47000000000E+01 0. -1.
          6    1    1    2  502    0 -0.19982936076E+03  0.12364066588E+03  0.41154767783E+03  0.50415699817E+03  0.17200000000E+03 0. -1.
         -6    1    1    2    0  502  0.19982936076E+03 -0.12364066588E+03  0.50403188879E+03  0.58210903841E+03  0.17200000000E+03 0.  1.
</event>
<event>
 4    1 -0.6483339E-004  0.2006223E+03  0.7818608E-02  0.1149215E+00
          5   -1    0    0  501    0  0.00000000000E+00  0.00000000000E+00  0.92344803701E+03  0.92345999754E+03  0.47000000000E+01 0. -1.
         -5   -1    0    0    0  501 -0.00000000000E+00 -0.00000000000E+00 -0.43655427854E+02  0.43907702982E+02  0.47000000000E+01 0.  1.
          6    1    1    2  502    0 -0.38490888496E+02  0.95831897197E+02  0.40656841979E+03  0.45337311454E+03  0.17200000000E+03 0.  1.
         -6    1    1    2    0  502  0.38490888496E+02 -0.95831897197E+02  0.47322418937E+03  0.51399458598E+03  0.17200000000E+03 0.  1.
</event>
<event>
 4    1 -0.6483339E-004  0.2741510E+03  0.7818608E-02  0.1098927E+00
         -5   -1    0    0    0  501 -0.00000000000E+00  0.00000000000E+00  0.15421284621E+03  0.15428445138E+03  0.47000000000E+01 0.  1.
          5   -1    0    0  501    0  0.00000000000E+00 -0.00000000000E+00 -0.72319283151E+03  0.72320810390E+03  0.47000000000E+01 0. -1.
          6    1    1    2  502    0 -0.57474904616E+02 -0.20560017512E+03 -0.33860547276E+02  0.27623420015E+03  0.17200000000E+03 0.  1.
         -6    1    1    2    0  502  0.57474904616E+02  0.20560017512E+03 -0.53511943802E+03  0.60125835513E+03  0.17200000000E+03 0. -1.
</event>
<event>
 4    1 -0.6483339E-004  0.1955475E+03  0.7818608E-02  0.1153551E+00
         -5   -1    0    0    0  501 -0.00000000000E+00  0.00000000000E+00  0.14860814021E+04  0.14860888344E+04  0.47000000000E+01 0.  1.
          5   -1    0    0  501    0  0.00000000000E+00 -0.00000000000E+00 -0.25868033723E+02  0.26291541771E+02  0.47000000000E+01 0. -1.
          6    1    1    2  502    0  0.50834339398E+02 -0.77914558447E+02  0.81844153115E+03  0.84147807362E+03  0.17200000000E+03 0. -1.
         -6    1    1    2    0  502 -0.50834339398E+02  0.77914558447E+02  0.64177183726E+03  0.67090230256E+03  0.17200000000E+03 0.  1.
</event>
<event>
 4    1 -0.6483339E-004  0.1858002E+03  0.7818608E-02  0.1162305E+00
          5   -1    0    0  501    0  0.00000000000E+00  0.00000000000E+00  0.19314215376E+03  0.19319933115E+03  0.47000000000E+01 0. -1.
         -5   -1    0    0    0  501 -0.00000000000E+00 -0.00000000000E+00 -0.17864281775E+03  0.17870463434E+03  0.47000000000E+01 0.  1.
          6    1    1    2  502    0 -0.20234991985E+02  0.67292469069E+02  0.52858021457E+01  0.18587541795E+03  0.17200000000E+03 0. -1.
         -6    1    1    2    0  502  0.20234991985E+02 -0.67292469069E+02  0.92135338591E+01  0.18602854754E+03  0.17200000000E+03 0. -1.
</event>
<event>
 4    1 -0.6483339E-004  0.2040863E+03  0.7818608E-02  0.1146337E+00
         -5   -1    0    0    0  501 -0.00000000000E+00  0.00000000000E+00  0.36734404367E+02  0.37033855649E+02  0.47000000000E+01 0.  1.
          5   -1    0    0  501    0  0.00000000000E+00 -0.00000000000E+00 -0.11313720409E+04  0.11313818034E+04  0.47000000000E+01 0. -1.
          6    1    1    2  502    0  0.84396616774E+02  0.70316492144E+02 -0.57440112541E+03  0.60958006107E+03  0.17200000000E+03 0. -1.
         -6    1    1    2    0  502 -0.84396616774E+02 -0.70316492144E+02 -0.52023651115E+03  0.55883559794E+03  0.17200000000E+03 0.  1.
</event>
<event>
 4    1 -0.6483339E-004  0.2188163E+03  0.7818608E-02  0.1134769E+00
          5   -1    0    0  501    0  0.00000000000E+00  0.00000000000E+00  0.34833850889E+03  0.34837021511E+03  0.47000000000E+01 0. -1.
         -5   -1    0    0    0  501 -0.00000000000E+00 -0.00000000000E+00 -0.13860455232E+03  0.13868421656E+03  0.47000000000E+01 0.  1.
          6    1    1    2  502    0 -0.13352590055E+03 -0.21619436227E+02  0.12778539854E+03  0.25339627902E+03  0.17200000000E+03 0. -1.
         -6    1    1    2    0  502  0.13352590055E+03  0.21619436227E+02  0.81948558023E+02  0.23365815265E+03  0.17200000000E+03 0.  1.
</event>
<event>
 4    1 -0.6483339E-004  0.1792731E+03  0.7818608E-02  0.1168508E+00
         -5   -1    0    0    0  501 -0.00000000000E+00  0.00000000000E+00  0.30051664140E+03  0.30055339253E+03  0.47000000000E+01 0.  1.
          5   -1    0    0  501    0  0.00000000000E+00 -0.00000000000E+00 -0.12270640094E+03  0.12279637956E+03  0.47000000000E+01 0. -1.
          6    1    1    2  502    0 -0.26528107677E+02  0.43024520701E+02  0.12855516457E+02  0.17973345315E+03  0.17200000000E+03 0. -1.
         -6    1    1    2    0  502  0.26528107677E+02 -0.43024520701E+02  0.16495472401E+03  0.24361631893E+03  0.17200000000E+03 0.  1.
</event>
<event>
 4    1 -0.6483339E-004  0.1750301E+03  0.7818608E-02  0.1172701E+00
          5   -1    0    0  501    0  0.00000000000E+00  0.00000000000E+00  0.58232503236E+03  0.58234399913E+03  0.47000000000E+01 0. -1.
         -5   -1    0    0    0  501 -0.00000000000E+00 -0.00000000000E+00 -0.57561146027E+02  0.57752710170E+02  0.47000000000E+01 0.  1.
          6    1    1    2  502    0  0.25689103305E+02 -0.19789259550E+02  0.16751265989E+03  0.24227264816E+03  0.17200000000E+03 0.  1.
         -6    1    1    2    0  502 -0.25689103305E+02  0.19789259550E+02  0.35725122645E+03  0.39782406114E+03  0.17200000000E+03 0. -1.
</event>
<event>
 4    1 -0.6483339E-004  0.2211060E+03  0.7818608E-02  0.1133061E+00
          5   -1    0    0  501    0  0.00000000000E+00  0.00000000000E+00  0.36018308384E+03  0.36021374749E+03  0.47000000000E+01 0. -1.
         -5   -1    0    0    0  501 -0.00000000000E+00 -0.00000000000E+00 -0.20802971971E+03  0.20808280632E+03  0.47000000000E+01 0.  1.
          6    1    1    2  502    0 -0.33992756961E+01 -0.13889670089E+03  0.24363977563E+03  0.32901092514E+03  0.17200000000E+03 0. -1.
         -6    1    1    2    0  502  0.33992756961E+01  0.13889670089E+03 -0.91486411509E+02  0.23928562866E+03  0.17200000000E+03 0.  1.
</event>
<event>
 4    1 -0.6483339E-004  0.1871360E+03  0.7818608E-02  0.1161070E+00
          5   -1    0    0  501    0  0.00000000000E+00  0.00000000000E+00  0.49405744120E+02  0.49628797608E+02  0.47000000000E+01 0. -1.
         -5   -1    0    0    0  501 -0.00000000000E+00 -0.00000000000E+00 -0.11001017821E+04  0.11001118221E+04  0.47000000000E+01 0.  1.
          6    1    1    2  502    0  0.68335171041E+02 -0.27680236050E+02 -0.86895517655E+03  0.88887737620E+03  0.17200000000E+03 0.  1.
         -6    1    1    2    0  502 -0.68335171041E+02  0.27680236050E+02 -0.18174086145E+03  0.26086324346E+03  0.17200000000E+03 0. -1.
</event>
<event>
 4    1 -0.6483339E-004  0.2045761E+03  0.7818608E-02  0.1145935E+00
         -5   -1    0    0    0  501 -0.00000000000E+00  0.00000000000E+00  0.17996187768E+03  0.18002324133E+03  0.47000000000E+01 0.  1.
          5   -1    0    0  501    0  0.00000000000E+00 -0.00000000000E+00 -0.36531707273E+03  0.36534730549E+03  0.47000000000E+01 0. -1.
          6    1    1    2  502    0  0.90034844868E+02 -0.64506804727E+02 -0.25711657848E+03  0.32857318222E+03  0.17200000000E+03 0. -1.
         -6    1    1    2    0  502 -0.90034844868E+02  0.64506804727E+02  0.71761383430E+02  0.21679736460E+03  0.17200000000E+03 0.  1.
</event>
<event>
 4    1 -0.6483339E-004  0.1775709E+03  0.7818608E-02  0.1170175E+00
         -5   -1    0    0    0  501 -0.00000000000E+00  0.00000000000E+00  0.19853340894E+03  0.19858903410E+03  0.47000000000E+01 0.  1.
          5   -1    0    0  501    0  0.00000000000E+00 -0.00000000000E+00 -0.15904299731E+03  0.15911242878E+03  0.47000000000E+01 0. -1.
          6    1    1    2  502    0 -0.10679072537E+01 -0.44116688661E+02  0.27937046194E+02  0.17975511452E+03  0.17200000000E+03 0.  1.
         -6    1    1    2    0  502  0.10679072537E+01  0.44116688661E+02  0.11553365439E+02  0.17794634837E+03  0.17200000000E+03 0. -1.
</event>
<event>
 4    1 -0.6483339E-004  0.2196469E+03  0.7818608E-02  0.1134147E+00
         -5   -1    0    0    0  501 -0.00000000000E+00  0.00000000000E+00  0.39104181066E+03  0.39107005471E+03  0.47000000000E+01 0.  1.
          5   -1    0    0  501    0  0.00000000000E+00 -0.00000000000E+00 -0.12337929123E+03  0.12346877947E+03  0.47000000000E+01 0. -1.
          6    1    1    2  502    0 -0.70111343750E+02 -0.11723971567E+03  0.14045438866E+03  0.26071476127E+03  0.17200000000E+03 0. -1.
         -6    1    1    2    0  502  0.70111343750E+02  0.11723971567E+03  0.12720813077E+03  0.25382407291E+03  0.17200000000E+03 0.  1.
</event>
<event>
 4    1 -0.6483339E-004  0.1816290E+03  0.7818608E-02  0.1166236E+00
         -5   -1    0    0    0  501 -0.00000000000E+00  0.00000000000E+00  0.15099769886E+02  0.15814330546E+02  0.47000000000E+01 0.  1.
          5   -1    0    0  501    0  0.00000000000E+00 -0.00000000000E+00 -0.22191299352E+04  0.22191349123E+04  0.47000000000E+01 0. -1.
          6    1    1    2  502    0 -0.39416740212E+02  0.43027915002E+02 -0.13214605516E+04  0.13338842042E+04  0.17200000000E+03 0.  1.
         -6    1    1    2    0  502  0.39416740212E+02 -0.43027915002E+02 -0.88256961368E+03  0.90106503865E+03  0.17200000000E+03 0.  1.
</event>
<event>
 4    1 -0.6483339E-004  0.1838467E+03  0.7818608E-02  0.1164131E+00
         -5   -1    0    0    0  501 -0.00000000000E+00  0.00000000000E+00  0.20114089810E+03  0.20119580236E+03  0.47000000000E+01 0.  1.
          5   -1    0    0  501    0  0.00000000000E+00 -0.00000000000E+00 -0.17117995010E+03  0.17124446069E+03  0.47000000000E+01 0. -1.
          6    1    1    2  502    0 -0.31002836596E+02 -0.57047679077E+02 -0.10674320620E+02  0.18415633219E+03  0.17200000000E+03 0.  1.
         -6    1    1    2    0  502  0.31002836596E+02  0.57047679077E+02  0.40635268617E+02  0.18828393086E+03  0.17200000000E+03 0.  1.
</event>
<event>
 4    1 -0.6483339E-004  0.1925664E+03  0.7818608E-02  0.1156167E+00
          5   -1    0    0  501    0  0.00000000000E+00  0.00000000000E+00  0.15257385097E+03  0.15264622497E+03  0.47000000000E+01 0. -1.
         -5   -1    0    0    0  501 -0.00000000000E+00 -0.00000000000E+00 -0.46577487074E+03  0.46579858331E+03  0.47000000000E+01 0.  1.
          6    1    1    2  502    0 -0.79579940558E+02  0.34129923584E+02  0.57281522921E+02  0.20090542922E+03  0.17200000000E+03 0. -1.
         -6    1    1    2    0  502  0.79579940558E+02 -0.34129923584E+02 -0.37048254270E+03  0.41753937906E+03  0.17200000000E+03 0.  1.
</event>
<event>
 4    1 -0.6483339E-004  0.2190490E+03  0.7818608E-02  0.1134594E+00
         -5   -1    0    0    0  501 -0.00000000000E+00  0.00000000000E+00  0.18892413920E+03  0.18898259278E+03  0.47000000000E+01 0.  1.
          5   -1    0    0  501    0  0.00000000000E+00 -0.00000000000E+00 -0.32069911528E+03  0.32073355381E+03  0.47000000000E+01 0. -1.
          6    1    1    2  502    0  0.76628422985E+02  0.11192211014E+03 -0.18222117396E+03  0.28493337850E+03  0.17200000000E+03 0. -1.
         -6    1    1    2    0  502 -0.76628422985E+02 -0.11192211014E+03  0.50446197885E+02  0.22478276809E+03  0.17200000000E+03 0.  1.
</event>
<event>
 4    1 -0.6483339E-004  0.3846435E+03  0.7818608E-02  0.1049231E+00
         -5   -1    0    0    0  501 -0.00000000000E+00  0.00000000000E+00  0.93273883263E+03  0.93275067403E+03  0.47000000000E+01 0.  1.
          5   -1    0    0  501    0  0.00000000000E+00 -0.00000000000E+00 -0.17580794332E+03  0.17587075634E+03  0.47000000000E+01 0. -1.
          6    1    1    2  502    0  0.20779566124E+03  0.27420360273E+03  0.20494282092E+03  0.43583507480E+03  0.17200000000E+03 0.  1.
         -6    1    1    2    0  502 -0.20779566124E+03 -0.27420360273E+03  0.55198806839E+03  0.67278635556E+03  0.17200000000E+03 0. -1.
</event>
<event>
 4    1 -0.6483339E-004  0.2505930E+03  0.7818608E-02  0.1112931E+00
         -5   -1    0    0    0  501 -0.00000000000E+00  0.00000000000E+00  0.52036533754E+03  0.52038656258E+03  0.47000000000E+01 0.  1.
          5   -1    0    0  501    0  0.00000000000E+00 -0.00000000000E+00 -0.13756211492E+03  0.13764238250E+03  0.47000000000E+01 0. -1.
          6    1    1    2  502    0 -0.15095538185E+03  0.10210452141E+03  0.75944173245E+02  0.26184800563E+03  0.17200000000E+03 0. -1.
         -6    1    1    2    0  502  0.15095538185E+03 -0.10210452141E+03  0.30685904938E+03  0.39618093946E+03  0.17200000000E+03 0.  1.
</event>
<event>
 4    1 -0.6483339E-004  0.1843043E+03  0.7818608E-02  0.1163701E+00
          5   -1    0    0  501    0  0.00000000000E+00  0.00000000000E+00  0.16216383948E+04  0.16216452058E+04  0.47000000000E+01 0. -1.
         -5   -1    0    0    0  501 -0.00000000000E+00 -0.00000000000E+00 -0.24456120610E+02  0.24903651044E+02  0.47000000000E+01 0.  1.
          6    1    1    2  502    0 -0.59322363996E+02  0.29409787162E+02  0.11190317483E+04  0.11341076370E+04  0.17200000000E+03 0. -1.
         -6    1    1    2    0  502  0.59322363996E+02 -0.29409787162E+02  0.47815052587E+03  0.51244121989E+03  0.17200000000E+03 0.  1.
</event>
<event>
 4    1 -0.6483339E-004  0.1933170E+03  0.7818608E-02  0.1155503E+00
         -5   -1    0    0    0  501 -0.00000000000E+00  0.00000000000E+00  0.10901031776E+03  0.10911159140E+03  0.47000000000E+01 0.  1.
          5   -1    0    0  501    0  0.00000000000E+00 -0.00000000000E+00 -0.34268610355E+03  0.34271833270E+03  0.47000000000E+01 0. -1.
          6    1    1    2  502    0 -0.82038183893E+02 -0.32514794786E+02 -0.12136325275E+03  0.22825537149E+03  0.17200000000E+03 0. -1.
         -6    1    1    2    0  502  0.82038183893E+02  0.32514794786E+02 -0.11231253304E+03  0.22357455261E+03  0.17200000000E+03 0.  1.
</event>
<event>
 4    1 -0.6483339E-004  0.2270758E+03  0.7818608E-02  0.1128715E+00
          5   -1    0    0  501    0  0.00000000000E+00  0.00000000000E+00  0.53851277224E+03  0.53853328204E+03  0.47000000000E+01 0. -1.
         -5   -1    0    0    0  501 -0.00000000000E+00 -0.00000000000E+00 -0.10531318046E+03  0.10541800595E+03  0.47000000000E+01 0.  1.
          6    1    1    2  502    0  0.31807285152E+02 -0.14480240874E+03  0.31396143946E+03  0.38747287187E+03  0.17200000000E+03 0. -1.
         -6    1    1    2    0  502 -0.31807285152E+02  0.14480240874E+03  0.11923815232E+03  0.25647841612E+03  0.17200000000E+03 0.  1.
</event>
<event>
 4    1 -0.6483339E-004  0.2659309E+03  0.7818608E-02  0.1103631E+00
          5   -1    0    0  501    0  0.00000000000E+00  0.00000000000E+00  0.14321734430E+03  0.14329444410E+03  0.47000000000E+01 0. -1.
         -5   -1    0    0    0  501 -0.00000000000E+00 -0.00000000000E+00 -0.77714310018E+03  0.77715731236E+03  0.47000000000E+01 0.  1.
          6    1    1    2  502    0  0.12907427902E+03 -0.15644518471E+03 -0.38973988513E+02  0.26877171932E+03  0.17200000000E+03 0. -1.
         -6    1    1    2    0  502 -0.12907427902E+03  0.15644518471E+03 -0.59495176736E+03  0.65168003714E+03  0.17200000000E+03 0.  1.
</event>
<event>
 4    1 -0.6483339E-004  0.4965227E+03  0.7818608E-02  0.1014691E+00
         -5   -1    0    0    0  501 -0.00000000000E+00  0.00000000000E+00  0.15707080772E+04  0.15707151091E+04  0.47000000000E+01 0.  1.
          5   -1    0    0  501    0  0.00000000000E+00 -0.00000000000E+00 -0.17845645852E+03  0.17851833963E+03  0.47000000000E+01 0. -1.
          6    1    1    2  502    0 -0.26118215403E+03 -0.38566139569E+03  0.39231850018E+03  0.63281010998E+03  0.17200000000E+03 0. -1.
         -6    1    1    2    0  502  0.26118215403E+03  0.38566139569E+03  0.99993311851E+03  0.11164233387E+04  0.17200000000E+03 0.  1.
</event>
<event>
 4    1 -0.6483339E-004  0.3853940E+03  0.7818608E-02  0.1048958E+00
          5   -1    0    0  501    0  0.00000000000E+00  0.00000000000E+00  0.14172078249E+04  0.14172156184E+04  0.47000000000E+01 0. -1.
         -5   -1    0    0    0  501 -0.00000000000E+00 -0.00000000000E+00 -0.13769751967E+03  0.13777770836E+03  0.47000000000E+01 0.  1.
          6    1    1    2  502    0 -0.28042418817E+03 -0.20076555183E+03  0.10199754956E+04  0.10903570717E+04  0.17200000000E+03 0. -1.
         -6    1    1    2    0  502  0.28042418817E+03  0.20076555183E+03  0.25953480963E+03  0.46463625507E+03  0.17200000000E+03 0.  1.
</event>
<event>
 4    1 -0.6483339E-004  0.3085441E+03  0.7818608E-02  0.1081046E+00
          5   -1    0    0  501    0  0.00000000000E+00  0.00000000000E+00  0.23706491276E+03  0.23711149879E+03  0.47000000000E+01 0. -1.
         -5   -1    0    0    0  501 -0.00000000000E+00 -0.00000000000E+00 -0.62860557811E+03  0.62862314850E+03  0.47000000000E+01 0.  1.
          6    1    1    2  502    0 -0.19957203499E+03  0.16058160838E+03  0.64412706281E+02  0.31519588644E+03  0.17200000000E+03 0. -1.
         -6    1    1    2    0  502  0.19957203499E+03 -0.16058160838E+03 -0.45595337163E+03  0.55053876086E+03  0.17200000000E+03 0.  1.
</event>
<event>
 4    1 -0.6483339E-004  0.2039835E+03  0.7818608E-02  0.1146421E+00
         -5   -1    0    0    0  501 -0.00000000000E+00  0.00000000000E+00  0.29280180237E+03  0.29283952170E+03  0.47000000000E+01 0.  1.
          5   -1    0    0  501    0  0.00000000000E+00 -0.00000000000E+00 -0.37974755789E+03  0.37977664189E+03  0.47000000000E+01 0. -1.
          6    1    1    2  502    0  0.10988363018E+02 -0.10910787250E+03 -0.30953071146E+03  0.37070005840E+03  0.17200000000E+03 0. -1.
         -6    1    1    2    0  502 -0.10988363018E+02  0.10910787250E+03  0.22258495593E+03  0.30191610519E+03  0.17200000000E+03 0.  1.
</event>
<event>
 4    1 -0.6483339E-004  0.2174375E+03  0.7818608E-02  0.1135808E+00
          5   -1    0    0  501    0  0.00000000000E+00  0.00000000000E+00  0.23008798220E+04  0.23008846223E+04  0.47000000000E+01 0. -1.
         -5   -1    0    0    0  501 -0.00000000000E+00 -0.00000000000E+00 -0.51922690740E+02  0.52134976875E+02  0.47000000000E+01 0.  1.
          6    1    1    2  502    0  0.83457193914E+02  0.10358556116E+03  0.20396618138E+04  0.20512190001E+04  0.17200000000E+03 0. -1.
         -6    1    1    2    0  502 -0.83457193914E+02 -0.10358556116E+03  0.20929531738E+03  0.30180059903E+03  0.17200000000E+03 0.  1.
</event>
<event>
 4    1 -0.6483339E-004  0.2502965E+03  0.7818608E-02  0.1113118E+00
         -5   -1    0    0    0  501 -0.00000000000E+00  0.00000000000E+00  0.89864148778E+03  0.89865377847E+03  0.47000000000E+01 0.  1.
          5   -1    0    0  501    0  0.00000000000E+00 -0.00000000000E+00 -0.18193384694E+03  0.18199454569E+03  0.47000000000E+01 0. -1.
          6    1    1    2  502    0 -0.35071173443E+02  0.17842176485E+03 -0.66035157992E+02  0.25886088053E+03  0.17200000000E+03 0. -1.
         -6    1    1    2    0  502  0.35071173443E+02 -0.17842176485E+03  0.78274279884E+03  0.82178744363E+03  0.17200000000E+03 0.  1.
</event>
<event>
 4    1 -0.6483339E-004  0.4936306E+03  0.7818608E-02  0.1015455E+00
          5   -1    0    0  501    0  0.00000000000E+00  0.00000000000E+00  0.74156418478E+03  0.74157907882E+03  0.47000000000E+01 0. -1.
         -5   -1    0    0    0  501 -0.00000000000E+00 -0.00000000000E+00 -0.38624435876E+03  0.38627295358E+03  0.47000000000E+01 0.  1.
          6    1    1    2  502    0  0.16183867803E+02 -0.46241238950E+03  0.39558649893E+03  0.63258186322E+03  0.17200000000E+03 0. -1.
         -6    1    1    2    0  502 -0.16183867803E+02  0.46241238950E+03 -0.40266672902E+02  0.49527016919E+03  0.17200000000E+03 0.  1.
</event>
<event>
 4    1 -0.6483339E-004  0.1816208E+03  0.7818608E-02  0.1166244E+00
         -5   -1    0    0    0  501 -0.00000000000E+00  0.00000000000E+00  0.12294821289E+03  0.12303801467E+03  0.47000000000E+01 0.  1.
          5   -1    0    0  501    0  0.00000000000E+00 -0.00000000000E+00 -0.31849358294E+03  0.31852825993E+03  0.47000000000E+01 0. -1.
          6    1    1    2  502    0 -0.48858520838E+02  0.31858208845E+02 -0.99546353987E+01  0.18189336243E+03  0.17200000000E+03 0.  1.
         -6    1    1    2    0  502  0.48858520838E+02 -0.31858208845E+02 -0.18559073465E+03  0.25967291217E+03  0.17200000000E+03 0.  1.
</event>
<event>
 4    1 -0.6483339E-004  0.1808867E+03  0.7818608E-02  0.1166948E+00
          5   -1    0    0  501    0  0.00000000000E+00  0.00000000000E+00  0.10987586260E+03  0.10997633919E+03  0.47000000000E+01 0. -1.
         -5   -1    0    0    0  501 -0.00000000000E+00 -0.00000000000E+00 -0.32513881420E+03  0.32517278254E+03  0.47000000000E+01 0.  1.
          6    1    1    2  502    0 -0.54664632264E+02 -0.12155717275E+02 -0.44249625004E+02  0.18622033400E+03  0.17200000000E+03 0. -1.
         -6    1    1    2    0  502  0.54664632264E+02  0.12155717275E+02 -0.17101332660E+03  0.24892878772E+03  0.17200000000E+03 0. -1.
</event>
<event>
 4    1 -0.6483339E-004  0.2068481E+03  0.7818608E-02  0.1144087E+00
         -5   -1    0    0    0  501 -0.00000000000E+00  0.00000000000E+00  0.47947593740E+03  0.47949897242E+03  0.47000000000E+01 0.  1.
          5   -1    0    0  501    0  0.00000000000E+00 -0.00000000000E+00 -0.10240104050E+03  0.10250884399E+03  0.47000000000E+01 0. -1.
          6    1    1    2  502    0 -0.10762211147E+03 -0.40244601958E+02  0.29315576150E+03  0.35878468106E+03  0.17200000000E+03 0.  1.
         -6    1    1    2    0  502  0.10762211147E+03  0.40244601958E+02  0.83919135404E+02  0.22322313534E+03  0.17200000000E+03 0.  1.
</event>
<event>
 4    1 -0.6483339E-004  0.1809389E+03  0.7818608E-02  0.1166897E+00
         -5   -1    0    0    0  501 -0.00000000000E+00  0.00000000000E+00  0.14678519289E+03  0.14686041962E+03  0.47000000000E+01 0.  1.
          5   -1    0    0  501    0  0.00000000000E+00 -0.00000000000E+00 -0.31129485228E+03  0.31133033109E+03  0.47000000000E+01 0. -1.
          6    1    1    2  502    0 -0.26016522320E+02 -0.49779797164E+02 -0.20432377674E+03  0.27292323716E+03  0.17200000000E+03 0. -1.
         -6    1    1    2    0  502  0.26016522320E+02  0.49779797164E+02  0.39814117345E+02  0.18526751356E+03  0.17200000000E+03 0.  1.
</event>
<event>
 4    1 -0.6483339E-004  0.1798761E+03  0.7818608E-02  0.1167923E+00
          5   -1    0    0  501    0  0.00000000000E+00  0.00000000000E+00  0.16723898652E+03  0.16730501669E+03  0.47000000000E+01 0. -1.
         -5   -1    0    0    0  501 -0.00000000000E+00 -0.00000000000E+00 -0.72537958406E+03  0.72539481041E+03  0.47000000000E+01 0.  1.
          6    1    1    2  502    0 -0.51026222336E+02  0.12950754846E+02  0.10316967832E+03  0.20736291844E+03  0.17200000000E+03 0. -1.
         -6    1    1    2    0  502  0.51026222336E+02 -0.12950754846E+02 -0.66131027587E+03  0.68533690867E+03  0.17200000000E+03 0.  1.
</event>
<event>
 4    1 -0.6483339E-004  0.3412634E+03  0.7818608E-02  0.1066259E+00
         -5   -1    0    0    0  501 -0.00000000000E+00  0.00000000000E+00  0.36730056303E+03  0.36733063254E+03  0.47000000000E+01 0.  1.
          5   -1    0    0  501    0  0.00000000000E+00 -0.00000000000E+00 -0.33516800822E+03  0.33520096022E+03  0.47000000000E+01 0. -1.
          6    1    1    2  502    0  0.16958868730E+03 -0.24107335215E+03 -0.65682305768E+02  0.34752676050E+03  0.17200000000E+03 0. -1.
         -6    1    1    2    0  502 -0.16958868730E+03  0.24107335215E+03  0.97814860573E+02  0.35500483225E+03  0.17200000000E+03 0.  1.
</event>
<event>
 4    1 -0.6483339E-004  0.2163892E+03  0.7818608E-02  0.1136604E+00
         -5   -1    0    0    0  501 -0.00000000000E+00  0.00000000000E+00  0.32630530457E+03  0.32633915148E+03  0.47000000000E+01 0.  1.
          5   -1    0    0  501    0  0.00000000000E+00 -0.00000000000E+00 -0.15949932682E+03  0.15956855974E+03  0.47000000000E+01 0. -1.
          6    1    1    2  502    0  0.12942445878E+03 -0.22126391554E+02  0.16052037954E+03  0.26942728143E+03  0.17200000000E+03 0.  1.
         -6    1    1    2    0  502 -0.12942445878E+03  0.22126391554E+02  0.62855982083E+01  0.21648042978E+03  0.17200000000E+03 0.  1.
</event>
<event>
 4    1 -0.6483339E-004  0.1888780E+03  0.7818608E-02  0.1159477E+00
          5   -1    0    0  501    0  0.00000000000E+00  0.00000000000E+00  0.32290953215E+03  0.32294373497E+03  0.47000000000E+01 0. -1.
         -5   -1    0    0    0  501 -0.00000000000E+00 -0.00000000000E+00 -0.12602639495E+03  0.12611400487E+03  0.47000000000E+01 0.  1.
          6    1    1    2  502    0 -0.74524806939E+02  0.23172550608E+02  0.17749045337E+03  0.25918675697E+03  0.17200000000E+03 0. -1.
         -6    1    1    2    0  502  0.74524806939E+02 -0.23172550608E+02  0.19392683832E+02  0.18987098287E+03  0.17200000000E+03 0.  1.
</event>
<event>
 4    1 -0.6483339E-004  0.1829798E+03  0.7818608E-02  0.1164950E+00
         -5   -1    0    0    0  501 -0.00000000000E+00  0.00000000000E+00  0.42166998089E+03  0.42169617355E+03  0.47000000000E+01 0.  1.
          5   -1    0    0  501    0  0.00000000000E+00 -0.00000000000E+00 -0.88768783947E+02  0.88893121238E+02  0.47000000000E+01 0. -1.
          6    1    1    2  502    0  0.62283205022E+02  0.42912668769E+01  0.83163661079E+02  0.20099205736E+03  0.17200000000E+03 0. -1.
         -6    1    1    2    0  502 -0.62283205022E+02 -0.42912668769E+01  0.24973753586E+03  0.30959723742E+03  0.17200000000E+03 0.  1.
</event>
<event>
 4    1 -0.6483339E-004  0.1771636E+03  0.7818608E-02  0.1170577E+00
         -5   -1    0    0    0  501 -0.00000000000E+00  0.00000000000E+00  0.91179505443E+03  0.91180716782E+03  0.47000000000E+01 0.  1.
          5   -1    0    0  501    0  0.00000000000E+00 -0.00000000000E+00 -0.51756538709E+02  0.51969503549E+02  0.47000000000E+01 0. -1.
          6    1    1    2  502    0  0.37253964420E+02 -0.20373614598E+02  0.15051340345E+03  0.23246768949E+03  0.17200000000E+03 0. -1.
         -6    1    1    2    0  502 -0.37253964420E+02  0.20373614598E+02  0.70952511227E+03  0.73130898188E+03  0.17200000000E+03 0.  1.
</event>
<event>
 4    1 -0.6483339E-004  0.1805986E+03  0.7818608E-02  0.1167225E+00
         -5   -1    0    0    0  501 -0.00000000000E+00  0.00000000000E+00  0.11460855392E+03  0.11470488495E+03  0.47000000000E+01 0.  1.
          5   -1    0    0  501    0  0.00000000000E+00 -0.00000000000E+00 -0.43936417305E+03  0.43938931093E+03  0.47000000000E+01 0. -1.
          6    1    1    2  502    0  0.54910082444E+02  0.40902852445E+01 -0.32691510015E+03  0.37348270415E+03  0.17200000000E+03 0. -1.
         -6    1    1    2    0  502 -0.54910082444E+02 -0.40902852445E+01  0.21594810205E+01  0.18061149173E+03  0.17200000000E+03 0.  1.
</event>
<event>
 4    1 -0.6483339E-004  0.4018639E+03  0.7818608E-02  0.1043136E+00
         -5   -1    0    0    0  501 -0.00000000000E+00  0.00000000000E+00  0.28819535319E+03  0.28823367534E+03  0.47000000000E+01 0.  1.
          5   -1    0    0  501    0  0.00000000000E+00 -0.00000000000E+00 -0.60029959542E+03  0.60031799428E+03  0.47000000000E+01 0. -1.
          6    1    1    2  502    0 -0.36276115584E+03  0.17746975319E+02 -0.27075813599E+03  0.48456638299E+03  0.17200000000E+03 0.  1.
         -6    1    1    2    0  502  0.36276115584E+03 -0.17746975319E+02 -0.41346106234E+02  0.40398528663E+03  0.17200000000E+03 0. -1.
</event>
<event>
 4    1 -0.6483339E-004  0.1965733E+03  0.7818608E-02  0.1152663E+00
         -5   -1    0    0    0  501 -0.00000000000E+00  0.00000000000E+00  0.20362987785E+02  0.20898355714E+02  0.47000000000E+01 0.  1.
          5   -1    0    0  501    0  0.00000000000E+00 -0.00000000000E+00 -0.18892667834E+04  0.18892726296E+04  0.47000000000E+01 0. -1.
          6    1    1    2  502    0 -0.92173037365E+02  0.23689272710E+02 -0.84436155176E+03  0.86694145163E+03  0.17200000000E+03 0. -1.
         -6    1    1    2    0  502  0.92173037365E+02 -0.23689272710E+02 -0.10245422438E+04  0.10432295336E+04  0.17200000000E+03 0.  1.
</event>
<event>
 4    1 -0.6483339E-004  0.2752943E+03  0.7818608E-02  0.1098287E+00
          5   -1    0    0  501    0  0.00000000000E+00  0.00000000000E+00  0.32193025599E+02  0.32534303392E+02  0.47000000000E+01 0. -1.
         -5   -1    0    0    0  501 -0.00000000000E+00 -0.00000000000E+00 -0.27336747128E+04  0.27336787531E+04  0.47000000000E+01 0.  1.
          6    1    1    2  502    0 -0.13198183138E+03 -0.16965774714E+03 -0.18746519722E+04  0.18947577607E+04  0.17200000000E+03 0. -1.
         -6    1    1    2    0  502  0.13198183138E+03  0.16965774714E+03 -0.82682971497E+03  0.87145529578E+03  0.17200000000E+03 0.  1.
</event>
<event>
 4    1 -0.6483339E-004  0.2893324E+03  0.7818608E-02  0.1090698E+00
         -5   -1    0    0    0  501 -0.00000000000E+00  0.00000000000E+00  0.82799748177E+03  0.82801082107E+03  0.47000000000E+01 0.  1.
          5   -1    0    0  501    0  0.00000000000E+00 -0.00000000000E+00 -0.37851410424E+03  0.37854328300E+03  0.47000000000E+01 0. -1.
          6    1    1    2  502    0 -0.20902114521E+03  0.10217328909E+03 -0.29172698970E+03  0.41087450233E+03  0.17200000000E+03 0. -1.
         -6    1    1    2    0  502  0.20902114521E+03 -0.10217328909E+03  0.74121036723E+03  0.79567960174E+03  0.17200000000E+03 0.  1.
</event>
<event>
 4    1 -0.6483339E-004  0.1935526E+03  0.7818608E-02  0.1155296E+00
         -5   -1    0    0    0  501 -0.00000000000E+00  0.00000000000E+00  0.56621893915E+03  0.56623844540E+03  0.47000000000E+01 0.  1.
          5   -1    0    0  501    0  0.00000000000E+00 -0.00000000000E+00 -0.66127793251E+02  0.66294607928E+02  0.47000000000E+01 0. -1.
          6    1    1    2  502    0  0.52303491482E+02  0.71714376809E+02  0.26026034173E+03  0.32434249265E+03  0.17200000000E+03 0. -1.
         -6    1    1    2    0  502 -0.52303491482E+02 -0.71714376809E+02  0.23983080416E+03  0.30819056067E+03  0.17200000000E+03 0.  1.
</event>
<event>
 4    1 -0.6483339E-004  0.2586666E+03  0.7818608E-02  0.1107947E+00
         -5   -1    0    0    0  501 -0.00000000000E+00  0.00000000000E+00  0.30534442824E+02  0.30894047948E+02  0.47000000000E+01 0.  1.
          5   -1    0    0  501    0  0.00000000000E+00 -0.00000000000E+00 -0.22154776154E+04  0.22154826008E+04  0.47000000000E+01 0. -1.
          6    1    1    2  502    0 -0.16679275197E+03  0.97491511950E+02 -0.94650468358E+03  0.98121329641E+03  0.17200000000E+03 0.  1.
         -6    1    1    2    0  502  0.16679275197E+03 -0.97491511950E+02 -0.12384384890E+04  0.12651633523E+04  0.17200000000E+03 0. -1.
</event>
<event>
 4    1 -0.6483339E-004  0.5181523E+03  0.7818608E-02  0.1009147E+00
          5   -1    0    0  501    0  0.00000000000E+00  0.00000000000E+00  0.12138027812E+04  0.12138118807E+04  0.47000000000E+01 0. -1.
         -5   -1    0    0    0  501 -0.00000000000E+00 -0.00000000000E+00 -0.23435378470E+03  0.23440090956E+03  0.47000000000E+01 0.  1.
          6    1    1    2  502    0  0.17974531514E+02  0.48844114752E+03  0.66154200802E+03  0.84030926852E+03  0.17200000000E+03 0. -1.
         -6    1    1    2    0  502 -0.17974531514E+02 -0.48844114752E+03  0.31790698847E+03  0.60790352170E+03  0.17200000000E+03 0.  1.
</event>
<event>
 4    1 -0.6483339E-004  0.3208923E+03  0.7818608E-02  0.1075239E+00
          5   -1    0    0  501    0  0.00000000000E+00  0.00000000000E+00  0.10949277175E+04  0.10949378048E+04  0.47000000000E+01 0. -1.
         -5   -1    0    0    0  501 -0.00000000000E+00 -0.00000000000E+00 -0.13157393479E+03  0.13165785323E+03  0.47000000000E+01 0.  1.
          6    1    1    2  502    0  0.23978951246E+03 -0.12605112429E+03  0.80938730673E+03  0.87067772942E+03  0.17200000000E+03 0. -1.
         -6    1    1    2    0  502 -0.23978951246E+03  0.12605112429E+03  0.15396647594E+03  0.35591792865E+03  0.17200000000E+03 0.  1.
</event>
<event>
 4    1 -0.6483339E-004  0.1985467E+03  0.7818608E-02  0.1150971E+00
          5   -1    0    0  501    0  0.00000000000E+00  0.00000000000E+00  0.40800637804E+02  0.41070452216E+02  0.47000000000E+01 0. -1.
         -5   -1    0    0    0  501 -0.00000000000E+00 -0.00000000000E+00 -0.21454327010E+04  0.21454378491E+04  0.47000000000E+01 0.  1.
          6    1    1    2  502    0  0.86912648230E+02 -0.47780437069E+02 -0.24065437304E+03  0.31198606676E+03  0.17200000000E+03 0. -1.
         -6    1    1    2    0  502 -0.86912648230E+02  0.47780437069E+02 -0.18639776901E+04  0.18745222346E+04  0.17200000000E+03 0.  1.
</event>
<event>
 4    1 -0.6483339E-004  0.6228417E+03  0.7818608E-02  0.9859118E-01
          5   -1    0    0  501    0  0.00000000000E+00  0.00000000000E+00  0.10301235326E+04  0.10301342545E+04  0.47000000000E+01 0. -1.
         -5   -1    0    0    0  501 -0.00000000000E+00 -0.00000000000E+00 -0.79354830722E+03  0.79356222560E+03  0.47000000000E+01 0.  1.
          6    1    1    2  502    0 -0.26558985266E+03  0.53647909993E+03  0.77926836331E+03  0.99759259047E+03  0.17200000000E+03 0. -1.
         -6    1    1    2    0  502  0.26558985266E+03 -0.53647909993E+03 -0.54269313797E+03  0.82610388965E+03  0.17200000000E+03 0.  1.
</event>
<event>
 4    1 -0.6483339E-004  0.3400339E+03  0.7818608E-02  0.1066781E+00
          5   -1    0    0  501    0  0.00000000000E+00  0.00000000000E+00  0.21843549394E+03  0.21848605221E+03  0.47000000000E+01 0. -1.
         -5   -1    0    0    0  501 -0.00000000000E+00 -0.00000000000E+00 -0.82304028178E+03  0.82305370143E+03  0.47000000000E+01 0.  1.
          6    1    1    2  502    0 -0.23250825497E+02  0.29240121241E+03  0.88492394686E+01  0.34014905401E+03  0.17200000000E+03 0. -1.
         -6    1    1    2    0  502  0.23250825497E+02 -0.29240121241E+03 -0.61345402731E+03  0.70139069963E+03  0.17200000000E+03 0.  1.
</event>
<event>
 4    1 -0.6483339E-004  0.2129372E+03  0.7818608E-02  0.1139261E+00
          5   -1    0    0  501    0  0.00000000000E+00  0.00000000000E+00  0.71094521168E+03  0.71096074716E+03  0.47000000000E+01 0. -1.
         -5   -1    0    0    0  501 -0.00000000000E+00 -0.00000000000E+00 -0.68157197638E+02  0.68319057296E+02  0.47000000000E+01 0.  1.
          6    1    1    2  502    0  0.95265907206E+02 -0.81747420195E+02  0.42118522176E+03  0.47195256628E+03  0.17200000000E+03 0. -1.
         -6    1    1    2    0  502 -0.95265907206E+02  0.81747420195E+02  0.22160279228E+03  0.30732723818E+03  0.17200000000E+03 0.  1.
</event>
<event>
 4    1 -0.6483339E-004  0.2948716E+03  0.7818608E-02  0.1087833E+00
          5   -1    0    0  501    0  0.00000000000E+00  0.00000000000E+00  0.88314429684E+03  0.88315680320E+03  0.47000000000E+01 0. -1.
         -5   -1    0    0    0  501 -0.00000000000E+00 -0.00000000000E+00 -0.98749419045E+02  0.98861204533E+02  0.47000000000E+01 0.  1.
          6    1    1    2  502    0 -0.23161744317E+03 -0.60980601935E+02  0.42201038971E+03  0.51482234102E+03  0.17200000000E+03 0.  1.
         -6    1    1    2    0  502  0.23161744317E+03  0.60980601935E+02  0.36238448808E+03  0.46719566671E+03  0.17200000000E+03 0.  1.
</event>
<event>
 4    1 -0.6483339E-004  0.1975913E+03  0.7818608E-02  0.1151787E+00
          5   -1    0    0  501    0  0.00000000000E+00  0.00000000000E+00  0.14735762462E+03  0.14743255927E+03  0.47000000000E+01 0. -1.
         -5   -1    0    0    0  501 -0.00000000000E+00 -0.00000000000E+00 -0.27916123534E+03  0.27920079748E+03  0.47000000000E+01 0.  1.
          6    1    1    2  502    0  0.96963916154E+02  0.75041590324E+01 -0.17505627842E+02  0.19836521985E+03  0.17200000000E+03 0. -1.
         -6    1    1    2    0  502 -0.96963916154E+02 -0.75041590324E+01 -0.11429798288E+03  0.22826813691E+03  0.17200000000E+03 0.  1.
</event>
<event>
 4    1 -0.6483339E-004  0.1736346E+03  0.7818608E-02  0.1174110E+00
         -5   -1    0    0    0  501 -0.00000000000E+00  0.00000000000E+00  0.51258601098E+03  0.51260755813E+03  0.47000000000E+01 0.  1.
          5   -1    0    0  501    0  0.00000000000E+00 -0.00000000000E+00 -0.62385166818E+02  0.62561961597E+02  0.47000000000E+01 0. -1.
          6    1    1    2  502    0  0.21768344972E+02 -0.95459763193E+01  0.15532482083E+03  0.23296949687E+03  0.17200000000E+03 0. -1.
         -6    1    1    2    0  502 -0.21768344972E+02  0.95459763193E+01  0.29487602334E+03  0.34220002286E+03  0.17200000000E+03 0.  1.
</event>
<event>
 4    1 -0.6483339E-004  0.1864795E+03  0.7818608E-02  0.1161675E+00
         -5   -1    0    0    0  501 -0.00000000000E+00  0.00000000000E+00  0.75207523596E+02  0.75354240792E+02  0.47000000000E+01 0.  1.
          5   -1    0    0  501    0  0.00000000000E+00 -0.00000000000E+00 -0.47120363017E+03  0.47122706956E+03  0.47000000000E+01 0. -1.
          6    1    1    2  502    0  0.51701113335E+02 -0.50175858006E+02 -0.23665372817E+03  0.30129654645E+03  0.17200000000E+03 0. -1.
         -6    1    1    2    0  502 -0.51701113335E+02  0.50175858006E+02 -0.15934237841E+03  0.24528476390E+03  0.17200000000E+03 0.  1.
</event>
<event>
 4    1 -0.6483339E-004  0.1761908E+03  0.7818608E-02  0.1171541E+00
         -5   -1    0    0    0  501 -0.00000000000E+00  0.00000000000E+00  0.25806806727E+02  0.26231303312E+02  0.47000000000E+01 0.  1.
          5   -1    0    0  501    0  0.00000000000E+00 -0.00000000000E+00 -0.12106278032E+04  0.12106369266E+04  0.47000000000E+01 0. -1.
          6    1    1    2  502    0 -0.16976016800E+02  0.34220158559E+02 -0.66772650913E+03  0.69058083915E+03  0.17200000000E+03 0. -1.
         -6    1    1    2    0  502  0.16976016800E+02 -0.34220158559E+02 -0.51709448736E+03  0.54628739072E+03  0.17200000000E+03 0. -1.
</event>
<event>
 4    1 -0.6483339E-004  0.2066512E+03  0.7818608E-02  0.1144246E+00
         -5   -1    0    0    0  501 -0.00000000000E+00  0.00000000000E+00  0.14739846549E+03  0.14747337939E+03  0.47000000000E+01 0.  1.
          5   -1    0    0  501    0  0.00000000000E+00 -0.00000000000E+00 -0.29286067152E+03  0.29289838327E+03  0.47000000000E+01 0. -1.
          6    1    1    2  502    0  0.11452287395E+03  0.22910891380E+01 -0.96118029855E+02  0.22791097694E+03  0.17200000000E+03 0.  1.
         -6    1    1    2    0  502 -0.11452287395E+03 -0.22910891380E+01 -0.49344176172E+02  0.21246078572E+03  0.17200000000E+03 0.  1.
</event>
<event>
 4    1 -0.6483339E-004  0.2271740E+03  0.7818608E-02  0.1128645E+00
          5   -1    0    0  501    0  0.00000000000E+00  0.00000000000E+00  0.64187106079E+03  0.64188826807E+03  0.47000000000E+01 0. -1.
         -5   -1    0    0    0  501 -0.00000000000E+00 -0.00000000000E+00 -0.10884548873E+03  0.10894691559E+03  0.47000000000E+01 0.  1.
          6    1    1    2  502    0 -0.14822991109E+03  0.72049630435E+01  0.45859534210E+03  0.51177896189E+03  0.17200000000E+03 0. -1.
         -6    1    1    2    0  502  0.14822991109E+03 -0.72049630435E+01  0.74430229956E+02  0.23905622177E+03  0.17200000000E+03 0.  1.
</event>
<event>
 4    1 -0.6483339E-004  0.4782673E+03  0.7818608E-02  0.1019612E+00
          5   -1    0    0  501    0  0.00000000000E+00  0.00000000000E+00  0.10890932715E+04  0.10891034129E+04  0.47000000000E+01 0. -1.
         -5   -1    0    0    0  501 -0.00000000000E+00 -0.00000000000E+00 -0.22318040121E+03  0.22322988484E+03  0.47000000000E+01 0.  1.
          6    1    1    2  502    0  0.24386743456E+03 -0.37374356231E+03  0.27345902996E+03  0.55092596333E+03  0.17200000000E+03 0. -1.
         -6    1    1    2    0  502 -0.24386743456E+03  0.37374356231E+03  0.59245384035E+03  0.76140733445E+03  0.17200000000E+03 0.  1.
</event>
<event>
 4    1 -0.6483339E-004  0.2328985E+03  0.7818608E-02  0.1124616E+00
          5   -1    0    0  501    0  0.00000000000E+00  0.00000000000E+00  0.18109470793E+04  0.18109531783E+04  0.47000000000E+01 0. -1.
         -5   -1    0    0    0  501 -0.00000000000E+00 -0.00000000000E+00 -0.30591533928E+02  0.30950475733E+02  0.47000000000E+01 0.  1.
          6    1    1    2  502    0  0.15640668455E+03 -0.13952022668E+02  0.10409628238E+04  0.10666983221E+04  0.17200000000E+03 0. -1.
         -6    1    1    2    0  502 -0.15640668455E+03  0.13952022668E+02  0.73939272165E+03  0.77520533199E+03  0.17200000000E+03 0. -1.
</event>
<event>
 4    1 -0.6483339E-004  0.2087364E+03  0.7818608E-02  0.1142571E+00
         -5   -1    0    0    0  501 -0.00000000000E+00  0.00000000000E+00  0.14234396499E+04  0.14234474093E+04  0.47000000000E+01 0.  1.
          5   -1    0    0  501    0  0.00000000000E+00 -0.00000000000E+00 -0.32258355603E+02  0.32598949465E+02  0.47000000000E+01 0. -1.
          6    1    1    2  502    0  0.10718451628E+03 -0.49983834533E+02  0.52281327629E+03  0.56294282668E+03  0.17200000000E+03 0. -1.
         -6    1    1    2    0  502 -0.10718451628E+03  0.49983834533E+02  0.86836801805E+03  0.89310353208E+03  0.17200000000E+03 0.  1.
</event>
<event>
 4    1 -0.6483339E-004  0.1938418E+03  0.7818608E-02  0.1155041E+00
          5   -1    0    0  501    0  0.00000000000E+00  0.00000000000E+00  0.31739709338E+02  0.32085809151E+02  0.47000000000E+01 0. -1.
         -5   -1    0    0    0  501 -0.00000000000E+00 -0.00000000000E+00 -0.11854165481E+04  0.11854258655E+04  0.47000000000E+01 0.  1.
          6    1    1    2  502    0 -0.76324555108E+02 -0.46531678774E+02 -0.62792271986E+03  0.65716175859E+03  0.17200000000E+03 0.  1.
         -6    1    1    2    0  502  0.76324555108E+02  0.46531678774E+02 -0.52575411891E+03  0.56034991603E+03  0.17200000000E+03 0. -1.
</event>
<event>
 4    1 -0.6483339E-004  0.2745146E+03  0.7818608E-02  0.1098723E+00
         -5   -1    0    0    0  501 -0.00000000000E+00  0.00000000000E+00  0.64197760041E+03  0.64199480483E+03  0.47000000000E+01 0.  1.
          5   -1    0    0  501    0  0.00000000000E+00 -0.00000000000E+00 -0.11732090450E+03  0.11741501025E+03  0.47000000000E+01 0. -1.
          6    1    1    2  502    0 -0.51296340022E+02  0.20770883945E+03  0.26070455620E+03  0.37858307161E+03  0.17200000000E+03 0. -1.
         -6    1    1    2    0  502  0.51296340022E+02 -0.20770883945E+03  0.26395213971E+03  0.38082674347E+03  0.17200000000E+03 0.  1.
</event>
<event>
 4    1 -0.6483339E-004  0.1899401E+03  0.7818608E-02  0.1158515E+00
          5   -1    0    0  501    0  0.00000000000E+00  0.00000000000E+00  0.21618643899E+03  0.21623752312E+03  0.47000000000E+01 0. -1.
         -5   -1    0    0    0  501 -0.00000000000E+00 -0.00000000000E+00 -0.16737586686E+03  0.16744184306E+03  0.47000000000E+01 0.  1.
          6    1    1    2  502    0 -0.65695627554E+02 -0.46661782286E+02  0.12927449571E+02  0.19037950614E+03  0.17200000000E+03 0.  1.
         -6    1    1    2    0  502  0.65695627554E+02  0.46661782286E+02  0.35883122565E+02  0.19329986004E+03  0.17200000000E+03 0. -1.
</event>
<event>
 4    1 -0.6483339E-004  0.2573862E+03  0.7818608E-02  0.1108724E+00
         -5   -1    0    0    0  501 -0.00000000000E+00  0.00000000000E+00  0.66519682612E+02  0.66685516980E+02  0.47000000000E+01 0.  1.
          5   -1    0    0  501    0  0.00000000000E+00 -0.00000000000E+00 -0.99795300239E+03  0.99796406999E+03  0.47000000000E+01 0. -1.
          6    1    1    2  502    0  0.13223457604E+03 -0.13848344689E+03 -0.43440318320E+03  0.50492947403E+03  0.17200000000E+03 0. -1.
         -6    1    1    2    0  502 -0.13223457604E+03  0.13848344689E+03 -0.49703013657E+03  0.55972011294E+03  0.17200000000E+03 0.  1.
</event>
<event>
 4    1 -0.6483339E-004  0.3469234E+03  0.7818608E-02  0.1063885E+00
          5   -1    0    0  501    0  0.00000000000E+00  0.00000000000E+00  0.80716810763E+02  0.80853531400E+02  0.47000000000E+01 0. -1.
         -5   -1    0    0    0  501 -0.00000000000E+00 -0.00000000000E+00 -0.15751249852E+04  0.15751319973E+04  0.47000000000E+01 0.  1.
          6    1    1    2  502    0 -0.16844813315E+03  0.24979405743E+03 -0.94003579070E+03  0.10020095471E+04  0.17200000000E+03 0.  1.
         -6    1    1    2    0  502  0.16844813315E+03 -0.24979405743E+03 -0.55437238372E+03  0.65397598161E+03  0.17200000000E+03 0. -1.
</event>
<event>
 4    1 -0.6483339E-004  0.3398380E+03  0.7818608E-02  0.1066865E+00
         -5   -1    0    0    0  501 -0.00000000000E+00  0.00000000000E+00  0.31385562980E+03  0.31389081916E+03  0.47000000000E+01 0.  1.
          5   -1    0    0  501    0  0.00000000000E+00 -0.00000000000E+00 -0.12624835035E+04  0.12624922521E+04  0.47000000000E+01 0. -1.
          6    1    1    2  502    0  0.22894603666E+03 -0.18300159996E+03 -0.11377817287E+04  0.11874498454E+04  0.17200000000E+03 0. -1.
         -6    1    1    2    0  502 -0.22894603666E+03  0.18300159996E+03  0.18915385499E+03  0.38893322582E+03  0.17200000000E+03 0.  1.
</event>
<event>
 4    1 -0.6483339E-004  0.2688078E+03  0.7818608E-02  0.1101964E+00
          5   -1    0    0  501    0  0.00000000000E+00  0.00000000000E+00  0.20380321851E+03  0.20385740574E+03  0.47000000000E+01 0. -1.
         -5   -1    0    0    0  501 -0.00000000000E+00 -0.00000000000E+00 -0.37416790440E+03  0.37419742207E+03  0.47000000000E+01 0.  1.
          6    1    1    2  502    0 -0.20631148474E+03 -0.10450522993E+02 -0.18805637756E+02  0.26946482920E+03  0.17200000000E+03 0. -1.
         -6    1    1    2    0  502  0.20631148474E+03  0.10450522993E+02 -0.15155904813E+03  0.30858999860E+03  0.17200000000E+03 0.  1.
</event>
<event>
 4    1 -0.6483339E-004  0.2589827E+03  0.7818608E-02  0.1107756E+00
         -5   -1    0    0    0  501 -0.00000000000E+00  0.00000000000E+00  0.15068737010E+03  0.15076064973E+03  0.47000000000E+01 0.  1.
          5   -1    0    0  501    0  0.00000000000E+00 -0.00000000000E+00 -0.49222583421E+03  0.49224827259E+03  0.47000000000E+01 0. -1.
          6    1    1    2  502    0  0.98253159865E+02 -0.16683638588E+03 -0.27043573877E+03  0.37444298883E+03  0.17200000000E+03 0.  1.
         -6    1    1    2    0  502 -0.98253159865E+02  0.16683638588E+03 -0.71102725348E+02  0.26856593349E+03  0.17200000000E+03 0.  1.
</event>
<event>
 4    1 -0.6483339E-004  0.2259730E+03  0.7818608E-02  0.1129507E+00
          5   -1    0    0  501    0  0.00000000000E+00  0.00000000000E+00  0.95985054333E+03  0.95986205026E+03  0.47000000000E+01 0. -1.
         -5   -1    0    0    0  501 -0.00000000000E+00 -0.00000000000E+00 -0.57074296009E+02  0.57267488726E+02  0.47000000000E+01 0.  1.
          6    1    1    2  502    0 -0.13326676471E+03  0.60989757232E+02  0.58560901418E+03  0.62769554607E+03  0.17200000000E+03 0. -1.
         -6    1    1    2    0  502  0.13326676471E+03 -0.60989757232E+02  0.31716723313E+03  0.38943399291E+03  0.17200000000E+03 0.  1.
</event>
<event>
 4    1 -0.6483339E-004  0.2094443E+03  0.7818608E-02  0.1142007E+00
         -5   -1    0    0    0  501 -0.00000000000E+00  0.00000000000E+00  0.28801132871E+03  0.28804967535E+03  0.47000000000E+01 0.  1.
          5   -1    0    0  501    0  0.00000000000E+00 -0.00000000000E+00 -0.27717336895E+03  0.27721321480E+03  0.47000000000E+01 0. -1.
          6    1    1    2  502    0 -0.10720407392E+03  0.52822394754E+02 -0.18431104618E+03  0.27899369276E+03  0.17200000000E+03 0. -1.
         -6    1    1    2    0  502  0.10720407392E+03 -0.52822394754E+02  0.19514900594E+03  0.28626919739E+03  0.17200000000E+03 0.  1.
</event>
<event>
 4    1 -0.6483339E-004  0.2488329E+03  0.7818608E-02  0.1114045E+00
          5   -1    0    0  501    0  0.00000000000E+00  0.00000000000E+00  0.45995417770E+03  0.45997819033E+03  0.47000000000E+01 0. -1.
         -5   -1    0    0    0  501 -0.00000000000E+00 -0.00000000000E+00 -0.15281370560E+03  0.15288596607E+03  0.47000000000E+01 0.  1.
          6    1    1    2  502    0  0.14021210501E+02  0.17926853064E+03  0.25947572831E+03  0.35950723776E+03  0.17200000000E+03 0. -1.
         -6    1    1    2    0  502 -0.14021210501E+02 -0.17926853064E+03  0.47664743784E+02  0.25335691864E+03  0.17200000000E+03 0.  1.
</event>
<event>
 4    1 -0.6483339E-004  0.2377455E+03  0.7818608E-02  0.1121304E+00
         -5   -1    0    0    0  501 -0.00000000000E+00  0.00000000000E+00  0.60945201839E+03  0.60947014096E+03  0.47000000000E+01 0.  1.
          5   -1    0    0  501    0  0.00000000000E+00 -0.00000000000E+00 -0.18702831072E+03  0.18708735663E+03  0.47000000000E+01 0. -1.
          6    1    1    2  502    0  0.15629747196E+03  0.50099976177E+02 -0.71608824859E+02  0.24829565270E+03  0.17200000000E+03 0. -1.
         -6    1    1    2    0  502 -0.15629747196E+03 -0.50099976177E+02  0.49403253254E+03  0.54826184489E+03  0.17200000000E+03 0.  1.
</event>
<event>
 4    1 -0.6483339E-004  0.2035242E+03  0.7818608E-02  0.1146799E+00
          5   -1    0    0  501    0  0.00000000000E+00  0.00000000000E+00  0.48718260889E+03  0.48720527954E+03  0.47000000000E+01 0. -1.
         -5   -1    0    0    0  501 -0.00000000000E+00 -0.00000000000E+00 -0.17713868442E+03  0.17720102573E+03  0.47000000000E+01 0.  1.
          6    1    1    2  502    0  0.10804692206E+03 -0.12804254196E+02  0.39461690685E+03  0.44400967271E+03  0.17200000000E+03 0. -1.
         -6    1    1    2    0  502 -0.10804692206E+03  0.12804254196E+02 -0.84572982375E+02  0.22039663255E+03  0.17200000000E+03 0.  1.
</event>
<event>
 4    1 -0.6483339E-004  0.1861143E+03  0.7818608E-02  0.1162013E+00
         -5   -1    0    0    0  501 -0.00000000000E+00  0.00000000000E+00  0.15398485213E+03  0.15405656327E+03  0.47000000000E+01 0.  1.
          5   -1    0    0  501    0  0.00000000000E+00 -0.00000000000E+00 -0.24189109458E+03  0.24193675131E+03  0.47000000000E+01 0. -1.
          6    1    1    2  502    0 -0.71016798027E+02 -0.33377655179E+01 -0.96571683964E+02  0.20967741038E+03  0.17200000000E+03 0. -1.
         -6    1    1    2    0  502  0.71016798027E+02  0.33377655179E+01  0.86654415157E+01  0.18631590420E+03  0.17200000000E+03 0. -1.
</event>
<event>
 4    1 -0.6483339E-004  0.2012359E+03  0.7818608E-02  0.1148700E+00
          5   -1    0    0  501    0  0.00000000000E+00  0.00000000000E+00  0.27275451013E+03  0.27279500141E+03  0.47000000000E+01 0. -1.
         -5   -1    0    0    0  501 -0.00000000000E+00 -0.00000000000E+00 -0.23667342103E+03  0.23672008412E+03  0.47000000000E+01 0.  1.
          6    1    1    2  502    0 -0.10391919097E+03  0.10615302276E+02  0.17360861453E+03  0.26577402795E+03  0.17200000000E+03 0. -1.
         -6    1    1    2    0  502  0.10391919097E+03 -0.10615302276E+02 -0.13752752544E+03  0.24374105758E+03  0.17200000000E+03 0.  1.
</event>
<event>
 4    1 -0.6483339E-004  0.3132123E+03  0.7818608E-02  0.1078816E+00
          5   -1    0    0  501    0  0.00000000000E+00  0.00000000000E+00  0.37924401139E+03  0.37927313400E+03  0.47000000000E+01 0. -1.
         -5   -1    0    0    0  501 -0.00000000000E+00 -0.00000000000E+00 -0.29185881892E+03  0.29189666011E+03  0.47000000000E+01 0.  1.
          6    1    1    2  502    0 -0.16332091126E+03 -0.20455856882E+03  0.15693407816E+03  0.35032874992E+03  0.17200000000E+03 0. -1.
         -6    1    1    2    0  502  0.16332091126E+03  0.20455856882E+03 -0.69548885692E+02  0.32084104419E+03  0.17200000000E+03 0.  1.
</event>
<event>
 4    1 -0.6483339E-004  0.3292738E+03  0.7818608E-02  0.1071459E+00
          5   -1    0    0  501    0  0.00000000000E+00  0.00000000000E+00  0.59147479702E+03  0.59149347039E+03  0.47000000000E+01 0. -1.
         -5   -1    0    0    0  501 -0.00000000000E+00 -0.00000000000E+00 -0.19913924042E+03  0.19919469641E+03  0.47000000000E+01 0.  1.
          6    1    1    2  502    0  0.13127281465E+03  0.24820292138E+03  0.30780210579E+03  0.45073648441E+03  0.17200000000E+03 0. -1.
         -6    1    1    2    0  502 -0.13127281465E+03 -0.24820292138E+03  0.84533450812E+02  0.33995168239E+03  0.17200000000E+03 0.  1.
</event>
<event>
 4    1 -0.6483339E-004  0.2874222E+03  0.7818608E-02  0.1091703E+00
          5   -1    0    0  501    0  0.00000000000E+00  0.00000000000E+00  0.25134007432E+03  0.25138401493E+03  0.47000000000E+01 0. -1.
         -5   -1    0    0    0  501 -0.00000000000E+00 -0.00000000000E+00 -0.64638082609E+03  0.64639791331E+03  0.47000000000E+01 0.  1.
          6    1    1    2  502    0 -0.22644988043E+03  0.41808985359E+02  0.11721149737E+03  0.31040308426E+03  0.17200000000E+03 0. -1.
         -6    1    1    2    0  502  0.22644988043E+03 -0.41808985359E+02 -0.51225224914E+03  0.58737884398E+03  0.17200000000E+03 0.  1.
</event>
<event>
 4    1 -0.6483339E-004  0.2090475E+03  0.7818608E-02  0.1142322E+00
         -5   -1    0    0    0  501 -0.00000000000E+00  0.00000000000E+00  0.14582193491E+03  0.14589765831E+03  0.47000000000E+01 0.  1.
          5   -1    0    0  501    0  0.00000000000E+00 -0.00000000000E+00 -0.31886508774E+03  0.31889972434E+03  0.47000000000E+01 0. -1.
          6    1    1    2  502    0 -0.11624126599E+03 -0.24593185272E+02 -0.14376182828E+03  0.25370912469E+03  0.17200000000E+03 0.  1.
         -6    1    1    2    0  502  0.11624126599E+03  0.24593185272E+02 -0.29281324557E+02  0.21108825796E+03  0.17200000000E+03 0. -1.
</event>
<event>
 4    1 -0.6483339E-004  0.2947690E+03  0.7818608E-02  0.1087885E+00
         -5   -1    0    0    0  501 -0.00000000000E+00  0.00000000000E+00  0.76299045541E+02  0.76443667824E+02  0.47000000000E+01 0.  1.
          5   -1    0    0  501    0  0.00000000000E+00 -0.00000000000E+00 -0.11827143992E+04  0.11827237379E+04  0.47000000000E+01 0. -1.
          6    1    1    2  502    0 -0.97170633137E+02  0.21877534257E+03 -0.67620969305E+03  0.73766410475E+03  0.17200000000E+03 0. -1.
         -6    1    1    2    0  502  0.97170633137E+02 -0.21877534257E+03 -0.43020566063E+03  0.52150330095E+03  0.17200000000E+03 0.  1.
</event>
<event>
 4    1 -0.6483339E-004  0.2085012E+03  0.7818608E-02  0.1142758E+00
         -5   -1    0    0    0  501 -0.00000000000E+00  0.00000000000E+00  0.18092260282E+03  0.18098364072E+03  0.47000000000E+01 0.  1.
          5   -1    0    0  501    0  0.00000000000E+00 -0.00000000000E+00 -0.25268879144E+03  0.25273249756E+03  0.47000000000E+01 0. -1.
          6    1    1    2  502    0  0.91520388053E+02 -0.74248012606E+02  0.12396260614E+02  0.20886937565E+03  0.17200000000E+03 0. -1.
         -6    1    1    2    0  502 -0.91520388053E+02  0.74248012606E+02 -0.84162449240E+02  0.22484676263E+03  0.17200000000E+03 0.  1.
</event>
<event>
 4    1 -0.6483339E-004  0.2150333E+03  0.7818608E-02  0.1137641E+00
         -5   -1    0    0    0  501 -0.00000000000E+00  0.00000000000E+00  0.43105340231E+03  0.43107902482E+03  0.47000000000E+01 0.  1.
          5   -1    0    0  501    0  0.00000000000E+00 -0.00000000000E+00 -0.12866123099E+03  0.12874704797E+03  0.47000000000E+01 0. -1.
          6    1    1    2  502    0  0.11316788453E+03 -0.62034969186E+02  0.36902079811E+02  0.21817669670E+03  0.17200000000E+03 0. -1.
         -6    1    1    2    0  502 -0.11316788453E+03  0.62034969186E+02  0.26549009151E+03  0.34164937608E+03  0.17200000000E+03 0.  1.
</event>
<event>
 4    1 -0.6483339E-004  0.2618855E+03  0.7818608E-02  0.1106016E+00
         -5   -1    0    0    0  501 -0.00000000000E+00  0.00000000000E+00  0.16624120855E+03  0.16630763489E+03  0.47000000000E+01 0.  1.
          5   -1    0    0  501    0  0.00000000000E+00 -0.00000000000E+00 -0.42888809093E+03  0.42891384280E+03  0.47000000000E+01 0. -1.
          6    1    1    2  502    0  0.18452878701E+03  0.70350299430E+02 -0.18967852069E+03  0.32336044761E+03  0.17200000000E+03 0.  1.
         -6    1    1    2    0  502 -0.18452878701E+03 -0.70350299430E+02 -0.72968361691E+02  0.27186103008E+03  0.17200000000E+03 0.  1.
</event>
<event>
 4    1 -0.6483339E-004  0.1957101E+03  0.7818608E-02  0.1153410E+00
         -5   -1    0    0    0  501 -0.00000000000E+00  0.00000000000E+00  0.59221086908E+03  0.59222951924E+03  0.47000000000E+01 0.  1.
          5   -1    0    0  501    0  0.00000000000E+00 -0.00000000000E+00 -0.89236046887E+02  0.89359734019E+02  0.47000000000E+01 0. -1.
          6    1    1    2  502    0 -0.53895245850E+02 -0.76247895073E+02  0.72487906792E+02  0.20870298431E+03  0.17200000000E+03 0. -1.
         -6    1    1    2    0  502  0.53895245850E+02  0.76247895073E+02  0.43048691540E+03  0.47288626895E+03  0.17200000000E+03 0.  1.
</event>
<event>
 4    1 -0.6483339E-004  0.1755008E+03  0.7818608E-02  0.1172230E+00
         -5   -1    0    0    0  501 -0.00000000000E+00  0.00000000000E+00  0.60650459322E+03  0.60652280385E+03  0.47000000000E+01 0.  1.
          5   -1    0    0  501    0  0.00000000000E+00 -0.00000000000E+00 -0.63329034949E+02  0.63503202026E+02  0.47000000000E+01 0. -1.
          6    1    1    2  502    0 -0.34378473427E+02 -0.58863311381E+01  0.12197482743E+03  0.21372502628E+03  0.17200000000E+03 0. -1.
         -6    1    1    2    0  502  0.34378473427E+02  0.58863311381E+01  0.42120073084E+03  0.45630097960E+03  0.17200000000E+03 0.  1.
</event>
<event>
 4    1 -0.6483339E-004  0.2896334E+03  0.7818608E-02  0.1090541E+00
         -5   -1    0    0    0  501 -0.00000000000E+00  0.00000000000E+00  0.42748763279E+03  0.42751346902E+03  0.47000000000E+01 0.  1.
          5   -1    0    0  501    0  0.00000000000E+00 -0.00000000000E+00 -0.24874373894E+03  0.24878813810E+03  0.47000000000E+01 0. -1.
          6    1    1    2  502    0 -0.21038885542E+03  0.10020010888E+03 -0.66058513050E+02  0.29707113534E+03  0.17200000000E+03 0. -1.
         -6    1    1    2    0  502  0.21038885542E+03 -0.10020010888E+03  0.24480240691E+03  0.37923047179E+03  0.17200000000E+03 0.  1.
</event>
<event>
 4    1 -0.6483339E-004  0.2076118E+03  0.7818608E-02  0.1143471E+00
          5   -1    0    0  501    0  0.00000000000E+00  0.00000000000E+00  0.50242812002E+03  0.50245010278E+03  0.47000000000E+01 0. -1.
         -5   -1    0    0    0  501 -0.00000000000E+00 -0.00000000000E+00 -0.89642067738E+02  0.89765195417E+02  0.47000000000E+01 0.  1.
          6    1    1    2  502    0 -0.70194271439E+02  0.92689993282E+02  0.26843295137E+03  0.33935073298E+03  0.17200000000E+03 0. -1.
         -6    1    1    2    0  502  0.70194271439E+02 -0.92689993282E+02  0.14435310091E+03  0.25286456521E+03  0.17200000000E+03 0.  1.
</event>
<event>
 4    1 -0.6483339E-004  0.2703150E+03  0.7818608E-02  0.1101099E+00
          5   -1    0    0  501    0  0.00000000000E+00  0.00000000000E+00  0.49603693336E+03  0.49605919935E+03  0.47000000000E+01 0. -1.
         -5   -1    0    0    0  501 -0.00000000000E+00 -0.00000000000E+00 -0.18910273086E+03  0.18916112925E+03  0.47000000000E+01 0.  1.
          6    1    1    2  502    0 -0.20222526581E+03 -0.50903047559E+02 -0.76856482544E+01  0.27042419931E+03  0.17200000000E+03 0.  1.
         -6    1    1    2    0  502  0.20222526581E+03  0.50903047559E+02  0.31461985076E+03  0.41479612929E+03  0.17200000000E+03 0. -1.
</event>
<event>
 4    1 -0.6483339E-004  0.1864826E+03  0.7818608E-02  0.1161673E+00
         -5   -1    0    0    0  501 -0.00000000000E+00  0.00000000000E+00  0.30202520562E+03  0.30206177320E+03  0.47000000000E+01 0.  1.
          5   -1    0    0  501    0  0.00000000000E+00 -0.00000000000E+00 -0.11525389429E+03  0.11534968639E+03  0.47000000000E+01 0. -1.
          6    1    1    2  502    0 -0.68684294754E+01  0.71725751540E+02  0.10215053920E+03  0.21262758856E+03  0.17200000000E+03 0. -1.
         -6    1    1    2    0  502  0.68684294754E+01 -0.71725751540E+02  0.84620772120E+02  0.20478387102E+03  0.17200000000E+03 0.  1.
</event>
<event>
 4    1 -0.6483339E-004  0.1915786E+03  0.7818608E-02  0.1157045E+00
         -5   -1    0    0    0  501 -0.00000000000E+00  0.00000000000E+00  0.24121118498E+03  0.24125697039E+03  0.47000000000E+01 0.  1.
          5   -1    0    0  501    0  0.00000000000E+00 -0.00000000000E+00 -0.15291585409E+03  0.15298806631E+03  0.47000000000E+01 0. -1.
          6    1    1    2  502    0 -0.74022744972E+02 -0.40484289596E+02  0.29423509752E+02  0.19382488850E+03  0.17200000000E+03 0.  1.
         -6    1    1    2    0  502  0.74022744972E+02  0.40484289596E+02  0.58871821141E+02  0.20042014819E+03  0.17200000000E+03 0.  1.
</event>
<event>
 4    1 -0.6483339E-004  0.1801416E+03  0.7818608E-02  0.1167666E+00
          5   -1    0    0  501    0  0.00000000000E+00  0.00000000000E+00  0.43766074021E+03  0.43768597593E+03  0.47000000000E+01 0. -1.
         -5   -1    0    0    0  501 -0.00000000000E+00 -0.00000000000E+00 -0.14096728193E+03  0.14104561168E+03  0.47000000000E+01 0.  1.
          6    1    1    2  502    0  0.45144537630E+02 -0.28791773965E+02  0.34762542419E+03  0.39152832728E+03  0.17200000000E+03 0. -1.
         -6    1    1    2    0  502 -0.45144537630E+02  0.28791773965E+02 -0.50931965903E+02  0.18720326033E+03  0.17200000000E+03 0.  1.
</event>
<event>
 4    1 -0.6483339E-004  0.1725860E+03  0.7818608E-02  0.1175178E+00
          5   -1    0    0  501    0  0.00000000000E+00  0.00000000000E+00  0.10361875848E+03  0.10372529638E+03  0.47000000000E+01 0. -1.
         -5   -1    0    0    0  501 -0.00000000000E+00 -0.00000000000E+00 -0.28811027252E+03  0.28814860599E+03  0.47000000000E+01 0.  1.
          6    1    1    2  502    0 -0.56545486263E+01  0.13036229690E+02 -0.81134711005E+02  0.19070594782E+03  0.17200000000E+03 0. -1.
         -6    1    1    2    0  502  0.56545486263E+01 -0.13036229690E+02 -0.10335680303E+03  0.20116795455E+03  0.17200000000E+03 0. -1.
</event>
<event>
 4    1 -0.6483339E-004  0.2506782E+03  0.7818608E-02  0.1112877E+00
          5   -1    0    0  501    0  0.00000000000E+00  0.00000000000E+00  0.66252856094E+03  0.66254523171E+03  0.47000000000E+01 0. -1.
         -5   -1    0    0    0  501 -0.00000000000E+00 -0.00000000000E+00 -0.12241996390E+03  0.12251015289E+03  0.47000000000E+01 0.  1.
          6    1    1    2  502    0  0.16430574307E+03 -0.79114966382E+02  0.45650465910E+03  0.52080328234E+03  0.17200000000E+03 0. -1.
         -6    1    1    2    0  502 -0.16430574307E+03  0.79114966382E+02  0.83603937932E+02  0.26425210226E+03  0.17200000000E+03 0.  1.
</event>
<event>
 4    1 -0.6483339E-004  0.1925276E+03  0.7818608E-02  0.1156201E+00
          5   -1    0    0  501    0  0.00000000000E+00  0.00000000000E+00  0.64759928632E+03  0.64761634140E+03  0.47000000000E+01 0. -1.
         -5   -1    0    0    0  501 -0.00000000000E+00 -0.00000000000E+00 -0.68107465234E+02  0.68269442803E+02  0.47000000000E+01 0.  1.
          6    1    1    2  502    0  0.58142631343E+02  0.64049259996E+02  0.43329010513E+03  0.47413836429E+03  0.17200000000E+03 0. -1.
         -6    1    1    2    0  502 -0.58142631343E+02 -0.64049259996E+02  0.14620171596E+03  0.24174741991E+03  0.17200000000E+03 0.  1.
</event>
<event>
 4    1 -0.6483339E-004  0.2898783E+03  0.7818608E-02  0.1090413E+00
          5   -1    0    0  501    0  0.00000000000E+00  0.00000000000E+00  0.15719477917E+04  0.15719548180E+04  0.47000000000E+01 0. -1.
         -5   -1    0    0    0  501 -0.00000000000E+00 -0.00000000000E+00 -0.14201903295E+03  0.14209678294E+03  0.47000000000E+01 0.  1.
          6    1    1    2  502    0  0.17057186094E+03 -0.15921889289E+03  0.13918113254E+04  0.14216779457E+04  0.17200000000E+03 0. -1.
         -6    1    1    2    0  502 -0.17057186094E+03  0.15921889289E+03  0.38117433367E+02  0.29237365532E+03  0.17200000000E+03 0.  1.
</event>
<event>
 4    1 -0.6483339E-004  0.2753804E+03  0.7818608E-02  0.1098239E+00
         -5   -1    0    0    0  501 -0.00000000000E+00  0.00000000000E+00  0.57868150339E+02  0.58058701533E+02  0.47000000000E+01 0.  1.
          5   -1    0    0  501    0  0.00000000000E+00 -0.00000000000E+00 -0.13721296837E+04  0.13721377333E+04  0.47000000000E+01 0. -1.
          6    1    1    2  502    0 -0.21141163549E+03 -0.39439868137E+02 -0.81157116092E+03  0.85701933004E+03  0.17200000000E+03 0. -1.
         -6    1    1    2    0  502  0.21141163549E+03  0.39439868137E+02 -0.50269037248E+03  0.57317710475E+03  0.17200000000E+03 0.  1.
</event>
<event>
 4    1 -0.6483339E-004  0.1877875E+03  0.7818608E-02  0.1160472E+00
         -5   -1    0    0    0  501 -0.00000000000E+00  0.00000000000E+00  0.87858675815E+03  0.87859932938E+03  0.47000000000E+01 0.  1.
          5   -1    0    0  501    0  0.00000000000E+00 -0.00000000000E+00 -0.39986961582E+02  0.40262229156E+02  0.47000000000E+01 0. -1.
          6    1    1    2  502    0  0.54224994043E+02 -0.52343201368E+02  0.41997228281E+03  0.46004443159E+03  0.17200000000E+03 0.  1.
         -6    1    1    2    0  502 -0.54224994043E+02  0.52343201368E+02  0.41862751375E+03  0.45881712695E+03  0.17200000000E+03 0.  1.
</event>
<event>
 4    1 -0.6483339E-004  0.1734860E+03  0.7818608E-02  0.1174261E+00
         -5   -1    0    0    0  501 -0.00000000000E+00  0.00000000000E+00  0.15036840949E+03  0.15044184448E+03  0.47000000000E+01 0.  1.
          5   -1    0    0  501    0  0.00000000000E+00 -0.00000000000E+00 -0.20767441555E+03  0.20772759296E+03  0.47000000000E+01 0. -1.
          6    1    1    2  502    0 -0.79078256658E+01  0.21233428398E+02 -0.63051251118E+02  0.18458833239E+03  0.17200000000E+03 0. -1.
         -6    1    1    2    0  502  0.79078256658E+01 -0.21233428398E+02  0.57452450498E+01  0.17358110505E+03  0.17200000000E+03 0.  1.
</event>
<event>
 4    1 -0.6483339E-004  0.9807116E+03  0.7818608E-02  0.9329957E-01
         -5   -1    0    0    0  501 -0.00000000000E+00  0.00000000000E+00  0.11127793150E+04  0.11127892406E+04  0.47000000000E+01 0.  1.
          5   -1    0    0  501    0  0.00000000000E+00 -0.00000000000E+00 -0.12132862102E+04  0.12132953135E+04  0.47000000000E+01 0. -1.
          6    1    1    2  502    0 -0.92736465972E+03  0.26871190762E+03 -0.67401062883E+03  0.11899939618E+04  0.17200000000E+03 0. -1.
         -6    1    1    2    0  502  0.92736465972E+03 -0.26871190762E+03  0.57350373362E+03  0.11360905923E+04  0.17200000000E+03 0.  1.
</event>
<event>
 4    1 -0.6483339E-004  0.2126601E+03  0.7818608E-02  0.1139477E+00
         -5   -1    0    0    0  501 -0.00000000000E+00  0.00000000000E+00  0.61012566797E+02  0.61193327309E+02  0.47000000000E+01 0.  1.
          5   -1    0    0  501    0  0.00000000000E+00 -0.00000000000E+00 -0.79212435115E+03  0.79213829454E+03  0.47000000000E+01 0. -1.
          6    1    1    2  502    0 -0.15559392697E+01 -0.12505155839E+03 -0.25606258352E+03  0.33285486309E+03  0.17200000000E+03 0. -1.
         -6    1    1    2    0  502  0.15559392697E+01  0.12505155839E+03 -0.47504920083E+03  0.52047675876E+03  0.17200000000E+03 0. -1.
</event>
<event>
 4    1 -0.6483339E-004  0.1727935E+03  0.7818608E-02  0.1174966E+00
          5   -1    0    0  501    0  0.00000000000E+00  0.00000000000E+00  0.30863630695E+03  0.30867209134E+03  0.47000000000E+01 0. -1.
         -5   -1    0    0    0  501 -0.00000000000E+00 -0.00000000000E+00 -0.97562587860E+02  0.97675731633E+02  0.47000000000E+01 0.  1.
          6    1    1    2  502    0 -0.78249453274E+01 -0.14572520241E+02  0.85814434849E+02  0.19292927550E+03  0.17200000000E+03 0.  1.
         -6    1    1    2    0  502  0.78249453274E+01  0.14572520241E+02  0.12525928425E+03  0.21341854747E+03  0.17200000000E+03 0. -1.
</event>
<event>
 4    1 -0.6483339E-004  0.2301398E+03  0.7818608E-02  0.1126541E+00
         -5   -1    0    0    0  501 -0.00000000000E+00  0.00000000000E+00  0.42870739943E+03  0.42873316214E+03  0.47000000000E+01 0.  1.
          5   -1    0    0  501    0  0.00000000000E+00 -0.00000000000E+00 -0.14485533293E+03  0.14493156136E+03  0.47000000000E+01 0. -1.
          6    1    1    2  502    0 -0.16701027356E+02 -0.15199145397E+03  0.31757967547E+02  0.23232067256E+03  0.17200000000E+03 0. -1.
         -6    1    1    2    0  502  0.16701027356E+02  0.15199145397E+03  0.25209409895E+03  0.34134405095E+03  0.17200000000E+03 0.  1.
</event>
<event>
 4    1 -0.6483339E-004  0.2802506E+03  0.7818608E-02  0.1095552E+00
          5   -1    0    0  501    0  0.00000000000E+00  0.00000000000E+00  0.18354300349E+03  0.18360317026E+03  0.47000000000E+01 0. -1.
         -5   -1    0    0    0  501 -0.00000000000E+00 -0.00000000000E+00 -0.44635658671E+03  0.44638133081E+03  0.47000000000E+01 0.  1.
          6    1    1    2  502    0  0.73025354653E+02 -0.20886285123E+03 -0.67134713959E+02  0.28817956705E+03  0.17200000000E+03 0. -1.
         -6    1    1    2    0  502 -0.73025354653E+02  0.20886285123E+03 -0.19567886926E+03  0.34180493402E+03  0.17200000000E+03 0.  1.
</event>
<event>
 4    1 -0.6483339E-004  0.2003542E+03  0.7818608E-02  0.1149441E+00
         -5   -1    0    0    0  501 -0.00000000000E+00  0.00000000000E+00  0.41260191445E+03  0.41262868273E+03  0.47000000000E+01 0.  1.
          5   -1    0    0  501    0  0.00000000000E+00 -0.00000000000E+00 -0.10330949311E+03  0.10341634961E+03  0.47000000000E+01 0. -1.
          6    1    1    2  502    0  0.86644626558E+02 -0.55231427072E+02  0.91955124783E+02  0.22044851286E+03  0.17200000000E+03 0. -1.
         -6    1    1    2    0  502 -0.86644626558E+02  0.55231427072E+02  0.21733729656E+03  0.29559651947E+03  0.17200000000E+03 0.  1.
</event>
<event>
 4    1 -0.6483339E-004  0.2122646E+03  0.7818608E-02  0.1139785E+00
         -5   -1    0    0    0  501 -0.00000000000E+00  0.00000000000E+00  0.25686827306E+02  0.26113274346E+02  0.47000000000E+01 0.  1.
          5   -1    0    0  501    0  0.00000000000E+00 -0.00000000000E+00 -0.17844535273E+04  0.17844597169E+04  0.47000000000E+01 0. -1.
          6    1    1    2  502    0 -0.97253199446E+02  0.77550361137E+02 -0.10235463629E+04  0.10453245430E+04  0.17200000000E+03 0. -1.
         -6    1    1    2    0  502  0.97253199446E+02 -0.77550361137E+02 -0.73522033713E+03  0.76524844818E+03  0.17200000000E+03 0.  1.
</event>
<event>
 4    1 -0.6483339E-004  0.2012980E+03  0.7818608E-02  0.1148649E+00
         -5   -1    0    0    0  501 -0.00000000000E+00  0.00000000000E+00  0.72852938581E+02  0.73004387949E+02  0.47000000000E+01 0.  1.
          5   -1    0    0  501    0  0.00000000000E+00 -0.00000000000E+00 -0.69149319053E+03  0.69150916303E+03  0.47000000000E+01 0. -1.
          6    1    1    2  502    0  0.10409276880E+03 -0.10077765304E+02 -0.47884265856E+03  0.51943349674E+03  0.17200000000E+03 0. -1.
         -6    1    1    2    0  502 -0.10409276880E+03  0.10077765304E+02 -0.13979759339E+03  0.24508005424E+03  0.17200000000E+03 0.  1.
</event>
<event>
 4    1 -0.6483339E-004  0.2191798E+03  0.7818608E-02  0.1134496E+00
          5   -1    0    0  501    0  0.00000000000E+00  0.00000000000E+00  0.35844211838E+03  0.35847293096E+03  0.47000000000E+01 0. -1.
         -5   -1    0    0    0  501 -0.00000000000E+00 -0.00000000000E+00 -0.19330811814E+03  0.19336524646E+03  0.47000000000E+01 0.  1.
          6    1    1    2  502    0 -0.29935846426E+02  0.13251282385E+03  0.23542849096E+03  0.32166189973E+03  0.17200000000E+03 0. -1.
         -6    1    1    2    0  502  0.29935846426E+02 -0.13251282385E+03 -0.70294490717E+02  0.23017627769E+03  0.17200000000E+03 0.  1.
</event>
<event>
 4    1 -0.6483339E-004  0.2728424E+03  0.7818608E-02  0.1099664E+00
          5   -1    0    0  501    0  0.00000000000E+00  0.00000000000E+00  0.23672367539E+03  0.23677032857E+03  0.47000000000E+01 0. -1.
         -5   -1    0    0    0  501 -0.00000000000E+00 -0.00000000000E+00 -0.33982757849E+03  0.33986007872E+03  0.47000000000E+01 0.  1.
          6    1    1    2  502    0 -0.20633100397E+03 -0.47817315510E+02 -0.13044468318E+03  0.30242155054E+03  0.17200000000E+03 0.  1.
         -6    1    1    2    0  502  0.20633100397E+03  0.47817315510E+02  0.27340780073E+02  0.27420885674E+03  0.17200000000E+03 0. -1.
</event>
<event>
 4    1 -0.6483339E-004  0.2306847E+03  0.7818608E-02  0.1126159E+00
          5   -1    0    0  501    0  0.00000000000E+00  0.00000000000E+00  0.14171690532E+03  0.14179482097E+03  0.47000000000E+01 0. -1.
         -5   -1    0    0    0  501 -0.00000000000E+00 -0.00000000000E+00 -0.86276590734E+03  0.86277870910E+03  0.47000000000E+01 0.  1.
          6    1    1    2  502    0 -0.10843518855E+02  0.15334231552E+03  0.17002686054E+02  0.23131048174E+03  0.17200000000E+03 0. -1.
         -6    1    1    2    0  502  0.10843518855E+02 -0.15334231552E+03 -0.73805168807E+03  0.77326304832E+03  0.17200000000E+03 0.  1.
</event>
<event>
 4    1 -0.6483339E-004  0.1957549E+03  0.7818608E-02  0.1153371E+00
          5   -1    0    0  501    0  0.00000000000E+00  0.00000000000E+00  0.61524159618E+03  0.61525954821E+03  0.47000000000E+01 0. -1.
         -5   -1    0    0    0  501 -0.00000000000E+00 -0.00000000000E+00 -0.88335732950E+02  0.88460678925E+02  0.47000000000E+01 0.  1.
          6    1    1    2  502    0  0.84633383050E+02  0.39663412890E+02  0.45474436392E+03  0.49508830765E+03  0.17200000000E+03 0. -1.
         -6    1    1    2    0  502 -0.84633383050E+02 -0.39663412890E+02  0.72161499304E+02  0.20863191949E+03  0.17200000000E+03 0.  1.
</event>
<event>
 4    1 -0.6483339E-004  0.3551535E+03  0.7818608E-02  0.1060519E+00
         -5   -1    0    0    0  501 -0.00000000000E+00  0.00000000000E+00  0.96452299099E+03  0.96453444217E+03  0.47000000000E+01 0.  1.
          5   -1    0    0  501    0  0.00000000000E+00 -0.00000000000E+00 -0.15739391049E+03  0.15746406910E+03  0.47000000000E+01 0. -1.
          6    1    1    2  502    0  0.15979148710E+03 -0.26648956065E+03  0.63445044143E+03  0.72709103139E+03  0.17200000000E+03 0. -1.
         -6    1    1    2    0  502 -0.15979148710E+03  0.26648956065E+03  0.17267863906E+03  0.39490747989E+03  0.17200000000E+03 0.  1.
</event>
<event>
 4    1 -0.6483339E-004  0.1787710E+03  0.7818608E-02  0.1168998E+00
          5   -1    0    0  501    0  0.00000000000E+00  0.00000000000E+00  0.93651400386E+03  0.93652579753E+03  0.47000000000E+01 0. -1.
         -5   -1    0    0    0  501 -0.00000000000E+00 -0.00000000000E+00 -0.45378368842E+02  0.45621117465E+02  0.47000000000E+01 0.  1.
          6    1    1    2  502    0 -0.22673561819E+02  0.43138994125E+02  0.69119419311E+03  0.71393870592E+03  0.17200000000E+03 0. -1.
         -6    1    1    2    0  502  0.22673561819E+02 -0.43138994125E+02  0.19994144191E+03  0.26820820907E+03  0.17200000000E+03 0.  1.
</event>
<event>
 4    1 -0.6483339E-004  0.2081704E+03  0.7818608E-02  0.1143023E+00
          5   -1    0    0  501    0  0.00000000000E+00  0.00000000000E+00  0.62969231393E+03  0.62970985400E+03  0.47000000000E+01 0. -1.
         -5   -1    0    0    0  501 -0.00000000000E+00 -0.00000000000E+00 -0.68869950449E+02  0.69030138888E+02  0.47000000000E+01 0.  1.
          6    1    1    2  502    0 -0.10193212218E+02 -0.11682051645E+03  0.29666766583E+03  0.36241776803E+03  0.17200000000E+03 0.  1.
         -6    1    1    2    0  502  0.10193212218E+02  0.11682051645E+03  0.26415469765E+03  0.33632222485E+03  0.17200000000E+03 0.  1.
</event>
<event>
 4    1 -0.6483339E-004  0.2664828E+03  0.7818608E-02  0.1103310E+00
          5   -1    0    0  501    0  0.00000000000E+00  0.00000000000E+00  0.14555569234E+03  0.14563155418E+03  0.47000000000E+01 0. -1.
         -5   -1    0    0    0  501 -0.00000000000E+00 -0.00000000000E+00 -0.78166530767E+03  0.78167943764E+03  0.47000000000E+01 0.  1.
          6    1    1    2  502    0  0.10636583730E+03  0.17353788437E+03 -0.33716522648E+02  0.26860732037E+03  0.17200000000E+03 0. -1.
         -6    1    1    2    0  502 -0.10636583730E+03 -0.17353788437E+03 -0.60239309269E+03  0.65870367144E+03  0.17200000000E+03 0.  1.
</event>
<event>
 4    1 -0.6483339E-004  0.2576782E+03  0.7818608E-02  0.1108546E+00
         -5   -1    0    0    0  501 -0.00000000000E+00  0.00000000000E+00  0.15699699626E+03  0.15706733217E+03  0.47000000000E+01 0.  1.
          5   -1    0    0  501    0  0.00000000000E+00 -0.00000000000E+00 -0.51610257762E+03  0.51612397796E+03  0.47000000000E+01 0. -1.
          6    1    1    2  502    0 -0.18364167464E+03  0.55586075678E+02 -0.32269558941E+03  0.41295341130E+03  0.17200000000E+03 0. -1.
         -6    1    1    2    0  502  0.18364167464E+03 -0.55586075678E+02 -0.36409991954E+02  0.26023789883E+03  0.17200000000E+03 0.  1.
</event>
<event>
 4    1 -0.6483339E-004  0.1847164E+03  0.7818608E-02  0.1163315E+00
          5   -1    0    0  501    0  0.00000000000E+00  0.00000000000E+00  0.25168913993E+03  0.25173301961E+03  0.47000000000E+01 0. -1.
         -5   -1    0    0    0  501 -0.00000000000E+00 -0.00000000000E+00 -0.17332175362E+03  0.17338546732E+03  0.47000000000E+01 0.  1.
          6    1    1    2  502    0  0.53854851589E+02  0.40444993734E+02  0.13848639407E+03  0.23086494732E+03  0.17200000000E+03 0.  1.
         -6    1    1    2    0  502 -0.53854851589E+02 -0.40444993734E+02 -0.60119007748E+02  0.19425353961E+03  0.17200000000E+03 0.  1.
</event>
<event>
 4    1 -0.6483339E-004  0.2493249E+03  0.7818608E-02  0.1113732E+00
          5   -1    0    0  501    0  0.00000000000E+00  0.00000000000E+00  0.77702245371E+03  0.77703666809E+03  0.47000000000E+01 0. -1.
         -5   -1    0    0    0  501 -0.00000000000E+00 -0.00000000000E+00 -0.15162741152E+03  0.15170023706E+03  0.47000000000E+01 0.  1.
          6    1    1    2  502    0 -0.15572826260E+03 -0.91255756552E+02  0.63191914856E+03  0.67932666310E+03  0.17200000000E+03 0. -1.
         -6    1    1    2    0  502  0.15572826260E+03  0.91255756552E+02 -0.65241063760E+01  0.24941024205E+03  0.17200000000E+03 0.  1.
</event>
<event>
 4    1 -0.6483339E-004  0.2382738E+03  0.7818608E-02  0.1120948E+00
         -5   -1    0    0    0  501 -0.00000000000E+00  0.00000000000E+00  0.96748073194E+02  0.96862168398E+02  0.47000000000E+01 0.  1.
          5   -1    0    0  501    0  0.00000000000E+00 -0.00000000000E+00 -0.68463472243E+03  0.68465085493E+03  0.47000000000E+01 0. -1.
          6    1    1    2  502    0  0.11169614765E+03 -0.12130272666E+03 -0.44197720529E+03  0.50211376290E+03  0.17200000000E+03 0. -1.
         -6    1    1    2    0  502 -0.11169614765E+03  0.12130272666E+03 -0.14590944394E+03  0.27939926043E+03  0.17200000000E+03 0.  1.
</event>
<event>
 4    1 -0.6483339E-004  0.4220195E+03  0.7818608E-02  0.1036411E+00
          5   -1    0    0  501    0  0.00000000000E+00  0.00000000000E+00  0.97634137766E+03  0.97635269024E+03  0.47000000000E+01 0. -1.
         -5   -1    0    0    0  501 -0.00000000000E+00 -0.00000000000E+00 -0.28764003177E+03  0.28767842789E+03  0.47000000000E+01 0.  1.
          6    1    1    2  502    0  0.35002388043E+03 -0.16124432739E+03  0.72664894694E+03  0.84030895632E+03  0.17200000000E+03 0. -1.
         -6    1    1    2    0  502 -0.35002388043E+03  0.16124432739E+03 -0.37947601041E+02  0.42372216181E+03  0.17200000000E+03 0.  1.
</event>
<event>
 4    1 -0.6483339E-004  0.3105554E+03  0.7818608E-02  0.1080080E+00
          5   -1    0    0  501    0  0.00000000000E+00  0.00000000000E+00  0.10189953830E+04  0.10190062221E+04  0.47000000000E+01 0. -1.
         -5   -1    0    0    0  501 -0.00000000000E+00 -0.00000000000E+00 -0.12381769685E+03  0.12390686846E+03  0.47000000000E+01 0.  1.
          6    1    1    2  502    0 -0.25832521046E+03  0.11347095257E+02  0.72516704314E+03  0.78886748658E+03  0.17200000000E+03 0. -1.
         -6    1    1    2    0  502  0.25832521046E+03 -0.11347095257E+02  0.17001064303E+03  0.35404560395E+03  0.17200000000E+03 0.  1.
</event>
<event>
 4    1 -0.6483339E-004  0.2491072E+03  0.7818608E-02  0.1113870E+00
         -5   -1    0    0    0  501 -0.00000000000E+00  0.00000000000E+00  0.18437604642E+03  0.18443594144E+03  0.47000000000E+01 0.  1.
          5   -1    0    0  501    0  0.00000000000E+00 -0.00000000000E+00 -0.47476561936E+03  0.47478888290E+03  0.47000000000E+01 0. -1.
          6    1    1    2  502    0 -0.16264733154E+03  0.77564295534E+02 -0.32309876580E+03  0.40797939514E+03  0.17200000000E+03 0. -1.
         -6    1    1    2    0  502  0.16264733154E+03 -0.77564295534E+02  0.32709192851E+02  0.25124542920E+03  0.17200000000E+03 0.  1.
</event>
<event>
 4    1 -0.6483339E-004  0.1771945E+03  0.7818608E-02  0.1170546E+00
         -5   -1    0    0    0  501 -0.00000000000E+00  0.00000000000E+00  0.15030192666E+03  0.15037539412E+03  0.47000000000E+01 0.  1.
          5   -1    0    0  501    0  0.00000000000E+00 -0.00000000000E+00 -0.22201432077E+03  0.22206406424E+03  0.47000000000E+01 0. -1.
          6    1    1    2  502    0 -0.34942478700E+02 -0.24349923173E+02 -0.81364514463E+02  0.19498225506E+03  0.17200000000E+03 0. -1.
         -6    1    1    2    0  502  0.34942478700E+02  0.24349923173E+02  0.96521203521E+01  0.17745720330E+03  0.17200000000E+03 0.  1.
</event>
<event>
 4    1 -0.6483339E-004  0.1820211E+03  0.7818608E-02  0.1165861E+00
          5   -1    0    0  501    0  0.00000000000E+00  0.00000000000E+00  0.33552766211E+03  0.33556057879E+03  0.47000000000E+01 0. -1.
         -5   -1    0    0    0  501 -0.00000000000E+00 -0.00000000000E+00 -0.10068541373E+03  0.10079505215E+03  0.47000000000E+01 0.  1.
          6    1    1    2  502    0 -0.93558340736E+01  0.58823074687E+02  0.86432360487E+02  0.20149997193E+03  0.17200000000E+03 0. -1.
         -6    1    1    2    0  502  0.93558340736E+01 -0.58823074687E+02  0.14840988789E+03  0.23485565901E+03  0.17200000000E+03 0. -1.
</event>
<event>
 4    1 -0.6483339E-004  0.2910165E+03  0.7818608E-02  0.1089820E+00
         -5   -1    0    0    0  501 -0.00000000000E+00  0.00000000000E+00  0.10105483529E+03  0.10116407335E+03  0.47000000000E+01 0.  1.
          5   -1    0    0  501    0  0.00000000000E+00 -0.00000000000E+00 -0.84010653000E+03  0.84011967704E+03  0.47000000000E+01 0. -1.
          6    1    1    2  502    0  0.19127488830E+03 -0.13609008876E+03 -0.39575339833E+03  0.49123451370E+03  0.17200000000E+03 0.  1.
         -6    1    1    2    0  502 -0.19127488830E+03  0.13609008876E+03 -0.34329829637E+03  0.45004923669E+03  0.17200000000E+03 0.  1.
</event>
<event>
 4    1 -0.6483339E-004  0.1990809E+03  0.7818608E-02  0.1150517E+00
          5   -1    0    0  501    0  0.00000000000E+00  0.00000000000E+00  0.18344814290E+03  0.18350834077E+03  0.47000000000E+01 0. -1.
         -5   -1    0    0    0  501 -0.00000000000E+00 -0.00000000000E+00 -0.22210021353E+03  0.22214993777E+03  0.47000000000E+01 0.  1.
          6    1    1    2  502    0 -0.17823712006E+01  0.10022997127E+03 -0.53139050488E+02  0.20605092253E+03  0.17200000000E+03 0. -1.
         -6    1    1    2    0  502  0.17823712006E+01 -0.10022997127E+03  0.14486979857E+02  0.19960735601E+03  0.17200000000E+03 0. -1.
</event>
<event>
 4    1 -0.6483339E-004  0.2964631E+03  0.7818608E-02  0.1087022E+00
          5   -1    0    0  501    0  0.00000000000E+00  0.00000000000E+00  0.82992623716E+03  0.82993954547E+03  0.47000000000E+01 0. -1.
         -5   -1    0    0    0  501 -0.00000000000E+00 -0.00000000000E+00 -0.12847182052E+03  0.12855776393E+03  0.47000000000E+01 0.  1.
          6    1    1    2  502    0 -0.86308108915E+02  0.22551562143E+03  0.55181246114E+03  0.62640831527E+03  0.17200000000E+03 0. -1.
         -6    1    1    2    0  502  0.86308108915E+02 -0.22551562143E+03  0.14964195551E+03  0.33208899413E+03  0.17200000000E+03 0.  1.
</event>
<event>
 4    1 -0.6483339E-004  0.3246442E+03  0.7818608E-02  0.1073532E+00
          5   -1    0    0  501    0  0.00000000000E+00  0.00000000000E+00  0.25157615070E+03  0.25162005008E+03  0.47000000000E+01 0. -1.
         -5   -1    0    0    0  501 -0.00000000000E+00 -0.00000000000E+00 -0.46681703804E+03  0.46684069768E+03  0.47000000000E+01 0.  1.
          6    1    1    2  502    0  0.10304717237E+03  0.25532555699E+03  0.75342604028E+01  0.32473161975E+03  0.17200000000E+03 0. -1.
         -6    1    1    2    0  502 -0.10304717237E+03 -0.25532555699E+03 -0.22277514775E+03  0.39372912800E+03  0.17200000000E+03 0.  1.
</event>
<event>
 4    1 -0.6483339E-004  0.2046264E+03  0.7818608E-02  0.1145893E+00
          5   -1    0    0  501    0  0.00000000000E+00  0.00000000000E+00  0.45604255788E+03  0.45606677647E+03  0.47000000000E+01 0. -1.
         -5   -1    0    0    0  501 -0.00000000000E+00 -0.00000000000E+00 -0.13188039754E+03  0.13196412109E+03  0.47000000000E+01 0.  1.
          6    1    1    2  502    0  0.95826924534E+02 -0.55724115464E+02  0.32423293882E+03  0.38340445371E+03  0.17200000000E+03 0. -1.
         -6    1    1    2    0  502 -0.95826924534E+02  0.55724115464E+02 -0.70778478783E-01  0.20462644384E+03  0.17200000000E+03 0.  1.
</event>
<event>
 4    1 -0.6483339E-004  0.2392621E+03  0.7818608E-02  0.1120285E+00
         -5   -1    0    0    0  501 -0.00000000000E+00  0.00000000000E+00  0.15128319307E+03  0.15135618423E+03  0.47000000000E+01 0.  1.
          5   -1    0    0  501    0  0.00000000000E+00 -0.00000000000E+00 -0.47792239593E+03  0.47794550582E+03  0.47000000000E+01 0. -1.
          6    1    1    2  502    0  0.11417620113E+03  0.12093863652E+03 -0.30701537100E+03  0.38923617090E+03  0.17200000000E+03 0. -1.
         -6    1    1    2    0  502 -0.11417620113E+03 -0.12093863652E+03 -0.19623831868E+02  0.24006551915E+03  0.17200000000E+03 0.  1.
</event>
<event>
 4    1 -0.6483339E-004  0.3110311E+03  0.7818608E-02  0.1079853E+00
          5   -1    0    0  501    0  0.00000000000E+00  0.00000000000E+00  0.12404175539E+03  0.12413076605E+03  0.47000000000E+01 0. -1.
         -5   -1    0    0    0  501 -0.00000000000E+00 -0.00000000000E+00 -0.79138536901E+03  0.79139932542E+03  0.47000000000E+01 0.  1.
          6    1    1    2  502    0  0.12291587089E+03 -0.22814041876E+03 -0.38970629224E+03  0.49860942250E+03  0.17200000000E+03 0. -1.
         -6    1    1    2    0  502 -0.12291587089E+03  0.22814041876E+03 -0.27763732138E+03  0.41692066897E+03  0.17200000000E+03 0.  1.
</event>
<event>
 4    1 -0.6483339E-004  0.1940855E+03  0.7818608E-02  0.1154827E+00
          5   -1    0    0  501    0  0.00000000000E+00  0.00000000000E+00  0.21125655426E+03  0.21130883019E+03  0.47000000000E+01 0. -1.
         -5   -1    0    0    0  501 -0.00000000000E+00 -0.00000000000E+00 -0.18200137087E+03  0.18206204712E+03  0.47000000000E+01 0.  1.
          6    1    1    2  502    0 -0.17606841830E+02  0.88176901214E+02 -0.13771162143E+02  0.19457340952E+03  0.17200000000E+03 0. -1.
         -6    1    1    2    0  502  0.17606841830E+02 -0.88176901214E+02  0.43026345526E+02  0.19879746778E+03  0.17200000000E+03 0. -1.
</event>
<event>
 4    1 -0.6483339E-004  0.1853610E+03  0.7818608E-02  0.1162713E+00
          5   -1    0    0  501    0  0.00000000000E+00  0.00000000000E+00  0.55358952537E+03  0.55360947662E+03  0.47000000000E+01 0. -1.
         -5   -1    0    0    0  501 -0.00000000000E+00 -0.00000000000E+00 -0.85529724839E+02  0.85658763889E+02  0.47000000000E+01 0.  1.
          6    1    1    2  502    0  0.53368236168E+02  0.43892294569E+02  0.40166918494E+03  0.44237635141E+03  0.17200000000E+03 0. -1.
         -6    1    1    2    0  502 -0.53368236168E+02 -0.43892294569E+02  0.66390615591E+02  0.19689188910E+03  0.17200000000E+03 0.  1.
</event>
<event>
 4    1 -0.6483339E-004  0.1814899E+03  0.7818608E-02  0.1166369E+00
         -5   -1    0    0    0  501 -0.00000000000E+00  0.00000000000E+00  0.31031955773E+03  0.31035514803E+03  0.47000000000E+01 0.  1.
          5   -1    0    0  501    0  0.00000000000E+00 -0.00000000000E+00 -0.12285889506E+03  0.12294876207E+03  0.47000000000E+01 0. -1.
          6    1    1    2  502    0  0.40228365155E+02 -0.41668638484E+02  0.13638247828E+02  0.18200164450E+03  0.17200000000E+03 0. -1.
         -6    1    1    2    0  502 -0.40228365155E+02  0.41668638484E+02  0.17382241484E+03  0.25130226560E+03  0.17200000000E+03 0.  1.
</event>
<event>
 4    1 -0.6483339E-004  0.3507987E+03  0.7818608E-02  0.1062288E+00
          5   -1    0    0  501    0  0.00000000000E+00  0.00000000000E+00  0.62102408253E+03  0.62104186741E+03  0.47000000000E+01 0. -1.
         -5   -1    0    0    0  501 -0.00000000000E+00 -0.00000000000E+00 -0.20269625158E+03  0.20275073466E+03  0.47000000000E+01 0.  1.
          6    1    1    2  502    0 -0.26024178387E+03  0.16046781212E+03  0.14720131109E+03  0.38043124317E+03  0.17200000000E+03 0.  1.
         -6    1    1    2    0  502  0.26024178387E+03 -0.16046781212E+03  0.27112651986E+03  0.44336135890E+03  0.17200000000E+03 0. -1.
</event>
<event>
 4    1 -0.6483339E-004  0.2761098E+03  0.7818608E-02  0.1097833E+00
          5   -1    0    0  501    0  0.00000000000E+00  0.00000000000E+00  0.25151036190E+03  0.25155427276E+03  0.47000000000E+01 0. -1.
         -5   -1    0    0    0  501 -0.00000000000E+00 -0.00000000000E+00 -0.30485015157E+03  0.30488638034E+03  0.47000000000E+01 0.  1.
          6    1    1    2  502    0  0.19483984407E+03 -0.93220548067E+02 -0.48184652766E+02  0.28028270761E+03  0.17200000000E+03 0. -1.
         -6    1    1    2    0  502 -0.19483984407E+03  0.93220548067E+02 -0.51551369058E+01  0.27615794549E+03  0.17200000000E+03 0.  1.
</event>
<event>
 4    1 -0.6483339E-004  0.3768213E+03  0.7818608E-02  0.1052115E+00
          5   -1    0    0  501    0  0.00000000000E+00  0.00000000000E+00  0.41100205874E+03  0.41102893121E+03  0.47000000000E+01 0. -1.
         -5   -1    0    0    0  501 -0.00000000000E+00 -0.00000000000E+00 -0.36978788956E+03  0.36981775683E+03  0.47000000000E+01 0.  1.
          6    1    1    2  502    0 -0.29648399781E+03 -0.15654886639E+03  0.12080386894E+03  0.39571186901E+03  0.17200000000E+03 0.  1.
         -6    1    1    2    0  502  0.29648399781E+03  0.15654886639E+03 -0.79589699757E+02  0.38513481903E+03  0.17200000000E+03 0.  1.
</event>
<event>
 4    1 -0.6483339E-004  0.2487596E+03  0.7818608E-02  0.1114091E+00
          5   -1    0    0  501    0  0.00000000000E+00  0.00000000000E+00  0.55550924745E+02  0.55749396768E+02  0.47000000000E+01 0. -1.
         -5   -1    0    0    0  501 -0.00000000000E+00 -0.00000000000E+00 -0.16893073205E+04  0.16893138587E+04  0.47000000000E+01 0.  1.
          6    1    1    2  502    0  0.80706750494E+02  0.16057328944E+03 -0.30673599893E+03  0.39492826424E+03  0.17200000000E+03 0. -1.
         -6    1    1    2    0  502 -0.80706750494E+02 -0.16057328944E+03 -0.13270203968E+04  0.13501349912E+04  0.17200000000E+03 0.  1.
</event>
<event>
 4    1 -0.6483339E-004  0.3352323E+03  0.7818608E-02  0.1068845E+00
         -5   -1    0    0    0  501 -0.00000000000E+00  0.00000000000E+00  0.10570414114E+03  0.10580857930E+03  0.47000000000E+01 0.  1.
          5   -1    0    0  501    0  0.00000000000E+00 -0.00000000000E+00 -0.11438293773E+04  0.11438390334E+04  0.47000000000E+01 0. -1.
          6    1    1    2  502    0 -0.11857556579E+03  0.26217647864E+03 -0.68563562415E+03  0.76320172947E+03  0.17200000000E+03 0. -1.
         -6    1    1    2    0  502  0.11857556579E+03 -0.26217647864E+03 -0.35248961197E+03  0.48644588322E+03  0.17200000000E+03 0.  1.
</event>
<event>
 4    1 -0.6483339E-004  0.1784152E+03  0.7818608E-02  0.1169346E+00
         -5   -1    0    0    0  501 -0.00000000000E+00  0.00000000000E+00  0.53284870128E+03  0.53286942909E+03  0.47000000000E+01 0.  1.
          5   -1    0    0  501    0  0.00000000000E+00 -0.00000000000E+00 -0.76893095811E+02  0.77036602880E+02  0.47000000000E+01 0. -1.
          6    1    1    2  502    0 -0.37291778738E+02  0.29279687930E+02  0.37231933663E+03  0.41286034602E+03  0.17200000000E+03 0.  1.
         -6    1    1    2    0  502  0.37291778738E+02 -0.29279687930E+02  0.83636268845E+02  0.19704568595E+03  0.17200000000E+03 0. -1.
</event>
<event>
 4    1 -0.6483339E-004  0.2001661E+03  0.7818608E-02  0.1149599E+00
         -5   -1    0    0    0  501 -0.00000000000E+00  0.00000000000E+00  0.65340407043E+03  0.65342097399E+03  0.47000000000E+01 0.  1.
          5   -1    0    0  501    0  0.00000000000E+00 -0.00000000000E+00 -0.13504688937E+03  0.13512865103E+03  0.47000000000E+01 0. -1.
          6    1    1    2  502    0 -0.81423606523E+02  0.62069761464E+02 -0.32195222845E+02  0.20273872684E+03  0.17200000000E+03 0. -1.
         -6    1    1    2    0  502  0.81423606523E+02 -0.62069761464E+02  0.55055240390E+03  0.58581089818E+03  0.17200000000E+03 0.  1.
</event>
<event>
 4    1 -0.6483339E-004  0.1958857E+03  0.7818608E-02  0.1153257E+00
          5   -1    0    0  501    0  0.00000000000E+00  0.00000000000E+00  0.39143193705E+02  0.39424353050E+02  0.47000000000E+01 0. -1.
         -5   -1    0    0    0  501 -0.00000000000E+00 -0.00000000000E+00 -0.97785862727E+03  0.97786992229E+03  0.47000000000E+01 0.  1.
          6    1    1    2  502    0 -0.78063013342E+02 -0.51897795478E+02 -0.45028457329E+03  0.49104726063E+03  0.17200000000E+03 0. -1.
         -6    1    1    2    0  502  0.78063013342E+02  0.51897795478E+02 -0.48843086027E+03  0.52624701471E+03  0.17200000000E+03 0.  1.
</event>
<event>
 4    1 -0.6483339E-004  0.2478937E+03  0.7818608E-02  0.1114643E+00
         -5   -1    0    0    0  501 -0.00000000000E+00  0.00000000000E+00  0.13340161456E+04  0.13340244251E+04  0.47000000000E+01 0.  1.
          5   -1    0    0  501    0  0.00000000000E+00 -0.00000000000E+00 -0.19813988916E+03  0.19819562476E+03  0.47000000000E+01 0. -1.
          6    1    1    2  502    0  0.51729106692E+02  0.17085482011E+03 -0.10325320448E+03  0.26853769618E+03  0.17200000000E+03 0. -1.
         -6    1    1    2    0  502 -0.51729106692E+02 -0.17085482011E+03  0.12391294610E+04  0.12636823537E+04  0.17200000000E+03 0.  1.
</event>
<event>
 4    1 -0.6483339E-004  0.1908391E+03  0.7818608E-02  0.1157707E+00
          5   -1    0    0  501    0  0.00000000000E+00  0.00000000000E+00  0.85772484517E+03  0.85773772216E+03  0.47000000000E+01 0. -1.
         -5   -1    0    0    0  501 -0.00000000000E+00 -0.00000000000E+00 -0.46037942964E+02  0.46277231900E+02  0.47000000000E+01 0.  1.
          6    1    1    2  502    0  0.51169136564E+02  0.64940476905E+02  0.53397582282E+03  0.56705354724E+03  0.17200000000E+03 0.  1.
         -6    1    1    2    0  502 -0.51169136564E+02 -0.64940476905E+02  0.27771107939E+03  0.33696140683E+03  0.17200000000E+03 0. -1.
</event>
<event>
 4    1 -0.6483339E-004  0.4963838E+03  0.7818608E-02  0.1014727E+00
          5   -1    0    0  501    0  0.00000000000E+00  0.00000000000E+00  0.13901023606E+04  0.13901103060E+04  0.47000000000E+01 0. -1.
         -5   -1    0    0    0  501 -0.00000000000E+00 -0.00000000000E+00 -0.17818805063E+03  0.17825002493E+03  0.47000000000E+01 0.  1.
          6    1    1    2  502    0  0.45055003867E+03  0.11754784595E+03  0.66400618947E+03  0.82903621941E+03  0.17200000000E+03 0. -1.
         -6    1    1    2    0  502 -0.45055003867E+03 -0.11754784595E+03  0.54790812050E+03  0.73932411157E+03  0.17200000000E+03 0.  1.
</event>
<event>
 4    1 -0.6483339E-004  0.2774847E+03  0.7818608E-02  0.1097071E+00
         -5   -1    0    0    0  501 -0.00000000000E+00  0.00000000000E+00  0.19207271407E+03  0.19213020973E+03  0.47000000000E+01 0.  1.
          5   -1    0    0  501    0  0.00000000000E+00 -0.00000000000E+00 -0.59751090603E+03  0.59752939076E+03  0.47000000000E+01 0. -1.
          6    1    1    2  502    0  0.11463476389E+03  0.18512864528E+03 -0.42927774684E+03  0.51115274461E+03  0.17200000000E+03 0. -1.
         -6    1    1    2    0  502 -0.11463476389E+03 -0.18512864528E+03  0.23839554879E+02  0.27850685588E+03  0.17200000000E+03 0.  1.
</event>
<event>
 4    1 -0.6483339E-004  0.6922446E+03  0.7818608E-02  0.9730588E-01
          5   -1    0    0  501    0  0.00000000000E+00  0.00000000000E+00  0.10902964249E+04  0.10903065551E+04  0.47000000000E+01 0. -1.
         -5   -1    0    0    0  501 -0.00000000000E+00 -0.00000000000E+00 -0.81782361469E+03  0.81783711994E+03  0.47000000000E+01 0.  1.
          6    1    1    2  502    0 -0.96934379615E+01 -0.67046592918E+03  0.78514014754E+03  0.10467318550E+04  0.17200000000E+03 0. -1.
         -6    1    1    2    0  502  0.96934379615E+01  0.67046592918E+03 -0.51266733737E+03  0.86141182005E+03  0.17200000000E+03 0.  1.
</event>
<event>
 4    1 -0.6483339E-004  0.2103479E+03  0.7818608E-02  0.1141291E+00
          5   -1    0    0  501    0  0.00000000000E+00  0.00000000000E+00  0.90854523611E+03  0.90855739282E+03  0.47000000000E+01 0. -1.
         -5   -1    0    0    0  501 -0.00000000000E+00 -0.00000000000E+00 -0.58895609578E+02  0.59082847151E+02  0.47000000000E+01 0.  1.
          6    1    1    2  502    0 -0.82670934297E+00 -0.12108499068E+03  0.22266023449E+03  0.30630677178E+03  0.17200000000E+03 0.  1.
         -6    1    1    2    0  502  0.82670934297E+00  0.12108499068E+03  0.62698939204E+03  0.66133346819E+03  0.17200000000E+03 0. -1.
</event>
<event>
 4    1 -0.6483339E-004  0.2893721E+03  0.7818608E-02  0.1090677E+00
         -5   -1    0    0    0  501 -0.00000000000E+00  0.00000000000E+00  0.43080668761E+03  0.43083232479E+03  0.47000000000E+01 0.  1.
          5   -1    0    0  501    0  0.00000000000E+00 -0.00000000000E+00 -0.32862798410E+03  0.32866159181E+03  0.47000000000E+01 0. -1.
          6    1    1    2  502    0  0.20343340653E+03 -0.11299146635E+03 -0.19166152672E+03  0.34708840832E+03  0.17200000000E+03 0. -1.
         -6    1    1    2    0  502 -0.20343340653E+03  0.11299146635E+03  0.29384023023E+03  0.41240550829E+03  0.17200000000E+03 0.  1.
</event>
<event>
 4    1 -0.6483339E-004  0.2223312E+03  0.7818608E-02  0.1132157E+00
         -5   -1    0    0    0  501 -0.00000000000E+00  0.00000000000E+00  0.37559893782E+03  0.37562834304E+03  0.47000000000E+01 0.  1.
          5   -1    0    0  501    0  0.00000000000E+00 -0.00000000000E+00 -0.14379848404E+03  0.14387527241E+03  0.47000000000E+01 0. -1.
          6    1    1    2  502    0 -0.10424198419E+03 -0.94766872239E+02  0.40056980892E+02  0.22591085202E+03  0.17200000000E+03 0. -1.
         -6    1    1    2    0  502  0.10424198419E+03  0.94766872239E+02  0.19174347290E+03  0.29359276343E+03  0.17200000000E+03 0.  1.
</event>
<event>
 4    1 -0.6483339E-004  0.2821995E+03  0.7818608E-02  0.1094494E+00
          5   -1    0    0  501    0  0.00000000000E+00  0.00000000000E+00  0.10992683525E+03  0.11002726530E+03  0.47000000000E+01 0. -1.
         -5   -1    0    0    0  501 -0.00000000000E+00 -0.00000000000E+00 -0.10134090568E+04  0.10134199556E+04  0.47000000000E+01 0.  1.
          6    1    1    2  502    0  0.33577654470E+02 -0.22119023269E+03 -0.15158092012E+03  0.32033319101E+03  0.17200000000E+03 0. -1.
         -6    1    1    2    0  502 -0.33577654470E+02  0.22119023269E+03 -0.75190130142E+03  0.80311402988E+03  0.17200000000E+03 0. -1.
</event>
<event>
 4    1 -0.6483339E-004  0.1825041E+03  0.7818608E-02  0.1165401E+00
         -5   -1    0    0    0  501 -0.00000000000E+00  0.00000000000E+00  0.48498829695E+02  0.48726034948E+02  0.47000000000E+01 0.  1.
          5   -1    0    0  501    0  0.00000000000E+00 -0.00000000000E+00 -0.71467674480E+03  0.71469219917E+03  0.47000000000E+01 0. -1.
          6    1    1    2  502    0 -0.41484180243E+02 -0.44752749994E+02 -0.41094536506E+03  0.44964857267E+03  0.17200000000E+03 0. -1.
         -6    1    1    2    0  502  0.41484180243E+02  0.44752749994E+02 -0.25523255005E+03  0.31376966145E+03  0.17200000000E+03 0.  1.
</event>
<event>
 4    1 -0.6483339E-004  0.2971897E+03  0.7818608E-02  0.1086654E+00
         -5   -1    0    0    0  501 -0.00000000000E+00  0.00000000000E+00  0.18498183216E+03  0.18504153109E+03  0.47000000000E+01 0.  1.
          5   -1    0    0  501    0  0.00000000000E+00 -0.00000000000E+00 -0.66533079249E+03  0.66534739305E+03  0.47000000000E+01 0. -1.
          6    1    1    2  502    0  0.22808757328E+03  0.81937805266E+02 -0.46619184339E+03  0.55286217076E+03  0.17200000000E+03 0. -1.
         -6    1    1    2    0  502 -0.22808757328E+03 -0.81937805266E+02 -0.14157116938E+02  0.29752675338E+03  0.17200000000E+03 0.  1.
</event>
<event>
 4    1 -0.6483339E-004  0.4438556E+03  0.7818608E-02  0.1029570E+00
         -5   -1    0    0    0  501 -0.00000000000E+00  0.00000000000E+00  0.86429350096E+03  0.86430628009E+03  0.47000000000E+01 0.  1.
          5   -1    0    0  501    0  0.00000000000E+00 -0.00000000000E+00 -0.28135734827E+03  0.28139660166E+03  0.47000000000E+01 0. -1.
          6    1    1    2  502    0 -0.39059508862E+03  0.12189860752E+03  0.41799361488E+02  0.44581944820E+03  0.17200000000E+03 0. -1.
         -6    1    1    2    0  502  0.39059508862E+03 -0.12189860752E+03  0.54113679120E+03  0.69988343355E+03  0.17200000000E+03 0.  1.
</event>
<event>
 4    1 -0.6483339E-004  0.1782805E+03  0.7818608E-02  0.1169478E+00
          5   -1    0    0  501    0  0.00000000000E+00  0.00000000000E+00  0.13177731847E+03  0.13186110747E+03  0.47000000000E+01 0. -1.
         -5   -1    0    0    0  501 -0.00000000000E+00 -0.00000000000E+00 -0.24118227983E+03  0.24122807073E+03  0.47000000000E+01 0.  1.
          6    1    1    2  502    0 -0.39527598541E+02 -0.25248606259E+02 -0.49730027017E+02  0.18508646291E+03  0.17200000000E+03 0.  1.
         -6    1    1    2    0  502  0.39527598541E+02  0.25248606259E+02 -0.59674934352E+02  0.18800271528E+03  0.17200000000E+03 0. -1.
</event>
<event>
 4    1 -0.6483339E-004  0.1879833E+03  0.7818608E-02  0.1160293E+00
          5   -1    0    0  501    0  0.00000000000E+00  0.00000000000E+00  0.65075423023E+03  0.65077120262E+03  0.47000000000E+01 0. -1.
         -5   -1    0    0    0  501 -0.00000000000E+00 -0.00000000000E+00 -0.55883121794E+02  0.56080418164E+02  0.47000000000E+01 0.  1.
          6    1    1    2  502    0 -0.30767920501E+02  0.69332836566E+02  0.35895595820E+03  0.40520005810E+03  0.17200000000E+03 0. -1.
         -6    1    1    2    0  502  0.30767920501E+02 -0.69332836566E+02  0.23591515023E+03  0.30165156268E+03  0.17200000000E+03 0. -1.
</event>
<event>
 4    1 -0.6483339E-004  0.2440211E+03  0.7818608E-02  0.1117143E+00
         -5   -1    0    0    0  501 -0.00000000000E+00  0.00000000000E+00  0.97649713520E+03  0.97650844597E+03  0.47000000000E+01 0.  1.
          5   -1    0    0  501    0  0.00000000000E+00 -0.00000000000E+00 -0.69683412590E+02  0.69841735303E+02  0.47000000000E+01 0. -1.
          6    1    1    2  502    0  0.15767844143E+03 -0.71412958629E+02  0.26766396825E+03  0.36220201746E+03  0.17200000000E+03 0. -1.
         -6    1    1    2    0  502 -0.15767844143E+03  0.71412958629E+02  0.63914975436E+03  0.68414816382E+03  0.17200000000E+03 0. -1.
</event>
<event>
 4    1 -0.6483339E-004  0.2333061E+03  0.7818608E-02  0.1124334E+00
          5   -1    0    0  501    0  0.00000000000E+00  0.00000000000E+00  0.34162072856E+03  0.34165305821E+03  0.47000000000E+01 0. -1.
         -5   -1    0    0    0  501 -0.00000000000E+00 -0.00000000000E+00 -0.53780803703E+03  0.53782857370E+03  0.47000000000E+01 0.  1.
          6    1    1    2  502    0 -0.50970213821E+02 -0.14916352684E+03  0.27080992950E+03  0.35744893111E+03  0.17200000000E+03 0. -1.
         -6    1    1    2    0  502  0.50970213821E+02  0.14916352684E+03 -0.46699723797E+03  0.52203270080E+03  0.17200000000E+03 0.  1.
</event>
<event>
 4    1 -0.6483339E-004  0.1998884E+03  0.7818608E-02  0.1149833E+00
         -5   -1    0    0    0  501 -0.00000000000E+00  0.00000000000E+00  0.88450989660E+02  0.88575773052E+02  0.47000000000E+01 0.  1.
          5   -1    0    0  501    0  0.00000000000E+00 -0.00000000000E+00 -0.57510775978E+03  0.57512696456E+03  0.47000000000E+01 0. -1.
          6    1    1    2  502    0 -0.77601052720E+02 -0.65950465160E+02 -0.39730105998E+03  0.44475107588E+03  0.17200000000E+03 0. -1.
         -6    1    1    2    0  502  0.77601052720E+02  0.65950465160E+02 -0.89355710142E+02  0.21895166173E+03  0.17200000000E+03 0.  1.
</event>
<event>
 4    1 -0.6483339E-004  0.2984651E+03  0.7818608E-02  0.1086010E+00
          5   -1    0    0  501    0  0.00000000000E+00  0.00000000000E+00  0.12246080342E+04  0.12246170534E+04  0.47000000000E+01 0. -1.
         -5   -1    0    0    0  501 -0.00000000000E+00 -0.00000000000E+00 -0.77205879804E+02  0.77348806560E+02  0.47000000000E+01 0.  1.
          6    1    1    2  502    0  0.10357965922E+03  0.22083627162E+03  0.73154567431E+03  0.79008890530E+03  0.17200000000E+03 0. -1.
         -6    1    1    2    0  502 -0.10357965922E+03 -0.22083627162E+03  0.41585648010E+03  0.51187695466E+03  0.17200000000E+03 0.  1.
</event>
<event>
 4    1 -0.6483339E-004  0.1778718E+03  0.7818608E-02  0.1169879E+00
          5   -1    0    0  501    0  0.00000000000E+00  0.00000000000E+00  0.13088120086E+03  0.13096556318E+03  0.47000000000E+01 0. -1.
         -5   -1    0    0    0  501 -0.00000000000E+00 -0.00000000000E+00 -0.29760648458E+03  0.29764359503E+03  0.47000000000E+01 0.  1.
          6    1    1    2  502    0  0.47241191253E+01  0.45078441883E+02  0.96275823410E+01  0.17813218004E+03  0.17200000000E+03 0. -1.
         -6    1    1    2    0  502 -0.47241191253E+01 -0.45078441883E+02 -0.17635286607E+03  0.25047697817E+03  0.17200000000E+03 0.  1.
</event>
<event>
 4    1 -0.6483339E-004  0.1837989E+03  0.7818608E-02  0.1164176E+00
         -5   -1    0    0    0  501 -0.00000000000E+00  0.00000000000E+00  0.38622611735E+02  0.38907533168E+02  0.47000000000E+01 0.  1.
          5   -1    0    0  501    0  0.00000000000E+00 -0.00000000000E+00 -0.95019404933E+03  0.95020567320E+03  0.47000000000E+01 0. -1.
          6    1    1    2  502    0 -0.64787671227E+02  0.77622691387E+00 -0.59839140315E+03  0.62598268046E+03  0.17200000000E+03 0.  1.
         -6    1    1    2    0  502  0.64787671227E+02 -0.77622691387E+00 -0.31318003444E+03  0.36313052591E+03  0.17200000000E+03 0.  1.
</event>
<event>
 4    1 -0.6483339E-004  0.1930181E+03  0.7818608E-02  0.1155767E+00
         -5   -1    0    0    0  501 -0.00000000000E+00  0.00000000000E+00  0.39636433091E+02  0.39914118156E+02  0.47000000000E+01 0.  1.
          5   -1    0    0  501    0  0.00000000000E+00 -0.00000000000E+00 -0.10520737869E+04  0.10520842852E+04  0.47000000000E+01 0. -1.
          6    1    1    2  502    0  0.70451912467E+02 -0.52043261544E+02 -0.68725598517E+03  0.71384645562E+03  0.17200000000E+03 0. -1.
         -6    1    1    2    0  502 -0.70451912467E+02  0.52043261544E+02 -0.32518136866E+03  0.37815194772E+03  0.17200000000E+03 0.  1.
</event>
<event>
 4    1 -0.6483339E-004  0.2920572E+03  0.7818608E-02  0.1089280E+00
         -5   -1    0    0    0  501 -0.00000000000E+00  0.00000000000E+00  0.38211308164E+03  0.38214198560E+03  0.47000000000E+01 0.  1.
          5   -1    0    0  501    0  0.00000000000E+00 -0.00000000000E+00 -0.25525239267E+03  0.25529565990E+03  0.47000000000E+01 0. -1.
          6    1    1    2  502    0 -0.20869648764E+03 -0.11026859415E+03 -0.49558792104E+02  0.29623210610E+03  0.17200000000E+03 0. -1.
         -6    1    1    2    0  502  0.20869648764E+03  0.11026859415E+03  0.17641948108E+03  0.34120553940E+03  0.17200000000E+03 0.  1.
</event>
<event>
 4    1 -0.6483339E-004  0.1805381E+03  0.7818608E-02  0.1167283E+00
         -5   -1    0    0    0  501 -0.00000000000E+00  0.00000000000E+00  0.24696072032E+03  0.24700543998E+03  0.47000000000E+01 0.  1.
          5   -1    0    0  501    0  0.00000000000E+00 -0.00000000000E+00 -0.16344880953E+03  0.16351637025E+03  0.47000000000E+01 0. -1.
          6    1    1    2  502    0  0.46789308084E+02  0.28648978051E+02 -0.48415888894E+02  0.18691736568E+03  0.17200000000E+03 0. -1.
         -6    1    1    2    0  502 -0.46789308084E+02 -0.28648978051E+02  0.13192779968E+03  0.22360444455E+03  0.17200000000E+03 0.  1.
</event>
<event>
 4    1 -0.6483339E-004  0.2239847E+03  0.7818608E-02  0.1130947E+00
          5   -1    0    0  501    0  0.00000000000E+00  0.00000000000E+00  0.53775172753E+03  0.53777226636E+03  0.47000000000E+01 0. -1.
         -5   -1    0    0    0  501 -0.00000000000E+00 -0.00000000000E+00 -0.99099193535E+02  0.99210584915E+02  0.47000000000E+01 0.  1.
          6    1    1    2  502    0 -0.13122980243E+03  0.57998850750E+02  0.29689644688E+03  0.37190943508E+03  0.17200000000E+03 0. -1.
         -6    1    1    2    0  502  0.13122980243E+03 -0.57998850750E+02  0.14175608712E+03  0.26507341619E+03  0.17200000000E+03 0.  1.
</event>
<event>
 4    1 -0.6483339E-004  0.1832507E+03  0.7818608E-02  0.1164694E+00
          5   -1    0    0  501    0  0.00000000000E+00  0.00000000000E+00  0.59289706332E+03  0.59291569190E+03  0.47000000000E+01 0. -1.
         -5   -1    0    0    0  501 -0.00000000000E+00 -0.00000000000E+00 -0.56951039643E+02  0.57144649062E+02  0.47000000000E+01 0.  1.
          6    1    1    2  502    0 -0.63157944310E+02 -0.28116751105E+01  0.23979784638E+03  0.30180099167E+03  0.17200000000E+03 0.  1.
         -6    1    1    2    0  502  0.63157944310E+02  0.28116751105E+01  0.29614817730E+03  0.34825934929E+03  0.17200000000E+03 0. -1.
</event>
<event>
 4    1 -0.6483339E-004  0.3077693E+03  0.7818608E-02  0.1081420E+00
         -5   -1    0    0    0  501 -0.00000000000E+00  0.00000000000E+00  0.21734455330E+03  0.21739536529E+03  0.47000000000E+01 0.  1.
          5   -1    0    0  501    0  0.00000000000E+00 -0.00000000000E+00 -0.67029550380E+03  0.67031198140E+03  0.47000000000E+01 0. -1.
          6    1    1    2  502    0  0.25008555192E+03 -0.50942533149E+02 -0.48904428162E+03  0.57782889712E+03  0.17200000000E+03 0. -1.
         -6    1    1    2    0  502 -0.25008555192E+03  0.50942533149E+02  0.36093331125E+02  0.30987844958E+03  0.17200000000E+03 0.  1.
</event>
<event>
 4    1 -0.6483339E-004  0.2699056E+03  0.7818608E-02  0.1101334E+00
          5   -1    0    0  501    0  0.00000000000E+00  0.00000000000E+00  0.23438034566E+03  0.23442746518E+03  0.47000000000E+01 0. -1.
         -5   -1    0    0    0  501 -0.00000000000E+00 -0.00000000000E+00 -0.73154860819E+03  0.73156370614E+03  0.47000000000E+01 0.  1.
          6    1    1    2  502    0  0.20658304740E+03 -0.24258245666E+02  0.11772949780E+03  0.29446434862E+03  0.17200000000E+03 0. -1.
         -6    1    1    2    0  502 -0.20658304740E+03  0.24258245666E+02 -0.61489776033E+03  0.67152682270E+03  0.17200000000E+03 0.  1.
</event>
<event>
 4    1 -0.6483339E-004  0.5382318E+03  0.7818608E-02  0.1004255E+00
         -5   -1    0    0    0  501 -0.00000000000E+00  0.00000000000E+00  0.39245601004E+03  0.39248415232E+03  0.47000000000E+01 0.  1.
          5   -1    0    0  501    0  0.00000000000E+00 -0.00000000000E+00 -0.75867987072E+03  0.75869442877E+03  0.47000000000E+01 0. -1.
          6    1    1    2  502    0  0.50686469081E+03 -0.56547616524E+02 -0.88299547172E+02  0.54542667496E+03  0.17200000000E+03 0. -1.
         -6    1    1    2    0  502 -0.50686469081E+03  0.56547616524E+02 -0.27792431351E+03  0.60575190612E+03  0.17200000000E+03 0.  1.
</event>
<event>
 4    1 -0.6483339E-004  0.1924024E+03  0.7818608E-02  0.1156312E+00
         -5   -1    0    0    0  501 -0.00000000000E+00  0.00000000000E+00  0.13415940656E+04  0.13416022984E+04  0.47000000000E+01 0.  1.
          5   -1    0    0  501    0  0.00000000000E+00 -0.00000000000E+00 -0.27890111659E+02  0.28283357798E+02  0.47000000000E+01 0. -1.
          6    1    1    2  502    0 -0.75784862616E+02 -0.41126018818E+02  0.56529619704E+03  0.59714193054E+03  0.17200000000E+03 0. -1.
         -6    1    1    2    0  502  0.75784862616E+02  0.41126018818E+02  0.74840775695E+03  0.77274372562E+03  0.17200000000E+03 0.  1.
</event>
<event>
 4    1 -0.6483339E-004  0.2275599E+03  0.7818608E-02  0.1128369E+00
         -5   -1    0    0    0  501 -0.00000000000E+00  0.00000000000E+00  0.11218143415E+03  0.11227984756E+03  0.47000000000E+01 0.  1.
          5   -1    0    0  501    0  0.00000000000E+00 -0.00000000000E+00 -0.51375495982E+03  0.51377645795E+03  0.47000000000E+01 0. -1.
          6    1    1    2  502    0  0.10534788371E+03  0.10536275186E+03 -0.30080531768E+03  0.37718341060E+03  0.17200000000E+03 0.  1.
         -6    1    1    2    0  502 -0.10534788371E+03 -0.10536275186E+03 -0.10076820799E+03  0.24887289492E+03  0.17200000000E+03 0.  1.
</event>
<event>
 4    1 -0.6483339E-004  0.2678980E+03  0.7818608E-02  0.1102489E+00
         -5   -1    0    0    0  501 -0.00000000000E+00  0.00000000000E+00  0.68488554378E+02  0.68649632780E+02  0.47000000000E+01 0.  1.
          5   -1    0    0  501    0  0.00000000000E+00 -0.00000000000E+00 -0.15491431628E+04  0.15491502925E+04  0.47000000000E+01 0. -1.
          6    1    1    2  502    0 -0.87388248311E+02  0.18587256964E+03 -0.12010640776E+04  0.12305788218E+04  0.17200000000E+03 0. -1.
         -6    1    1    2    0  502  0.87388248311E+02 -0.18587256964E+03 -0.27959053075E+03  0.38722110347E+03  0.17200000000E+03 0.  1.
</event>
<event>
 4    1 -0.6483339E-004  0.5499980E+03  0.7818608E-02  0.1001494E+00
         -5   -1    0    0    0  501 -0.00000000000E+00  0.00000000000E+00  0.57322565210E+03  0.57324491993E+03  0.47000000000E+01 0.  1.
          5   -1    0    0  501    0  0.00000000000E+00 -0.00000000000E+00 -0.87363310618E+03  0.87364574870E+03  0.47000000000E+01 0. -1.
          6    1    1    2  502    0  0.51373419309E+03 -0.94820507910E+02 -0.60544886135E+03  0.81796459188E+03  0.17200000000E+03 0. -1.
         -6    1    1    2    0  502 -0.51373419309E+03  0.94820507910E+02  0.30504140726E+03  0.62892607674E+03  0.17200000000E+03 0.  1.
</event>
<event>
 4    1 -0.6483339E-004  0.1812499E+03  0.7818608E-02  0.1166599E+00
          5   -1    0    0  501    0  0.00000000000E+00  0.00000000000E+00  0.44147332519E+03  0.44149834298E+03  0.47000000000E+01 0. -1.
         -5   -1    0    0    0  501 -0.00000000000E+00 -0.00000000000E+00 -0.18779231908E+03  0.18785112484E+03  0.47000000000E+01 0.  1.
          6    1    1    2  502    0 -0.55512972888E+02  0.13631815996E+02  0.37137182861E+03  0.41324151733E+03  0.17200000000E+03 0. -1.
         -6    1    1    2    0  502  0.55512972888E+02 -0.13631815996E+02 -0.11769082249E+03  0.21610795049E+03  0.17200000000E+03 0.  1.
</event>
<event>
 4    1 -0.6483339E-004  0.1922848E+03  0.7818608E-02  0.1156417E+00
          5   -1    0    0  501    0  0.00000000000E+00  0.00000000000E+00  0.16489367098E+04  0.16489434080E+04  0.47000000000E+01 0. -1.
         -5   -1    0    0    0  501 -0.00000000000E+00 -0.00000000000E+00 -0.24609422755E+02  0.25054214982E+02  0.47000000000E+01 0.  1.
          6    1    1    2  502    0  0.58534713298E+02 -0.62953536782E+02  0.10732033003E+04  0.10902929810E+04  0.17200000000E+03 0. -1.
         -6    1    1    2    0  502 -0.58534713298E+02  0.62953536782E+02  0.55112398670E+03  0.58370464207E+03  0.17200000000E+03 0.  1.
</event>
<event>
 4    1 -0.6483339E-004  0.1890831E+03  0.7818608E-02  0.1159291E+00
          5   -1    0    0  501    0  0.00000000000E+00  0.00000000000E+00  0.24380711542E+03  0.24385241342E+03  0.47000000000E+01 0. -1.
         -5   -1    0    0    0  501 -0.00000000000E+00 -0.00000000000E+00 -0.19575064139E+03  0.19580705709E+03  0.47000000000E+01 0.  1.
          6    1    1    2  502    0 -0.77939261869E+02 -0.96899116403E+01  0.13421162295E+03  0.23187320385E+03  0.17200000000E+03 0. -1.
         -6    1    1    2    0  502  0.77939261869E+02  0.96899116403E+01 -0.86155148920E+02  0.20778626666E+03  0.17200000000E+03 0.  1.
</event>
<event>
 4    1 -0.6483339E-004  0.2009594E+03  0.7818608E-02  0.1148932E+00
         -5   -1    0    0    0  501 -0.00000000000E+00  0.00000000000E+00  0.80851152199E+03  0.80852518278E+03  0.47000000000E+01 0.  1.
          5   -1    0    0  501    0  0.00000000000E+00 -0.00000000000E+00 -0.49841448105E+02  0.50062560354E+02  0.47000000000E+01 0. -1.
          6    1    1    2  502    0  0.73218203370E+02  0.73754827557E+02  0.37149375682E+03  0.42236511604E+03  0.17200000000E+03 0.  1.
         -6    1    1    2    0  502 -0.73218203370E+02 -0.73754827557E+02  0.38717631707E+03  0.43622262710E+03  0.17200000000E+03 0.  1.
</event>
<event>
 4    1 -0.6483339E-004  0.3889337E+03  0.7818608E-02  0.1047680E+00
          5   -1    0    0  501    0  0.00000000000E+00  0.00000000000E+00  0.11433706226E+04  0.11433802826E+04  0.47000000000E+01 0. -1.
         -5   -1    0    0    0  501 -0.00000000000E+00 -0.00000000000E+00 -0.13380434547E+03  0.13388686592E+03  0.47000000000E+01 0.  1.
          6    1    1    2  502    0  0.23430732524E+03 -0.25842893545E+03  0.43596060009E+03  0.58423546809E+03  0.17200000000E+03 0. -1.
         -6    1    1    2    0  502 -0.23430732524E+03  0.25842893545E+03  0.57360567702E+03  0.69303168041E+03  0.17200000000E+03 0.  1.
</event>
<event>
 4    1 -0.6483339E-004  0.2065184E+03  0.7818608E-02  0.1144353E+00
         -5   -1    0    0    0  501 -0.00000000000E+00  0.00000000000E+00  0.93393102424E+03  0.93394285052E+03  0.47000000000E+01 0.  1.
          5   -1    0    0  501    0  0.00000000000E+00 -0.00000000000E+00 -0.54449231739E+02  0.54651704795E+02  0.47000000000E+01 0. -1.
          6    1    1    2  502    0 -0.10819021095E+03  0.36888320153E+02  0.24015582636E+03  0.31674073127E+03  0.17200000000E+03 0. -1.
         -6    1    1    2    0  502  0.10819021095E+03 -0.36888320153E+02  0.63932596613E+03  0.67185382404E+03  0.17200000000E+03 0.  1.
</event>
<event>
 4    1 -0.6483339E-004  0.3649432E+03  0.7818608E-02  0.1056644E+00
         -5   -1    0    0    0  501 -0.00000000000E+00  0.00000000000E+00  0.16873961741E+03  0.16880506060E+03  0.47000000000E+01 0.  1.
          5   -1    0    0  501    0  0.00000000000E+00 -0.00000000000E+00 -0.79276342149E+03  0.79277735364E+03  0.47000000000E+01 0. -1.
          6    1    1    2  502    0  0.32128874516E+03 -0.19315743094E+02 -0.27914759556E+03  0.45946374809E+03  0.17200000000E+03 0.  1.
         -6    1    1    2    0  502 -0.32128874516E+03  0.19315743094E+02 -0.34487620852E+03  0.50211866615E+03  0.17200000000E+03 0. -1.
</event>
<event>
 4    1 -0.6483339E-004  0.1844783E+03  0.7818608E-02  0.1163538E+00
          5   -1    0    0  501    0  0.00000000000E+00  0.00000000000E+00  0.14741564339E+04  0.14741639263E+04  0.47000000000E+01 0. -1.
         -5   -1    0    0    0  501 -0.00000000000E+00 -0.00000000000E+00 -0.29195037823E+02  0.29570935621E+02  0.47000000000E+01 0.  1.
          6    1    1    2  502    0  0.10760372571E+02 -0.65821479264E+02  0.10707117102E+04  0.10864878366E+04  0.17200000000E+03 0. -1.
         -6    1    1    2    0  502 -0.10760372571E+02  0.65821479264E+02  0.37424968588E+03  0.41724702531E+03  0.17200000000E+03 0.  1.
</event>
<event>
 4    1 -0.6483339E-004  0.1843400E+03  0.7818608E-02  0.1163668E+00
         -5   -1    0    0    0  501 -0.00000000000E+00  0.00000000000E+00  0.35780041777E+03  0.35783128560E+03  0.47000000000E+01 0.  1.
          5   -1    0    0  501    0  0.00000000000E+00 -0.00000000000E+00 -0.18680049852E+03  0.18685961641E+03  0.47000000000E+01 0. -1.
          6    1    1    2  502    0  0.39890996897E+02  0.52971318346E+02 -0.10548563937E+03  0.21238755216E+03  0.17200000000E+03 0. -1.
         -6    1    1    2    0  502 -0.39890996897E+02 -0.52971318346E+02  0.27648555862E+03  0.33230334986E+03  0.17200000000E+03 0.  1.
</event>
<event>
 4    1 -0.6483339E-004  0.2233628E+03  0.7818608E-02  0.1131401E+00
         -5   -1    0    0    0  501 -0.00000000000E+00  0.00000000000E+00  0.79393549298E+02  0.79532544724E+02  0.47000000000E+01 0.  1.
          5   -1    0    0  501    0  0.00000000000E+00 -0.00000000000E+00 -0.71258882098E+03  0.71260432063E+03  0.47000000000E+01 0. -1.
          6    1    1    2  502    0 -0.70057989651E+01  0.14233008667E+03 -0.45328268067E+03  0.50532773859E+03  0.17200000000E+03 0. -1.
         -6    1    1    2    0  502  0.70057989651E+01 -0.14233008667E+03 -0.17991259100E+03  0.28680912676E+03  0.17200000000E+03 0.  1.
</event>
<event>
 4    1 -0.6483339E-004  0.1978320E+03  0.7818608E-02  0.1151581E+00
          5   -1    0    0  501    0  0.00000000000E+00  0.00000000000E+00  0.87530145854E+03  0.87531407696E+03  0.47000000000E+01 0. -1.
         -5   -1    0    0    0  501 -0.00000000000E+00 -0.00000000000E+00 -0.87020090392E+02  0.87146922675E+02  0.47000000000E+01 0.  1.
          6    1    1    2  502    0 -0.22241164308E+02  0.95177802475E+02  0.72984050584E+03  0.75617765600E+03  0.17200000000E+03 0. -1.
         -6    1    1    2    0  502  0.22241164308E+02 -0.95177802475E+02  0.58440862314E+02  0.20628334364E+03  0.17200000000E+03 0.  1.
</event>
<event>
 4    1 -0.6483339E-004  0.1796173E+03  0.7818608E-02  0.1168174E+00
         -5   -1    0    0    0  501 -0.00000000000E+00  0.00000000000E+00  0.40787319817E+03  0.40790027676E+03  0.47000000000E+01 0.  1.
          5   -1    0    0  501    0  0.00000000000E+00 -0.00000000000E+00 -0.88321140407E+02  0.88446106997E+02  0.47000000000E+01 0. -1.
          6    1    1    2  502    0  0.50442652781E+02  0.11572573030E+02  0.24032813570E+03  0.30003332894E+03  0.17200000000E+03 0.  1.
         -6    1    1    2    0  502 -0.50442652781E+02 -0.11572573030E+02  0.79223922061E+02  0.19631305482E+03  0.17200000000E+03 0. -1.
</event>
<event>
 4    1 -0.6483339E-004  0.2983208E+03  0.7818608E-02  0.1086083E+00
         -5   -1    0    0    0  501 -0.00000000000E+00  0.00000000000E+00  0.61964635683E+03  0.61966418126E+03  0.47000000000E+01 0.  1.
          5   -1    0    0  501    0  0.00000000000E+00 -0.00000000000E+00 -0.21534250948E+03  0.21539379376E+03  0.47000000000E+01 0. -1.
          6    1    1    2  502    0  0.20412094240E+03  0.13321397260E+03 -0.38858103001E+02  0.30084094434E+03  0.17200000000E+03 0. -1.
         -6    1    1    2    0  502 -0.20412094240E+03 -0.13321397260E+03  0.44316195035E+03  0.53421703067E+03  0.17200000000E+03 0.  1.
</event>
<event>
 4    1 -0.6483339E-004  0.2842078E+03  0.7818608E-02  0.1093413E+00
          5   -1    0    0  501    0  0.00000000000E+00  0.00000000000E+00  0.36819650548E+03  0.36822650183E+03  0.47000000000E+01 0. -1.
         -5   -1    0    0    0  501 -0.00000000000E+00 -0.00000000000E+00 -0.25324152410E+03  0.25328513484E+03  0.47000000000E+01 0.  1.
          6    1    1    2  502    0 -0.25126578770E+02 -0.22485265671E+03  0.17120492033E+03  0.33179087832E+03  0.17200000000E+03 0. -1.
         -6    1    1    2    0  502  0.25126578770E+02  0.22485265671E+03 -0.56249938950E+02  0.28972075835E+03  0.17200000000E+03 0. -1.
</event>
<event>
 4    1 -0.6483339E-004  0.2352326E+03  0.7818608E-02  0.1123010E+00
         -5   -1    0    0    0  501 -0.00000000000E+00  0.00000000000E+00  0.10926576690E+03  0.10936680399E+03  0.47000000000E+01 0.  1.
          5   -1    0    0  501    0  0.00000000000E+00 -0.00000000000E+00 -0.65661446776E+03  0.65663128868E+03  0.47000000000E+01 0. -1.
          6    1    1    2  502    0 -0.15972686600E+03  0.15417049758E+02 -0.45704483913E+03  0.51402756942E+03  0.17200000000E+03 0. -1.
         -6    1    1    2    0  502  0.15972686600E+03 -0.15417049758E+02 -0.90303861737E+02  0.25197052326E+03  0.17200000000E+03 0.  1.
</event>
<event>
 4    1 -0.6483339E-004  0.3224061E+03  0.7818608E-02  0.1074547E+00
         -5   -1    0    0    0  501 -0.00000000000E+00  0.00000000000E+00  0.18560875683E+03  0.18566825418E+03  0.47000000000E+01 0.  1.
          5   -1    0    0  501    0  0.00000000000E+00 -0.00000000000E+00 -0.65545091401E+03  0.65546776479E+03  0.47000000000E+01 0. -1.
          6    1    1    2  502    0 -0.26577124413E+03  0.61051772052E+02 -0.39551670707E+03  0.51027359196E+03  0.17200000000E+03 0. -1.
         -6    1    1    2    0  502  0.26577124413E+03 -0.61051772052E+02 -0.74325450116E+02  0.33086242702E+03  0.17200000000E+03 0.  1.
</event>
<event>
 4    1 -0.6483339E-004  0.2133356E+03  0.7818608E-02  0.1138951E+00
         -5   -1    0    0    0  501 -0.00000000000E+00  0.00000000000E+00  0.10899465895E+04  0.10899567230E+04  0.47000000000E+01 0.  1.
          5   -1    0    0  501    0  0.00000000000E+00 -0.00000000000E+00 -0.16504471606E+03  0.16511162375E+03  0.47000000000E+01 0. -1.
          6    1    1    2  502    0  0.10658628111E+03 -0.67582865308E+02 -0.79946410840E+02  0.22782341322E+03  0.17200000000E+03 0. -1.
         -6    1    1    2    0  502 -0.10658628111E+03  0.67582865308E+02  0.10048482843E+04  0.10272449335E+04  0.17200000000E+03 0.  1.
</event>
<event>
 4    1 -0.6483339E-004  0.1890450E+03  0.7818608E-02  0.1159326E+00
          5   -1    0    0  501    0  0.00000000000E+00  0.00000000000E+00  0.77714512721E+02  0.77856505749E+02  0.47000000000E+01 0. -1.
         -5   -1    0    0    0  501 -0.00000000000E+00 -0.00000000000E+00 -0.45931087471E+03  0.45933492097E+03  0.47000000000E+01 0.  1.
          6    1    1    2  502    0 -0.77776958513E+02 -0.10235005975E+02 -0.19265104195E+03  0.26991190153E+03  0.17200000000E+03 0. -1.
         -6    1    1    2    0  502  0.77776958513E+02  0.10235005975E+02 -0.18894532003E+03  0.26727952519E+03  0.17200000000E+03 0. -1.
</event>
<event>
 4    1 -0.6483339E-004  0.2074417E+03  0.7818608E-02  0.1143608E+00
         -5   -1    0    0    0  501 -0.00000000000E+00  0.00000000000E+00  0.23340781905E+02  0.23809286002E+02  0.47000000000E+01 0.  1.
          5   -1    0    0  501    0  0.00000000000E+00 -0.00000000000E+00 -0.25779571803E+04  0.25779614647E+04  0.47000000000E+01 0. -1.
          6    1    1    2  502    0 -0.10629442848E+03 -0.46363423787E+02 -0.19803627212E+04  0.19911977752E+04  0.17200000000E+03 0. -1.
         -6    1    1    2    0  502  0.10629442848E+03  0.46363423787E+02 -0.57425367718E+03  0.61057297544E+03  0.17200000000E+03 0.  1.
</event>
<event>
 4    1 -0.6483339E-004  0.1792505E+03  0.7818608E-02  0.1168530E+00
          5   -1    0    0  501    0  0.00000000000E+00  0.00000000000E+00  0.36231372961E+03  0.36234421296E+03  0.47000000000E+01 0. -1.
         -5   -1    0    0    0  501 -0.00000000000E+00 -0.00000000000E+00 -0.10823880469E+03  0.10834079952E+03  0.47000000000E+01 0.  1.
          6    1    1    2  502    0 -0.33219804281E+02  0.37989221443E+02  0.22725358708E+03  0.28943899044E+03  0.17200000000E+03 0. -1.
         -6    1    1    2    0  502  0.33219804281E+02 -0.37989221443E+02  0.26821337835E+02  0.18124602204E+03  0.17200000000E+03 0.  1.
</event>
<event>
 4    1 -0.6483339E-004  0.3962463E+03  0.7818608E-02  0.1045087E+00
         -5   -1    0    0    0  501 -0.00000000000E+00  0.00000000000E+00  0.15456701335E+03  0.15463845452E+03  0.47000000000E+01 0.  1.
          5   -1    0    0  501    0  0.00000000000E+00 -0.00000000000E+00 -0.10297401891E+04  0.10297509150E+04  0.47000000000E+01 0. -1.
          6    1    1    2  502    0 -0.17283149727E+02 -0.35655073412E+03 -0.50722106856E+03  0.64364924117E+03  0.17200000000E+03 0. -1.
         -6    1    1    2    0  502  0.17283149727E+02  0.35655073412E+03 -0.36795210715E+03  0.54074012837E+03  0.17200000000E+03 0.  1.
</event>
<event>
 4    1 -0.6483339E-004  0.2277947E+03  0.7818608E-02  0.1128202E+00
         -5   -1    0    0    0  501 -0.00000000000E+00  0.00000000000E+00  0.11469496905E+04  0.11469593203E+04  0.47000000000E+01 0.  1.
          5   -1    0    0  501    0  0.00000000000E+00 -0.00000000000E+00 -0.94825186953E+02  0.94941592996E+02  0.47000000000E+01 0. -1.
          6    1    1    2  502    0 -0.14356618628E+03  0.41172274875E+02  0.76898891352E+02  0.24042430316E+03  0.17200000000E+03 0. -1.
         -6    1    1    2    0  502  0.14356618628E+03 -0.41172274875E+02  0.97522561218E+03  0.10014766102E+04  0.17200000000E+03 0.  1.
</event>
<event>
 4    1 -0.6483339E-004  0.1897742E+03  0.7818608E-02  0.1158665E+00
          5   -1    0    0  501    0  0.00000000000E+00  0.00000000000E+00  0.42819233223E+02  0.43076405767E+02  0.47000000000E+01 0. -1.
         -5   -1    0    0    0  501 -0.00000000000E+00 -0.00000000000E+00 -0.95313899526E+03  0.95315058322E+03  0.47000000000E+01 0.  1.
          6    1    1    2  502    0  0.56265240917E+02 -0.57135554739E+02 -0.28228022099E+03  0.34014169417E+03  0.17200000000E+03 0. -1.
         -6    1    1    2    0  502 -0.56265240917E+02  0.57135554739E+02 -0.62803954104E+03  0.65608529481E+03  0.17200000000E+03 0.  1.
</event>
<event>
 4    1 -0.6483339E-004  0.1816692E+03  0.7818608E-02  0.1166197E+00
          5   -1    0    0  501    0  0.00000000000E+00  0.00000000000E+00  0.50150799270E+03  0.50153001580E+03  0.47000000000E+01 0. -1.
         -5   -1    0    0    0  501 -0.00000000000E+00 -0.00000000000E+00 -0.10283645323E+03  0.10294380075E+03  0.47000000000E+01 0.  1.
          6    1    1    2  502    0  0.11584342009E+02 -0.57319252577E+02  0.38081568123E+03  0.42192923194E+03  0.17200000000E+03 0. -1.
         -6    1    1    2    0  502 -0.11584342009E+02  0.57319252577E+02  0.17855858236E+02  0.18254458461E+03  0.17200000000E+03 0.  1.
</event>
<event>
 4    1 -0.6483339E-004  0.2814188E+03  0.7818608E-02  0.1094917E+00
         -5   -1    0    0    0  501 -0.00000000000E+00  0.00000000000E+00  0.37012217921E+03  0.37015201951E+03  0.47000000000E+01 0.  1.
          5   -1    0    0  501    0  0.00000000000E+00 -0.00000000000E+00 -0.21427324301E+03  0.21432478315E+03  0.47000000000E+01 0. -1.
          6    1    1    2  502    0 -0.21867692076E+03 -0.42342909472E+02  0.89959463463E+02  0.29544749571E+03  0.17200000000E+03 0. -1.
         -6    1    1    2    0  502  0.21867692076E+03  0.42342909472E+02  0.65889472739E+02  0.28902930695E+03  0.17200000000E+03 0.  1.
</event>
<event>
 4    1 -0.6483339E-004  0.2091071E+03  0.7818608E-02  0.1142275E+00
          5   -1    0    0  501    0  0.00000000000E+00  0.00000000000E+00  0.89020941543E+03  0.89022182254E+03  0.47000000000E+01 0. -1.
         -5   -1    0    0    0  501 -0.00000000000E+00 -0.00000000000E+00 -0.62554818884E+02  0.62731135536E+02  0.47000000000E+01 0.  1.
          6    1    1    2  502    0 -0.11883242791E+03 -0.45434066081E+01  0.63530318687E+03  0.66883176339E+03  0.17200000000E+03 0. -1.
         -6    1    1    2    0  502  0.11883242791E+03  0.45434066081E+01  0.19235140967E+03  0.28412119468E+03  0.17200000000E+03 0.  1.
</event>
<event>
 4    1 -0.6483339E-004  0.1886869E+03  0.7818608E-02  0.1159651E+00
          5   -1    0    0  501    0  0.00000000000E+00  0.00000000000E+00  0.97723924979E+02  0.97836882173E+02  0.47000000000E+01 0. -1.
         -5   -1    0    0    0  501 -0.00000000000E+00 -0.00000000000E+00 -0.37152581396E+03  0.37155554152E+03  0.47000000000E+01 0.  1.
          6    1    1    2  502    0  0.12223175304E+02  0.76611598001E+02 -0.17033976477E+03  0.25420145244E+03  0.17200000000E+03 0. -1.
         -6    1    1    2    0  502 -0.12223175304E+02 -0.76611598001E+02 -0.10346212421E+03  0.21519097125E+03  0.17200000000E+03 0.  1.
</event>
<event>
 4    1 -0.6483339E-004  0.1997261E+03  0.7818608E-02  0.1149970E+00
         -5   -1    0    0    0  501 -0.00000000000E+00  0.00000000000E+00  0.71919236349E+03  0.71920772083E+03  0.47000000000E+01 0.  1.
          5   -1    0    0  501    0  0.00000000000E+00 -0.00000000000E+00 -0.77278207507E+02  0.77421000739E+02  0.47000000000E+01 0. -1.
          6    1    1    2  502    0  0.41762584551E+02 -0.92533199505E+02  0.10903586118E+03  0.22755070974E+03  0.17200000000E+03 0. -1.
         -6    1    1    2    0  502 -0.41762584551E+02  0.92533199505E+02  0.53287829481E+03  0.56907801183E+03  0.17200000000E+03 0.  1.
</event>
<event>
 4    1 -0.6483339E-004  0.5263529E+03  0.7818608E-02  0.1007120E+00
          5   -1    0    0  501    0  0.00000000000E+00  0.00000000000E+00  0.12388782009E+03  0.12397694127E+03  0.47000000000E+01 0. -1.
         -5   -1    0    0    0  501 -0.00000000000E+00 -0.00000000000E+00 -0.23308345226E+04  0.23308392613E+04  0.47000000000E+01 0.  1.
          6    1    1    2  502    0 -0.88751433859E+02  0.48947581830E+03 -0.13518560531E+04  0.14507109230E+04  0.17200000000E+03 0. -1.
         -6    1    1    2    0  502  0.88751433859E+02 -0.48947581830E+03 -0.85509064940E+03  0.10041052795E+04  0.17200000000E+03 0.  1.
</event>
<event>
 4    1 -0.6483339E-004  0.2676052E+03  0.7818608E-02  0.1102658E+00
         -5   -1    0    0    0  501 -0.00000000000E+00  0.00000000000E+00  0.14812607460E+03  0.14820062070E+03  0.47000000000E+01 0.  1.
          5   -1    0    0  501    0  0.00000000000E+00 -0.00000000000E+00 -0.61255957350E+03  0.61257760414E+03  0.47000000000E+01 0. -1.
          6    1    1    2  502    0  0.15295479838E+03 -0.13650416266E+03 -0.40697469651E+03  0.48707387568E+03  0.17200000000E+03 0. -1.
         -6    1    1    2    0  502 -0.15295479838E+03  0.13650416266E+03 -0.57458802399E+02  0.27370434915E+03  0.17200000000E+03 0.  1.
</event>
<event>
 4    1 -0.6483339E-004  0.1924245E+03  0.7818608E-02  0.1156293E+00
         -5   -1    0    0    0  501 -0.00000000000E+00  0.00000000000E+00  0.38888942025E+03  0.38891782061E+03  0.47000000000E+01 0.  1.
          5   -1    0    0  501    0  0.00000000000E+00 -0.00000000000E+00 -0.11916682477E+03  0.11925947395E+03  0.47000000000E+01 0. -1.
          6    1    1    2  502    0 -0.86226657287E+02  0.28554015248E+01  0.20791707035E+02  0.19354452931E+03  0.17200000000E+03 0. -1.
         -6    1    1    2    0  502  0.86226657287E+02 -0.28554015248E+01  0.24893088844E+03  0.31463276525E+03  0.17200000000E+03 0. -1.
</event>
<event>
 4    1 -0.6483339E-004  0.2211951E+03  0.7818608E-02  0.1132995E+00
         -5   -1    0    0    0  501 -0.00000000000E+00  0.00000000000E+00  0.32350364376E+03  0.32353778376E+03  0.47000000000E+01 0.  1.
          5   -1    0    0  501    0  0.00000000000E+00 -0.00000000000E+00 -0.21058249576E+03  0.21063493898E+03  0.47000000000E+01 0. -1.
          6    1    1    2  502    0  0.91173565438E+02 -0.10502685875E+03 -0.85381396016E+02  0.23710175638E+03  0.17200000000E+03 0. -1.
         -6    1    1    2    0  502 -0.91173565438E+02  0.10502685875E+03  0.19830254401E+03  0.29707096636E+03  0.17200000000E+03 0.  1.
</event>
<event>
 4    1 -0.6483339E-004  0.2658442E+03  0.7818608E-02  0.1103682E+00
         -5   -1    0    0    0  501 -0.00000000000E+00  0.00000000000E+00  0.15814809227E+03  0.15821791646E+03  0.47000000000E+01 0.  1.
          5   -1    0    0  501    0  0.00000000000E+00 -0.00000000000E+00 -0.48655903542E+03  0.48658173512E+03  0.47000000000E+01 0. -1.
          6    1    1    2  502    0  0.17098151483E+03  0.10887818254E+03 -0.25647450621E+03  0.36939451726E+03  0.17200000000E+03 0. -1.
         -6    1    1    2    0  502 -0.17098151483E+03 -0.10887818254E+03 -0.71936436937E+02  0.27540513432E+03  0.17200000000E+03 0. -1.
</event>
<event>
 4    1 -0.6483339E-004  0.4167589E+03  0.7818608E-02  0.1038126E+00
         -5   -1    0    0    0  501 -0.00000000000E+00  0.00000000000E+00  0.22616223564E+03  0.22621106700E+03  0.47000000000E+01 0.  1.
          5   -1    0    0  501    0  0.00000000000E+00 -0.00000000000E+00 -0.92975633524E+03  0.92976821463E+03  0.47000000000E+01 0. -1.
          6    1    1    2  502    0  0.37717522302E+03 -0.42928561041E+02 -0.11060372956E+03  0.43118580126E+03  0.17200000000E+03 0. -1.
         -6    1    1    2    0  502 -0.37717522302E+03  0.42928561041E+02 -0.59299037004E+03  0.72479348036E+03  0.17200000000E+03 0. -1.
</event>
<event>
 4    1 -0.6483339E-004  0.1947675E+03  0.7818608E-02  0.1154230E+00
         -5   -1    0    0    0  501 -0.00000000000E+00  0.00000000000E+00  0.81769688822E+03  0.81771039556E+03  0.47000000000E+01 0.  1.
          5   -1    0    0  501    0  0.00000000000E+00 -0.00000000000E+00 -0.51803297990E+02  0.52016071388E+02  0.47000000000E+01 0. -1.
          6    1    1    2  502    0  0.83585522290E+02  0.36930021222E+02  0.24100594982E+03  0.30986809105E+03  0.17200000000E+03 0. -1.
         -6    1    1    2    0  502 -0.83585522290E+02 -0.36930021222E+02  0.52488764041E+03  0.55985837589E+03  0.17200000000E+03 0.  1.
</event>
<event>
 4    1 -0.6483339E-004  0.2345929E+03  0.7818608E-02  0.1123448E+00
          5   -1    0    0  501    0  0.00000000000E+00  0.00000000000E+00  0.14781622007E+03  0.14789092235E+03  0.47000000000E+01 0. -1.
         -5   -1    0    0    0  501 -0.00000000000E+00 -0.00000000000E+00 -0.53996211537E+03  0.53998257012E+03  0.47000000000E+01 0.  1.
          6    1    1    2  502    0 -0.11424964483E+03 -0.11134104168E+03 -0.43403649859E+01  0.23463300636E+03  0.17200000000E+03 0. -1.
         -6    1    1    2    0  502  0.11424964483E+03  0.11134104168E+03 -0.38780553032E+03  0.45324048611E+03  0.17200000000E+03 0.  1.
</event>
<event>
 4    1 -0.6483339E-004  0.2490392E+03  0.7818608E-02  0.1113914E+00
         -5   -1    0    0    0  501 -0.00000000000E+00  0.00000000000E+00  0.17703551489E+03  0.17709789251E+03  0.47000000000E+01 0.  1.
          5   -1    0    0  501    0  0.00000000000E+00 -0.00000000000E+00 -0.35545881037E+03  0.35548988152E+03  0.47000000000E+01 0. -1.
          6    1    1    2  502    0 -0.16170041728E+03 -0.79306493600E+02 -0.12163300536E+03  0.27715543088E+03  0.17200000000E+03 0. -1.
         -6    1    1    2    0  502  0.16170041728E+03  0.79306493600E+02 -0.56790290121E+02  0.25543234315E+03  0.17200000000E+03 0.  1.
</event>
<event>
 4    1 -0.6483339E-004  0.3407760E+03  0.7818608E-02  0.1066466E+00
         -5   -1    0    0    0  501 -0.00000000000E+00  0.00000000000E+00  0.18860116220E+03  0.18865971584E+03  0.47000000000E+01 0.  1.
          5   -1    0    0  501    0  0.00000000000E+00 -0.00000000000E+00 -0.62294197167E+03  0.62295970180E+03  0.47000000000E+01 0. -1.
          6    1    1    2  502    0 -0.28676613799E+02  0.29278311725E+03 -0.17303236215E+03  0.38218908969E+03  0.17200000000E+03 0. -1.
         -6    1    1    2    0  502  0.28676613799E+02 -0.29278311725E+03 -0.26130844732E+03  0.42943032795E+03  0.17200000000E+03 0.  1.
</event>
<event>
 4    1 -0.6483339E-004  0.2117472E+03  0.7818608E-02  0.1140190E+00
         -5   -1    0    0    0  501 -0.00000000000E+00  0.00000000000E+00  0.41792800258E+02  0.42056249873E+02  0.47000000000E+01 0.  1.
          5   -1    0    0  501    0  0.00000000000E+00 -0.00000000000E+00 -0.13038245494E+04  0.13038330206E+04  0.47000000000E+01 0. -1.
          6    1    1    2  502    0  0.22450405917E+02 -0.12144494618E+03 -0.91645438024E+03  0.94059849390E+03  0.17200000000E+03 0. -1.
         -6    1    1    2    0  502 -0.22450405917E+02  0.12144494618E+03 -0.34557736893E+03  0.40529077660E+03  0.17200000000E+03 0.  1.
</event>
<event>
 4    1 -0.6483339E-004  0.1758172E+03  0.7818608E-02  0.1171914E+00
          5   -1    0    0  501    0  0.00000000000E+00  0.00000000000E+00  0.14813815831E+03  0.14821269833E+03  0.47000000000E+01 0. -1.
         -5   -1    0    0    0  501 -0.00000000000E+00 -0.00000000000E+00 -0.24209630260E+03  0.24214192065E+03  0.47000000000E+01 0.  1.
          6    1    1    2  502    0 -0.25453084115E+02 -0.26073698555E+02  0.25694432551E+02  0.17768483647E+03  0.17200000000E+03 0. -1.
         -6    1    1    2    0  502  0.25453084115E+02  0.26073698555E+02 -0.11965257684E+03  0.21266978251E+03  0.17200000000E+03 0.  1.
</event>
<event>
 4    1 -0.6483339E-004  0.1726281E+03  0.7818608E-02  0.1175135E+00
         -5   -1    0    0    0  501 -0.00000000000E+00  0.00000000000E+00  0.28595839309E+03  0.28599701498E+03  0.47000000000E+01 0.  1.
          5   -1    0    0  501    0  0.00000000000E+00 -0.00000000000E+00 -0.10748232436E+03  0.10758503636E+03  0.47000000000E+01 0. -1.
          6    1    1    2  502    0  0.12316182134E+02 -0.80487114456E+01  0.54423590311E+02  0.18100385985E+03  0.17200000000E+03 0. -1.
         -6    1    1    2    0  502 -0.12316182134E+02  0.80487114456E+01  0.12405247842E+03  0.21257819150E+03  0.17200000000E+03 0.  1.
</event>
<event>
 4    1 -0.6483339E-004  0.3920578E+03  0.7818608E-02  0.1046565E+00
          5   -1    0    0  501    0  0.00000000000E+00  0.00000000000E+00  0.21403162772E+03  0.21408322603E+03  0.47000000000E+01 0. -1.
         -5   -1    0    0    0  501 -0.00000000000E+00 -0.00000000000E+00 -0.72732802172E+03  0.72734320728E+03  0.47000000000E+01 0.  1.
          6    1    1    2  502    0 -0.48010532561E+02 -0.34902760734E+03 -0.20338827081E+03  0.44167416794E+03  0.17200000000E+03 0. -1.
         -6    1    1    2    0  502  0.48010532561E+02  0.34902760734E+03 -0.30990812319E+03  0.49975226537E+03  0.17200000000E+03 0.  1.
</event>
<event>
 4    1 -0.6483339E-004  0.2236950E+03  0.7818608E-02  0.1131158E+00
          5   -1    0    0  501    0  0.00000000000E+00  0.00000000000E+00  0.60640003099E+03  0.60641824476E+03  0.47000000000E+01 0. -1.
         -5   -1    0    0    0  501 -0.00000000000E+00 -0.00000000000E+00 -0.89275529397E+02  0.89399161904E+02  0.47000000000E+01 0.  1.
          6    1    1    2  502    0  0.13951830335E+03 -0.31465697014E+02  0.35480471269E+03  0.41943513349E+03  0.17200000000E+03 0. -1.
         -6    1    1    2    0  502 -0.13951830335E+03  0.31465697014E+02  0.16231978890E+03  0.27638227318E+03  0.17200000000E+03 0. -1.
</event>
<event>
 4    1 -0.6483339E-004  0.1735800E+03  0.7818608E-02  0.1174165E+00
          5   -1    0    0  501    0  0.00000000000E+00  0.00000000000E+00  0.32420156163E+03  0.32423562815E+03  0.47000000000E+01 0. -1.
         -5   -1    0    0    0  501 -0.00000000000E+00 -0.00000000000E+00 -0.96172422831E+02  0.96287200152E+02  0.47000000000E+01 0.  1.
          6    1    1    2  502    0  0.20833000475E+02  0.10583317038E+02  0.15313695147E+03  0.23147558492E+03  0.17200000000E+03 0. -1.
         -6    1    1    2    0  502 -0.20833000475E+02 -0.10583317038E+02  0.74892187327E+02  0.18904724338E+03  0.17200000000E+03 0.  1.
</event>
<event>
 4    1 -0.6483339E-004  0.1731819E+03  0.7818608E-02  0.1174570E+00
         -5   -1    0    0    0  501 -0.00000000000E+00  0.00000000000E+00  0.18141310890E+03  0.18147398183E+03  0.47000000000E+01 0.  1.
          5   -1    0    0  501    0  0.00000000000E+00 -0.00000000000E+00 -0.40472861858E+03  0.40475590755E+03  0.47000000000E+01 0. -1.
          6    1    1    2  502    0 -0.58363955529E+01  0.19337015142E+02 -0.33712050524E+03  0.37900160781E+03  0.17200000000E+03 0. -1.
         -6    1    1    2    0  502  0.58363955529E+01 -0.19337015142E+02  0.11380499556E+03  0.20722828157E+03  0.17200000000E+03 0.  1.
</event>
<event>
 4    1 -0.6483339E-004  0.2975326E+03  0.7818608E-02  0.1086481E+00
          5   -1    0    0  501    0  0.00000000000E+00  0.00000000000E+00  0.17103503355E+03  0.17109959878E+03  0.47000000000E+01 0. -1.
         -5   -1    0    0    0  501 -0.00000000000E+00 -0.00000000000E+00 -0.87893848952E+03  0.87895105573E+03  0.47000000000E+01 0.  1.
          6    1    1    2  502    0 -0.23626362737E+03 -0.55867406414E+02 -0.17247069679E+02  0.29803209580E+03  0.17200000000E+03 0. -1.
         -6    1    1    2    0  502  0.23626362737E+03  0.55867406414E+02 -0.69065638629E+03  0.75201855870E+03  0.17200000000E+03 0.  1.
</event>
<event>
 4    1 -0.6483339E-004  0.1892540E+03  0.7818608E-02  0.1159136E+00
         -5   -1    0    0    0  501 -0.00000000000E+00  0.00000000000E+00  0.30477158092E+02  0.30837431238E+02  0.47000000000E+01 0.  1.
          5   -1    0    0  501    0  0.00000000000E+00 -0.00000000000E+00 -0.20157728354E+04  0.20157783147E+04  0.47000000000E+01 0. -1.
          6    1    1    2  502    0 -0.71173891858E+02 -0.34166663408E+02 -0.16562394990E+04  0.16670172051E+04  0.17200000000E+03 0. -1.
         -6    1    1    2    0  502  0.71173891858E+02  0.34166663408E+02 -0.32905617828E+03  0.37959854088E+03  0.17200000000E+03 0.  1.
</event>
<event>
 4    1 -0.6483339E-004  0.1799498E+03  0.7818608E-02  0.1167852E+00
          5   -1    0    0  501    0  0.00000000000E+00  0.00000000000E+00  0.85067988512E+03  0.85069286875E+03  0.47000000000E+01 0. -1.
         -5   -1    0    0    0  501 -0.00000000000E+00 -0.00000000000E+00 -0.64476533855E+02  0.64647609530E+02  0.47000000000E+01 0.  1.
          6    1    1    2  502    0 -0.28076607834E+01  0.52820735408E+02  0.68633980278E+03  0.70953804544E+03  0.17200000000E+03 0. -1.
         -6    1    1    2    0  502  0.28076607834E+01 -0.52820735408E+02  0.99863548488E+02  0.20580243284E+03  0.17200000000E+03 0.  1.
</event>
<event>
 4    1 -0.6483339E-004  0.2313860E+03  0.7818608E-02  0.1125668E+00
         -5   -1    0    0    0  501 -0.00000000000E+00  0.00000000000E+00  0.25542148193E+04  0.25542191435E+04  0.47000000000E+01 0.  1.
          5   -1    0    0  501    0  0.00000000000E+00 -0.00000000000E+00 -0.21025001133E+02  0.21543924263E+02  0.47000000000E+01 0. -1.
          6    1    1    2  502    0  0.12686110253E+03  0.88666534409E+02  0.11068403269E+04  0.11307674398E+04  0.17200000000E+03 0. -1.
         -6    1    1    2    0  502 -0.12686110253E+03 -0.88666534409E+02  0.14263494912E+04  0.14449956280E+04  0.17200000000E+03 0.  1.
</event>
<event>
 4    1 -0.6483339E-004  0.6378280E+03  0.7818608E-02  0.9829891E-01
          5   -1    0    0  501    0  0.00000000000E+00  0.00000000000E+00  0.30745575356E+03  0.30749167533E+03  0.47000000000E+01 0. -1.
         -5   -1    0    0    0  501 -0.00000000000E+00 -0.00000000000E+00 -0.17201973347E+04  0.17202037555E+04  0.47000000000E+01 0.  1.
          6    1    1    2  502    0  0.53281727136E+03 -0.30552619271E+03 -0.21924870906E+03  0.67445866850E+03  0.17200000000E+03 0. -1.
         -6    1    1    2    0  502 -0.53281727136E+03  0.30552619271E+03 -0.11934928721E+04  0.13532367623E+04  0.17200000000E+03 0.  1.
</event>
<event>
 4    1 -0.6483339E-004  0.2261421E+03  0.7818608E-02  0.1129385E+00
         -5   -1    0    0    0  501 -0.00000000000E+00  0.00000000000E+00  0.14695681015E+04  0.14695756173E+04  0.47000000000E+01 0.  1.
          5   -1    0    0  501    0  0.00000000000E+00 -0.00000000000E+00 -0.35405859006E+02  0.35716450719E+02  0.47000000000E+01 0. -1.
          6    1    1    2  502    0 -0.82574459706E+02 -0.12139892416E+03  0.60639515053E+03  0.64719032654E+03  0.17200000000E+03 0.  1.
         -6    1    1    2    0  502  0.82574459706E+02  0.12139892416E+03  0.82776709198E+03  0.85810174149E+03  0.17200000000E+03 0.  1.
</event>
<event>
 4    1 -0.6483339E-004  0.4052579E+03  0.7818608E-02  0.1041974E+00
         -5   -1    0    0    0  501 -0.00000000000E+00  0.00000000000E+00  0.12718469217E+03  0.12727150476E+03  0.47000000000E+01 0.  1.
          5   -1    0    0  501    0  0.00000000000E+00 -0.00000000000E+00 -0.15670072638E+04  0.15670143122E+04  0.47000000000E+01 0. -1.
          6    1    1    2  502    0 -0.81187523733E+01 -0.36685703965E+03 -0.10755818818E+04  0.11493956613E+04  0.17200000000E+03 0.  1.
         -6    1    1    2    0  502  0.81187523733E+01  0.36685703965E+03 -0.36424068980E+03  0.54489015571E+03  0.17200000000E+03 0. -1.
</event>
<event>
 4    1 -0.6483339E-004  0.2175592E+03  0.7818608E-02  0.1135716E+00
         -5   -1    0    0    0  501 -0.00000000000E+00  0.00000000000E+00  0.13674883660E+03  0.13682958127E+03  0.47000000000E+01 0.  1.
          5   -1    0    0  501    0  0.00000000000E+00 -0.00000000000E+00 -0.34943017805E+03  0.34946178522E+03  0.47000000000E+01 0. -1.
          6    1    1    2  502    0 -0.34545797811E+02 -0.12866465021E+03 -0.81991397711E+02  0.23249643795E+03  0.17200000000E+03 0.  1.
         -6    1    1    2    0  502  0.34545797811E+02  0.12866465021E+03 -0.13068994374E+03  0.25379492854E+03  0.17200000000E+03 0.  1.
</event>
<event>
 4    1 -0.6483339E-004  0.2448962E+03  0.7818608E-02  0.1116573E+00
         -5   -1    0    0    0  501 -0.00000000000E+00  0.00000000000E+00  0.22556159542E+03  0.22561055677E+03  0.47000000000E+01 0.  1.
          5   -1    0    0  501    0  0.00000000000E+00 -0.00000000000E+00 -0.32035533532E+03  0.32038981081E+03  0.47000000000E+01 0. -1.
          6    1    1    2  502    0  0.14801167803E+03  0.92101489228E+02  0.65257602505E+02  0.25344170106E+03  0.17200000000E+03 0.  1.
         -6    1    1    2    0  502 -0.14801167803E+03 -0.92101489228E+02 -0.16005134241E+03  0.29255866652E+03  0.17200000000E+03 0.  1.
</event>
<event>
 4    1 -0.6483339E-004  0.1924245E+03  0.7818608E-02  0.1156293E+00
         -5   -1    0    0    0  501 -0.00000000000E+00  0.00000000000E+00  0.14460680422E+04  0.14460756802E+04  0.47000000000E+01 0.  1.
          5   -1    0    0  501    0  0.00000000000E+00 -0.00000000000E+00 -0.28676737491E+02  0.29059340549E+02  0.47000000000E+01 0. -1.
          6    1    1    2  502    0 -0.80020380532E+02  0.32247602359E+02  0.46047859230E+03  0.49906683233E+03  0.17200000000E+03 0. -1.
         -6    1    1    2    0  502  0.80020380532E+02 -0.32247602359E+02  0.95691271245E+03  0.97606818840E+03  0.17200000000E+03 0.  1.
</event>
<event>
 4    1 -0.6483339E-004  0.2142765E+03  0.7818608E-02  0.1138224E+00
          5   -1    0    0  501    0  0.00000000000E+00  0.00000000000E+00  0.37965800015E+03  0.37968709101E+03  0.47000000000E+01 0. -1.
         -5   -1    0    0    0  501 -0.00000000000E+00 -0.00000000000E+00 -0.35233356229E+03  0.35236490903E+03  0.47000000000E+01 0.  1.
          6    1    1    2  502    0 -0.11206553116E+02 -0.12729813808E+03  0.31030438038E+03  0.37709841059E+03  0.17200000000E+03 0. -1.
         -6    1    1    2    0  502  0.11206553116E+02  0.12729813808E+03 -0.28297994252E+03  0.35495358945E+03  0.17200000000E+03 0.  1.
</event>
<event>
 4    1 -0.6483339E-004  0.3994428E+03  0.7818608E-02  0.1043973E+00
         -5   -1    0    0    0  501 -0.00000000000E+00  0.00000000000E+00  0.90330399726E+03  0.90331622452E+03  0.47000000000E+01 0.  1.
          5   -1    0    0  501    0  0.00000000000E+00 -0.00000000000E+00 -0.90307547904E+03  0.90308770939E+03  0.47000000000E+01 0. -1.
          6    1    1    2  502    0  0.32859346333E+03  0.14831351051E+03 -0.80995933570E+03  0.90309948900E+03  0.17200000000E+03 0. -1.
         -6    1    1    2    0  502 -0.32859346333E+03 -0.14831351051E+03  0.81018785392E+03  0.90330444491E+03  0.17200000000E+03 0.  1.
</event>
<event>
 4    1 -0.6483339E-004  0.2351626E+03  0.7818608E-02  0.1123058E+00
          5   -1    0    0  501    0  0.00000000000E+00  0.00000000000E+00  0.38250970702E+02  0.38538639826E+02  0.47000000000E+01 0. -1.
         -5   -1    0    0    0  501 -0.00000000000E+00 -0.00000000000E+00 -0.14516981277E+04  0.14517057360E+04  0.47000000000E+01 0.  1.
          6    1    1    2  502    0  0.90162803151E+02  0.13262028038E+03 -0.63997346597E+03  0.68181192934E+03  0.17200000000E+03 0.  1.
         -6    1    1    2    0  502 -0.90162803151E+02 -0.13262028038E+03 -0.77347369102E+03  0.80843244649E+03  0.17200000000E+03 0.  1.
</event>
<event>
 4    1 -0.6483339E-004  0.1810018E+03  0.7818608E-02  0.1166837E+00
          5   -1    0    0  501    0  0.00000000000E+00  0.00000000000E+00  0.32821381339E+03  0.32824746351E+03  0.47000000000E+01 0. -1.
         -5   -1    0    0    0  501 -0.00000000000E+00 -0.00000000000E+00 -0.10082101094E+03  0.10093050207E+03  0.47000000000E+01 0.  1.
          6    1    1    2  502    0 -0.24945753916E+02 -0.50550554396E+02  0.91327255123E+02  0.20273706301E+03  0.17200000000E+03 0.  1.
         -6    1    1    2    0  502  0.24945753916E+02  0.50550554396E+02  0.13606554732E+03  0.22644090257E+03  0.17200000000E+03 0.  1.
</event>
<event>
 4    1 -0.6483339E-004  0.1970110E+03  0.7818608E-02  0.1152286E+00
          5   -1    0    0  501    0  0.00000000000E+00  0.00000000000E+00  0.19754176936E+02  0.20305602833E+02  0.47000000000E+01 0. -1.
         -5   -1    0    0    0  501 -0.00000000000E+00 -0.00000000000E+00 -0.20125669723E+04  0.20125724603E+04  0.47000000000E+01 0.  1.
          6    1    1    2  502    0 -0.10155868686E+02 -0.95531184712E+02 -0.11930533421E+04  0.12092103316E+04  0.17200000000E+03 0.  1.
         -6    1    1    2    0  502  0.10155868686E+02  0.95531184712E+02 -0.79975945328E+03  0.82366773157E+03  0.17200000000E+03 0.  1.
</event>
<event>
 4    1 -0.6483339E-004  0.2871050E+03  0.7818608E-02  0.1091870E+00
          5   -1    0    0  501    0  0.00000000000E+00  0.00000000000E+00  0.26805027873E+04  0.26805069078E+04  0.47000000000E+01 0. -1.
         -5   -1    0    0    0  501 -0.00000000000E+00 -0.00000000000E+00 -0.45316457353E+02  0.45559535852E+02  0.47000000000E+01 0.  1.
          6    1    1    2  502    0 -0.20793848841E+03  0.98014707293E+02  0.20925875315E+04  0.21121912496E+04  0.17200000000E+03 0. -1.
         -6    1    1    2    0  502  0.20793848841E+03 -0.98014707293E+02  0.54259879843E+03  0.61387519405E+03  0.17200000000E+03 0.  1.
</event>
<event>
 4    1 -0.6483339E-004  0.1816183E+03  0.7818608E-02  0.1166246E+00
          5   -1    0    0  501    0  0.00000000000E+00  0.00000000000E+00  0.17364992981E+03  0.17371352315E+03  0.47000000000E+01 0. -1.
         -5   -1    0    0    0  501 -0.00000000000E+00 -0.00000000000E+00 -0.19082843467E+03  0.19088630511E+03  0.47000000000E+01 0.  1.
          6    1    1    2  502    0 -0.55764066502E+02 -0.17075908427E+02  0.46263969721E+01  0.18167724489E+03  0.17200000000E+03 0. -1.
         -6    1    1    2    0  502  0.55764066502E+02  0.17075908427E+02 -0.21804901829E+02  0.18292258337E+03  0.17200000000E+03 0. -1.
</event>
<event>
 4    1 -0.6483339E-004  0.2269726E+03  0.7818608E-02  0.1128789E+00
         -5   -1    0    0    0  501 -0.00000000000E+00  0.00000000000E+00  0.17104493111E+04  0.17104557685E+04  0.47000000000E+01 0.  1.
          5   -1    0    0  501    0  0.00000000000E+00 -0.00000000000E+00 -0.93192973591E+02  0.93311415843E+02  0.47000000000E+01 0. -1.
          6    1    1    2  502    0 -0.11859661513E+03 -0.88698483281E+02  0.66535568587E+02  0.23652390988E+03  0.17200000000E+03 0. -1.
         -6    1    1    2    0  502  0.11859661513E+03  0.88698483281E+02  0.15507207689E+04  0.15672432744E+04  0.17200000000E+03 0.  1.
</event>
<event>
 4    1 -0.6483339E-004  0.2035280E+03  0.7818608E-02  0.1146796E+00
         -5   -1    0    0    0  501 -0.00000000000E+00  0.00000000000E+00  0.32398151106E+03  0.32401560071E+03  0.47000000000E+01 0.  1.
          5   -1    0    0  501    0  0.00000000000E+00 -0.00000000000E+00 -0.25552785961E+03  0.25557108020E+03  0.47000000000E+01 0. -1.
          6    1    1    2  502    0 -0.98156395233E+02 -0.46957018145E+02 -0.17064027765E+03  0.26559695750E+03  0.17200000000E+03 0. -1.
         -6    1    1    2    0  502  0.98156395233E+02  0.46957018145E+02  0.23909392910E+03  0.31398972341E+03  0.17200000000E+03 0.  1.
</event>
<event>
 4    1 -0.6483339E-004  0.3092832E+03  0.7818608E-02  0.1080690E+00
         -5   -1    0    0    0  501 -0.00000000000E+00  0.00000000000E+00  0.94822859689E+02  0.94939268586E+02  0.47000000000E+01 0.  1.
          5   -1    0    0  501    0  0.00000000000E+00 -0.00000000000E+00 -0.12405124295E+04  0.12405213331E+04  0.47000000000E+01 0. -1.
          6    1    1    2  502    0 -0.48377797722E+02  0.25245129736E+03 -0.86188499911E+03  0.91569745033E+03  0.17200000000E+03 0. -1.
         -6    1    1    2    0  502  0.48377797722E+02 -0.25245129736E+03 -0.28380457075E+03  0.41976315135E+03  0.17200000000E+03 0.  1.
</event>
<event>
 4    1 -0.6483339E-004  0.2241932E+03  0.7818608E-02  0.1130795E+00
          5   -1    0    0  501    0  0.00000000000E+00  0.00000000000E+00  0.24898276849E+03  0.24902712504E+03  0.47000000000E+01 0. -1.
         -5   -1    0    0    0  501 -0.00000000000E+00 -0.00000000000E+00 -0.20776084381E+03  0.20781399910E+03  0.47000000000E+01 0.  1.
          6    1    1    2  502    0 -0.13137235844E+03  0.58479825357E+02 -0.18128862573E+02  0.22492497014E+03  0.17200000000E+03 0.  1.
         -6    1    1    2    0  502  0.13137235844E+03 -0.58479825357E+02  0.59350787248E+02  0.23191615399E+03  0.17200000000E+03 0. -1.
</event>
<event>
 4    1 -0.6483339E-004  0.4229118E+03  0.7818608E-02  0.1036123E+00
         -5   -1    0    0    0  501 -0.00000000000E+00  0.00000000000E+00  0.27317032650E+04  0.27317073083E+04  0.47000000000E+01 0.  1.
          5   -1    0    0  501    0  0.00000000000E+00 -0.00000000000E+00 -0.12318497955E+03  0.12327460885E+03  0.47000000000E+01 0. -1.
          6    1    1    2  502    0 -0.14745135029E+03  0.35711137022E+03  0.32697001240E+03  0.53456881732E+03  0.17200000000E+03 0. -1.
         -6    1    1    2    0  502  0.14745135029E+03 -0.35711137022E+03  0.22815482731E+04  0.23204130998E+04  0.17200000000E+03 0.  1.
</event>
<event>
 4    1 -0.6483339E-004  0.2534704E+03  0.7818608E-02  0.1111131E+00
          5   -1    0    0  501    0  0.00000000000E+00  0.00000000000E+00  0.61479137235E+03  0.61480933753E+03  0.47000000000E+01 0. -1.
         -5   -1    0    0    0  501 -0.00000000000E+00 -0.00000000000E+00 -0.17569042575E+03  0.17575328077E+03  0.47000000000E+01 0.  1.
          6    1    1    2  502    0 -0.17858430605E+03 -0.52639162457E+02  0.47121941743E+03  0.53506539334E+03  0.17200000000E+03 0. -1.
         -6    1    1    2    0  502  0.17858430605E+03  0.52639162457E+02 -0.32118470834E+02  0.25549722496E+03  0.17200000000E+03 0.  1.
</event>
<event>
 4    1 -0.6483339E-004  0.3592368E+03  0.7818608E-02  0.1058886E+00
         -5   -1    0    0    0  501 -0.00000000000E+00  0.00000000000E+00  0.15111959628E+04  0.15112032716E+04  0.47000000000E+01 0.  1.
          5   -1    0    0  501    0  0.00000000000E+00 -0.00000000000E+00 -0.98241707520E+02  0.98354070055E+02  0.47000000000E+01 0. -1.
          6    1    1    2  502    0  0.31438189724E+03 -0.25122134341E+02  0.41484854252E+03  0.54877173048E+03  0.17200000000E+03 0. -1.
         -6    1    1    2    0  502 -0.31438189724E+03  0.25122134341E+02  0.99810571279E+03  0.10607856112E+04  0.17200000000E+03 0.  1.
</event>
<event>
 4    1 -0.6483339E-004  0.4173879E+03  0.7818608E-02  0.1037920E+00
          5   -1    0    0  501    0  0.00000000000E+00  0.00000000000E+00  0.25136721538E+03  0.25141115124E+03  0.47000000000E+01 0. -1.
         -5   -1    0    0    0  501 -0.00000000000E+00 -0.00000000000E+00 -0.69315204539E+03  0.69316797967E+03  0.47000000000E+01 0.  1.
          6    1    1    2  502    0  0.37930802159E+03  0.27461289649E+02 -0.21279091069E+03  0.46850044754E+03  0.17200000000E+03 0. -1.
         -6    1    1    2    0  502 -0.37930802159E+03 -0.27461289649E+02 -0.22899391932E+03  0.47607868337E+03  0.17200000000E+03 0.  1.
</event>
<event>
 4    1 -0.6483339E-004  0.1939937E+03  0.7818608E-02  0.1154908E+00
          5   -1    0    0  501    0  0.00000000000E+00  0.00000000000E+00  0.13479775437E+03  0.13487966705E+03  0.47000000000E+01 0. -1.
         -5   -1    0    0    0  501 -0.00000000000E+00 -0.00000000000E+00 -0.41251890927E+03  0.41254568293E+03  0.47000000000E+01 0.  1.
          6    1    1    2  502    0 -0.79461155128E+02 -0.41659078511E+02  0.16838387219E+02  0.19472309899E+03  0.17200000000E+03 0. -1.
         -6    1    1    2    0  502  0.79461155128E+02  0.41659078511E+02 -0.29455954212E+03  0.35270225098E+03  0.17200000000E+03 0.  1.
</event>
<event>
 4    1 -0.6483339E-004  0.2078982E+03  0.7818608E-02  0.1143241E+00
          5   -1    0    0  501    0  0.00000000000E+00  0.00000000000E+00  0.50428557508E+02  0.50647106654E+02  0.47000000000E+01 0. -1.
         -5   -1    0    0    0  501 -0.00000000000E+00 -0.00000000000E+00 -0.94544879264E+03  0.94546047485E+03  0.47000000000E+01 0.  1.
          6    1    1    2  502    0 -0.11252511486E+03 -0.31237239925E+02 -0.60153267273E+03  0.63644577381E+03  0.17200000000E+03 0.  1.
         -6    1    1    2    0  502  0.11252511486E+03  0.31237239925E+02 -0.29348756240E+03  0.35966180770E+03  0.17200000000E+03 0. -1.
</event>
<event>
 4    1 -0.6483339E-004  0.2700602E+03  0.7818608E-02  0.1101245E+00
         -5   -1    0    0    0  501 -0.00000000000E+00  0.00000000000E+00  0.16378250152E+03  0.16384992463E+03  0.47000000000E+01 0.  1.
          5   -1    0    0  501    0  0.00000000000E+00 -0.00000000000E+00 -0.46255121903E+03  0.46257509685E+03  0.47000000000E+01 0. -1.
          6    1    1    2  502    0  0.14688383948E+03  0.14755896829E+03 -0.88604280577E+02  0.28422390814E+03  0.17200000000E+03 0.  1.
         -6    1    1    2    0  502 -0.14688383948E+03 -0.14755896829E+03 -0.21016443694E+03  0.34220111335E+03  0.17200000000E+03 0. -1.
</event>
<event>
 4    1 -0.6483339E-004  0.2641644E+03  0.7818608E-02  0.1104667E+00
          5   -1    0    0  501    0  0.00000000000E+00  0.00000000000E+00  0.14694087205E+04  0.14694162371E+04  0.47000000000E+01 0. -1.
         -5   -1    0    0    0  501 -0.00000000000E+00 -0.00000000000E+00 -0.81005418602E+02  0.81141652947E+02  0.47000000000E+01 0.  1.
          6    1    1    2  502    0 -0.89827077103E+02  0.17924824209E+03  0.11932104255E+04  0.12221022689E+04  0.17200000000E+03 0. -1.
         -6    1    1    2    0  502  0.89827077103E+02 -0.17924824209E+03  0.19519287633E+03  0.32845562112E+03  0.17200000000E+03 0.  1.
</event>
<event>
 4    1 -0.6483339E-004  0.1786405E+03  0.7818608E-02  0.1169125E+00
          5   -1    0    0  501    0  0.00000000000E+00  0.00000000000E+00  0.30813586183E+03  0.30817170433E+03  0.47000000000E+01 0. -1.
         -5   -1    0    0    0  501 -0.00000000000E+00 -0.00000000000E+00 -0.14503979410E+03  0.14511592563E+03  0.47000000000E+01 0.  1.
          6    1    1    2  502    0 -0.45958084192E+02 -0.14706109691E+02  0.20282948143E+03  0.27028173024E+03  0.17200000000E+03 0. -1.
         -6    1    1    2    0  502  0.45958084192E+02  0.14706109691E+02 -0.39733413697E+02  0.18300589971E+03  0.17200000000E+03 0. -1.
</event>
<event>
 4    1 -0.6483339E-004  0.2103921E+03  0.7818608E-02  0.1141256E+00
         -5   -1    0    0    0  501 -0.00000000000E+00  0.00000000000E+00  0.10821072202E+03  0.10831274329E+03  0.47000000000E+01 0.  1.
          5   -1    0    0  501    0  0.00000000000E+00 -0.00000000000E+00 -0.71219822077E+03  0.71221372893E+03  0.47000000000E+01 0. -1.
          6    1    1    2  502    0 -0.12051435806E+03  0.12535046688E+02 -0.34222109840E+02  0.21315719715E+03  0.17200000000E+03 0.  1.
         -6    1    1    2    0  502  0.12051435806E+03 -0.12535046688E+02 -0.56976538892E+03  0.60736927507E+03  0.17200000000E+03 0. -1.
</event>
<event>
 4    1 -0.6483339E-004  0.2049785E+03  0.7818608E-02  0.1145605E+00
         -5   -1    0    0    0  501 -0.00000000000E+00  0.00000000000E+00  0.61381615236E+03  0.61383414608E+03  0.47000000000E+01 0.  1.
          5   -1    0    0  501    0  0.00000000000E+00 -0.00000000000E+00 -0.76291017583E+02  0.76435655056E+02  0.47000000000E+01 0. -1.
          6    1    1    2  502    0  0.89051551084E+02 -0.67097104718E+02  0.37998033181E+03  0.43174211373E+03  0.17200000000E+03 0. -1.
         -6    1    1    2    0  502 -0.89051551084E+02  0.67097104718E+02  0.15754480297E+03  0.25852768741E+03  0.17200000000E+03 0. -1.
</event>
<event>
 4    1 -0.6483339E-004  0.2133187E+03  0.7818608E-02  0.1138965E+00
          5   -1    0    0  501    0  0.00000000000E+00  0.00000000000E+00  0.22520652254E+03  0.22525556107E+03  0.47000000000E+01 0. -1.
         -5   -1    0    0    0  501 -0.00000000000E+00 -0.00000000000E+00 -0.23951573396E+03  0.23956184341E+03  0.47000000000E+01 0.  1.
          6    1    1    2  502    0 -0.10078125391E+03 -0.75921007119E+02 -0.99164273537E+02  0.23524118178E+03  0.17200000000E+03 0.  1.
         -6    1    1    2    0  502  0.10078125391E+03  0.75921007119E+02  0.84855062114E+02  0.22957622270E+03  0.17200000000E+03 0. -1.
</event>
<event>
 4    1 -0.6483339E-004  0.1987471E+03  0.7818608E-02  0.1150800E+00
         -5   -1    0    0    0  501 -0.00000000000E+00  0.00000000000E+00  0.64172124157E+02  0.64344009191E+02  0.47000000000E+01 0.  1.
          5   -1    0    0  501    0  0.00000000000E+00 -0.00000000000E+00 -0.63660820199E+03  0.63662555151E+03  0.47000000000E+01 0. -1.
          6    1    1    2  502    0 -0.71313362169E+02  0.69504160924E+02 -0.35147182114E+03  0.40377328424E+03  0.17200000000E+03 0. -1.
         -6    1    1    2    0  502  0.71313362169E+02 -0.69504160924E+02 -0.22096425669E+03  0.29719627646E+03  0.17200000000E+03 0.  1.
</event>
<event>
 4    1 -0.6483339E-004  0.2353453E+03  0.7818608E-02  0.1122933E+00
         -5   -1    0    0    0  501 -0.00000000000E+00  0.00000000000E+00  0.12920869773E+03  0.12929415133E+03  0.47000000000E+01 0.  1.
          5   -1    0    0  501    0  0.00000000000E+00 -0.00000000000E+00 -0.14805454448E+04  0.14805529049E+04  0.47000000000E+01 0. -1.
          6    1    1    2  502    0 -0.11616008164E+03 -0.11095156646E+03 -0.13541861836E+04  0.13744844977E+04  0.17200000000E+03 0. -1.
         -6    1    1    2    0  502  0.11616008164E+03  0.11095156646E+03  0.28494364675E+01  0.23536255852E+03  0.17200000000E+03 0.  1.
</event>
<event>
 4    1 -0.6483339E-004  0.2050298E+03  0.7818608E-02  0.1145563E+00
          5   -1    0    0  501    0  0.00000000000E+00  0.00000000000E+00  0.46857308235E+02  0.47092433946E+02  0.47000000000E+01 0. -1.
         -5   -1    0    0    0  501 -0.00000000000E+00 -0.00000000000E+00 -0.18657657028E+04  0.18657716226E+04  0.47000000000E+01 0.  1.
          6    1    1    2  502    0 -0.86843989654E+02 -0.70080824625E+02 -0.21947882920E+03  0.30034672794E+03  0.17200000000E+03 0. -1.
         -6    1    1    2    0  502  0.86843989654E+02  0.70080824625E+02 -0.15994295654E+04  0.16125173286E+04  0.17200000000E+03 0.  1.
</event>
<event>
 4    1 -0.6483339E-004  0.1747215E+03  0.7818608E-02  0.1173012E+00
          5   -1    0    0  501    0  0.00000000000E+00  0.00000000000E+00  0.19078376339E+03  0.19084164737E+03  0.47000000000E+01 0. -1.
         -5   -1    0    0    0  501 -0.00000000000E+00 -0.00000000000E+00 -0.16614825849E+03  0.16621472197E+03  0.47000000000E+01 0.  1.
          6    1    1    2  502    0 -0.18576089929E+02  0.24464777757E+02  0.46939935763E+02  0.18091698106E+03  0.17200000000E+03 0.  1.
         -6    1    1    2    0  502  0.18576089929E+02 -0.24464777757E+02 -0.22304430872E+02  0.17613938828E+03  0.17200000000E+03 0.  1.
</event>
<event>
 4    1 -0.6483339E-004  0.1886321E+03  0.7818608E-02  0.1159701E+00
          5   -1    0    0  501    0  0.00000000000E+00  0.00000000000E+00  0.24576188250E+03  0.24580682027E+03  0.47000000000E+01 0. -1.
         -5   -1    0    0    0  501 -0.00000000000E+00 -0.00000000000E+00 -0.14516680835E+03  0.14524287331E+03  0.47000000000E+01 0.  1.
          6    1    1    2  502    0  0.74078214531E+02 -0.22594004777E+02  0.61541121689E+02  0.19841718821E+03  0.17200000000E+03 0.  1.
         -6    1    1    2    0  502 -0.74078214531E+02  0.22594004777E+02  0.39053952461E+02  0.19263250536E+03  0.17200000000E+03 0. -1.
</event>
<event>
 4    1 -0.6483339E-004  0.2303219E+03  0.7818608E-02  0.1126413E+00
          5   -1    0    0  501    0  0.00000000000E+00  0.00000000000E+00  0.49665203366E+03  0.49667427207E+03  0.47000000000E+01 0. -1.
         -5   -1    0    0    0  501 -0.00000000000E+00 -0.00000000000E+00 -0.10697981770E+03  0.10708301170E+03  0.47000000000E+01 0.  1.
          6    1    1    2  502    0  0.58572637676E+02 -0.14153951943E+03  0.20926186616E+03  0.31118919980E+03  0.17200000000E+03 0.  1.
         -6    1    1    2    0  502 -0.58572637676E+02  0.14153951943E+03  0.18041034980E+03  0.29256808398E+03  0.17200000000E+03 0. -1.
</event>
<event>
 4    1 -0.6483339E-004  0.2208307E+03  0.7818608E-02  0.1133265E+00
         -5   -1    0    0    0  501 -0.00000000000E+00  0.00000000000E+00  0.23369198781E+02  0.23837144369E+02  0.47000000000E+01 0.  1.
          5   -1    0    0  501    0  0.00000000000E+00 -0.00000000000E+00 -0.22665444483E+04  0.22665493213E+04  0.47000000000E+01 0. -1.
          6    1    1    2  502    0 -0.13845433328E+03  0.35497970049E+01 -0.78065247573E+03  0.81128570265E+03  0.17200000000E+03 0.  1.
         -6    1    1    2    0  502  0.13845433328E+03 -0.35497970049E+01 -0.14625227738E+04  0.14791007630E+04  0.17200000000E+03 0. -1.
</event>
<event>
 4    1 -0.6483339E-004  0.1888967E+03  0.7818608E-02  0.1159460E+00
         -5   -1    0    0    0  501 -0.00000000000E+00  0.00000000000E+00  0.66168230378E+02  0.66334943366E+02  0.47000000000E+01 0.  1.
          5   -1    0    0  501    0  0.00000000000E+00 -0.00000000000E+00 -0.64651542276E+03  0.64653250643E+03  0.47000000000E+01 0. -1.
          6    1    1    2  502    0  0.36906453391E+02  0.68817829029E+02 -0.43590687328E+03  0.47507555406E+03  0.17200000000E+03 0. -1.
         -6    1    1    2    0  502 -0.36906453391E+02 -0.68817829029E+02 -0.14444031911E+03  0.23779189574E+03  0.17200000000E+03 0.  1.
</event>
<event>
 4    1 -0.6483339E-004  0.2838891E+03  0.7818608E-02  0.1093584E+00
         -5   -1    0    0    0  501 -0.00000000000E+00  0.00000000000E+00  0.24789849040E+03  0.24794304093E+03  0.47000000000E+01 0.  1.
          5   -1    0    0  501    0  0.00000000000E+00 -0.00000000000E+00 -0.32565266872E+03  0.32568658346E+03  0.47000000000E+01 0. -1.
          6    1    1    2  502    0 -0.20315899282E+03  0.98668471890E+02 -0.26179570662E+02  0.28509369272E+03  0.17200000000E+03 0.  1.
         -6    1    1    2    0  502  0.20315899282E+03 -0.98668471890E+02 -0.51574607651E+02  0.28853593167E+03  0.17200000000E+03 0.  1.
</event>
<event>
 4    1 -0.6483339E-004  0.5678525E+03  0.7818608E-02  0.9974442E-01
          5   -1    0    0  501    0  0.00000000000E+00  0.00000000000E+00  0.92857455933E+03  0.92858645383E+03  0.47000000000E+01 0. -1.
         -5   -1    0    0    0  501 -0.00000000000E+00 -0.00000000000E+00 -0.57981269700E+03  0.57983174594E+03  0.47000000000E+01 0.  1.
          6    1    1    2  502    0  0.54028595498E+03  0.31041922376E+02  0.65204540367E+03  0.86465005785E+03  0.17200000000E+03 0. -1.
         -6    1    1    2    0  502 -0.54028595498E+03 -0.31041922376E+02 -0.30328354134E+03  0.64376814191E+03  0.17200000000E+03 0.  1.
</event>
<event>
 4    1 -0.6483339E-004  0.4156138E+03  0.7818608E-02  0.1038503E+00
         -5   -1    0    0    0  501 -0.00000000000E+00  0.00000000000E+00  0.22970675721E+04  0.22970723804E+04  0.47000000000E+01 0.  1.
          5   -1    0    0  501    0  0.00000000000E+00 -0.00000000000E+00 -0.78520416549E+02  0.78660954832E+02  0.47000000000E+01 0. -1.
          6    1    1    2  502    0 -0.24213062753E+03  0.29072936092E+03  0.86229708122E+03  0.95723093262E+03  0.17200000000E+03 0. -1.
         -6    1    1    2    0  502  0.24213062753E+03 -0.29072936092E+03  0.13562500743E+04  0.14185024026E+04  0.17200000000E+03 0.  1.
</event>
<event>
 4    1 -0.6483339E-004  0.2493868E+03  0.7818608E-02  0.1113693E+00
          5   -1    0    0  501    0  0.00000000000E+00  0.00000000000E+00  0.13529315337E+03  0.13537476630E+03  0.47000000000E+01 0. -1.
         -5   -1    0    0    0  501 -0.00000000000E+00 -0.00000000000E+00 -0.51386472724E+03  0.51388622078E+03  0.47000000000E+01 0.  1.
          6    1    1    2  502    0  0.15332853529E+03 -0.95394529078E+02 -0.29490018182E+03  0.38621221259E+03  0.17200000000E+03 0.  1.
         -6    1    1    2    0  502 -0.15332853529E+03  0.95394529078E+02 -0.83671392045E+02  0.26304877449E+03  0.17200000000E+03 0. -1.
</event>
<event>
 4    1 -0.6483339E-004  0.2560495E+03  0.7818608E-02  0.1109540E+00
         -5   -1    0    0    0  501 -0.00000000000E+00  0.00000000000E+00  0.14475105924E+03  0.14482734255E+03  0.47000000000E+01 0.  1.
          5   -1    0    0  501    0  0.00000000000E+00 -0.00000000000E+00 -0.89458745258E+03  0.89459979897E+03  0.47000000000E+01 0. -1.
          6    1    1    2  502    0  0.11069063509E+03 -0.15402903380E+03 -0.74015716516E+03  0.78319473255E+03  0.17200000000E+03 0. -1.
         -6    1    1    2    0  502 -0.11069063509E+03  0.15402903380E+03 -0.96792281836E+01  0.25623240897E+03  0.17200000000E+03 0.  1.
</event>
<event>
 4    1 -0.6483339E-004  0.1971499E+03  0.7818608E-02  0.1152166E+00
         -5   -1    0    0    0  501 -0.00000000000E+00  0.00000000000E+00  0.15441610962E+03  0.15448762058E+03  0.47000000000E+01 0.  1.
          5   -1    0    0  501    0  0.00000000000E+00 -0.00000000000E+00 -0.28276449343E+03  0.28280355151E+03  0.47000000000E+01 0. -1.
          6    1    1    2  502    0 -0.96335780862E+02  0.18678010064E+01 -0.13679524064E+03  0.23996043260E+03  0.17200000000E+03 0. -1.
         -6    1    1    2    0  502  0.96335780862E+02 -0.18678010064E+01  0.84468568247E+01  0.19733073948E+03  0.17200000000E+03 0.  1.
</event>
<event>
 4    1 -0.6483339E-004  0.2402499E+03  0.7818608E-02  0.1119626E+00
         -5   -1    0    0    0  501 -0.00000000000E+00  0.00000000000E+00  0.18481425655E+04  0.18481485417E+04  0.47000000000E+01 0.  1.
          5   -1    0    0  501    0  0.00000000000E+00 -0.00000000000E+00 -0.37174358516E+02  0.37470293981E+02  0.47000000000E+01 0. -1.
          6    1    1    2  502    0 -0.16227160261E+03  0.42472849623E+02  0.52445122550E+03  0.57686142521E+03  0.17200000000E+03 0. -1.
         -6    1    1    2    0  502  0.16227160261E+03 -0.42472849623E+02  0.12865169814E+04  0.13087574105E+04  0.17200000000E+03 0.  1.
</event>
<event>
 4    1 -0.6483339E-004  0.2402861E+03  0.7818608E-02  0.1119602E+00
          5   -1    0    0  501    0  0.00000000000E+00  0.00000000000E+00  0.10807137988E+04  0.10807240189E+04  0.47000000000E+01 0. -1.
         -5   -1    0    0    0  501 -0.00000000000E+00 -0.00000000000E+00 -0.60836394188E+02  0.61017676601E+02  0.47000000000E+01 0.  1.
          6    1    1    2  502    0 -0.57116695938E+01  0.16769250557E+03  0.71037751525E+03  0.74991573778E+03  0.17200000000E+03 0. -1.
         -6    1    1    2    0  502  0.57116695938E+01 -0.16769250557E+03  0.30949988937E+03  0.39182595769E+03  0.17200000000E+03 0. -1.
</event>
<event>
 4    1 -0.6483339E-004  0.2269739E+03  0.7818608E-02  0.1128788E+00
         -5   -1    0    0    0  501 -0.00000000000E+00  0.00000000000E+00  0.26714271521E+03  0.26718405696E+03  0.47000000000E+01 0.  1.
          5   -1    0    0  501    0  0.00000000000E+00 -0.00000000000E+00 -0.19304546580E+03  0.19310267182E+03  0.47000000000E+01 0. -1.
          6    1    1    2  502    0 -0.12288299584E+03 -0.82661499835E+02  0.28203232980E+02  0.22871942762E+03  0.17200000000E+03 0. -1.
         -6    1    1    2    0  502  0.12288299584E+03  0.82661499835E+02  0.45894016438E+02  0.23156730116E+03  0.17200000000E+03 0.  1.
</event>
<event>
 4    1 -0.6483339E-004  0.2100189E+03  0.7818608E-02  0.1141551E+00
          5   -1    0    0  501    0  0.00000000000E+00  0.00000000000E+00  0.34706757840E+03  0.34709940072E+03  0.47000000000E+01 0. -1.
         -5   -1    0    0    0  501 -0.00000000000E+00 -0.00000000000E+00 -0.16057124144E+03  0.16064001238E+03  0.47000000000E+01 0.  1.
          6    1    1    2  502    0  0.76283282599E+02 -0.93299559096E+02  0.20927841132E+03  0.29648844897E+03  0.17200000000E+03 0. -1.
         -6    1    1    2    0  502 -0.76283282599E+02  0.93299559096E+02 -0.22782074352E+02  0.21125096412E+03  0.17200000000E+03 0.  1.
</event>
<event>
 4    1 -0.6483339E-004  0.3295551E+03  0.7818608E-02  0.1071334E+00
          5   -1    0    0  501    0  0.00000000000E+00  0.00000000000E+00  0.57735765014E+03  0.57737678008E+03  0.47000000000E+01 0. -1.
         -5   -1    0    0    0  501 -0.00000000000E+00 -0.00000000000E+00 -0.19182293030E+03  0.19188050080E+03  0.47000000000E+01 0.  1.
          6    1    1    2  502    0 -0.76774165660E+02 -0.27042240299E+03  0.24664141197E+03  0.41162912270E+03  0.17200000000E+03 0. -1.
         -6    1    1    2    0  502  0.76774165660E+02  0.27042240299E+03  0.13889330787E+03  0.35762815818E+03  0.17200000000E+03 0.  1.
</event>
<event>
 4    1 -0.6483339E-004  0.2420877E+03  0.7818608E-02  0.1118410E+00
         -5   -1    0    0    0  501 -0.00000000000E+00  0.00000000000E+00  0.87195892635E+03  0.87197159314E+03  0.47000000000E+01 0.  1.
          5   -1    0    0  501    0  0.00000000000E+00 -0.00000000000E+00 -0.91540890297E+02  0.91661467348E+02  0.47000000000E+01 0. -1.
          6    1    1    2  502    0 -0.39500620186E+02 -0.16571711332E+03  0.14154486805E+03  0.28043075850E+03  0.17200000000E+03 0. -1.
         -6    1    1    2    0  502  0.39500620186E+02  0.16571711332E+03  0.63887316800E+03  0.68320230199E+03  0.17200000000E+03 0.  1.
</event>
<event>
 4    1 -0.6483339E-004  0.2530820E+03  0.7818608E-02  0.1111372E+00
         -5   -1    0    0    0  501 -0.00000000000E+00  0.00000000000E+00  0.62860990329E+03  0.62862747356E+03  0.47000000000E+01 0.  1.
          5   -1    0    0  501    0  0.00000000000E+00 -0.00000000000E+00 -0.12713197536E+03  0.12721882392E+03  0.47000000000E+01 0. -1.
          6    1    1    2  502    0 -0.13613702644E+03  0.12622690583E+03  0.82180719216E+02  0.26609057167E+03  0.17200000000E+03 0. -1.
         -6    1    1    2    0  502  0.13613702644E+03 -0.12622690583E+03  0.41929720871E+03  0.48975572580E+03  0.17200000000E+03 0.  1.
</event>
<event>
 4    1 -0.6483339E-004  0.1849683E+03  0.7818608E-02  0.1163080E+00
         -5   -1    0    0    0  501 -0.00000000000E+00  0.00000000000E+00  0.56213272866E+03  0.56215237670E+03  0.47000000000E+01 0.  1.
          5   -1    0    0  501    0  0.00000000000E+00 -0.00000000000E+00 -0.14874815399E+03  0.14882238849E+03  0.47000000000E+01 0. -1.
          6    1    1    2  502    0  0.33000772593E+02  0.59499622274E+02 -0.66592457119E+02  0.19659046617E+03  0.17200000000E+03 0. -1.
         -6    1    1    2    0  502 -0.33000772593E+02 -0.59499622274E+02  0.47997703179E+03  0.51438429903E+03  0.17200000000E+03 0.  1.
</event>
<event>
 4    1 -0.6483339E-004  0.1724962E+03  0.7818608E-02  0.1175269E+00
         -5   -1    0    0    0  501 -0.00000000000E+00  0.00000000000E+00  0.12542144543E+04  0.12542232605E+04  0.47000000000E+01 0.  1.
          5   -1    0    0  501    0  0.00000000000E+00 -0.00000000000E+00 -0.43725468757E+02  0.43977342098E+02  0.47000000000E+01 0. -1.
          6    1    1    2  502    0  0.12059407094E+02  0.50512969743E+01  0.16543300616E+03  0.23900423517E+03  0.17200000000E+03 0. -1.
         -6    1    1    2    0  502 -0.12059407094E+02 -0.50512969743E+01  0.10450559793E+04  0.10591963675E+04  0.17200000000E+03 0.  1.
</event>
<event>
 4    1 -0.6483339E-004  0.4821091E+03  0.7818608E-02  0.1018557E+00
         -5   -1    0    0    0  501 -0.00000000000E+00  0.00000000000E+00  0.79068485852E+03  0.79069882730E+03  0.47000000000E+01 0.  1.
          5   -1    0    0  501    0  0.00000000000E+00 -0.00000000000E+00 -0.42609280574E+03  0.42611872653E+03  0.47000000000E+01 0. -1.
          6    1    1    2  502    0 -0.84861175193E+02  0.44231635765E+03 -0.15653612872E+03  0.50688533111E+03  0.17200000000E+03 0. -1.
         -6    1    1    2    0  502  0.84861175193E+02 -0.44231635765E+03  0.52112818150E+03  0.70993222272E+03  0.17200000000E+03 0.  1.
</event>
<event>
 4    1 -0.6483339E-004  0.2212246E+03  0.7818608E-02  0.1132973E+00
          5   -1    0    0  501    0  0.00000000000E+00  0.00000000000E+00  0.14826457949E+04  0.14826532444E+04  0.47000000000E+01 0. -1.
         -5   -1    0    0    0  501 -0.00000000000E+00 -0.00000000000E+00 -0.32838696658E+02  0.33173332636E+02  0.47000000000E+01 0.  1.
          6    1    1    2  502    0 -0.97966720235E+02 -0.98786808926E+02  0.71578470427E+03  0.74919160083E+03  0.17200000000E+03 0. -1.
         -6    1    1    2    0  502  0.97966720235E+02  0.98786808926E+02  0.73402239402E+03  0.76663497625E+03  0.17200000000E+03 0.  1.
</event>
<event>
 4    1 -0.6483339E-004  0.2618660E+03  0.7818608E-02  0.1106027E+00
          5   -1    0    0  501    0  0.00000000000E+00  0.00000000000E+00  0.14301883184E+04  0.14301960411E+04  0.47000000000E+01 0. -1.
         -5   -1    0    0    0  501 -0.00000000000E+00 -0.00000000000E+00 -0.14062296836E+03  0.14070148979E+03  0.47000000000E+01 0.  1.
          6    1    1    2  502    0  0.54890023929E+02  0.18967570168E+03  0.12824735811E+04  0.13089355495E+04  0.17200000000E+03 0. -1.
         -6    1    1    2    0  502 -0.54890023929E+02 -0.18967570168E+03  0.70917689616E+01  0.26196198144E+03  0.17200000000E+03 0.  1.
</event>
<event>
 4    1 -0.6483339E-004  0.2173924E+03  0.7818608E-02  0.1135842E+00
          5   -1    0    0  501    0  0.00000000000E+00  0.00000000000E+00  0.19050788212E+03  0.19056584990E+03  0.47000000000E+01 0. -1.
         -5   -1    0    0    0  501 -0.00000000000E+00 -0.00000000000E+00 -0.27155298133E+03  0.27159365175E+03  0.47000000000E+01 0.  1.
          6    1    1    2  502    0  0.28960580443E+02  0.12975654124E+03  0.27587324515E+02  0.21913588407E+03  0.17200000000E+03 0. -1.
         -6    1    1    2    0  502 -0.28960580443E+02 -0.12975654124E+03 -0.10863242373E+03  0.24302361758E+03  0.17200000000E+03 0.  1.
</event>
<event>
 4    1 -0.6483339E-004  0.1912171E+03  0.7818608E-02  0.1157368E+00
          5   -1    0    0  501    0  0.00000000000E+00  0.00000000000E+00  0.23665424498E+02  0.24127625591E+02  0.47000000000E+01 0. -1.
         -5   -1    0    0    0  501 -0.00000000000E+00 -0.00000000000E+00 -0.15488702884E+04  0.15488774194E+04  0.47000000000E+01 0.  1.
          6    1    1    2  502    0  0.27150155712E+02  0.79011675370E+02 -0.67495653426E+03  0.70151999183E+03  0.17200000000E+03 0. -1.
         -6    1    1    2    0  502 -0.27150155712E+02 -0.79011675370E+02 -0.85024832966E+03  0.87148505317E+03  0.17200000000E+03 0. -1.
</event>
<event>
 4    1 -0.6483339E-004  0.1931528E+03  0.7818608E-02  0.1155648E+00
          5   -1    0    0  501    0  0.00000000000E+00  0.00000000000E+00  0.32868807949E+02  0.33203140453E+02  0.47000000000E+01 0. -1.
         -5   -1    0    0    0  501 -0.00000000000E+00 -0.00000000000E+00 -0.11358206222E+04  0.11358303464E+04  0.47000000000E+01 0.  1.
          6    1    1    2  502    0  0.48742851899E+02 -0.73130841027E+02 -0.50610335607E+03  0.54170895557E+03  0.17200000000E+03 0. -1.
         -6    1    1    2    0  502 -0.48742851899E+02  0.73130841027E+02 -0.59684845817E+03  0.62732453127E+03  0.17200000000E+03 0.  1.
</event>
<event>
 4    1 -0.6483339E-004  0.1745295E+03  0.7818608E-02  0.1173205E+00
         -5   -1    0    0    0  501 -0.00000000000E+00  0.00000000000E+00  0.10678913738E+03  0.10689251546E+03  0.47000000000E+01 0.  1.
          5   -1    0    0  501    0  0.00000000000E+00 -0.00000000000E+00 -0.37491480763E+03  0.37494426649E+03  0.47000000000E+01 0. -1.
          6    1    1    2  502    0 -0.23889893089E+02 -0.17487802433E+02 -0.25203767539E+03  0.30656734993E+03  0.17200000000E+03 0. -1.
         -6    1    1    2    0  502  0.23889893089E+02  0.17487802433E+02 -0.16087994855E+02  0.17526943203E+03  0.17200000000E+03 0.  1.
</event>
<event>
 4    1 -0.6483339E-004  0.1823726E+03  0.7818608E-02  0.1165526E+00
          5   -1    0    0  501    0  0.00000000000E+00  0.00000000000E+00  0.65035055341E+02  0.65204665655E+02  0.47000000000E+01 0. -1.
         -5   -1    0    0    0  501 -0.00000000000E+00 -0.00000000000E+00 -0.52983853887E+03  0.52985938444E+03  0.47000000000E+01 0.  1.
          6    1    1    2  502    0  0.49625642613E+02 -0.34828967565E+02 -0.17566701479E+03  0.25321662953E+03  0.17200000000E+03 0. -1.
         -6    1    1    2    0  502 -0.49625642613E+02  0.34828967565E+02 -0.28913646874E+03  0.34184742056E+03  0.17200000000E+03 0.  1.
</event>
<event>
 4    1 -0.6483339E-004  0.2236817E+03  0.7818608E-02  0.1131168E+00
         -5   -1    0    0    0  501 -0.00000000000E+00  0.00000000000E+00  0.34383397675E+02  0.34703141583E+02  0.47000000000E+01 0.  1.
          5   -1    0    0  501    0  0.00000000000E+00 -0.00000000000E+00 -0.15309690311E+04  0.15309762454E+04  0.47000000000E+01 0. -1.
          6    1    1    2  502    0 -0.11062195839E+03 -0.90621587239E+02 -0.56618696042E+03  0.60877020616E+03  0.17200000000E+03 0. -1.
         -6    1    1    2    0  502  0.11062195839E+03  0.90621587239E+02 -0.93039867299E+03  0.95690918088E+03  0.17200000000E+03 0.  1.
</event>
<event>
 4    1 -0.6483339E-004  0.2365506E+03  0.7818608E-02  0.1122112E+00
          5   -1    0    0  501    0  0.00000000000E+00  0.00000000000E+00  0.10989657173E+03  0.10999702940E+03  0.47000000000E+01 0. -1.
         -5   -1    0    0    0  501 -0.00000000000E+00 -0.00000000000E+00 -0.63987745844E+03  0.63989471933E+03  0.47000000000E+01 0.  1.
          6    1    1    2  502    0  0.10526441619E+03  0.12365924215E+03 -0.95323299566E+02  0.25503477591E+03  0.17200000000E+03 0.  1.
         -6    1    1    2    0  502 -0.10526441619E+03 -0.12365924215E+03 -0.43465758715E+03  0.49485697282E+03  0.17200000000E+03 0.  1.
</event>
<event>
 4    1 -0.6483339E-004  0.3860737E+03  0.7818608E-02  0.1048711E+00
          5   -1    0    0  501    0  0.00000000000E+00  0.00000000000E+00  0.67692238247E+03  0.67693869877E+03  0.47000000000E+01 0. -1.
         -5   -1    0    0    0  501 -0.00000000000E+00 -0.00000000000E+00 -0.62898203094E+03  0.62899959081E+03  0.47000000000E+01 0.  1.
          6    1    1    2  502    0 -0.15841009165E+03  0.30720543056E+03  0.55038696631E+03  0.67229364595E+03  0.17200000000E+03 0. -1.
         -6    1    1    2    0  502  0.15841009165E+03 -0.30720543056E+03 -0.50244661478E+03  0.63364464363E+03  0.17200000000E+03 0.  1.
</event>
<event>
 4    1 -0.6483339E-004  0.2008107E+03  0.7818608E-02  0.1149057E+00
          5   -1    0    0  501    0  0.00000000000E+00  0.00000000000E+00  0.71074636937E+03  0.71076190920E+03  0.47000000000E+01 0. -1.
         -5   -1    0    0    0  501 -0.00000000000E+00 -0.00000000000E+00 -0.38363959269E+03  0.38366838165E+03  0.47000000000E+01 0.  1.
          6    1    1    2  502    0  0.10230519255E+03 -0.16570792458E+02  0.66869083231E+03  0.69819221766E+03  0.17200000000E+03 0. -1.
         -6    1    1    2    0  502 -0.10230519255E+03  0.16570792458E+02 -0.34158405563E+03  0.39623807319E+03  0.17200000000E+03 0.  1.
</event>
<event>
 4    1 -0.6483339E-004  0.2159084E+03  0.7818608E-02  0.1136971E+00
         -5   -1    0    0    0  501 -0.00000000000E+00  0.00000000000E+00  0.41219933233E+03  0.41222612675E+03  0.47000000000E+01 0.  1.
          5   -1    0    0  501    0  0.00000000000E+00 -0.00000000000E+00 -0.26253571470E+03  0.26257778179E+03  0.47000000000E+01 0. -1.
          6    1    1    2  502    0 -0.75146096914E+02 -0.10670289923E+03 -0.17975007828E+03  0.28093866808E+03  0.17200000000E+03 0. -1.
         -6    1    1    2    0  502  0.75146096914E+02  0.10670289923E+03  0.32941369591E+03  0.39386524046E+03  0.17200000000E+03 0.  1.
</event>
<event>
 4    1 -0.6483339E-004  0.1720945E+03  0.7818608E-02  0.1175681E+00
         -5   -1    0    0    0  501 -0.00000000000E+00  0.00000000000E+00  0.14174017352E+03  0.14181807639E+03  0.47000000000E+01 0.  1.
          5   -1    0    0  501    0  0.00000000000E+00 -0.00000000000E+00 -0.20940539788E+03  0.20945813582E+03  0.47000000000E+01 0. -1.
          6    1    1    2  502    0 -0.45669451116E+01  0.34124771537E+01 -0.24294676711E+02  0.17380084380E+03  0.17200000000E+03 0.  1.
         -6    1    1    2    0  502  0.45669451116E+01 -0.34124771537E+01 -0.43370547643E+02  0.17747536841E+03  0.17200000000E+03 0. -1.
</event>
<event>
 4    1 -0.6483339E-004  0.2594284E+03  0.7818608E-02  0.1107487E+00
         -5   -1    0    0    0  501 -0.00000000000E+00  0.00000000000E+00  0.95931081748E+02  0.96046147478E+02  0.47000000000E+01 0.  1.
          5   -1    0    0  501    0  0.00000000000E+00 -0.00000000000E+00 -0.83536439603E+03  0.83537761770E+03  0.47000000000E+01 0. -1.
          6    1    1    2  502    0 -0.96123324943E+01 -0.19397604860E+03 -0.55645455581E+03  0.61395828608E+03  0.17200000000E+03 0. -1.
         -6    1    1    2    0  502  0.96123324943E+01  0.19397604860E+03 -0.18297875847E+03  0.31746547910E+03  0.17200000000E+03 0.  1.
</event>
<event>
 4    1 -0.6483339E-004  0.2972268E+03  0.7818608E-02  0.1086635E+00
         -5   -1    0    0    0  501 -0.00000000000E+00  0.00000000000E+00  0.24919763631E+03  0.24924195462E+03  0.47000000000E+01 0.  1.
          5   -1    0    0  501    0  0.00000000000E+00 -0.00000000000E+00 -0.35569798826E+03  0.35572903853E+03  0.47000000000E+01 0. -1.
          6    1    1    2  502    0 -0.15552096117E+03  0.18593820967E+03 -0.71368700103E+02  0.30567511925E+03  0.17200000000E+03 0. -1.
         -6    1    1    2    0  502  0.15552096117E+03 -0.18593820967E+03 -0.35131651847E+02  0.29929587391E+03  0.17200000000E+03 0.  1.
</event>
<event>
 4    1 -0.6483339E-004  0.3659851E+03  0.7818608E-02  0.1056239E+00
         -5   -1    0    0    0  501 -0.00000000000E+00  0.00000000000E+00  0.66427421420E+03  0.66429084116E+03  0.47000000000E+01 0.  1.
          5   -1    0    0  501    0  0.00000000000E+00 -0.00000000000E+00 -0.22507245591E+03  0.22512152364E+03  0.47000000000E+01 0. -1.
          6    1    1    2  502    0  0.19880755305E+03  0.25463036328E+03  0.75994305336E+02  0.37379165252E+03  0.17200000000E+03 0. -1.
         -6    1    1    2    0  502 -0.19880755305E+03 -0.25463036328E+03  0.36320745295E+03  0.51562071228E+03  0.17200000000E+03 0.  1.
</event>
<event>
 4    1 -0.6483339E-004  0.1731910E+03  0.7818608E-02  0.1174560E+00
          5   -1    0    0  501    0  0.00000000000E+00  0.00000000000E+00  0.17655656947E+03  0.17661911624E+03  0.47000000000E+01 0. -1.
         -5   -1    0    0    0  501 -0.00000000000E+00 -0.00000000000E+00 -0.17981259017E+03  0.17987400475E+03  0.47000000000E+01 0.  1.
          6    1    1    2  502    0 -0.19134065061E+02 -0.67098449532E+01  0.40493236663E+02  0.17786184717E+03  0.17200000000E+03 0. -1.
         -6    1    1    2    0  502  0.19134065061E+02  0.67098449532E+01 -0.43749257367E+02  0.17863127382E+03  0.17200000000E+03 0.  1.
</event>
<event>
 4    1 -0.6483339E-004  0.1730959E+03  0.7818608E-02  0.1174657E+00
          5   -1    0    0  501    0  0.00000000000E+00  0.00000000000E+00  0.27755753642E+03  0.27759732712E+03  0.47000000000E+01 0. -1.
         -5   -1    0    0    0  501 -0.00000000000E+00 -0.00000000000E+00 -0.10796296245E+03  0.10806521763E+03  0.47000000000E+01 0.  1.
          6    1    1    2  502    0 -0.97039808215E+01 -0.16853243438E+02  0.91008689202E+02  0.19556272796E+03  0.17200000000E+03 0. -1.
         -6    1    1    2    0  502  0.97039808215E+01  0.16853243438E+02  0.78585884767E+02  0.19009981679E+03  0.17200000000E+03 0.  1.
</event>
<event>
 4    1 -0.6483339E-004  0.2787288E+03  0.7818608E-02  0.1096385E+00
         -5   -1    0    0    0  501 -0.00000000000E+00  0.00000000000E+00  0.13305344151E+03  0.13313642739E+03  0.47000000000E+01 0.  1.
          5   -1    0    0  501    0  0.00000000000E+00 -0.00000000000E+00 -0.69629821740E+03  0.69631407968E+03  0.47000000000E+01 0. -1.
          6    1    1    2  502    0  0.10875834328E+03 -0.19046623852E+03 -0.44844038656E+03  0.52800430448E+03  0.17200000000E+03 0. -1.
         -6    1    1    2    0  502 -0.10875834328E+03  0.19046623852E+03 -0.11480438932E+03  0.30144620259E+03  0.17200000000E+03 0.  1.
</event>
<event>
 4    1 -0.6483339E-004  0.1829957E+03  0.7818608E-02  0.1164935E+00
          5   -1    0    0  501    0  0.00000000000E+00  0.00000000000E+00  0.49504274319E+02  0.49726885845E+02  0.47000000000E+01 0. -1.
         -5   -1    0    0    0  501 -0.00000000000E+00 -0.00000000000E+00 -0.98400922436E+03  0.98402044878E+03  0.47000000000E+01 0.  1.
          6    1    1    2  502    0  0.54197431573E+02 -0.31081830366E+02 -0.17750208866E+03  0.25494005815E+03  0.17200000000E+03 0. -1.
         -6    1    1    2    0  502 -0.54197431573E+02  0.31081830366E+02 -0.75700286137E+03  0.77880727648E+03  0.17200000000E+03 0.  1.
</event>
<event>
 4    1 -0.6483339E-004  0.2209266E+03  0.7818608E-02  0.1133194E+00
         -5   -1    0    0    0  501 -0.00000000000E+00  0.00000000000E+00  0.18659515088E+03  0.18665433381E+03  0.47000000000E+01 0.  1.
          5   -1    0    0  501    0  0.00000000000E+00 -0.00000000000E+00 -0.51747347784E+03  0.51749482149E+03  0.47000000000E+01 0. -1.
          6    1    1    2  502    0 -0.12963291969E+03  0.49192354063E+02 -0.41306149903E+03  0.46843183447E+03  0.17200000000E+03 0. -1.
         -6    1    1    2    0  502  0.12963291969E+03 -0.49192354063E+02  0.82183172077E+02  0.23571732083E+03  0.17200000000E+03 0.  1.
</event>
<event>
 4    1 -0.6483339E-004  0.2944171E+03  0.7818608E-02  0.1088065E+00
         -5   -1    0    0    0  501 -0.00000000000E+00  0.00000000000E+00  0.26070167667E+03  0.26074403966E+03  0.47000000000E+01 0.  1.
          5   -1    0    0  501    0  0.00000000000E+00 -0.00000000000E+00 -0.42000847988E+03  0.42003477615E+03  0.47000000000E+01 0. -1.
          6    1    1    2  502    0  0.13006573529E+03  0.20045027699E+03 -0.23509459249E+03  0.37676368782E+03  0.17200000000E+03 0. -1.
         -6    1    1    2    0  502 -0.13006573529E+03 -0.20045027699E+03  0.75787789274E+02  0.30401512799E+03  0.17200000000E+03 0.  1.
</event>
<event>
 4    1 -0.6483339E-004  0.2055715E+03  0.7818608E-02  0.1145122E+00
          5   -1    0    0  501    0  0.00000000000E+00  0.00000000000E+00  0.22795071904E+03  0.22799916734E+03  0.47000000000E+01 0. -1.
         -5   -1    0    0    0  501 -0.00000000000E+00 -0.00000000000E+00 -0.24448014096E+03  0.24452531428E+03  0.47000000000E+01 0.  1.
          6    1    1    2  502    0  0.44655596903E+02 -0.10335143552E+03  0.10796105803E+03  0.23219653660E+03  0.17200000000E+03 0. -1.
         -6    1    1    2    0  502 -0.44655596903E+02  0.10335143552E+03 -0.12449047996E+03  0.24032794502E+03  0.17200000000E+03 0.  1.
</event>
<event>
 4    1 -0.6483339E-004  0.1823481E+03  0.7818608E-02  0.1165550E+00
          5   -1    0    0  501    0  0.00000000000E+00  0.00000000000E+00  0.17845208920E+03  0.17851397183E+03  0.47000000000E+01 0. -1.
         -5   -1    0    0    0  501 -0.00000000000E+00 -0.00000000000E+00 -0.19033440548E+03  0.19039242608E+03  0.47000000000E+01 0.  1.
          6    1    1    2  502    0  0.44444731174E+02 -0.41127979034E+02  0.21217738931E+02  0.18357842257E+03  0.17200000000E+03 0. -1.
         -6    1    1    2    0  502 -0.44444731174E+02  0.41127979034E+02 -0.33100055216E+02  0.18532797534E+03  0.17200000000E+03 0.  1.
</event>
<event>
 4    1 -0.6483339E-004  0.3065058E+03  0.7818608E-02  0.1082033E+00
         -5   -1    0    0    0  501 -0.00000000000E+00  0.00000000000E+00  0.26019704917E+03  0.26023949431E+03  0.47000000000E+01 0.  1.
          5   -1    0    0  501    0  0.00000000000E+00 -0.00000000000E+00 -0.37503246159E+03  0.37506191122E+03  0.47000000000E+01 0. -1.
          6    1    1    2  502    0 -0.16642409981E+03  0.19148058167E+03 -0.11892367442E+03  0.32876835993E+03  0.17200000000E+03 0. -1.
         -6    1    1    2    0  502  0.16642409981E+03 -0.19148058167E+03  0.40882619967E+01  0.30653304559E+03  0.17200000000E+03 0.  1.
</event>
<event>
 4    1 -0.6483339E-004  0.1858347E+03  0.7818608E-02  0.1162273E+00
         -5   -1    0    0    0  501 -0.00000000000E+00  0.00000000000E+00  0.99057102299E+02  0.99168540959E+02  0.47000000000E+01 0.  1.
          5   -1    0    0  501    0  0.00000000000E+00 -0.00000000000E+00 -0.42674609173E+03  0.42677197284E+03  0.47000000000E+01 0. -1.
          6    1    1    2  502    0 -0.21139608769E+02 -0.67109357014E+02 -0.27656684009E+03  0.33320228975E+03  0.17200000000E+03 0. -1.
         -6    1    1    2    0  502  0.21139608769E+02  0.67109357014E+02 -0.51122149339E+02  0.19273822405E+03  0.17200000000E+03 0.  1.
</event>
<event>
 4    1 -0.6483339E-004  0.2078077E+03  0.7818608E-02  0.1143314E+00
          5   -1    0    0  501    0  0.00000000000E+00  0.00000000000E+00  0.85762640389E+03  0.85763928236E+03  0.47000000000E+01 0. -1.
         -5   -1    0    0    0  501 -0.00000000000E+00 -0.00000000000E+00 -0.57613709796E+02  0.57805099745E+02  0.47000000000E+01 0.  1.
          6    1    1    2  502    0  0.47590972828E+02  0.10646655684E+03  0.56355808548E+03  0.60065110016E+03  0.17200000000E+03 0. -1.
         -6    1    1    2    0  502 -0.47590972828E+02 -0.10646655684E+03  0.23645460861E+03  0.31479328194E+03  0.17200000000E+03 0.  1.
</event>
<event>
 4    1 -0.6483339E-004  0.7463978E+03  0.7818608E-02  0.9641019E-01
          5   -1    0    0  501    0  0.00000000000E+00  0.00000000000E+00  0.47212223739E+03  0.47214563117E+03  0.47000000000E+01 0. -1.
         -5   -1    0    0    0  501 -0.00000000000E+00 -0.00000000000E+00 -0.12080726809E+04  0.12080818236E+04  0.47000000000E+01 0.  1.
          6    1    1    2  502    0 -0.69855617405E+03 -0.19885908102E+03 -0.49614386592E+03  0.89625241874E+03  0.17200000000E+03 0. -1.
         -6    1    1    2    0  502  0.69855617405E+03  0.19885908102E+03 -0.23980657764E+03  0.78397503601E+03  0.17200000000E+03 0.  1.
</event>
<event>
 4    1 -0.6483339E-004  0.1811498E+03  0.7818608E-02  0.1166695E+00
          5   -1    0    0  501    0  0.00000000000E+00  0.00000000000E+00  0.13315019468E+03  0.13323312029E+03  0.47000000000E+01 0. -1.
         -5   -1    0    0    0  501 -0.00000000000E+00 -0.00000000000E+00 -0.25483496332E+03  0.25487830141E+03  0.47000000000E+01 0.  1.
          6    1    1    2  502    0 -0.56684983283E+02  0.42511504977E+01 -0.25276873976E+02  0.18290483856E+03  0.17200000000E+03 0. -1.
         -6    1    1    2    0  502  0.56684983283E+02 -0.42511504977E+01 -0.96407894664E+02  0.20520658314E+03  0.17200000000E+03 0.  1.
</event>
<event>
 4    1 -0.6483339E-004  0.2311236E+03  0.7818608E-02  0.1125851E+00
          5   -1    0    0  501    0  0.00000000000E+00  0.00000000000E+00  0.51402455984E+02  0.51616881746E+02  0.47000000000E+01 0. -1.
         -5   -1    0    0    0  501 -0.00000000000E+00 -0.00000000000E+00 -0.11258177845E+04  0.11258275951E+04  0.47000000000E+01 0.  1.
          6    1    1    2  502    0  0.91247982249E+02 -0.12453078084E+03 -0.37170792313E+03  0.43770411211E+03  0.17200000000E+03 0. -1.
         -6    1    1    2    0  502 -0.91247982249E+02  0.12453078084E+03 -0.70270740537E+03  0.73974036472E+03  0.17200000000E+03 0. -1.
</event>
<event>
 4    1 -0.6483339E-004  0.2179586E+03  0.7818608E-02  0.1135414E+00
         -5   -1    0    0    0  501 -0.00000000000E+00  0.00000000000E+00  0.15994243440E+03  0.16001147559E+03  0.47000000000E+01 0.  1.
          5   -1    0    0  501    0  0.00000000000E+00 -0.00000000000E+00 -0.30008411367E+03  0.30012091776E+03  0.47000000000E+01 0. -1.
          6    1    1    2  502    0 -0.65808005181E+02 -0.11658161729E+03 -0.93886331486E+02  0.23731963736E+03  0.17200000000E+03 0.  1.
         -6    1    1    2    0  502  0.65808005181E+02  0.11658161729E+03 -0.46255347789E+02  0.22281275600E+03  0.17200000000E+03 0.  1.
</event>
<event>
 4    1 -0.6483339E-004  0.2466877E+03  0.7818608E-02  0.1115416E+00
         -5   -1    0    0    0  501 -0.00000000000E+00  0.00000000000E+00  0.11079408924E+03  0.11089373387E+03  0.47000000000E+01 0.  1.
          5   -1    0    0  501    0  0.00000000000E+00 -0.00000000000E+00 -0.71588116428E+03  0.71589659265E+03  0.47000000000E+01 0. -1.
          6    1    1    2  502    0 -0.84260876347E+01  0.17663466318E+03 -0.50217920114E+03  0.55949866241E+03  0.17200000000E+03 0. -1.
         -6    1    1    2    0  502  0.84260876347E+01 -0.17663466318E+03 -0.10290787390E+03  0.26729166410E+03  0.17200000000E+03 0.  1.
</event>
<event>
 4    1 -0.6483339E-004  0.3729278E+03  0.7818608E-02  0.1053579E+00
          5   -1    0    0  501    0  0.00000000000E+00  0.00000000000E+00  0.24938279848E+03  0.24942708389E+03  0.47000000000E+01 0. -1.
         -5   -1    0    0    0  501 -0.00000000000E+00 -0.00000000000E+00 -0.79028309439E+03  0.79029707027E+03  0.47000000000E+01 0.  1.
          6    1    1    2  502    0  0.30122439072E+03  0.13694889030E+03  0.11639410889E+02  0.37310937807E+03  0.17200000000E+03 0. -1.
         -6    1    1    2    0  502 -0.30122439072E+03 -0.13694889030E+03 -0.55253970679E+03  0.66661477609E+03  0.17200000000E+03 0.  1.
</event>
<event>
 4    1 -0.6483339E-004  0.1741290E+03  0.7818608E-02  0.1173609E+00
         -5   -1    0    0    0  501 -0.00000000000E+00  0.00000000000E+00  0.52825362062E+02  0.53034035081E+02  0.47000000000E+01 0.  1.
          5   -1    0    0  501    0  0.00000000000E+00 -0.00000000000E+00 -0.61484123908E+03  0.61485920281E+03  0.47000000000E+01 0. -1.
          6    1    1    2  502    0 -0.13474908090E+02  0.23565502801E+02 -0.36848784398E+03  0.40755882671E+03  0.17200000000E+03 0. -1.
         -6    1    1    2    0  502  0.13474908090E+02 -0.23565502801E+02 -0.19352803305E+03  0.26033441118E+03  0.17200000000E+03 0.  1.
</event>
<event>
 4    1 -0.6483339E-004  0.1967592E+03  0.7818608E-02  0.1152502E+00
         -5   -1    0    0    0  501 -0.00000000000E+00  0.00000000000E+00  0.42137046754E+03  0.42139667882E+03  0.47000000000E+01 0.  1.
          5   -1    0    0  501    0  0.00000000000E+00 -0.00000000000E+00 -0.97661999799E+02  0.97775028533E+02  0.47000000000E+01 0. -1.
          6    1    1    2  502    0 -0.72498725315E+02  0.62242383343E+02  0.98235999170E+02  0.21991928290E+03  0.17200000000E+03 0.  1.
         -6    1    1    2    0  502  0.72498725315E+02 -0.62242383343E+02  0.22547246857E+03  0.29925242445E+03  0.17200000000E+03 0.  1.
</event>
<event>
 4    1 -0.6483339E-004  0.3000536E+03  0.7818608E-02  0.1085214E+00
          5   -1    0    0  501    0  0.00000000000E+00  0.00000000000E+00  0.45657026279E+02  0.45898301152E+02  0.47000000000E+01 0. -1.
         -5   -1    0    0    0  501 -0.00000000000E+00 -0.00000000000E+00 -0.24101926462E+04  0.24101972288E+04  0.47000000000E+01 0.  1.
          6    1    1    2  502    0  0.31699430624E+02  0.24380995584E+03 -0.65538156214E+03  0.72080312184E+03  0.17200000000E+03 0. -1.
         -6    1    1    2    0  502 -0.31699430624E+02 -0.24380995584E+03 -0.17091540578E+04  0.17352924082E+04  0.17200000000E+03 0.  1.
</event>
<event>
 4    1 -0.6483339E-004  0.3321659E+03  0.7818608E-02  0.1070183E+00
          5   -1    0    0  501    0  0.00000000000E+00  0.00000000000E+00  0.31772102905E+03  0.31775579035E+03  0.47000000000E+01 0. -1.
         -5   -1    0    0    0  501 -0.00000000000E+00 -0.00000000000E+00 -0.44094473108E+03  0.44096977886E+03  0.47000000000E+01 0.  1.
          6    1    1    2  502    0  0.60637182914E+02  0.27762082810E+03  0.11329625552E+03  0.35095617057E+03  0.17200000000E+03 0. -1.
         -6    1    1    2    0  502 -0.60637182914E+02 -0.27762082810E+03 -0.23651995755E+03  0.40776939864E+03  0.17200000000E+03 0.  1.
</event>
<event>
 4    1 -0.6483339E-004  0.2212799E+03  0.7818608E-02  0.1132932E+00
          5   -1    0    0  501    0  0.00000000000E+00  0.00000000000E+00  0.12631690345E+04  0.12631777784E+04  0.47000000000E+01 0. -1.
         -5   -1    0    0    0  501 -0.00000000000E+00 -0.00000000000E+00 -0.29664750827E+03  0.29668473868E+03  0.47000000000E+01 0.  1.
          6    1    1    2  502    0  0.13641709056E+03 -0.27770286998E+02  0.12104565109E+04  0.12305160609E+04  0.17200000000E+03 0. -1.
         -6    1    1    2    0  502 -0.13641709056E+03  0.27770286998E+02 -0.24393498464E+03  0.32934645613E+03  0.17200000000E+03 0.  1.
</event>
<event>
 4    1 -0.6483339E-004  0.2672894E+03  0.7818608E-02  0.1102841E+00
         -5   -1    0    0    0  501 -0.00000000000E+00  0.00000000000E+00  0.64081691165E+03  0.64083414723E+03  0.47000000000E+01 0.  1.
          5   -1    0    0  501    0  0.00000000000E+00 -0.00000000000E+00 -0.14657679357E+03  0.14665212720E+03  0.47000000000E+01 0. -1.
          6    1    1    2  502    0 -0.55728939022E+02 -0.19686008171E+03  0.54354243166E+02  0.27275994971E+03  0.17200000000E+03 0. -1.
         -6    1    1    2    0  502  0.55728939022E+02  0.19686008171E+03  0.43988587492E+03  0.51472632473E+03  0.17200000000E+03 0.  1.
</event>
<event>
 4    1 -0.6483339E-004  0.2811069E+03  0.7818608E-02  0.1095086E+00
         -5   -1    0    0    0  501 -0.00000000000E+00  0.00000000000E+00  0.31145258256E+03  0.31148804340E+03  0.47000000000E+01 0.  1.
          5   -1    0    0  501    0  0.00000000000E+00 -0.00000000000E+00 -0.27577670737E+03  0.27581675498E+03  0.47000000000E+01 0. -1.
          6    1    1    2  502    0 -0.52976105862E+02  0.21594130000E+03 -0.65336299386E+02  0.28859997376E+03  0.17200000000E+03 0. -1.
         -6    1    1    2    0  502  0.52976105862E+02 -0.21594130000E+03  0.10101217458E+03  0.29870482462E+03  0.17200000000E+03 0.  1.
</event>
<event>
 4    1 -0.6483339E-004  0.3708422E+03  0.7818608E-02  0.1054371E+00
         -5   -1    0    0    0  501 -0.00000000000E+00  0.00000000000E+00  0.80560877233E+03  0.80562248234E+03  0.47000000000E+01 0.  1.
          5   -1    0    0  501    0  0.00000000000E+00 -0.00000000000E+00 -0.18195560619E+03  0.18201629769E+03  0.47000000000E+01 0. -1.
          6    1    1    2  502    0 -0.13652862566E+03  0.29883089980E+03  0.18881752488E+03  0.41614424182E+03  0.17200000000E+03 0. -1.
         -6    1    1    2    0  502  0.13652862566E+03 -0.29883089980E+03  0.43483564126E+03  0.57149453821E+03  0.17200000000E+03 0.  1.
</event>
<event>
 4    1 -0.6483339E-004  0.1766109E+03  0.7818608E-02  0.1171124E+00
          5   -1    0    0  501    0  0.00000000000E+00  0.00000000000E+00  0.17752810675E+03  0.17759031135E+03  0.47000000000E+01 0. -1.
         -5   -1    0    0    0  501 -0.00000000000E+00 -0.00000000000E+00 -0.21400461335E+03  0.21405621817E+03  0.47000000000E+01 0.  1.
          6    1    1    2  502    0 -0.30695783354E+02 -0.25790868902E+02  0.64722085034E+02  0.18809664624E+03  0.17200000000E+03 0. -1.
         -6    1    1    2    0  502  0.30695783354E+02  0.25790868902E+02 -0.10119859164E+03  0.20354988328E+03  0.17200000000E+03 0.  1.
</event>
<event>
 4    1 -0.6483339E-004  0.2035835E+03  0.7818608E-02  0.1146750E+00
         -5   -1    0    0    0  501 -0.00000000000E+00  0.00000000000E+00  0.49689880070E+02  0.49911663781E+02  0.47000000000E+01 0.  1.
          5   -1    0    0  501    0  0.00000000000E+00 -0.00000000000E+00 -0.15700291211E+04  0.15700361560E+04  0.47000000000E+01 0. -1.
          6    1    1    2  502    0 -0.67413095040E+02  0.85543661471E+02 -0.13154574485E+04  0.13311177792E+04  0.17200000000E+03 0. -1.
         -6    1    1    2    0  502  0.67413095040E+02 -0.85543661471E+02 -0.20488179254E+03  0.28883004054E+03  0.17200000000E+03 0.  1.
</event>
<event>
 4    1 -0.6483339E-004  0.1916559E+03  0.7818608E-02  0.1156976E+00
          5   -1    0    0  501    0  0.00000000000E+00  0.00000000000E+00  0.19223001018E+03  0.19228745881E+03  0.47000000000E+01 0. -1.
         -5   -1    0    0    0  501 -0.00000000000E+00 -0.00000000000E+00 -0.22970260308E+03  0.22975068197E+03  0.47000000000E+01 0.  1.
          6    1    1    2  502    0  0.84472320730E+02  0.35207756697E+01  0.67896251395E+02  0.20332700210E+03  0.17200000000E+03 0. -1.
         -6    1    1    2    0  502 -0.84472320730E+02 -0.35207756697E+01 -0.10536884429E+03  0.21871113867E+03  0.17200000000E+03 0.  1.
</event>
<event>
 4    1 -0.6483339E-004  0.1793707E+03  0.7818608E-02  0.1168413E+00
         -5   -1    0    0    0  501 -0.00000000000E+00  0.00000000000E+00  0.22982745582E+03  0.22987550859E+03  0.47000000000E+01 0.  1.
          5   -1    0    0  501    0  0.00000000000E+00 -0.00000000000E+00 -0.17208807661E+03  0.17215224690E+03  0.47000000000E+01 0. -1.
          6    1    1    2  502    0 -0.17596159057E+02  0.47751597601E+02 -0.58050493304E+02  0.18853036800E+03  0.17200000000E+03 0. -1.
         -6    1    1    2    0  502  0.17596159057E+02 -0.47751597601E+02  0.11578987251E+03  0.21349738748E+03  0.17200000000E+03 0.  1.
</event>
<event>
 4    1 -0.6483339E-004  0.2022343E+03  0.7818608E-02  0.1147868E+00
         -5   -1    0    0    0  501 -0.00000000000E+00  0.00000000000E+00  0.27551469651E+03  0.27555478220E+03  0.47000000000E+01 0.  1.
          5   -1    0    0  501    0  0.00000000000E+00 -0.00000000000E+00 -0.14874647280E+03  0.14882070814E+03  0.47000000000E+01 0. -1.
          6    1    1    2  502    0 -0.84175812499E+02 -0.65031809778E+02  0.52525413733E+02  0.20894406615E+03  0.17200000000E+03 0. -1.
         -6    1    1    2    0  502  0.84175812499E+02  0.65031809778E+02  0.74242809981E+02  0.21543142419E+03  0.17200000000E+03 0.  1.
</event>
<event>
 4    1 -0.6483339E-004  0.2500295E+03  0.7818608E-02  0.1113286E+00
         -5   -1    0    0    0  501 -0.00000000000E+00  0.00000000000E+00  0.45877154956E+03  0.45879562409E+03  0.47000000000E+01 0.  1.
          5   -1    0    0  501    0  0.00000000000E+00 -0.00000000000E+00 -0.16395963040E+03  0.16402698071E+03  0.47000000000E+01 0. -1.
          6    1    1    2  502    0  0.18144212926E+03 -0.30801426790E+01  0.19301680361E+02  0.25077338059E+03  0.17200000000E+03 0. -1.
         -6    1    1    2    0  502 -0.18144212926E+03  0.30801426790E+01  0.27551023880E+03  0.37204922421E+03  0.17200000000E+03 0.  1.
</event>
<event>
 4    1 -0.6483339E-004  0.2138893E+03  0.7818608E-02  0.1138523E+00
          5   -1    0    0  501    0  0.00000000000E+00  0.00000000000E+00  0.17806803475E+03  0.17813005081E+03  0.47000000000E+01 0. -1.
         -5   -1    0    0    0  501 -0.00000000000E+00 -0.00000000000E+00 -0.31450907530E+03  0.31454419157E+03  0.47000000000E+01 0.  1.
          6    1    1    2  502    0  0.12528592150E+03  0.21635325189E+02  0.37293232403E+02  0.21711617767E+03  0.17200000000E+03 0. -1.
         -6    1    1    2    0  502 -0.12528592150E+03 -0.21635325189E+02 -0.17373427295E+03  0.27555806470E+03  0.17200000000E+03 0.  1.
</event>
<event>
 4    1 -0.6483339E-004  0.3198605E+03  0.7818608E-02  0.1075714E+00
          5   -1    0    0  501    0  0.00000000000E+00  0.00000000000E+00  0.37909255176E+02  0.38199497745E+02  0.47000000000E+01 0. -1.
         -5   -1    0    0    0  501 -0.00000000000E+00 -0.00000000000E+00 -0.27787667289E+04  0.27787707037E+04  0.47000000000E+01 0.  1.
          6    1    1    2  502    0 -0.22403087158E+03  0.15012303596E+03 -0.11162317536E+04  0.11611563568E+04  0.17200000000E+03 0. -1.
         -6    1    1    2    0  502  0.22403087158E+03 -0.15012303596E+03 -0.16246257202E+04  0.16558138446E+04  0.17200000000E+03 0.  1.
</event>
<event>
 4    1 -0.6483339E-004  0.1986060E+03  0.7818608E-02  0.1150921E+00
          5   -1    0    0  501    0  0.00000000000E+00  0.00000000000E+00  0.40580802713E+03  0.40583524352E+03  0.47000000000E+01 0. -1.
         -5   -1    0    0    0  501 -0.00000000000E+00 -0.00000000000E+00 -0.24657053700E+03  0.24661532741E+03  0.47000000000E+01 0.  1.
          6    1    1    2  502    0 -0.56529028660E+02  0.81638188256E+02  0.33354840591E+03  0.38819951564E+03  0.17200000000E+03 0. -1.
         -6    1    1    2    0  502  0.56529028660E+02 -0.81638188256E+02 -0.17431091578E+03  0.26425105529E+03  0.17200000000E+03 0.  1.
</event>
<event>
 4    1 -0.6483339E-004  0.2132192E+03  0.7818608E-02  0.1139042E+00
         -5   -1    0    0    0  501 -0.00000000000E+00  0.00000000000E+00  0.25901755567E+03  0.25906019406E+03  0.47000000000E+01 0.  1.
          5   -1    0    0  501    0  0.00000000000E+00 -0.00000000000E+00 -0.29155398810E+03  0.29159186885E+03  0.47000000000E+01 0. -1.
          6    1    1    2  502    0 -0.89636347074E+02  0.88564897930E+02 -0.18999999049E+03  0.28559133784E+03  0.17200000000E+03 0. -1.
         -6    1    1    2    0  502  0.89636347074E+02 -0.88564897930E+02  0.15746355805E+03  0.26506072507E+03  0.17200000000E+03 0.  1.
</event>
<event>
 4    1 -0.6483339E-004  0.3182554E+03  0.7818608E-02  0.1076455E+00
          5   -1    0    0  501    0  0.00000000000E+00  0.00000000000E+00  0.28776273789E+04  0.28776312171E+04  0.47000000000E+01 0. -1.
         -5   -1    0    0    0  501 -0.00000000000E+00 -0.00000000000E+00 -0.41601552857E+02  0.41866205943E+02  0.47000000000E+01 0.  1.
          6    1    1    2  502    0  0.80413684593E+02  0.25541371269E+03  0.19958379784E+04  0.20210531318E+04  0.17200000000E+03 0. -1.
         -6    1    1    2    0  502 -0.80413684593E+02 -0.25541371269E+03  0.84018784764E+03  0.89844429133E+03  0.17200000000E+03 0.  1.
</event>
<event>
 4    1 -0.6483339E-004  0.1797133E+03  0.7818608E-02  0.1168081E+00
         -5   -1    0    0    0  501 -0.00000000000E+00  0.00000000000E+00  0.48779300089E+03  0.48781564317E+03  0.47000000000E+01 0.  1.
          5   -1    0    0  501    0  0.00000000000E+00 -0.00000000000E+00 -0.84397291463E+02  0.84528059284E+02  0.47000000000E+01 0. -1.
          6    1    1    2  502    0  0.36580343757E+02 -0.37077786038E+02  0.68595918902E+02  0.19235977713E+03  0.17200000000E+03 0. -1.
         -6    1    1    2    0  502 -0.36580343757E+02  0.37077786038E+02  0.33479979052E+03  0.37998392532E+03  0.17200000000E+03 0.  1.
</event>
<event>
 4    1 -0.6483339E-004  0.2023434E+03  0.7818608E-02  0.1147777E+00
         -5   -1    0    0    0  501 -0.00000000000E+00  0.00000000000E+00  0.34384671938E+03  0.34387883975E+03  0.47000000000E+01 0.  1.
          5   -1    0    0  501    0  0.00000000000E+00 -0.00000000000E+00 -0.23142789119E+03  0.23147561172E+03  0.47000000000E+01 0. -1.
          6    1    1    2  502    0 -0.18971399433E+02 -0.10487587319E+03 -0.14426548410E+03  0.24850632321E+03  0.17200000000E+03 0. -1.
         -6    1    1    2    0  502  0.18971399433E+02  0.10487587319E+03  0.25668431229E+03  0.32684812826E+03  0.17200000000E+03 0.  1.
</event>
<event>
 4    1 -0.6483339E-004  0.2305956E+03  0.7818608E-02  0.1126221E+00
         -5   -1    0    0    0  501 -0.00000000000E+00  0.00000000000E+00  0.29182076651E+03  0.29185861263E+03  0.47000000000E+01 0.  1.
          5   -1    0    0  501    0  0.00000000000E+00 -0.00000000000E+00 -0.20381625855E+03  0.20387044231E+03  0.47000000000E+01 0. -1.
          6    1    1    2  502    0  0.11697113156E+03 -0.99539413321E+02 -0.36819448705E+02  0.23351662088E+03  0.17200000000E+03 0. -1.
         -6    1    1    2    0  502 -0.11697113156E+03  0.99539413321E+02  0.12482395667E+03  0.26221243407E+03  0.17200000000E+03 0.  1.
</event>
<event>
 4    1 -0.6483339E-004  0.2823397E+03  0.7818608E-02  0.1094418E+00
          5   -1    0    0  501    0  0.00000000000E+00  0.00000000000E+00  0.36568963168E+03  0.36571983364E+03  0.47000000000E+01 0. -1.
         -5   -1    0    0    0  501 -0.00000000000E+00 -0.00000000000E+00 -0.26171545704E+03  0.26175765596E+03  0.47000000000E+01 0.  1.
          6    1    1    2  502    0 -0.18032039604E+03 -0.13272629466E+03  0.18030594561E+03  0.33500141573E+03  0.17200000000E+03 0. -1.
         -6    1    1    2    0  502  0.18032039604E+03  0.13272629466E+03 -0.76331770967E+02  0.29247607386E+03  0.17200000000E+03 0.  1.
</event>
<event>
 4    1 -0.6483339E-004  0.3055656E+03  0.7818608E-02  0.1082491E+00
          5   -1    0    0  501    0  0.00000000000E+00  0.00000000000E+00  0.69796050403E+03  0.69797632852E+03  0.47000000000E+01 0. -1.
         -5   -1    0    0    0  501 -0.00000000000E+00 -0.00000000000E+00 -0.16198536326E+03  0.16205353409E+03  0.47000000000E+01 0.  1.
          6    1    1    2  502    0  0.21409621024E+03  0.13397450010E+03  0.44757296656E+03  0.54193349620E+03  0.17200000000E+03 0. -1.
         -6    1    1    2    0  502 -0.21409621024E+03 -0.13397450010E+03  0.88402174209E+02  0.31809636641E+03  0.17200000000E+03 0.  1.
</event>
<event>
 4    1 -0.6483339E-004  0.1928245E+03  0.7818608E-02  0.1155938E+00
          5   -1    0    0  501    0  0.00000000000E+00  0.00000000000E+00  0.58674857071E+03  0.58676739449E+03  0.47000000000E+01 0. -1.
         -5   -1    0    0    0  501 -0.00000000000E+00 -0.00000000000E+00 -0.74957224203E+02  0.75104430363E+02  0.47000000000E+01 0.  1.
          6    1    1    2  502    0 -0.75801830759E+02  0.43027346586E+02  0.12532829814E+03  0.22997489519E+03  0.17200000000E+03 0.  1.
         -6    1    1    2    0  502  0.75801830759E+02 -0.43027346586E+02  0.38646304836E+03  0.43189692966E+03  0.17200000000E+03 0. -1.
</event>
<event>
 4    1 -0.6483339E-004  0.2806326E+03  0.7818608E-02  0.1095344E+00
          5   -1    0    0  501    0  0.00000000000E+00  0.00000000000E+00  0.12749137691E+03  0.12757798081E+03  0.47000000000E+01 0. -1.
         -5   -1    0    0    0  501 -0.00000000000E+00 -0.00000000000E+00 -0.70780439749E+03  0.70782000191E+03  0.47000000000E+01 0.  1.
          6    1    1    2  502    0 -0.12439849924E+03 -0.18356384293E+03 -0.14090409007E+03  0.31402011662E+03  0.17200000000E+03 0. -1.
         -6    1    1    2    0  502  0.12439849924E+03  0.18356384293E+03 -0.43940893050E+03  0.52137786609E+03  0.17200000000E+03 0. -1.
</event>
<event>
 4    1 -0.6483339E-004  0.1929757E+03  0.7818608E-02  0.1155805E+00
         -5   -1    0    0    0  501 -0.00000000000E+00  0.00000000000E+00  0.95168633834E+03  0.95169794398E+03  0.47000000000E+01 0.  1.
          5   -1    0    0  501    0  0.00000000000E+00 -0.00000000000E+00 -0.39672367160E+02  0.39949802454E+02  0.47000000000E+01 0. -1.
          6    1    1    2  502    0  0.72420810381E+02 -0.49100241906E+02  0.52140535089E+03  0.55597045557E+03  0.17200000000E+03 0.  1.
         -6    1    1    2    0  502 -0.72420810381E+02  0.49100241906E+02  0.39060862029E+03  0.43567729087E+03  0.17200000000E+03 0. -1.
</event>
<event>
 4    1 -0.6483339E-004  0.2020910E+03  0.7818608E-02  0.1147987E+00
         -5   -1    0    0    0  501 -0.00000000000E+00  0.00000000000E+00  0.45377145178E+03  0.45379579158E+03  0.47000000000E+01 0.  1.
          5   -1    0    0  501    0  0.00000000000E+00 -0.00000000000E+00 -0.98550147532E+02  0.98662158798E+02  0.47000000000E+01 0. -1.
          6    1    1    2  502    0  0.32110823402E+02  0.10112195906E+03  0.95901870709E+02  0.22369158319E+03  0.17200000000E+03 0. -1.
         -6    1    1    2    0  502 -0.32110823402E+02 -0.10112195906E+03  0.25931943354E+03  0.32876636719E+03  0.17200000000E+03 0.  1.
</event>
<event>
 4    1 -0.6483339E-004  0.1939278E+03  0.7818608E-02  0.1154966E+00
         -5   -1    0    0    0  501 -0.00000000000E+00  0.00000000000E+00  0.65252986031E+03  0.65254678652E+03  0.47000000000E+01 0.  1.
          5   -1    0    0  501    0  0.00000000000E+00 -0.00000000000E+00 -0.63188684295E+02  0.63363237156E+02  0.47000000000E+01 0. -1.
          6    1    1    2  502    0 -0.81824323595E+02  0.36452257034E+02  0.18763197795E+03  0.26984022333E+03  0.17200000000E+03 0. -1.
         -6    1    1    2    0  502  0.81824323595E+02 -0.36452257034E+02  0.40170919807E+03  0.44606980035E+03  0.17200000000E+03 0.  1.
</event>
<event>
 4    1 -0.6483339E-004  0.2236292E+03  0.7818608E-02  0.1131206E+00
          5   -1    0    0  501    0  0.00000000000E+00  0.00000000000E+00  0.97215552913E+03  0.97216689041E+03  0.47000000000E+01 0. -1.
         -5   -1    0    0    0  501 -0.00000000000E+00 -0.00000000000E+00 -0.78299187419E+02  0.78440122071E+02  0.47000000000E+01 0.  1.
          6    1    1    2  502    0 -0.13386197927E+03 -0.50069799593E+02  0.13896774298E+03  0.26329080484E+03  0.17200000000E+03 0.  1.
         -6    1    1    2    0  502  0.13386197927E+03  0.50069799593E+02  0.75488859872E+03  0.78731620764E+03  0.17200000000E+03 0. -1.
</event>
<event>
 4    1 -0.6483339E-004  0.5064212E+03  0.7818608E-02  0.1012116E+00
          5   -1    0    0  501    0  0.00000000000E+00  0.00000000000E+00  0.12791847042E+03  0.12800478536E+03  0.47000000000E+01 0. -1.
         -5   -1    0    0    0  501 -0.00000000000E+00 -0.00000000000E+00 -0.21901021559E+04  0.21901071991E+04  0.47000000000E+01 0.  1.
          6    1    1    2  502    0 -0.46703860669E+03 -0.93559521704E+02 -0.69334335352E+03  0.85859620900E+03  0.17200000000E+03 0. -1.
         -6    1    1    2    0  502  0.46703860669E+03  0.93559521704E+02 -0.13688403320E+04  0.14595157754E+04  0.17200000000E+03 0.  1.
</event>
<event>
 4    1 -0.6483339E-004  0.1976388E+03  0.7818608E-02  0.1151747E+00
          5   -1    0    0  501    0  0.00000000000E+00  0.00000000000E+00  0.16157187894E+03  0.16164022415E+03  0.47000000000E+01 0. -1.
         -5   -1    0    0    0  501 -0.00000000000E+00 -0.00000000000E+00 -0.31429938399E+03  0.31433452368E+03  0.47000000000E+01 0.  1.
          6    1    1    2  502    0  0.15934240669E+02 -0.96037478428E+02  0.38063426770E+02  0.20127076724E+03  0.17200000000E+03 0. -1.
         -6    1    1    2    0  502 -0.15934240669E+02  0.96037478428E+02 -0.19079093182E+03  0.27470398060E+03  0.17200000000E+03 0.  1.
</event>
<event>
 4    1 -0.6483339E-004  0.1787945E+03  0.7818608E-02  0.1168975E+00
          5   -1    0    0  501    0  0.00000000000E+00  0.00000000000E+00  0.46966851840E+02  0.47201431882E+02  0.47000000000E+01 0. -1.
         -5   -1    0    0    0  501 -0.00000000000E+00 -0.00000000000E+00 -0.88825605171E+03  0.88826848610E+03  0.47000000000E+01 0.  1.
          6    1    1    2  502    0 -0.35329556323E+02 -0.33694335621E+02 -0.64779782004E+03  0.67201897402E+03  0.17200000000E+03 0.  1.
         -6    1    1    2    0  502  0.35329556323E+02  0.33694335621E+02 -0.19349137983E+03  0.26345094396E+03  0.17200000000E+03 0. -1.
</event>
<event>
 4    1 -0.6483339E-004  0.1880436E+03  0.7818608E-02  0.1160238E+00
          5   -1    0    0  501    0  0.00000000000E+00  0.00000000000E+00  0.30173270366E+02  0.30537128951E+02  0.47000000000E+01 0. -1.
         -5   -1    0    0    0  501 -0.00000000000E+00 -0.00000000000E+00 -0.13263697354E+04  0.13263780626E+04  0.47000000000E+01 0.  1.
          6    1    1    2  502    0 -0.57694774371E+02 -0.49474413923E+02 -0.41113205558E+03  0.45209509149E+03  0.17200000000E+03 0. -1.
         -6    1    1    2    0  502  0.57694774371E+02  0.49474413923E+02 -0.88506440947E+03  0.90482010009E+03  0.17200000000E+03 0. -1.
</event>
<event>
 4    1 -0.6483339E-004  0.3105627E+03  0.7818608E-02  0.1080076E+00
          5   -1    0    0  501    0  0.00000000000E+00  0.00000000000E+00  0.51110145333E+03  0.51112306306E+03  0.47000000000E+01 0. -1.
         -5   -1    0    0    0  501 -0.00000000000E+00 -0.00000000000E+00 -0.19082634573E+03  0.19088421681E+03  0.47000000000E+01 0.  1.
          6    1    1    2  502    0  0.24236544121E+03 -0.90134140235E+02  0.19758364621E+03  0.36808758140E+03  0.17200000000E+03 0. -1.
         -6    1    1    2    0  502 -0.24236544121E+03  0.90134140235E+02  0.12269146139E+03  0.33391969847E+03  0.17200000000E+03 0.  1.
</event>
<event>
 4    1 -0.6483339E-004  0.2300376E+03  0.7818608E-02  0.1126613E+00
         -5   -1    0    0    0  501 -0.00000000000E+00  0.00000000000E+00  0.70747139989E+02  0.70903087497E+02  0.47000000000E+01 0.  1.
          5   -1    0    0  501    0  0.00000000000E+00 -0.00000000000E+00 -0.74784077022E+03  0.74785553927E+03  0.47000000000E+01 0. -1.
          6    1    1    2  502    0 -0.98224768026E+02 -0.11698372860E+03 -0.32474931103E+03  0.39796911039E+03  0.17200000000E+03 0. -1.
         -6    1    1    2    0  502  0.98224768026E+02  0.11698372860E+03 -0.35234431921E+03  0.42078951637E+03  0.17200000000E+03 0.  1.
</event>
<event>
 4    1 -0.6483339E-004  0.2373979E+03  0.7818608E-02  0.1121539E+00
         -5   -1    0    0    0  501 -0.00000000000E+00  0.00000000000E+00  0.86792954569E+03  0.86794227128E+03  0.47000000000E+01 0.  1.
          5   -1    0    0  501    0  0.00000000000E+00 -0.00000000000E+00 -0.46070934077E+03  0.46073331405E+03  0.47000000000E+01 0. -1.
          6    1    1    2  502    0  0.16360987229E+03 -0.23573315978E+01 -0.41213679833E+03  0.47562010876E+03  0.17200000000E+03 0. -1.
         -6    1    1    2    0  502 -0.16360987229E+03  0.23573315978E+01  0.81935700325E+03  0.85305547656E+03  0.17200000000E+03 0.  1.
</event>
<event>
 4    1 -0.6483339E-004  0.1904522E+03  0.7818608E-02  0.1158054E+00
          5   -1    0    0  501    0  0.00000000000E+00  0.00000000000E+00  0.10404478554E+03  0.10415088765E+03  0.47000000000E+01 0. -1.
         -5   -1    0    0    0  501 -0.00000000000E+00 -0.00000000000E+00 -0.60716875094E+03  0.60718694166E+03  0.47000000000E+01 0.  1.
          6    1    1    2  502    0 -0.25256193268E+02 -0.77782912614E+02 -0.19359235419E+02  0.19143363547E+03  0.17200000000E+03 0. -1.
         -6    1    1    2    0  502  0.25256193268E+02  0.77782912614E+02 -0.48376472998E+03  0.51990419383E+03  0.17200000000E+03 0.  1.
</event>
<event>
 4    1 -0.6483339E-004  0.2212875E+03  0.7818608E-02  0.1132927E+00
          5   -1    0    0  501    0  0.00000000000E+00  0.00000000000E+00  0.22087057757E+04  0.22087107764E+04  0.47000000000E+01 0. -1.
         -5   -1    0    0    0  501 -0.00000000000E+00 -0.00000000000E+00 -0.25082660368E+02  0.25519205535E+02  0.47000000000E+01 0.  1.
          6    1    1    2  502    0 -0.82435367830E+02  0.11219878405E+03  0.14850317628E+04  0.15014284843E+04  0.17200000000E+03 0. -1.
         -6    1    1    2    0  502  0.82435367830E+02 -0.11219878405E+03  0.69859135255E+03  0.73280149759E+03  0.17200000000E+03 0.  1.
</event>
<event>
 4    1 -0.6483339E-004  0.1849385E+03  0.7818608E-02  0.1163107E+00
          5   -1    0    0  501    0  0.00000000000E+00  0.00000000000E+00  0.25292536077E+03  0.25296902601E+03  0.47000000000E+01 0. -1.
         -5   -1    0    0    0  501 -0.00000000000E+00 -0.00000000000E+00 -0.15661178888E+03  0.15668229771E+03  0.47000000000E+01 0.  1.
          6    1    1    2  502    0  0.52078833369E+01 -0.67757722889E+02 -0.27672587743E+02  0.18699733467E+03  0.17200000000E+03 0.  1.
         -6    1    1    2    0  502 -0.52078833369E+01  0.67757722889E+02  0.12398615963E+03  0.22265398905E+03  0.17200000000E+03 0. -1.
</event>
<event>
 4    1 -0.6483339E-004  0.1825295E+03  0.7818608E-02  0.1165377E+00
         -5   -1    0    0    0  501 -0.00000000000E+00  0.00000000000E+00  0.83418340504E+03  0.83419664543E+03  0.47000000000E+01 0.  1.
          5   -1    0    0  501    0  0.00000000000E+00 -0.00000000000E+00 -0.89764538777E+02  0.89887498696E+02  0.47000000000E+01 0. -1.
          6    1    1    2  502    0 -0.45797624286E+02  0.40442515189E+02  0.27860884057E+02  0.18464357093E+03  0.17200000000E+03 0. -1.
         -6    1    1    2    0  502  0.45797624286E+02 -0.40442515189E+02  0.71655798221E+03  0.73944057320E+03  0.17200000000E+03 0.  1.
</event>
<event>
 4    1 -0.6483339E-004  0.2176012E+03  0.7818608E-02  0.1135684E+00
          5   -1    0    0  501    0  0.00000000000E+00  0.00000000000E+00  0.27778545907E+03  0.27782521713E+03  0.47000000000E+01 0. -1.
         -5   -1    0    0    0  501 -0.00000000000E+00 -0.00000000000E+00 -0.41207351965E+03  0.41210032225E+03  0.47000000000E+01 0.  1.
          6    1    1    2  502    0  0.12926860859E+03  0.32494657883E+02  0.19702356985E+03  0.29354482287E+03  0.17200000000E+03 0. -1.
         -6    1    1    2    0  502 -0.12926860859E+03 -0.32494657883E+02 -0.33131163043E+03  0.39638071651E+03  0.17200000000E+03 0.  1.
</event>
<event>
 4    1 -0.6483339E-004  0.2567695E+03  0.7818608E-02  0.1109100E+00
          5   -1    0    0  501    0  0.00000000000E+00  0.00000000000E+00  0.13430768899E+03  0.13438990037E+03  0.47000000000E+01 0. -1.
         -5   -1    0    0    0  501 -0.00000000000E+00 -0.00000000000E+00 -0.49434436079E+03  0.49436670301E+03  0.47000000000E+01 0.  1.
          6    1    1    2  502    0  0.17743902967E+03  0.69727685561E+02 -0.15283742829E+03  0.29881405400E+03  0.17200000000E+03 0.  1.
         -6    1    1    2    0  502 -0.17743902967E+03 -0.69727685561E+02 -0.20719924350E+03  0.32994254938E+03  0.17200000000E+03 0.  1.
</event>
<event>
 4    1 -0.6483339E-004  0.3903917E+03  0.7818608E-02  0.1047158E+00
          5   -1    0    0  501    0  0.00000000000E+00  0.00000000000E+00  0.51365682402E+03  0.51367832625E+03  0.47000000000E+01 0. -1.
         -5   -1    0    0    0  501 -0.00000000000E+00 -0.00000000000E+00 -0.49527233844E+03  0.49529463880E+03  0.47000000000E+01 0.  1.
          6    1    1    2  502    0  0.87826079729E+02  0.33927604401E+03  0.32864543274E+03  0.51030723567E+03  0.17200000000E+03 0. -1.
         -6    1    1    2    0  502 -0.87826079729E+02 -0.33927604401E+03 -0.31026094716E+03  0.49866572937E+03  0.17200000000E+03 0.  1.
</event>
<event>
 4    1 -0.6483339E-004  0.6022363E+03  0.7818608E-02  0.9900777E-01
         -5   -1    0    0    0  501 -0.00000000000E+00  0.00000000000E+00  0.38137912265E+03  0.38140808224E+03  0.47000000000E+01 0.  1.
          5   -1    0    0  501    0  0.00000000000E+00 -0.00000000000E+00 -0.11143892000E+04  0.11143991113E+04  0.47000000000E+01 0. -1.
          6    1    1    2  502    0 -0.51131167100E+03  0.26770302142E+03 -0.65294642870E+03  0.88827223943E+03  0.17200000000E+03 0. -1.
         -6    1    1    2    0  502  0.51131167100E+03 -0.26770302142E+03 -0.80063648693E+02  0.60753495407E+03  0.17200000000E+03 0.  1.
</event>
<event>
 4    1 -0.6483339E-004  0.2162098E+03  0.7818608E-02  0.1136741E+00
          5   -1    0    0  501    0  0.00000000000E+00  0.00000000000E+00  0.23482970087E+03  0.23487673024E+03  0.47000000000E+01 0. -1.
         -5   -1    0    0    0  501 -0.00000000000E+00 -0.00000000000E+00 -0.19897433494E+03  0.19902983687E+03  0.47000000000E+01 0.  1.
          6    1    1    2  502    0 -0.66676274293E+02 -0.11276939215E+03  0.17109980844E+02  0.21688571369E+03  0.17200000000E+03 0.  1.
         -6    1    1    2    0  502  0.66676274293E+02  0.11276939215E+03  0.18745385084E+02  0.21702085342E+03  0.17200000000E+03 0.  1.
</event>
<event>
 4    1 -0.6483339E-004  0.2290091E+03  0.7818608E-02  0.1127339E+00
         -5   -1    0    0    0  501 -0.00000000000E+00  0.00000000000E+00  0.10704569882E+04  0.10704673062E+04  0.47000000000E+01 0.  1.
          5   -1    0    0  501    0  0.00000000000E+00 -0.00000000000E+00 -0.49548994241E+02  0.49771405750E+02  0.47000000000E+01 0. -1.
          6    1    1    2  502    0  0.12650824205E+03  0.82806009140E+02  0.57587034312E+03  0.61973528425E+03  0.17200000000E+03 0.  1.
         -6    1    1    2    0  502 -0.12650824205E+03 -0.82806009140E+02  0.44503765087E+03  0.50050342771E+03  0.17200000000E+03 0.  1.
</event>
<event>
 4    1 -0.6483339E-004  0.1799611E+03  0.7818608E-02  0.1167841E+00
         -5   -1    0    0    0  501 -0.00000000000E+00  0.00000000000E+00  0.19724008671E+03  0.19729607650E+03  0.47000000000E+01 0.  1.
          5   -1    0    0  501    0  0.00000000000E+00 -0.00000000000E+00 -0.16824368601E+03  0.16830932203E+03  0.47000000000E+01 0. -1.
          6    1    1    2  502    0  0.52300176957E+02 -0.81670518094E+01  0.43235185595E+02  0.18508184816E+03  0.17200000000E+03 0.  1.
         -6    1    1    2    0  502 -0.52300176957E+02  0.81670518094E+01 -0.14238784900E+02  0.18052355038E+03  0.17200000000E+03 0. -1.
</event>
<event>
 4    1 -0.6483339E-004  0.1848201E+03  0.7818608E-02  0.1163218E+00
          5   -1    0    0  501    0  0.00000000000E+00  0.00000000000E+00  0.38852670163E+03  0.38855512850E+03  0.47000000000E+01 0. -1.
         -5   -1    0    0    0  501 -0.00000000000E+00 -0.00000000000E+00 -0.92838788885E+02  0.92957682424E+02  0.47000000000E+01 0.  1.
          6    1    1    2  502    0  0.19282574572E+02 -0.64827752999E+02  0.20375685189E+03  0.27509145739E+03  0.17200000000E+03 0.  1.
         -6    1    1    2    0  502 -0.19282574572E+02  0.64827752999E+02  0.91931060864E+02  0.20642135353E+03  0.17200000000E+03 0.  1.
</event>
<event>
 4    1 -0.6483339E-004  0.1816585E+03  0.7818608E-02  0.1166208E+00
         -5   -1    0    0    0  501 -0.00000000000E+00  0.00000000000E+00  0.32292307441E+03  0.32295727579E+03  0.47000000000E+01 0.  1.
          5   -1    0    0  501    0  0.00000000000E+00 -0.00000000000E+00 -0.10281817846E+03  0.10292554504E+03  0.47000000000E+01 0. -1.
          6    1    1    2  502    0  0.54366124833E+02 -0.21450722099E+02  0.92233947537E+02  0.20373244731E+03  0.17200000000E+03 0. -1.
         -6    1    1    2    0  502 -0.54366124833E+02  0.21450722099E+02  0.12787094842E+03  0.22215037352E+03  0.17200000000E+03 0. -1.
</event>
<event>
 4    1 -0.6483339E-004  0.2227300E+03  0.7818608E-02  0.1131864E+00
          5   -1    0    0  501    0  0.00000000000E+00  0.00000000000E+00  0.55669820425E+02  0.55867870070E+02  0.47000000000E+01 0. -1.
         -5   -1    0    0    0  501 -0.00000000000E+00 -0.00000000000E+00 -0.92111151857E+03  0.92112350944E+03  0.47000000000E+01 0.  1.
          6    1    1    2  502    0  0.99419987643E+01 -0.14115885992E+03 -0.34200204959E+03  0.40813486618E+03  0.17200000000E+03 0. -1.
         -6    1    1    2    0  502 -0.99419987643E+01  0.14115885992E+03 -0.52343964856E+03  0.56885651333E+03  0.17200000000E+03 0.  1.
</event>
<event>
 4    1 -0.6483339E-004  0.1849825E+03  0.7818608E-02  0.1163066E+00
          5   -1    0    0  501    0  0.00000000000E+00  0.00000000000E+00  0.15372692627E+03  0.15379875767E+03  0.47000000000E+01 0. -1.
         -5   -1    0    0    0  501 -0.00000000000E+00 -0.00000000000E+00 -0.28617105175E+03  0.28620964495E+03  0.47000000000E+01 0.  1.
          6    1    1    2  502    0 -0.68021748319E+02  0.27515722625E+01  0.37576433870E+02  0.18876047726E+03  0.17200000000E+03 0. -1.
         -6    1    1    2    0  502  0.68021748319E+02 -0.27515722625E+01 -0.17002055935E+03  0.25124792536E+03  0.17200000000E+03 0.  1.
</event>
<event>
 4    1 -0.6483339E-004  0.1841212E+03  0.7818608E-02  0.1163873E+00
          5   -1    0    0  501    0  0.00000000000E+00  0.00000000000E+00  0.95998820950E+02  0.96113805584E+02  0.47000000000E+01 0. -1.
         -5   -1    0    0    0  501 -0.00000000000E+00 -0.00000000000E+00 -0.35963511800E+03  0.35966582837E+03  0.47000000000E+01 0.  1.
          6    1    1    2  502    0 -0.53668253866E+02  0.37899149817E+02 -0.16324303372E+03  0.24606689149E+03  0.17200000000E+03 0. -1.
         -6    1    1    2    0  502  0.53668253866E+02 -0.37899149817E+02 -0.10039326333E+03  0.20971274246E+03  0.17200000000E+03 0. -1.
</event>
<event>
 4    1 -0.6483339E-004  0.2121281E+03  0.7818608E-02  0.1139892E+00
          5   -1    0    0  501    0  0.00000000000E+00  0.00000000000E+00  0.35352124039E+03  0.35355248183E+03  0.47000000000E+01 0. -1.
         -5   -1    0    0    0  501 -0.00000000000E+00 -0.00000000000E+00 -0.12721371198E+03  0.12730050477E+03  0.47000000000E+01 0.  1.
          6    1    1    2  502    0  0.97899223909E+02 -0.76354897600E+02  0.11125866776E+03  0.23953458953E+03  0.17200000000E+03 0.  1.
         -6    1    1    2    0  502 -0.97899223909E+02  0.76354897600E+02  0.11504886065E+03  0.24131839707E+03  0.17200000000E+03 0.  1.
</event>
<event>
 4    1 -0.6483339E-004  0.2981680E+03  0.7818608E-02  0.1086160E+00
         -5   -1    0    0    0  501 -0.00000000000E+00  0.00000000000E+00  0.60834870423E+02  0.61016157363E+02  0.47000000000E+01 0.  1.
          5   -1    0    0  501    0  0.00000000000E+00 -0.00000000000E+00 -0.14752008541E+04  0.14752083412E+04  0.47000000000E+01 0. -1.
          6    1    1    2  502    0 -0.23582421756E+03 -0.60885825085E+02 -0.78756886895E+03  0.84212164716E+03  0.17200000000E+03 0. -1.
         -6    1    1    2    0  502  0.23582421756E+03  0.60885825085E+02 -0.62679711470E+03  0.69410285137E+03  0.17200000000E+03 0.  1.
</event>
<event>
 4    1 -0.6483339E-004  0.2763606E+03  0.7818608E-02  0.1097693E+00
          5   -1    0    0  501    0  0.00000000000E+00  0.00000000000E+00  0.10321533658E+04  0.10321640667E+04  0.47000000000E+01 0. -1.
         -5   -1    0    0    0  501 -0.00000000000E+00 -0.00000000000E+00 -0.18256480091E+03  0.18262528995E+03  0.47000000000E+01 0.  1.
          6    1    1    2  502    0 -0.16167058702E+03 -0.14371433299E+03  0.89322891025E+03  0.93500431781E+03  0.17200000000E+03 0. -1.
         -6    1    1    2    0  502  0.16167058702E+03  0.14371433299E+03 -0.43640345340E+02  0.27978503884E+03  0.17200000000E+03 0.  1.
</event>
<event>
 4    1 -0.6483339E-004  0.2145934E+03  0.7818608E-02  0.1137979E+00
         -5   -1    0    0    0  501 -0.00000000000E+00  0.00000000000E+00  0.55842537377E+03  0.55844515225E+03  0.47000000000E+01 0.  1.
          5   -1    0    0  501    0  0.00000000000E+00 -0.00000000000E+00 -0.99522180280E+02  0.99633098756E+02  0.47000000000E+01 0. -1.
          6    1    1    2  502    0 -0.86756088312E+02  0.94549926348E+02  0.92975428035E+02  0.23386906091E+03  0.17200000000E+03 0. -1.
         -6    1    1    2    0  502  0.86756088312E+02 -0.94549926348E+02  0.36592776545E+03  0.42420919009E+03  0.17200000000E+03 0.  1.
</event>
<event>
 4    1 -0.6483339E-004  0.2367849E+03  0.7818608E-02  0.1121953E+00
         -5   -1    0    0    0  501 -0.00000000000E+00  0.00000000000E+00  0.35643311749E+03  0.35646410373E+03  0.47000000000E+01 0.  1.
          5   -1    0    0  501    0  0.00000000000E+00 -0.00000000000E+00 -0.22121230186E+03  0.22126222564E+03  0.47000000000E+01 0. -1.
          6    1    1    2  502    0  0.15729341740E+03 -0.41735562616E+02 -0.87712910567E+02  0.25250867514E+03  0.17200000000E+03 0. -1.
         -6    1    1    2    0  502 -0.15729341740E+03  0.41735562616E+02  0.22293372620E+03  0.32521765422E+03  0.17200000000E+03 0.  1.
</event>
<event>
 4    1 -0.6483339E-004  0.2741778E+03  0.7818608E-02  0.1098912E+00
         -5   -1    0    0    0  501 -0.00000000000E+00  0.00000000000E+00  0.30904993515E+03  0.30908567164E+03  0.47000000000E+01 0.  1.
          5   -1    0    0  501    0  0.00000000000E+00 -0.00000000000E+00 -0.24384415357E+03  0.24388944469E+03  0.47000000000E+01 0. -1.
          6    1    1    2  502    0 -0.11406389288E+03  0.18049625789E+03  0.47159570413E+02  0.27820405434E+03  0.17200000000E+03 0. -1.
         -6    1    1    2    0  502  0.11406389288E+03 -0.18049625789E+03  0.18046211159E+02  0.27477106199E+03  0.17200000000E+03 0.  1.
</event>
<event>
 4    1 -0.6483339E-004  0.2385222E+03  0.7818608E-02  0.1120781E+00
         -5   -1    0    0    0  501 -0.00000000000E+00  0.00000000000E+00  0.71593057609E+02  0.71747166479E+02  0.47000000000E+01 0.  1.
          5   -1    0    0  501    0  0.00000000000E+00 -0.00000000000E+00 -0.28702848488E+04  0.28702886969E+04  0.47000000000E+01 0. -1.
          6    1    1    2  502    0  0.38566955847E+02  0.16069043333E+03 -0.26505344767E+04  0.26612451668E+04  0.17200000000E+03 0. -1.
         -6    1    1    2    0  502 -0.38566955847E+02 -0.16069043333E+03 -0.14815731452E+03  0.28079069660E+03  0.17200000000E+03 0.  1.
</event>
<event>
 4    1 -0.6483339E-004  0.3094174E+03  0.7818608E-02  0.1080625E+00
          5   -1    0    0  501    0  0.00000000000E+00  0.00000000000E+00  0.23236913909E+03  0.23241666636E+03  0.47000000000E+01 0. -1.
         -5   -1    0    0    0  501 -0.00000000000E+00 -0.00000000000E+00 -0.41701158202E+03  0.41703806725E+03  0.47000000000E+01 0.  1.
          6    1    1    2  502    0  0.22073325429E+03 -0.13203015589E+03 -0.56407799396E+02  0.31451704476E+03  0.17200000000E+03 0. -1.
         -6    1    1    2    0  502 -0.22073325429E+03  0.13203015589E+03 -0.12823464353E+03  0.33493768885E+03  0.17200000000E+03 0.  1.
</event>
<event>
 4    1 -0.6483339E-004  0.2117303E+03  0.7818608E-02  0.1140203E+00
         -5   -1    0    0    0  501 -0.00000000000E+00  0.00000000000E+00  0.70108356780E+03  0.70109932181E+03  0.47000000000E+01 0.  1.
          5   -1    0    0  501    0  0.00000000000E+00 -0.00000000000E+00 -0.63935429944E+02  0.64107949601E+02  0.47000000000E+01 0. -1.
          6    1    1    2  502    0  0.90692364708E+02 -0.83789082827E+02  0.30386132681E+03  0.37035310360E+03  0.17200000000E+03 0. -1.
         -6    1    1    2    0  502 -0.90692364708E+02  0.83789082827E+02  0.33328681106E+03  0.39485416781E+03  0.17200000000E+03 0.  1.
</event>
<event>
 4    1 -0.6483339E-004  0.4145873E+03  0.7818608E-02  0.1038842E+00
         -5   -1    0    0    0  501 -0.00000000000E+00  0.00000000000E+00  0.30378755990E+03  0.30382391537E+03  0.47000000000E+01 0.  1.
          5   -1    0    0  501    0  0.00000000000E+00 -0.00000000000E+00 -0.71895518129E+03  0.71897054370E+03  0.47000000000E+01 0. -1.
          6    1    1    2  502    0 -0.35685019848E+03 -0.12229704898E+03 -0.44367084552E+03  0.60722850024E+03  0.17200000000E+03 0. -1.
         -6    1    1    2    0  502  0.35685019848E+03  0.12229704898E+03  0.28503224132E+02  0.41556595882E+03  0.17200000000E+03 0.  1.
</event>
<event>
 4    1 -0.6483339E-004  0.1850278E+03  0.7818608E-02  0.1163024E+00
         -5   -1    0    0    0  501 -0.00000000000E+00  0.00000000000E+00  0.10297281724E+04  0.10297388985E+04  0.47000000000E+01 0.  1.
          5   -1    0    0  501    0  0.00000000000E+00 -0.00000000000E+00 -0.69150046227E+02  0.69309587311E+02  0.47000000000E+01 0. -1.
          6    1    1    2  502    0 -0.64859568233E+02 -0.21083970403E+02  0.84083646232E+02  0.20323719385E+03  0.17200000000E+03 0. -1.
         -6    1    1    2    0  502  0.64859568233E+02  0.21083970403E+02  0.87649447994E+03  0.89581129194E+03  0.17200000000E+03 0.  1.
</event>
<event>
 4    1 -0.6483339E-004  0.6816528E+03  0.7818608E-02  0.9749133E-01
         -5   -1    0    0    0  501 -0.00000000000E+00  0.00000000000E+00  0.66458509969E+03  0.66460171887E+03  0.47000000000E+01 0.  1.
          5   -1    0    0  501    0  0.00000000000E+00 -0.00000000000E+00 -0.70549009831E+03  0.70550575392E+03  0.47000000000E+01 0. -1.
          6    1    1    2  502    0 -0.27758670959E+03 -0.59834116850E+03 -0.85518275967E+02  0.68699629605E+03  0.17200000000E+03 0. -1.
         -6    1    1    2    0  502  0.27758670959E+03  0.59834116850E+03  0.44613277347E+02  0.68311117674E+03  0.17200000000E+03 0.  1.
</event>
<event>
 4    1 -0.6483339E-004  0.1771124E+03  0.7818608E-02  0.1170627E+00
         -5   -1    0    0    0  501 -0.00000000000E+00  0.00000000000E+00  0.81414938812E+02  0.81550489035E+02  0.47000000000E+01 0.  1.
          5   -1    0    0  501    0  0.00000000000E+00 -0.00000000000E+00 -0.42722838947E+03  0.42725424137E+03  0.47000000000E+01 0. -1.
          6    1    1    2  502    0 -0.12858823212E+01  0.42227353577E+02 -0.25303918631E+03  0.30886507198E+03  0.17200000000E+03 0. -1.
         -6    1    1    2    0  502  0.12858823212E+01 -0.42227353577E+02 -0.92774264345E+02  0.19993965842E+03  0.17200000000E+03 0.  1.
</event>
<event>
 4    1 -0.6483339E-004  0.1820339E+03  0.7818608E-02  0.1165849E+00
          5   -1    0    0  501    0  0.00000000000E+00  0.00000000000E+00  0.11909450613E+03  0.11918721152E+03  0.47000000000E+01 0. -1.
         -5   -1    0    0    0  501 -0.00000000000E+00 -0.00000000000E+00 -0.28895218786E+03  0.28899040965E+03  0.47000000000E+01 0.  1.
          6    1    1    2  502    0  0.10752848115E+02  0.58623667863E+02 -0.12462606111E+03  0.22060828018E+03  0.17200000000E+03 0.  1.
         -6    1    1    2    0  502 -0.10752848115E+02 -0.58623667863E+02 -0.45231620627E+02  0.18756934099E+03  0.17200000000E+03 0.  1.
</event>
<event>
 4    1 -0.6483339E-004  0.2366472E+03  0.7818608E-02  0.1122047E+00
          5   -1    0    0  501    0  0.00000000000E+00  0.00000000000E+00  0.62706925896E+03  0.62708687240E+03  0.47000000000E+01 0. -1.
         -5   -1    0    0    0  501 -0.00000000000E+00 -0.00000000000E+00 -0.10451018705E+03  0.10461581714E+03  0.47000000000E+01 0.  1.
          6    1    1    2  502    0 -0.79985016969E+02  0.14149307362E+03  0.40109746726E+03  0.46570491844E+03  0.17200000000E+03 0. -1.
         -6    1    1    2    0  502  0.79985016969E+02 -0.14149307362E+03  0.12146160466E+03  0.26599777110E+03  0.17200000000E+03 0.  1.
</event>
<event>
 4    1 -0.6483339E-004  0.1885213E+03  0.7818608E-02  0.1159802E+00
          5   -1    0    0  501    0  0.00000000000E+00  0.00000000000E+00  0.70508966207E+03  0.70510532658E+03  0.47000000000E+01 0. -1.
         -5   -1    0    0    0  501 -0.00000000000E+00 -0.00000000000E+00 -0.50318710956E+02  0.50537735132E+02  0.47000000000E+01 0.  1.
          6    1    1    2  502    0 -0.25103021262E+02  0.72980352827E+02  0.31686719703E+03  0.36870735567E+03  0.17200000000E+03 0.  1.
         -6    1    1    2    0  502  0.25103021262E+02 -0.72980352827E+02  0.33790375409E+03  0.38693570603E+03  0.17200000000E+03 0.  1.
</event>
<event>
 4    1 -0.6483339E-004  0.1792230E+03  0.7818608E-02  0.1168557E+00
          5   -1    0    0  501    0  0.00000000000E+00  0.00000000000E+00  0.22243116275E+03  0.22248081302E+03  0.47000000000E+01 0. -1.
         -5   -1    0    0    0  501 -0.00000000000E+00 -0.00000000000E+00 -0.14468807560E+03  0.14476439211E+03  0.47000000000E+01 0.  1.
          6    1    1    2  502    0  0.45817755790E+02  0.20918920977E+02  0.48326790652E+02  0.18562420827E+03  0.17200000000E+03 0. -1.
         -6    1    1    2    0  502 -0.45817755790E+02 -0.20918920977E+02  0.29416296493E+02  0.18162099686E+03  0.17200000000E+03 0.  1.
</event>
<event>
 4    1 -0.6483339E-004  0.2648248E+03  0.7818608E-02  0.1104279E+00
         -5   -1    0    0    0  501 -0.00000000000E+00  0.00000000000E+00  0.20317073204E+03  0.20322508791E+03  0.47000000000E+01 0.  1.
          5   -1    0    0  501    0  0.00000000000E+00 -0.00000000000E+00 -0.38530718316E+03  0.38533584754E+03  0.47000000000E+01 0. -1.
          6    1    1    2  502    0  0.18562054874E+03  0.78058765876E+02  0.40172991295E+01  0.26485523921E+03  0.17200000000E+03 0.  1.
         -6    1    1    2    0  502 -0.18562054874E+03 -0.78058765876E+02 -0.18615375026E+03  0.32370569624E+03  0.17200000000E+03 0. -1.
</event>
<event>
 4    1 -0.6483339E-004  0.3395826E+03  0.7818608E-02  0.1066974E+00
          5   -1    0    0  501    0  0.00000000000E+00  0.00000000000E+00  0.11626077846E+04  0.11626172847E+04  0.47000000000E+01 0. -1.
         -5   -1    0    0    0  501 -0.00000000000E+00 -0.00000000000E+00 -0.16899470904E+03  0.16906005348E+03  0.47000000000E+01 0.  1.
          6    1    1    2  502    0 -0.25490916631E+03 -0.14406123384E+03  0.92482291354E+03  0.98519731200E+03  0.17200000000E+03 0. -1.
         -6    1    1    2    0  502  0.25490916631E+03  0.14406123384E+03  0.68790161977E+02  0.34648002619E+03  0.17200000000E+03 0.  1.
</event>
<event>
 4    1 -0.6483339E-004  0.1997983E+03  0.7818608E-02  0.1149909E+00
         -5   -1    0    0    0  501 -0.00000000000E+00  0.00000000000E+00  0.15671672791E+03  0.15678718955E+03  0.47000000000E+01 0.  1.
          5   -1    0    0  501    0  0.00000000000E+00 -0.00000000000E+00 -0.31242728048E+03  0.31246263071E+03  0.47000000000E+01 0. -1.
          6    1    1    2  502    0 -0.98604608803E+02 -0.24748187105E+02 -0.17880128764E+03  0.26812169272E+03  0.17200000000E+03 0. -1.
         -6    1    1    2    0  502  0.98604608803E+02  0.24748187105E+02  0.23090735075E+02  0.20112812754E+03  0.17200000000E+03 0.  1.
</event>
<event>
 4    1 -0.6483339E-004  0.1935053E+03  0.7818608E-02  0.1155337E+00
          5   -1    0    0  501    0  0.00000000000E+00  0.00000000000E+00  0.12700317315E+03  0.12709010972E+03  0.47000000000E+01 0. -1.
         -5   -1    0    0    0  501 -0.00000000000E+00 -0.00000000000E+00 -0.29654666694E+03  0.29658391000E+03  0.47000000000E+01 0.  1.
          6    1    1    2  502    0  0.44802705919E+02 -0.76504910787E+02 -0.67713497649E+02  0.20501073532E+03  0.17200000000E+03 0.  1.
         -6    1    1    2    0  502 -0.44802705919E+02  0.76504910787E+02 -0.10182999614E+03  0.21866328440E+03  0.17200000000E+03 0. -1.
</event>
<event>
 4    1 -0.6483339E-004  0.1958957E+03  0.7818608E-02  0.1153249E+00
         -5   -1    0    0    0  501 -0.00000000000E+00  0.00000000000E+00  0.20917881681E+03  0.20923161186E+03  0.47000000000E+01 0.  1.
          5   -1    0    0  501    0  0.00000000000E+00 -0.00000000000E+00 -0.23247935498E+03  0.23252685972E+03  0.47000000000E+01 0. -1.
          6    1    1    2  502    0 -0.49780810600E+02 -0.79454463826E+02 -0.11316596819E+03  0.22623367849E+03  0.17200000000E+03 0. -1.
         -6    1    1    2    0  502  0.49780810600E+02  0.79454463826E+02  0.89865430015E+02  0.21552479309E+03  0.17200000000E+03 0.  1.
</event>
<event>
 4    1 -0.6483339E-004  0.4277496E+03  0.7818608E-02  0.1034573E+00
         -5   -1    0    0    0  501 -0.00000000000E+00  0.00000000000E+00  0.70294292149E+03  0.70295863382E+03  0.47000000000E+01 0.  1.
          5   -1    0    0  501    0  0.00000000000E+00 -0.00000000000E+00 -0.39009559269E+03  0.39012390524E+03  0.47000000000E+01 0. -1.
          6    1    1    2  502    0  0.24933001572E+03  0.30202696413E+03 -0.15887389064E+03  0.45630105953E+03  0.17200000000E+03 0. -1.
         -6    1    1    2    0  502 -0.24933001572E+03 -0.30202696413E+03  0.47172121944E+03  0.63678147953E+03  0.17200000000E+03 0.  1.
</event>
<event>
 4    1 -0.6483339E-004  0.3666373E+03  0.7818608E-02  0.1055986E+00
          5   -1    0    0  501    0  0.00000000000E+00  0.00000000000E+00  0.61341733249E+03  0.61343533791E+03  0.47000000000E+01 0. -1.
         -5   -1    0    0    0  501 -0.00000000000E+00 -0.00000000000E+00 -0.25040473039E+03  0.25044883510E+03  0.47000000000E+01 0.  1.
          6    1    1    2  502    0 -0.18724204150E+03  0.26415772671E+03  0.33423227560E+03  0.49611903888E+03  0.17200000000E+03 0. -1.
         -6    1    1    2    0  502  0.18724204150E+03 -0.26415772671E+03  0.28780326494E+02  0.36776513413E+03  0.17200000000E+03 0.  1.
</event>
<event>
 4    1 -0.6483339E-004  0.2777743E+03  0.7818608E-02  0.1096911E+00
         -5   -1    0    0    0  501 -0.00000000000E+00  0.00000000000E+00  0.65356197221E+03  0.65357887169E+03  0.47000000000E+01 0.  1.
          5   -1    0    0  501    0  0.00000000000E+00 -0.00000000000E+00 -0.11810017589E+03  0.11819366119E+03  0.47000000000E+01 0. -1.
          6    1    1    2  502    0  0.15829530339E+03  0.15005726822E+03  0.25613064714E+03  0.37783792190E+03  0.17200000000E+03 0.  1.
         -6    1    1    2    0  502 -0.15829530339E+03 -0.15005726822E+03  0.27933114918E+03  0.39393461098E+03  0.17200000000E+03 0.  1.
</event>
<event>
 4    1 -0.6483339E-004  0.2878854E+03  0.7818608E-02  0.1091458E+00
          5   -1    0    0  501    0  0.00000000000E+00  0.00000000000E+00  0.67872488085E+02  0.68035025089E+02  0.47000000000E+01 0. -1.
         -5   -1    0    0    0  501 -0.00000000000E+00 -0.00000000000E+00 -0.19263336534E+04  0.19263393871E+04  0.47000000000E+01 0.  1.
          6    1    1    2  502    0 -0.94250517152E+02 -0.21073876001E+03 -0.32519316611E+03  0.43431391900E+03  0.17200000000E+03 0. -1.
         -6    1    1    2    0  502  0.94250517152E+02  0.21073876001E+03 -0.15332679992E+04  0.15600604932E+04  0.17200000000E+03 0.  1.
</event>
<event>
 4    1 -0.6483339E-004  0.2047221E+03  0.7818608E-02  0.1145815E+00
         -5   -1    0    0    0  501 -0.00000000000E+00  0.00000000000E+00  0.66154081202E+03  0.66155750768E+03  0.47000000000E+01 0.  1.
          5   -1    0    0  501    0  0.00000000000E+00 -0.00000000000E+00 -0.63671296828E+02  0.63844530226E+02  0.47000000000E+01 0. -1.
          6    1    1    2  502    0 -0.58640553006E+02  0.94278382956E+02  0.32842493129E+03  0.38700654186E+03  0.17200000000E+03 0.  1.
         -6    1    1    2    0  502  0.58640553006E+02 -0.94278382956E+02  0.26944458390E+03  0.33839549605E+03  0.17200000000E+03 0. -1.
</event>
<event>
 4    1 -0.6483339E-004  0.2315889E+03  0.7818608E-02  0.1125526E+00
         -5   -1    0    0    0  501 -0.00000000000E+00  0.00000000000E+00  0.14042229354E+03  0.14050092712E+03  0.47000000000E+01 0.  1.
          5   -1    0    0  501    0  0.00000000000E+00 -0.00000000000E+00 -0.68397549218E+03  0.68399164023E+03  0.47000000000E+01 0. -1.
          6    1    1    2  502    0 -0.92527389813E+02 -0.12445117425E+03 -0.54579165772E+03  0.59289286239E+03  0.17200000000E+03 0. -1.
         -6    1    1    2    0  502  0.92527389813E+02  0.12445117425E+03  0.22384590781E+01  0.23159970496E+03  0.17200000000E+03 0.  1.
</event>
<event>
 4    1 -0.6483339E-004  0.1836384E+03  0.7818608E-02  0.1164328E+00
         -5   -1    0    0    0  501 -0.00000000000E+00  0.00000000000E+00  0.77398647586E+02  0.77541219027E+02  0.47000000000E+01 0.  1.
          5   -1    0    0  501    0  0.00000000000E+00 -0.00000000000E+00 -0.51361529845E+03  0.51363680242E+03  0.47000000000E+01 0. -1.
          6    1    1    2  502    0  0.58633015749E+02  0.26480823277E+02 -0.33362326385E+03  0.38082482419E+03  0.17200000000E+03 0.  1.
         -6    1    1    2    0  502 -0.58633015749E+02 -0.26480823277E+02 -0.10259338701E+03  0.21035319726E+03  0.17200000000E+03 0.  1.
</event>
<event>
 4    1 -0.6483339E-004  0.1803572E+03  0.7818608E-02  0.1167458E+00
          5   -1    0    0  501    0  0.00000000000E+00  0.00000000000E+00  0.52024535423E+03  0.52026658416E+03  0.47000000000E+01 0. -1.
         -5   -1    0    0    0  501 -0.00000000000E+00 -0.00000000000E+00 -0.70205319777E+02  0.70362468156E+02  0.47000000000E+01 0.  1.
          6    1    1    2  502    0 -0.45522624966E+02  0.29536700049E+02  0.12677748352E+03  0.22045692632E+03  0.17200000000E+03 0.  1.
         -6    1    1    2    0  502  0.45522624966E+02 -0.29536700049E+02  0.32326255094E+03  0.37017212601E+03  0.17200000000E+03 0. -1.
</event>
<event>
 4    1 -0.6483339E-004  0.2413693E+03  0.7818608E-02  0.1118884E+00
          5   -1    0    0  501    0  0.00000000000E+00  0.00000000000E+00  0.37295141137E+03  0.37298102531E+03  0.47000000000E+01 0. -1.
         -5   -1    0    0    0  501 -0.00000000000E+00 -0.00000000000E+00 -0.28735527591E+03  0.28739371008E+03  0.47000000000E+01 0.  1.
          6    1    1    2  502    0 -0.13458836060E+03  0.10276736274E+03  0.26588778057E+03  0.35910370301E+03  0.17200000000E+03 0. -1.
         -6    1    1    2    0  502  0.13458836060E+03 -0.10276736274E+03 -0.18029164512E+03  0.30127103238E+03  0.17200000000E+03 0.  1.
</event>
<event>
 4    1 -0.6483339E-004  0.2720141E+03  0.7818608E-02  0.1100132E+00
         -5   -1    0    0    0  501 -0.00000000000E+00  0.00000000000E+00  0.11308027353E+03  0.11317790536E+03  0.47000000000E+01 0.  1.
          5   -1    0    0  501    0  0.00000000000E+00 -0.00000000000E+00 -0.17310366616E+04  0.17310430422E+04  0.47000000000E+01 0. -1.
          6    1    1    2  502    0 -0.92497117162E+01  0.21052815875E+03 -0.15363281382E+04  0.15602230004E+04  0.17200000000E+03 0. -1.
         -6    1    1    2    0  502  0.92497117162E+01 -0.21052815875E+03 -0.81628249880E+02  0.28399794712E+03  0.17200000000E+03 0.  1.
</event>
<event>
 4    1 -0.6483339E-004  0.2550623E+03  0.7818608E-02  0.1110147E+00
          5   -1    0    0  501    0  0.00000000000E+00  0.00000000000E+00  0.37103292736E+02  0.37399790532E+02  0.47000000000E+01 0. -1.
         -5   -1    0    0    0  501 -0.00000000000E+00 -0.00000000000E+00 -0.18952926850E+04  0.18952985125E+04  0.47000000000E+01 0.  1.
          6    1    1    2  502    0  0.18320986941E+03 -0.43668397864E+02 -0.65800845604E+03  0.70571376170E+03  0.17200000000E+03 0. -1.
         -6    1    1    2    0  502 -0.18320986941E+03  0.43668397864E+02 -0.12001809362E+04  0.12269845414E+04  0.17200000000E+03 0.  1.
</event>
<event>
 4    1 -0.6483339E-004  0.1970568E+03  0.7818608E-02  0.1152246E+00
         -5   -1    0    0    0  501 -0.00000000000E+00  0.00000000000E+00  0.62203379146E+03  0.62205154747E+03  0.47000000000E+01 0.  1.
          5   -1    0    0  501    0  0.00000000000E+00 -0.00000000000E+00 -0.62628986108E+02  0.62805094546E+02  0.47000000000E+01 0. -1.
          6    1    1    2  502    0 -0.27651183916E+02 -0.92101992991E+02  0.25566109567E+03  0.32279089350E+03  0.17200000000E+03 0. -1.
         -6    1    1    2    0  502  0.27651183916E+02  0.92101992991E+02  0.30374370968E+03  0.36206574852E+03  0.17200000000E+03 0. -1.
</event>
<event>
 4    1 -0.6483339E-004  0.1986536E+03  0.7818608E-02  0.1150880E+00
          5   -1    0    0  501    0  0.00000000000E+00  0.00000000000E+00  0.12260309848E+03  0.12269315285E+03  0.47000000000E+01 0. -1.
         -5   -1    0    0    0  501 -0.00000000000E+00 -0.00000000000E+00 -0.51141335062E+03  0.51143494718E+03  0.47000000000E+01 0.  1.
          6    1    1    2  502    0 -0.70897593582E+02 -0.69661872164E+02 -0.12910165322E+01  0.19865777592E+03  0.17200000000E+03 0. -1.
         -6    1    1    2    0  502  0.70897593582E+02  0.69661872164E+02 -0.38751923561E+03  0.43547032411E+03  0.17200000000E+03 0.  1.
</event>
<event>
 4    1 -0.6483339E-004  0.1939474E+03  0.7818608E-02  0.1154948E+00
          5   -1    0    0  501    0  0.00000000000E+00  0.00000000000E+00  0.11913781397E+04  0.11913874104E+04  0.47000000000E+01 0. -1.
         -5   -1    0    0    0  501 -0.00000000000E+00 -0.00000000000E+00 -0.48957525993E+02  0.49182612287E+02  0.47000000000E+01 0.  1.
          6    1    1    2  502    0  0.62479480841E+02 -0.64248860344E+02  0.94166819756E+03  0.96143361491E+03  0.17200000000E+03 0. -1.
         -6    1    1    2    0  502 -0.62479480841E+02  0.64248860344E+02  0.20075241615E+03  0.27913640782E+03  0.17200000000E+03 0.  1.
</event>
<event>
 4    1 -0.6483339E-004  0.3153186E+03  0.7818608E-02  0.1077824E+00
         -5   -1    0    0    0  501 -0.00000000000E+00  0.00000000000E+00  0.11194018894E+03  0.11203881426E+03  0.47000000000E+01 0.  1.
          5   -1    0    0  501    0  0.00000000000E+00 -0.00000000000E+00 -0.88841029947E+03  0.88842273170E+03  0.47000000000E+01 0. -1.
          6    1    1    2  502    0 -0.25876604183E+03 -0.53683759360E+02 -0.40229046961E+03  0.51113934730E+03  0.17200000000E+03 0. -1.
         -6    1    1    2    0  502  0.25876604183E+03  0.53683759360E+02 -0.37417964092E+03  0.48932219866E+03  0.17200000000E+03 0.  1.
</event>
<event>
 4    1 -0.6483339E-004  0.3108021E+03  0.7818608E-02  0.1079962E+00
         -5   -1    0    0    0  501 -0.00000000000E+00  0.00000000000E+00  0.46371094869E+02  0.46608673435E+02  0.47000000000E+01 0.  1.
          5   -1    0    0  501    0  0.00000000000E+00 -0.00000000000E+00 -0.22309246652E+04  0.22309296160E+04  0.47000000000E+01 0. -1.
          6    1    1    2  502    0 -0.18250839374E+03 -0.18358825801E+03 -0.13908106462E+04  0.14251148079E+04  0.17200000000E+03 0. -1.
         -6    1    1    2    0  502  0.18250839374E+03  0.18358825801E+03 -0.79374292411E+03  0.85242348151E+03  0.17200000000E+03 0.  1.
</event>
<event>
 4    1 -0.6483339E-004  0.1925586E+03  0.7818608E-02  0.1156174E+00
         -5   -1    0    0    0  501 -0.00000000000E+00  0.00000000000E+00  0.16463009371E+03  0.16469716984E+03  0.47000000000E+01 0.  1.
          5   -1    0    0  501    0  0.00000000000E+00 -0.00000000000E+00 -0.31659586685E+03  0.31663075167E+03  0.47000000000E+01 0. -1.
          6    1    1    2  502    0 -0.14532348369E+02 -0.85344114627E+02 -0.20534708459E+03  0.28150707309E+03  0.17200000000E+03 0. -1.
         -6    1    1    2    0  502  0.14532348369E+02  0.85344114627E+02  0.53381311453E+02  0.19982084842E+03  0.17200000000E+03 0.  1.
</event>
<event>
 4    1 -0.6483339E-004  0.1991646E+03  0.7818608E-02  0.1150446E+00
          5   -1    0    0  501    0  0.00000000000E+00  0.00000000000E+00  0.44851744507E+03  0.44854206997E+03  0.47000000000E+01 0. -1.
         -5   -1    0    0    0  501 -0.00000000000E+00 -0.00000000000E+00 -0.93858999423E+02  0.93976602262E+02  0.47000000000E+01 0.  1.
          6    1    1    2  502    0  0.96999939071E+02  0.25952741399E+02  0.24299778682E+03  0.31418856975E+03  0.17200000000E+03 0. -1.
         -6    1    1    2    0  502 -0.96999939071E+02 -0.25952741399E+02  0.11166065883E+03  0.22833010247E+03  0.17200000000E+03 0.  1.
</event>
<event>
 4    1 -0.6483339E-004  0.3175953E+03  0.7818608E-02  0.1076761E+00
          5   -1    0    0  501    0  0.00000000000E+00  0.00000000000E+00  0.22062084974E+04  0.22062135037E+04  0.47000000000E+01 0. -1.
         -5   -1    0    0    0  501 -0.00000000000E+00 -0.00000000000E+00 -0.60718888788E+02  0.60900520980E+02  0.47000000000E+01 0.  1.
          6    1    1    2  502    0  0.14221492287E+03 -0.22595950227E+03  0.16374986306E+04  0.16680133531E+04  0.17200000000E+03 0. -1.
         -6    1    1    2    0  502 -0.14221492287E+03  0.22595950227E+03  0.50799097803E+03  0.59910067160E+03  0.17200000000E+03 0.  1.
</event>
<event>
 4    1 -0.6483339E-004  0.2203224E+03  0.7818608E-02  0.1133643E+00
          5   -1    0    0  501    0  0.00000000000E+00  0.00000000000E+00  0.92565440130E+02  0.92684684314E+02  0.47000000000E+01 0. -1.
         -5   -1    0    0    0  501 -0.00000000000E+00 -0.00000000000E+00 -0.64622023522E+03  0.64623732669E+03  0.47000000000E+01 0.  1.
          6    1    1    2  502    0 -0.69042193898E+02  0.11912654750E+03 -0.43752548687E+03  0.48986785006E+03  0.17200000000E+03 0.  1.
         -6    1    1    2    0  502  0.69042193898E+02 -0.11912654750E+03 -0.11612930822E+03  0.24905416095E+03  0.17200000000E+03 0. -1.
</event>
<event>
 4    1 -0.6483339E-004  0.3067434E+03  0.7818608E-02  0.1081917E+00
          5   -1    0    0  501    0  0.00000000000E+00  0.00000000000E+00  0.92283388065E+03  0.92284584914E+03  0.47000000000E+01 0. -1.
         -5   -1    0    0    0  501 -0.00000000000E+00 -0.00000000000E+00 -0.11631581689E+03  0.11641073515E+03  0.47000000000E+01 0.  1.
          6    1    1    2  502    0 -0.24832323419E+03  0.53320310910E+02  0.58615081765E+03  0.66156198895E+03  0.17200000000E+03 0. -1.
         -6    1    1    2    0  502  0.24832323419E+03 -0.53320310910E+02  0.22036724611E+03  0.37769459534E+03  0.17200000000E+03 0.  1.
</event>
<event>
 4    1 -0.6483339E-004  0.1836522E+03  0.7818608E-02  0.1164314E+00
          5   -1    0    0  501    0  0.00000000000E+00  0.00000000000E+00  0.66602896785E+02  0.66768524472E+02  0.47000000000E+01 0. -1.
         -5   -1    0    0    0  501 -0.00000000000E+00 -0.00000000000E+00 -0.51883547895E+03  0.51885676657E+03  0.47000000000E+01 0.  1.
          6    1    1    2  502    0 -0.59029609337E+02  0.25683529441E+02 -0.27287360246E+03  0.32891965795E+03  0.17200000000E+03 0.  1.
         -6    1    1    2    0  502  0.59029609337E+02 -0.25683529441E+02 -0.17935897970E+03  0.25670563309E+03  0.17200000000E+03 0.  1.
</event>
<event>
 4    1 -0.6483339E-004  0.2453354E+03  0.7818608E-02  0.1116289E+00
         -5   -1    0    0    0  501 -0.00000000000E+00  0.00000000000E+00  0.45494456190E+03  0.45496883893E+03  0.47000000000E+01 0.  1.
          5   -1    0    0  501    0  0.00000000000E+00 -0.00000000000E+00 -0.13845642527E+03  0.13853617470E+03  0.47000000000E+01 0. -1.
          6    1    1    2  502    0 -0.15348093982E+03 -0.83958673824E+02  0.95343670349E+02  0.26321070129E+03  0.17200000000E+03 0. -1.
         -6    1    1    2    0  502  0.15348093982E+03  0.83958673824E+02  0.22114446627E+03  0.33029431234E+03  0.17200000000E+03 0.  1.
</event>
<event>
 4    1 -0.6483339E-004  0.2195558E+03  0.7818608E-02  0.1134215E+00
         -5   -1    0    0    0  501 -0.00000000000E+00  0.00000000000E+00  0.11911286479E+03  0.11920555591E+03  0.47000000000E+01 0.  1.
          5   -1    0    0  501    0  0.00000000000E+00 -0.00000000000E+00 -0.80538572077E+03  0.80539943458E+03  0.47000000000E+01 0. -1.
          6    1    1    2  502    0  0.13014734767E+03 -0.41017070033E+02 -0.66930317889E+03  0.70439440473E+03  0.17200000000E+03 0. -1.
         -6    1    1    2    0  502 -0.13014734767E+03  0.41017070033E+02 -0.16969677084E+02  0.22021058576E+03  0.17200000000E+03 0.  1.
</event>
<event>
 4    1 -0.6483339E-004  0.2706477E+03  0.7818608E-02  0.1100909E+00
         -5   -1    0    0    0  501 -0.00000000000E+00  0.00000000000E+00  0.19934075775E+03  0.19939615768E+03  0.47000000000E+01 0.  1.
          5   -1    0    0  501    0  0.00000000000E+00 -0.00000000000E+00 -0.10465560111E+04  0.10465665648E+04  0.47000000000E+01 0. -1.
          6    1    1    2  502    0 -0.20734546042E+03  0.25962390910E+02 -0.92546677915E+03  0.96422971589E+03  0.17200000000E+03 0. -1.
         -6    1    1    2    0  502  0.20734546042E+03 -0.25962390910E+02  0.78251525750E+02  0.28173300655E+03  0.17200000000E+03 0.  1.
</event>
<event>
 4    1 -0.6483339E-004  0.1984324E+03  0.7818608E-02  0.1151068E+00
          5   -1    0    0  501    0  0.00000000000E+00  0.00000000000E+00  0.41915214763E+03  0.41917849761E+03  0.47000000000E+01 0. -1.
         -5   -1    0    0    0  501 -0.00000000000E+00 -0.00000000000E+00 -0.13837489258E+03  0.13845468897E+03  0.47000000000E+01 0.  1.
          6    1    1    2  502    0  0.79981144786E+02  0.58261788245E+02  0.29847080534E+03  0.35841350579E+03  0.17200000000E+03 0. -1.
         -6    1    1    2    0  502 -0.79981144786E+02 -0.58261788245E+02 -0.17693550299E+02  0.19921968079E+03  0.17200000000E+03 0.  1.
</event>
<event>
 4    1 -0.6483339E-004  0.2581593E+03  0.7818608E-02  0.1108254E+00
         -5   -1    0    0    0  501 -0.00000000000E+00  0.00000000000E+00  0.37098466891E+03  0.37101443983E+03  0.47000000000E+01 0.  1.
          5   -1    0    0  501    0  0.00000000000E+00 -0.00000000000E+00 -0.24990021855E+03  0.24994441228E+03  0.47000000000E+01 0. -1.
          6    1    1    2  502    0  0.15154054077E+03  0.11873362415E+03 -0.10413012916E+03  0.27836898678E+03  0.17200000000E+03 0. -1.
         -6    1    1    2    0  502 -0.15154054077E+03 -0.11873362415E+03  0.22521457952E+03  0.34258986533E+03  0.17200000000E+03 0.  1.
</event>
<event>
 4    1 -0.6483339E-004  0.3963011E+03  0.7818608E-02  0.1045068E+00
          5   -1    0    0  501    0  0.00000000000E+00  0.00000000000E+00  0.17306165591E+04  0.17306229412E+04  0.47000000000E+01 0. -1.
         -5   -1    0    0    0  501 -0.00000000000E+00 -0.00000000000E+00 -0.13280707222E+03  0.13289021195E+03  0.47000000000E+01 0.  1.
          6    1    1    2  502    0  0.33759950955E+03 -0.11617717848E+03  0.13234439836E+04  0.13815058969E+04  0.17200000000E+03 0. -1.
         -6    1    1    2    0  502 -0.33759950955E+03  0.11617717848E+03  0.27436550334E+03  0.48200725624E+03  0.17200000000E+03 0.  1.
</event>
<event>
 4    1 -0.6483339E-004  0.2083365E+03  0.7818608E-02  0.1142890E+00
          5   -1    0    0  501    0  0.00000000000E+00  0.00000000000E+00  0.62159049332E+03  0.62160826200E+03  0.47000000000E+01 0. -1.
         -5   -1    0    0    0  501 -0.00000000000E+00 -0.00000000000E+00 -0.14491916587E+03  0.14499536074E+03  0.47000000000E+01 0.  1.
          6    1    1    2  502    0  0.32326946492E+00  0.11755845299E+03  0.51430103167E+03  0.55489606734E+03  0.17200000000E+03 0. -1.
         -6    1    1    2    0  502 -0.32326946492E+00 -0.11755845299E+03 -0.37629704222E+02  0.21170755540E+03  0.17200000000E+03 0.  1.
</event>
<event>
 4    1 -0.6483339E-004  0.1801922E+03  0.7818608E-02  0.1167617E+00
         -5   -1    0    0    0  501 -0.00000000000E+00  0.00000000000E+00  0.36115552636E+03  0.36118610745E+03  0.47000000000E+01 0.  1.
          5   -1    0    0  501    0  0.00000000000E+00 -0.00000000000E+00 -0.10937052222E+03  0.10947146263E+03  0.47000000000E+01 0. -1.
          6    1    1    2  502    0  0.53608510662E+02  0.33686584182E+01  0.26430765604E+02  0.18212030542E+03  0.17200000000E+03 0. -1.
         -6    1    1    2    0  502 -0.53608510662E+02 -0.33686584182E+01  0.22535423853E+03  0.28853726467E+03  0.17200000000E+03 0.  1.
</event>
<event>
 4    1 -0.6483339E-004  0.2507686E+03  0.7818608E-02  0.1112820E+00
         -5   -1    0    0    0  501 -0.00000000000E+00  0.00000000000E+00  0.68307529485E+03  0.68309146418E+03  0.47000000000E+01 0.  1.
          5   -1    0    0  501    0  0.00000000000E+00 -0.00000000000E+00 -0.93132162783E+02  0.93250682275E+02  0.47000000000E+01 0. -1.
          6    1    1    2  502    0 -0.54853496304E+02  0.17404594835E+03  0.33803654725E+03  0.42089619323E+03  0.17200000000E+03 0. -1.
         -6    1    1    2    0  502  0.54853496304E+02 -0.17404594835E+03  0.25190658481E+03  0.35544595322E+03  0.17200000000E+03 0.  1.
</event>
<event>
 4    1 -0.6483339E-004  0.4517732E+03  0.7818608E-02  0.1027195E+00
          5   -1    0    0  501    0  0.00000000000E+00  0.00000000000E+00  0.77255820420E+03  0.77257250072E+03  0.47000000000E+01 0. -1.
         -5   -1    0    0    0  501 -0.00000000000E+00 -0.00000000000E+00 -0.35664089540E+03  0.35667186359E+03  0.47000000000E+01 0.  1.
          6    1    1    2  502    0  0.30227185019E+03 -0.28835183881E+03  0.49547655281E+03  0.67051925308E+03  0.17200000000E+03 0. -1.
         -6    1    1    2    0  502 -0.30227185019E+03  0.28835183881E+03 -0.79559244020E+02  0.45872511123E+03  0.17200000000E+03 0.  1.
</event>
<event>
 4    1 -0.6483339E-004  0.2037777E+03  0.7818608E-02  0.1146590E+00
         -5   -1    0    0    0  501 -0.00000000000E+00  0.00000000000E+00  0.72537875862E+02  0.72689981666E+02  0.47000000000E+01 0.  1.
          5   -1    0    0  501    0  0.00000000000E+00 -0.00000000000E+00 -0.57652969849E+03  0.57654885591E+03  0.47000000000E+01 0. -1.
          6    1    1    2  502    0  0.97053803381E+02  0.50218520958E+02 -0.22229779977E+03  0.30156533683E+03  0.17200000000E+03 0. -1.
         -6    1    1    2    0  502 -0.97053803381E+02 -0.50218520958E+02 -0.28169402287E+03  0.34767350074E+03  0.17200000000E+03 0.  1.
</event>
<event>
 4    1 -0.6483339E-004  0.2018473E+03  0.7818608E-02  0.1148190E+00
         -5   -1    0    0    0  501 -0.00000000000E+00  0.00000000000E+00  0.78412766997E+02  0.78553497873E+02  0.47000000000E+01 0.  1.
          5   -1    0    0  501    0  0.00000000000E+00 -0.00000000000E+00 -0.82480171569E+03  0.82481510668E+03  0.47000000000E+01 0. -1.
          6    1    1    2  502    0 -0.10557824358E+03  0.34031840086E+01 -0.64821124993E+03  0.67891101900E+03  0.17200000000E+03 0. -1.
         -6    1    1    2    0  502  0.10557824358E+03 -0.34031840086E+01 -0.98177698758E+02  0.22445758555E+03  0.17200000000E+03 0.  1.
</event>
<event>
 4    1 -0.6483339E-004  0.3277793E+03  0.7818608E-02  0.1072124E+00
         -5   -1    0    0    0  501 -0.00000000000E+00  0.00000000000E+00  0.13104196887E+03  0.13112622776E+03  0.47000000000E+01 0.  1.
          5   -1    0    0  501    0  0.00000000000E+00 -0.00000000000E+00 -0.88828517227E+03  0.88829760625E+03  0.47000000000E+01 0. -1.
          6    1    1    2  502    0 -0.10728984041E+03 -0.25757364590E+03 -0.52042191331E+03  0.61504329991E+03  0.17200000000E+03 0. -1.
         -6    1    1    2    0  502  0.10728984041E+03  0.25757364590E+03 -0.23682129009E+03  0.40438053410E+03  0.17200000000E+03 0.  1.
</event>
<event>
 4    1 -0.6483339E-004  0.1973851E+03  0.7818608E-02  0.1151964E+00
         -5   -1    0    0    0  501 -0.00000000000E+00  0.00000000000E+00  0.21799443362E+04  0.21799494028E+04  0.47000000000E+01 0.  1.
          5   -1    0    0  501    0  0.00000000000E+00 -0.00000000000E+00 -0.40557440648E+02  0.40828862242E+02  0.47000000000E+01 0. -1.
          6    1    1    2  502    0  0.78539392033E+02 -0.56643136101E+02  0.23811985751E+03  0.30929265673E+03  0.17200000000E+03 0. -1.
         -6    1    1    2    0  502 -0.78539392033E+02  0.56643136101E+02  0.19012670380E+04  0.19114856084E+04  0.17200000000E+03 0.  1.
</event>
<event>
 4    1 -0.6483339E-004  0.1773417E+03  0.7818608E-02  0.1170401E+00
          5   -1    0    0  501    0  0.00000000000E+00  0.00000000000E+00  0.22415746169E+03  0.22420672967E+03  0.47000000000E+01 0. -1.
         -5   -1    0    0    0  501 -0.00000000000E+00 -0.00000000000E+00 -0.17529054898E+03  0.17535354733E+03  0.47000000000E+01 0.  1.
          6    1    1    2  502    0 -0.43169824631E+02  0.15643902426E+01  0.11378925139E+03  0.21070850673E+03  0.17200000000E+03 0. -1.
         -6    1    1    2    0  502  0.43169824631E+02 -0.15643902426E+01 -0.64922338680E+02  0.18885177027E+03  0.17200000000E+03 0.  1.
</event>
<event>
 4    1 -0.6483339E-004  0.1831038E+03  0.7818608E-02  0.1164833E+00
         -5   -1    0    0    0  501 -0.00000000000E+00  0.00000000000E+00  0.26879985869E+04  0.26880026959E+04  0.47000000000E+01 0.  1.
          5   -1    0    0  501    0  0.00000000000E+00 -0.00000000000E+00 -0.14515579728E+02  0.15257524532E+02  0.47000000000E+01 0. -1.
          6    1    1    2  502    0 -0.60078590944E+02 -0.18263632458E+02  0.79209699906E+03  0.81298502648E+03  0.17200000000E+03 0. -1.
         -6    1    1    2    0  502  0.60078590944E+02  0.18263632458E+02  0.18813860081E+04  0.18902751940E+04  0.17200000000E+03 0.  1.
</event>
<event>
 4    1 -0.6483339E-004  0.2649547E+03  0.7818608E-02  0.1104202E+00
          5   -1    0    0  501    0  0.00000000000E+00  0.00000000000E+00  0.33839083863E+03  0.33842347683E+03  0.47000000000E+01 0. -1.
         -5   -1    0    0    0  501 -0.00000000000E+00 -0.00000000000E+00 -0.26940278522E+03  0.26944378019E+03  0.47000000000E+01 0.  1.
          6    1    1    2  502    0  0.90249857650E+01  0.20133442819E+03  0.18029742369E+03  0.32048114349E+03  0.17200000000E+03 0. -1.
         -6    1    1    2    0  502 -0.90249857650E+01 -0.20133442819E+03 -0.11130937028E+03  0.28738611354E+03  0.17200000000E+03 0.  1.
</event>
<event>
 4    1 -0.6483339E-004  0.4458331E+03  0.7818608E-02  0.1028972E+00
         -5   -1    0    0    0  501 -0.00000000000E+00  0.00000000000E+00  0.13021250557E+04  0.13021335380E+04  0.47000000000E+01 0.  1.
          5   -1    0    0  501    0  0.00000000000E+00 -0.00000000000E+00 -0.23380108937E+03  0.23384832561E+03  0.47000000000E+01 0. -1.
          6    1    1    2  502    0 -0.41131884493E+03  0.12952345286E-02  0.81637673336E+02  0.45324596181E+03  0.17200000000E+03 0. -1.
         -6    1    1    2    0  502  0.41131884493E+03 -0.12952345286E-02  0.98668629303E+03  0.10827359018E+04  0.17200000000E+03 0.  1.
</event>
<event>
 4    1 -0.6483339E-004  0.2517031E+03  0.7818608E-02  0.1112233E+00
          5   -1    0    0  501    0  0.00000000000E+00  0.00000000000E+00  0.61954269200E+02  0.62132290092E+02  0.47000000000E+01 0. -1.
         -5   -1    0    0    0  501 -0.00000000000E+00 -0.00000000000E+00 -0.10972308883E+04  0.10972409545E+04  0.47000000000E+01 0.  1.
          6    1    1    2  502    0 -0.12609003610E+02  0.18333427280E+03 -0.36480571696E+03  0.44321287626E+03  0.17200000000E+03 0. -1.
         -6    1    1    2    0  502  0.12609003610E+02 -0.18333427280E+03 -0.67047090215E+03  0.71616036834E+03  0.17200000000E+03 0.  1.
</event>
<event>
 4    1 -0.6483339E-004  0.2260512E+03  0.7818608E-02  0.1129450E+00
          5   -1    0    0  501    0  0.00000000000E+00  0.00000000000E+00  0.33515511689E+03  0.33518807016E+03  0.47000000000E+01 0. -1.
         -5   -1    0    0    0  501 -0.00000000000E+00 -0.00000000000E+00 -0.24785522800E+03  0.24789978630E+03  0.47000000000E+01 0.  1.
          6    1    1    2  502    0  0.56364009023E+02  0.13541869214E+03  0.22455608596E+03  0.31862918799E+03  0.17200000000E+03 0. -1.
         -6    1    1    2    0  502 -0.56364009023E+02 -0.13541869214E+03 -0.13725619707E+03  0.26445866847E+03  0.17200000000E+03 0.  1.
</event>
<event>
 4    1 -0.6483339E-004  0.2046827E+03  0.7818608E-02  0.1145847E+00
         -5   -1    0    0    0  501 -0.00000000000E+00  0.00000000000E+00  0.17296674168E+03  0.17303058610E+03  0.47000000000E+01 0.  1.
          5   -1    0    0  501    0  0.00000000000E+00 -0.00000000000E+00 -0.34983187719E+03  0.34986344807E+03  0.47000000000E+01 0. -1.
          6    1    1    2  502    0 -0.53919774889E+02 -0.96972600785E+02 -0.23350897548E+03  0.31051806559E+03  0.17200000000E+03 0. -1.
         -6    1    1    2    0  502  0.53919774889E+02  0.96972600785E+02  0.56643839973E+02  0.21237596859E+03  0.17200000000E+03 0.  1.
</event>
<event>
 4    1 -0.6483339E-004  0.3373890E+03  0.7818608E-02  0.1067913E+00
          5   -1    0    0  501    0  0.00000000000E+00  0.00000000000E+00  0.17138469444E+03  0.17144912799E+03  0.47000000000E+01 0. -1.
         -5   -1    0    0    0  501 -0.00000000000E+00 -0.00000000000E+00 -0.74381272708E+03  0.74382757610E+03  0.47000000000E+01 0.  1.
          6    1    1    2  502    0  0.19651169737E+03  0.21361291015E+03 -0.43612541720E+03  0.55139523222E+03  0.17200000000E+03 0. -1.
         -6    1    1    2    0  502 -0.19651169737E+03 -0.21361291015E+03 -0.13630261544E+03  0.36388147186E+03  0.17200000000E+03 0.  1.
</event>
<event>
 4    1 -0.6483339E-004  0.2897490E+03  0.7818608E-02  0.1090480E+00
          5   -1    0    0  501    0  0.00000000000E+00  0.00000000000E+00  0.22315200309E+03  0.22320149301E+03  0.47000000000E+01 0. -1.
         -5   -1    0    0    0  501 -0.00000000000E+00 -0.00000000000E+00 -0.42248472936E+03  0.42251087150E+03  0.47000000000E+01 0.  1.
          6    1    1    2  502    0 -0.12260254392E+02 -0.23285225406E+03  0.72835194707E+01  0.28984053498E+03  0.17200000000E+03 0. -1.
         -6    1    1    2    0  502  0.12260254392E+02  0.23285225406E+03 -0.20661624573E+03  0.35587182954E+03  0.17200000000E+03 0.  1.
</event>
<event>
 4    1 -0.6483339E-004  0.2280016E+03  0.7818608E-02  0.1128054E+00
          5   -1    0    0  501    0  0.00000000000E+00  0.00000000000E+00  0.44366395511E+03  0.44368884938E+03  0.47000000000E+01 0. -1.
         -5   -1    0    0    0  501 -0.00000000000E+00 -0.00000000000E+00 -0.11874551280E+03  0.11883849044E+03  0.47000000000E+01 0.  1.
          6    1    1    2  502    0 -0.11623766047E+03 -0.94284257159E+02  0.19559216299E+03  0.30040141325E+03  0.17200000000E+03 0. -1.
         -6    1    1    2    0  502  0.11623766047E+03  0.94284257159E+02  0.12932627932E+03  0.26212592658E+03  0.17200000000E+03 0.  1.
</event>
<event>
 4    1 -0.6483339E-004  0.2774806E+03  0.7818608E-02  0.1097073E+00
         -5   -1    0    0    0  501 -0.00000000000E+00  0.00000000000E+00  0.34853938710E+03  0.34857107504E+03  0.47000000000E+01 0.  1.
          5   -1    0    0  501    0  0.00000000000E+00 -0.00000000000E+00 -0.22385365064E+03  0.22390298548E+03  0.47000000000E+01 0. -1.
          6    1    1    2  502    0 -0.54577333831E+02  0.21079094667E+03  0.95535645862E+02  0.29346646861E+03  0.17200000000E+03 0. -1.
         -6    1    1    2    0  502  0.54577333831E+02 -0.21079094667E+03  0.29150090591E+02  0.27900759192E+03  0.17200000000E+03 0.  1.
</event>
<event>
 4    1 -0.6483339E-004  0.1821684E+03  0.7818608E-02  0.1165721E+00
         -5   -1    0    0    0  501 -0.00000000000E+00  0.00000000000E+00  0.24400735424E+04  0.24400780689E+04  0.47000000000E+01 0.  1.
          5   -1    0    0  501    0  0.00000000000E+00 -0.00000000000E+00 -0.17748223017E+02  0.18359995105E+02  0.47000000000E+01 0. -1.
          6    1    1    2  502    0  0.49816108555E+02  0.33461495169E+02  0.60038645196E+03  0.62741470180E+03  0.17200000000E+03 0. -1.
         -6    1    1    2    0  502 -0.49816108555E+02 -0.33461495169E+02  0.18219388674E+04  0.18310233622E+04  0.17200000000E+03 0.  1.
</event>
<event>
 4    1 -0.6483339E-004  0.1879184E+03  0.7818608E-02  0.1160352E+00
         -5   -1    0    0    0  501 -0.00000000000E+00  0.00000000000E+00  0.34694490519E+02  0.35011393465E+02  0.47000000000E+01 0.  1.
          5   -1    0    0  501    0  0.00000000000E+00 -0.00000000000E+00 -0.12466684510E+04  0.12466773106E+04  0.47000000000E+01 0. -1.
          6    1    1    2  502    0  0.75518183574E+02 -0.51314545374E+01 -0.88346282182E+03  0.90322748265E+03  0.17200000000E+03 0. -1.
         -6    1    1    2    0  502 -0.75518183574E+02  0.51314545374E+01 -0.32851113866E+03  0.37846122139E+03  0.17200000000E+03 0.  1.
</event>
<event>
 4    1 -0.6483339E-004  0.3918300E+03  0.7818608E-02  0.1046646E+00
         -5   -1    0    0    0  501 -0.00000000000E+00  0.00000000000E+00  0.35017017568E+03  0.35020171606E+03  0.47000000000E+01 0.  1.
          5   -1    0    0  501    0  0.00000000000E+00 -0.00000000000E+00 -0.70695067138E+03  0.70696629464E+03  0.47000000000E+01 0. -1.
          6    1    1    2  502    0 -0.28906264871E+03  0.20097157270E+03 -0.50417511904E+03  0.63853217504E+03  0.17200000000E+03 0. -1.
         -6    1    1    2    0  502  0.28906264871E+03 -0.20097157270E+03  0.14739462333E+03  0.41863583566E+03  0.17200000000E+03 0.  1.
</event>
<event>
 4    1 -0.6483339E-004  0.2004577E+03  0.7818608E-02  0.1149353E+00
         -5   -1    0    0    0  501 -0.00000000000E+00  0.00000000000E+00  0.42934537883E+03  0.42937110327E+03  0.47000000000E+01 0.  1.
          5   -1    0    0  501    0  0.00000000000E+00 -0.00000000000E+00 -0.93550961036E+02  0.93668950623E+02  0.47000000000E+01 0. -1.
          6    1    1    2  502    0  0.59965041884E+02 -0.83686735265E+02  0.16206776948E+03  0.25777749671E+03  0.17200000000E+03 0. -1.
         -6    1    1    2    0  502 -0.59965041884E+02  0.83686735265E+02  0.17372664832E+03  0.26526255719E+03  0.17200000000E+03 0. -1.
</event>
<event>
 4    1 -0.6483339E-004  0.2594547E+03  0.7818608E-02  0.1107471E+00
          5   -1    0    0  501    0  0.00000000000E+00  0.00000000000E+00  0.87396975441E+02  0.87523261572E+02  0.47000000000E+01 0. -1.
         -5   -1    0    0    0  501 -0.00000000000E+00 -0.00000000000E+00 -0.92470944267E+03  0.92472138689E+03  0.47000000000E+01 0.  1.
          6    1    1    2  502    0 -0.19284261052E+03 -0.23334223712E+02 -0.21135265879E+03  0.33464414653E+03  0.17200000000E+03 0. -1.
         -6    1    1    2    0  502  0.19284261052E+03  0.23334223712E+02 -0.62595980844E+03  0.67760050193E+03  0.17200000000E+03 0.  1.
</event>
<event>
 4    1 -0.6483339E-004  0.1748555E+03  0.7818608E-02  0.1172877E+00
         -5   -1    0    0    0  501 -0.00000000000E+00  0.00000000000E+00  0.42242676686E+02  0.42503337911E+02  0.47000000000E+01 0.  1.
          5   -1    0    0  501    0  0.00000000000E+00 -0.00000000000E+00 -0.18733046364E+04  0.18733105324E+04  0.47000000000E+01 0. -1.
          6    1    1    2  502    0  0.28643362661E+02 -0.13038267250E+02 -0.16666648921E+04  0.16758121318E+04  0.17200000000E+03 0. -1.
         -6    1    1    2    0  502 -0.28643362661E+02  0.13038267250E+02 -0.16439706768E+03  0.24000173853E+03  0.17200000000E+03 0.  1.
</event>
<event>
 4    1 -0.6483339E-004  0.2340253E+03  0.7818608E-02  0.1123838E+00
         -5   -1    0    0    0  501 -0.00000000000E+00  0.00000000000E+00  0.30862840504E+03  0.30866419034E+03  0.47000000000E+01 0.  1.
          5   -1    0    0  501    0  0.00000000000E+00 -0.00000000000E+00 -0.26805869288E+03  0.26809989338E+03  0.47000000000E+01 0. -1.
          6    1    1    2  502    0 -0.42689296085E+02  0.15284456989E+03 -0.14741737631E+03  0.27658583005E+03  0.17200000000E+03 0. -1.
         -6    1    1    2    0  502  0.42689296085E+02 -0.15284456989E+03  0.18798708847E+03  0.30017825367E+03  0.17200000000E+03 0.  1.
</event>
<event>
 4    1 -0.6483339E-004  0.1871644E+03  0.7818608E-02  0.1161044E+00
          5   -1    0    0  501    0  0.00000000000E+00  0.00000000000E+00  0.38387112134E+03  0.38389989294E+03  0.47000000000E+01 0. -1.
         -5   -1    0    0    0  501 -0.00000000000E+00 -0.00000000000E+00 -0.13602845774E+03  0.13610962977E+03  0.47000000000E+01 0.  1.
          6    1    1    2  502    0 -0.72331979969E+02  0.14649522953E+02  0.27317125757E+03  0.33113903396E+03  0.17200000000E+03 0. -1.
         -6    1    1    2    0  502  0.72331979969E+02 -0.14649522953E+02 -0.25328593971E+02  0.18887048875E+03  0.17200000000E+03 0.  1.
</event>
<event>
 4    1 -0.6483339E-004  0.1856674E+03  0.7818608E-02  0.1162428E+00
         -5   -1    0    0    0  501 -0.00000000000E+00  0.00000000000E+00  0.12183394875E+03  0.12192457123E+03  0.47000000000E+01 0.  1.
          5   -1    0    0  501    0  0.00000000000E+00 -0.00000000000E+00 -0.28556522282E+03  0.28560389788E+03  0.47000000000E+01 0. -1.
          6    1    1    2  502    0  0.54927440245E+02 -0.43259105036E+02 -0.61567548107E+02  0.19560914304E+03  0.17200000000E+03 0. -1.
         -6    1    1    2    0  502 -0.54927440245E+02  0.43259105036E+02 -0.10216372596E+03  0.21191932607E+03  0.17200000000E+03 0.  1.
</event>
<event>
 4    1 -0.6483339E-004  0.2923780E+03  0.7818608E-02  0.1089114E+00
         -5   -1    0    0    0  501 -0.00000000000E+00  0.00000000000E+00  0.75276305561E+02  0.75422888959E+02  0.47000000000E+01 0.  1.
          5   -1    0    0  501    0  0.00000000000E+00 -0.00000000000E+00 -0.14488340363E+04  0.14488416597E+04  0.47000000000E+01 0. -1.
          6    1    1    2  502    0  0.18052275426E+03  0.15268405257E+03 -0.10418301151E+04  0.10820789590E+04  0.17200000000E+03 0. -1.
         -6    1    1    2    0  502 -0.18052275426E+03 -0.15268405257E+03 -0.33172761565E+03  0.44218558965E+03  0.17200000000E+03 0.  1.
</event>
<event>
 4    1 -0.6483339E-004  0.3530989E+03  0.7818608E-02  0.1061350E+00
         -5   -1    0    0    0  501 -0.00000000000E+00  0.00000000000E+00  0.55750607275E+03  0.55752588385E+03  0.47000000000E+01 0.  1.
          5   -1    0    0  501    0  0.00000000000E+00 -0.00000000000E+00 -0.24170883312E+03  0.24175452427E+03  0.47000000000E+01 0. -1.
          6    1    1    2  502    0 -0.24588691594E+03  0.18610327511E+03  0.48490596809E+02  0.35641288195E+03  0.17200000000E+03 0. -1.
         -6    1    1    2    0  502  0.24588691594E+03 -0.18610327511E+03  0.26730664283E+03  0.44286752617E+03  0.17200000000E+03 0.  1.
</event>
<event>
 4    1 -0.6483339E-004  0.2613511E+03  0.7818608E-02  0.1106334E+00
          5   -1    0    0  501    0  0.00000000000E+00  0.00000000000E+00  0.41167152517E+03  0.41169835394E+03  0.47000000000E+01 0. -1.
         -5   -1    0    0    0  501 -0.00000000000E+00 -0.00000000000E+00 -0.23045441189E+03  0.23050233396E+03  0.47000000000E+01 0.  1.
          6    1    1    2  502    0  0.80773801548E+01  0.19660919049E+03 -0.79366849272E+02  0.27313643957E+03  0.17200000000E+03 0.  1.
         -6    1    1    2    0  502 -0.80773801548E+01 -0.19660919049E+03  0.26058396256E+03  0.36906424833E+03  0.17200000000E+03 0. -1.
</event>
<event>
 4    1 -0.6483339E-004  0.2020644E+03  0.7818608E-02  0.1148009E+00
          5   -1    0    0  501    0  0.00000000000E+00  0.00000000000E+00  0.33713241283E+03  0.33716517284E+03  0.47000000000E+01 0. -1.
         -5   -1    0    0    0  501 -0.00000000000E+00 -0.00000000000E+00 -0.13236025633E+03  0.13244367654E+03  0.47000000000E+01 0.  1.
          6    1    1    2  502    0  0.10315918990E+03  0.24580405539E+02  0.17106717798E+03  0.26475270382E+03  0.17200000000E+03 0. -1.
         -6    1    1    2    0  502 -0.10315918990E+03 -0.24580405539E+02  0.33704978514E+02  0.20485614556E+03  0.17200000000E+03 0.  1.
</event>
<event>
 4    1 -0.6483339E-004  0.1957778E+03  0.7818608E-02  0.1153351E+00
          5   -1    0    0  501    0  0.00000000000E+00  0.00000000000E+00  0.35355157123E+03  0.35358280998E+03  0.47000000000E+01 0. -1.
         -5   -1    0    0    0  501 -0.00000000000E+00 -0.00000000000E+00 -0.14954170018E+03  0.14961554095E+03  0.47000000000E+01 0.  1.
          6    1    1    2  502    0 -0.85383055268E+02 -0.38140202224E+02  0.23404205126E+03  0.30513050144E+03  0.17200000000E+03 0. -1.
         -6    1    1    2    0  502  0.85383055268E+02  0.38140202224E+02 -0.30032180213E+02  0.19806784949E+03  0.17200000000E+03 0.  1.
</event>
<event>
 4    1 -0.6483339E-004  0.2752010E+03  0.7818608E-02  0.1098339E+00
         -5   -1    0    0    0  501 -0.00000000000E+00  0.00000000000E+00  0.65496385585E+03  0.65498071916E+03  0.47000000000E+01 0.  1.
          5   -1    0    0  501    0  0.00000000000E+00 -0.00000000000E+00 -0.15346453584E+03  0.15353649000E+03  0.47000000000E+01 0. -1.
          6    1    1    2  502    0 -0.13206843247E+03  0.16943882560E+03  0.49924654877E+02  0.27969279154E+03  0.17200000000E+03 0. -1.
         -6    1    1    2    0  502  0.13206843247E+03 -0.16943882560E+03  0.45157466514E+03  0.52882441762E+03  0.17200000000E+03 0.  1.
</event>
<event>
 4    1 -0.6483339E-004  0.2008196E+03  0.7818608E-02  0.1149049E+00
          5   -1    0    0  501    0  0.00000000000E+00  0.00000000000E+00  0.45064415988E+03  0.45066866857E+03  0.47000000000E+01 0. -1.
         -5   -1    0    0    0  501 -0.00000000000E+00 -0.00000000000E+00 -0.10077202202E+03  0.10088156632E+03  0.47000000000E+01 0.  1.
          6    1    1    2  502    0 -0.77992845078E+02 -0.68276251297E+02  0.26750358623E+03  0.33449469207E+03  0.17200000000E+03 0.  1.
         -6    1    1    2    0  502  0.77992845078E+02  0.68276251297E+02  0.82368551624E+02  0.21705554282E+03  0.17200000000E+03 0.  1.
</event>
<event>
 4    1 -0.6483339E-004  0.2518050E+03  0.7818608E-02  0.1112169E+00
         -5   -1    0    0    0  501 -0.00000000000E+00  0.00000000000E+00  0.26072764160E+03  0.26077000037E+03  0.47000000000E+01 0.  1.
          5   -1    0    0  501    0  0.00000000000E+00 -0.00000000000E+00 -0.31826034346E+03  0.31829504586E+03  0.47000000000E+01 0. -1.
          6    1    1    2  502    0  0.18295095292E+03 -0.18727581196E+02 -0.16944744533E+03  0.30350981895E+03  0.17200000000E+03 0. -1.
         -6    1    1    2    0  502 -0.18295095292E+03  0.18727581196E+02  0.11191474347E+03  0.27555522727E+03  0.17200000000E+03 0.  1.
</event>
<event>
 4    1 -0.6483339E-004  0.5451983E+03  0.7818608E-02  0.1002611E+00
         -5   -1    0    0    0  501 -0.00000000000E+00  0.00000000000E+00  0.23439817906E+03  0.23444529500E+03  0.47000000000E+01 0.  1.
          5   -1    0    0  501    0  0.00000000000E+00 -0.00000000000E+00 -0.13402870114E+04  0.13402952522E+04  0.47000000000E+01 0. -1.
          6    1    1    2  502    0  0.36751189924E+03  0.36413215273E+03 -0.73589203255E+03  0.91584840684E+03  0.17200000000E+03 0. -1.
         -6    1    1    2    0  502 -0.36751189924E+03 -0.36413215273E+03 -0.36999679981E+03  0.65889214034E+03  0.17200000000E+03 0.  1.
</event>
<event>
 4    1 -0.6483339E-004  0.3475578E+03  0.7818608E-02  0.1063622E+00
          5   -1    0    0  501    0  0.00000000000E+00  0.00000000000E+00  0.30858412327E+03  0.30861991370E+03  0.47000000000E+01 0. -1.
         -5   -1    0    0    0  501 -0.00000000000E+00 -0.00000000000E+00 -0.10458382330E+04  0.10458487939E+04  0.47000000000E+01 0.  1.
          6    1    1    2  502    0  0.23759227260E+03  0.18644654903E+03  0.16709047971E+03  0.38563665808E+03  0.17200000000E+03 0. -1.
         -6    1    1    2    0  502 -0.23759227260E+03 -0.18644654903E+03 -0.90434458945E+03  0.96883204949E+03  0.17200000000E+03 0.  1.
</event>
<event>
 4    1 -0.6483339E-004  0.1917020E+03  0.7818608E-02  0.1156935E+00
         -5   -1    0    0    0  501 -0.00000000000E+00  0.00000000000E+00  0.16793743636E+04  0.16793809405E+04  0.47000000000E+01 0.  1.
          5   -1    0    0  501    0  0.00000000000E+00 -0.00000000000E+00 -0.44380206235E+02  0.44628384526E+02  0.47000000000E+01 0. -1.
          6    1    1    2  502    0 -0.77475086529E+02  0.34106785943E+02  0.20288748835E+03  0.27912899314E+03  0.17200000000E+03 0. -1.
         -6    1    1    2    0  502  0.77475086529E+02 -0.34106785943E+02  0.14321066690E+04  0.14448803318E+04  0.17200000000E+03 0.  1.
</event>
<event>
 4    1 -0.6483339E-004  0.1807693E+03  0.7818608E-02  0.1167061E+00
         -5   -1    0    0    0  501 -0.00000000000E+00  0.00000000000E+00  0.60408241608E+02  0.60590805029E+02  0.47000000000E+01 0.  1.
          5   -1    0    0  501    0  0.00000000000E+00 -0.00000000000E+00 -0.91974580861E+03  0.91975781729E+03  0.47000000000E+01 0. -1.
          6    1    1    2  502    0  0.32440738974E+02  0.45178929645E+02 -0.74462687701E+03  0.76625499881E+03  0.17200000000E+03 0. -1.
         -6    1    1    2    0  502 -0.32440738974E+02 -0.45178929645E+02 -0.11471069000E+03  0.21409362351E+03  0.17200000000E+03 0. -1.
</event>
<event>
 4    1 -0.6483339E-004  0.1791409E+03  0.7818608E-02  0.1168637E+00
          5   -1    0    0  501    0  0.00000000000E+00  0.00000000000E+00  0.15857876941E+04  0.15857946591E+04  0.47000000000E+01 0. -1.
         -5   -1    0    0    0  501 -0.00000000000E+00 -0.00000000000E+00 -0.28752885956E+02  0.29134489026E+02  0.47000000000E+01 0.  1.
          6    1    1    2  502    0 -0.45209575249E+02 -0.21530349624E+02  0.12215110317E+04  0.12345771188E+04  0.17200000000E+03 0. -1.
         -6    1    1    2    0  502  0.45209575249E+02  0.21530349624E+02  0.33552377641E+03  0.38035202929E+03  0.17200000000E+03 0.  1.
</event>
<event>
 4    1 -0.6483339E-004  0.1907976E+03  0.7818608E-02  0.1157744E+00
         -5   -1    0    0    0  501 -0.00000000000E+00  0.00000000000E+00  0.15712452243E+03  0.15719480128E+03  0.47000000000E+01 0.  1.
          5   -1    0    0  501    0  0.00000000000E+00 -0.00000000000E+00 -0.35247165754E+03  0.35250299200E+03  0.47000000000E+01 0. -1.
          6    1    1    2  502    0 -0.11037076039E+02 -0.81840783927E+02  0.51578673799E+02  0.19764637753E+03  0.17200000000E+03 0.  1.
         -6    1    1    2    0  502  0.11037076039E+02  0.81840783927E+02 -0.24692580891E+03  0.31205141574E+03  0.17200000000E+03 0. -1.
</event>
<event>
 4    1 -0.6483339E-004  0.2745138E+03  0.7818608E-02  0.1098724E+00
         -5   -1    0    0    0  501 -0.00000000000E+00  0.00000000000E+00  0.51824911110E+03  0.51827042281E+03  0.47000000000E+01 0.  1.
          5   -1    0    0  501    0  0.00000000000E+00 -0.00000000000E+00 -0.19442071713E+03  0.19447751862E+03  0.47000000000E+01 0. -1.
          6    1    1    2  502    0 -0.20906459419E+03 -0.45451179816E+02  0.34091906202E+03  0.43770266293E+03  0.17200000000E+03 0. -1.
         -6    1    1    2    0  502  0.20906459419E+03  0.45451179816E+02 -0.17090668047E+02  0.27504527850E+03  0.17200000000E+03 0. -1.
</event>
<event>
 4    1 -0.6483339E-004  0.2854327E+03  0.7818608E-02  0.1092758E+00
          5   -1    0    0  501    0  0.00000000000E+00  0.00000000000E+00  0.58642963728E+03  0.58644847129E+03  0.47000000000E+01 0. -1.
         -5   -1    0    0    0  501 -0.00000000000E+00 -0.00000000000E+00 -0.13984388242E+03  0.13992284106E+03  0.47000000000E+01 0.  1.
          6    1    1    2  502    0 -0.22458181160E+03 -0.38089753139E+02  0.25362577855E+03  0.38183485296E+03  0.17200000000E+03 0.  1.
         -6    1    1    2    0  502  0.22458181160E+03  0.38089753139E+02  0.19295997631E+03  0.34453645939E+03  0.17200000000E+03 0.  1.
</event>
<event>
 4    1 -0.6483339E-004  0.2674514E+03  0.7818608E-02  0.1102747E+00
         -5   -1    0    0    0  501 -0.00000000000E+00  0.00000000000E+00  0.62402537408E+03  0.62404307343E+03  0.47000000000E+01 0.  1.
          5   -1    0    0  501    0  0.00000000000E+00 -0.00000000000E+00 -0.11943362530E+03  0.11952606767E+03  0.47000000000E+01 0. -1.
          6    1    1    2  502    0 -0.15466933555E+03 -0.13425220179E+03  0.32736580236E+03  0.42272760212E+03  0.17200000000E+03 0. -1.
         -6    1    1    2    0  502  0.15466933555E+03  0.13425220179E+03  0.17722594642E+03  0.32084153897E+03  0.17200000000E+03 0. -1.
</event>
<event>
 4    1 -0.6483339E-004  0.1878219E+03  0.7818608E-02  0.1160441E+00
          5   -1    0    0  501    0  0.00000000000E+00  0.00000000000E+00  0.10578945330E+03  0.10589380732E+03  0.47000000000E+01 0. -1.
         -5   -1    0    0    0  501 -0.00000000000E+00 -0.00000000000E+00 -0.36345734744E+03  0.36348773488E+03  0.47000000000E+01 0.  1.
          6    1    1    2  502    0  0.16671784197E+01  0.75434043585E+02 -0.61108857008E+02  0.19751295355E+03  0.17200000000E+03 0. -1.
         -6    1    1    2    0  502 -0.16671784197E+01 -0.75434043585E+02 -0.19655903713E+03  0.27186858865E+03  0.17200000000E+03 0.  1.
</event>
<event>
 4    1 -0.6483339E-004  0.1962942E+03  0.7818608E-02  0.1152904E+00
         -5   -1    0    0    0  501 -0.00000000000E+00  0.00000000000E+00  0.21859545031E+03  0.21864597159E+03  0.47000000000E+01 0.  1.
          5   -1    0    0  501    0  0.00000000000E+00 -0.00000000000E+00 -0.17693509602E+03  0.17699750903E+03  0.47000000000E+01 0. -1.
          6    1    1    2  502    0  0.58895807514E+02  0.74018221959E+02  0.33869211290E+02  0.19919472081E+03  0.17200000000E+03 0. -1.
         -6    1    1    2    0  502 -0.58895807514E+02 -0.74018221959E+02  0.77911429965E+01  0.19644875982E+03  0.17200000000E+03 0. -1.
</event>
<event>
 4    1 -0.6483339E-004  0.3069954E+03  0.7818608E-02  0.1081795E+00
         -5   -1    0    0    0  501 -0.00000000000E+00  0.00000000000E+00  0.89985961525E+03  0.89987188931E+03  0.47000000000E+01 0.  1.
          5   -1    0    0  501    0  0.00000000000E+00 -0.00000000000E+00 -0.11139390953E+03  0.11149301807E+03  0.47000000000E+01 0. -1.
          6    1    1    2  502    0 -0.48176880382E+01  0.25424192398E+03  0.51842120922E+03  0.60250038688E+03  0.17200000000E+03 0.  1.
         -6    1    1    2    0  502  0.48176880382E+01 -0.25424192398E+03  0.27004449651E+03  0.40886452050E+03  0.17200000000E+03 0. -1.
</event>
<event>
 4    1 -0.6483339E-004  0.2835035E+03  0.7818608E-02  0.1093791E+00
         -5   -1    0    0    0  501 -0.00000000000E+00  0.00000000000E+00  0.20245351309E+03  0.20250806147E+03  0.47000000000E+01 0.  1.
          5   -1    0    0  501    0  0.00000000000E+00 -0.00000000000E+00 -0.62558585391E+03  0.62560350911E+03  0.47000000000E+01 0. -1.
          6    1    1    2  502    0  0.41887711235E+02  0.22143996440E+03 -0.46190495811E+03  0.54196902911E+03  0.17200000000E+03 0. -1.
         -6    1    1    2    0  502 -0.41887711235E+02 -0.22143996440E+03  0.38772617292E+02  0.28614254147E+03  0.17200000000E+03 0.  1.
</event>
<event>
 4    1 -0.6483339E-004  0.1889174E+03  0.7818608E-02  0.1159441E+00
          5   -1    0    0  501    0  0.00000000000E+00  0.00000000000E+00  0.81365161722E+03  0.81366519171E+03  0.47000000000E+01 0. -1.
         -5   -1    0    0    0  501 -0.00000000000E+00 -0.00000000000E+00 -0.62575976864E+02  0.62752234068E+02  0.47000000000E+01 0.  1.
          6    1    1    2  502    0  0.30967665122E+02 -0.71740990260E+02  0.61562511770E+03  0.64395966606E+03  0.17200000000E+03 0. -1.
         -6    1    1    2    0  502 -0.30967665122E+02  0.71740990260E+02  0.13545052265E+03  0.23245775972E+03  0.17200000000E+03 0.  1.
</event>
<event>
 4    1 -0.6483339E-004  0.2841288E+03  0.7818608E-02  0.1093455E+00
         -5   -1    0    0    0  501 -0.00000000000E+00  0.00000000000E+00  0.76232528945E+02  0.76377277180E+02  0.47000000000E+01 0.  1.
          5   -1    0    0  501    0  0.00000000000E+00 -0.00000000000E+00 -0.11201828428E+04  0.11201927027E+04  0.47000000000E+01 0. -1.
          6    1    1    2  502    0 -0.58136697916E+02 -0.21855276985E+03 -0.38083329572E+03  0.47514543877E+03  0.17200000000E+03 0.  1.
         -6    1    1    2    0  502  0.58136697916E+02  0.21855276985E+03 -0.66311701812E+03  0.72142454115E+03  0.17200000000E+03 0. -1.
</event>
<event>
 4    1 -0.6483339E-004  0.1734641E+03  0.7818608E-02  0.1174283E+00
         -5   -1    0    0    0  501 -0.00000000000E+00  0.00000000000E+00  0.23600640897E+03  0.23605320391E+03  0.47000000000E+01 0.  1.
          5   -1    0    0  501    0  0.00000000000E+00 -0.00000000000E+00 -0.18285971461E+03  0.18292010613E+03  0.47000000000E+01 0. -1.
          6    1    1    2  502    0 -0.19032188623E+02 -0.11981574733E+02 -0.88764361593E+02  0.19485608594E+03  0.17200000000E+03 0.  1.
         -6    1    1    2    0  502  0.19032188623E+02  0.11981574733E+02  0.14191105595E+03  0.22411722410E+03  0.17200000000E+03 0.  1.
</event>
<event>
 4    1 -0.6483339E-004  0.3995180E+03  0.7818608E-02  0.1043947E+00
         -5   -1    0    0    0  501 -0.00000000000E+00  0.00000000000E+00  0.32590602431E+03  0.32593991268E+03  0.47000000000E+01 0.  1.
          5   -1    0    0  501    0  0.00000000000E+00 -0.00000000000E+00 -0.62768683075E+03  0.62770442686E+03  0.47000000000E+01 0. -1.
          6    1    1    2  502    0 -0.17653386131E+03 -0.31443035884E+03 -0.37445705370E+03  0.54756984926E+03  0.17200000000E+03 0. -1.
         -6    1    1    2    0  502  0.17653386131E+03  0.31443035884E+03  0.72676247260E+02  0.40607449029E+03  0.17200000000E+03 0.  1.
</event>
<event>
 4    1 -0.6483339E-004  0.2006404E+03  0.7818608E-02  0.1149200E+00
          5   -1    0    0  501    0  0.00000000000E+00  0.00000000000E+00  0.24919950066E+03  0.24924381864E+03  0.47000000000E+01 0. -1.
         -5   -1    0    0    0  501 -0.00000000000E+00 -0.00000000000E+00 -0.55956241745E+03  0.55958215574E+03  0.47000000000E+01 0.  1.
          6    1    1    2  502    0  0.84662012190E+02  0.59202204524E+02  0.18590859558E+03  0.27352982148E+03  0.17200000000E+03 0. -1.
         -6    1    1    2    0  502 -0.84662012190E+02 -0.59202204524E+02 -0.49627151236E+03  0.53529615290E+03  0.17200000000E+03 0.  1.
</event>
<event>
 4    1 -0.6483339E-004  0.2036570E+03  0.7818608E-02  0.1146690E+00
          5   -1    0    0  501    0  0.00000000000E+00  0.00000000000E+00  0.11628065554E+03  0.11637560248E+03  0.47000000000E+01 0. -1.
         -5   -1    0    0    0  501 -0.00000000000E+00 -0.00000000000E+00 -0.42096342620E+03  0.42098966282E+03  0.47000000000E+01 0.  1.
          6    1    1    2  502    0  0.10700647277E+03  0.21018413538E+02 -0.47161601447E+02  0.20904634791E+03  0.17200000000E+03 0. -1.
         -6    1    1    2    0  502 -0.10700647277E+03 -0.21018413538E+02 -0.25752116922E+03  0.32831891739E+03  0.17200000000E+03 0.  1.
</event>
<event>
 4    1 -0.6483339E-004  0.3103779E+03  0.7818608E-02  0.1080165E+00
          5   -1    0    0  501    0  0.00000000000E+00  0.00000000000E+00  0.44079887452E+03  0.44082393059E+03  0.47000000000E+01 0. -1.
         -5   -1    0    0    0  501 -0.00000000000E+00 -0.00000000000E+00 -0.22746871970E+03  0.22751727064E+03  0.47000000000E+01 0.  1.
          6    1    1    2  502    0  0.24057838841E+03  0.94193739939E+02  0.17305144769E+03  0.35536069727E+03  0.17200000000E+03 0. -1.
         -6    1    1    2    0  502 -0.24057838841E+03 -0.94193739939E+02  0.40278707132E+02  0.31298050396E+03  0.17200000000E+03 0.  1.
</event>
<event>
 4    1 -0.6483339E-004  0.5446243E+03  0.7818608E-02  0.1002746E+00
         -5   -1    0    0    0  501 -0.00000000000E+00  0.00000000000E+00  0.33853563669E+03  0.33856826093E+03  0.47000000000E+01 0.  1.
          5   -1    0    0  501    0  0.00000000000E+00 -0.00000000000E+00 -0.12098765548E+04  0.12098856838E+04  0.47000000000E+01 0. -1.
          6    1    1    2  502    0 -0.50557139545E+03  0.10690717586E+03 -0.84232307013E+03  0.10030571941E+04  0.17200000000E+03 0. -1.
         -6    1    1    2    0  502  0.50557139545E+03 -0.10690717586E+03 -0.29017848025E+02  0.54539675068E+03  0.17200000000E+03 0.  1.
</event>
<event>
 4    1 -0.6483339E-004  0.1881146E+03  0.7818608E-02  0.1160173E+00
          5   -1    0    0  501    0  0.00000000000E+00  0.00000000000E+00  0.65529968810E+02  0.65698301441E+02  0.47000000000E+01 0. -1.
         -5   -1    0    0    0  501 -0.00000000000E+00 -0.00000000000E+00 -0.53914771317E+03  0.53916819882E+03  0.47000000000E+01 0.  1.
          6    1    1    2  502    0  0.62689061980E+02 -0.43280091381E+02 -0.23586587830E+03  0.30169487458E+03  0.17200000000E+03 0. -1.
         -6    1    1    2    0  502 -0.62689061980E+02  0.43280091381E+02 -0.23775186606E+03  0.30317162568E+03  0.17200000000E+03 0. -1.
</event>
<event>
 4    1 -0.6483339E-004  0.2104024E+03  0.7818608E-02  0.1141248E+00
          5   -1    0    0  501    0  0.00000000000E+00  0.00000000000E+00  0.95755477917E+02  0.95870754410E+02  0.47000000000E+01 0. -1.
         -5   -1    0    0    0  501 -0.00000000000E+00 -0.00000000000E+00 -0.49993197012E+03  0.49995406264E+03  0.47000000000E+01 0.  1.
          6    1    1    2  502    0  0.74510118078E+02 -0.95568936892E+02 -0.11994095200E+03  0.24218796700E+03  0.17200000000E+03 0. -1.
         -6    1    1    2    0  502 -0.74510118078E+02  0.95568936892E+02 -0.28423554020E+03  0.35363685004E+03  0.17200000000E+03 0.  1.
</event>
<event>
 4    1 -0.6483339E-004  0.3144505E+03  0.7818608E-02  0.1078232E+00
          5   -1    0    0  501    0  0.00000000000E+00  0.00000000000E+00  0.29199446283E+03  0.29203228644E+03  0.47000000000E+01 0. -1.
         -5   -1    0    0    0  501 -0.00000000000E+00 -0.00000000000E+00 -0.45374352133E+03  0.45376786262E+03  0.47000000000E+01 0.  1.
          6    1    1    2  502    0  0.21959289731E+02 -0.26232218246E+03  0.10699456261E+03  0.33215504549E+03  0.17200000000E+03 0. -1.
         -6    1    1    2    0  502 -0.21959289731E+02  0.26232218246E+03 -0.26874362112E+03  0.41364510357E+03  0.17200000000E+03 0.  1.
</event>
<event>
 4    1 -0.6483339E-004  0.6318390E+03  0.7818608E-02  0.9841467E-01
          5   -1    0    0  501    0  0.00000000000E+00  0.00000000000E+00  0.10287422714E+04  0.10287530078E+04  0.47000000000E+01 0. -1.
         -5   -1    0    0    0  501 -0.00000000000E+00 -0.00000000000E+00 -0.38830163559E+03  0.38833007893E+03  0.47000000000E+01 0.  1.
          6    1    1    2  502    0  0.22888790376E+03 -0.56324673155E+03  0.33862391200E+03  0.71685891699E+03  0.17200000000E+03 0. -1.
         -6    1    1    2    0  502 -0.22888790376E+03  0.56324673155E+03  0.30181672383E+03  0.70022416973E+03  0.17200000000E+03 0.  1.
</event>
<event>
 4    1 -0.6483339E-004  0.1722104E+03  0.7818608E-02  0.1175562E+00
          5   -1    0    0  501    0  0.00000000000E+00  0.00000000000E+00  0.32107607282E+03  0.32111047093E+03  0.47000000000E+01 0. -1.
         -5   -1    0    0    0  501 -0.00000000000E+00 -0.00000000000E+00 -0.12132509557E+03  0.12141609784E+03  0.47000000000E+01 0.  1.
          6    1    1    2  502    0  0.65110028652E+01  0.54809948908E+01  0.20809876853E+03  0.27011392398E+03  0.17200000000E+03 0. -1.
         -6    1    1    2    0  502 -0.65110028652E+01 -0.54809948908E+01 -0.83477912755E+01  0.17241264479E+03  0.17200000000E+03 0.  1.
</event>
<event>
 4    1 -0.6483339E-004  0.4289798E+03  0.7818608E-02  0.1034183E+00
         -5   -1    0    0    0  501 -0.00000000000E+00  0.00000000000E+00  0.11737052343E+03  0.11746458943E+03  0.47000000000E+01 0.  1.
          5   -1    0    0  501    0  0.00000000000E+00 -0.00000000000E+00 -0.16364804856E+04  0.16364872348E+04  0.47000000000E+01 0. -1.
          6    1    1    2  502    0 -0.26119648413E+03 -0.29362570285E+03 -0.94004241978E+03  0.10332973472E+04  0.17200000000E+03 0. -1.
         -6    1    1    2    0  502  0.26119648413E+03  0.29362570285E+03 -0.57906754237E+03  0.72065447707E+03  0.17200000000E+03 0. -1.
</event>
<event>
 4    1 -0.6483339E-004  0.2125719E+03  0.7818608E-02  0.1139545E+00
          5   -1    0    0  501    0  0.00000000000E+00  0.00000000000E+00  0.14460609620E+03  0.14468245595E+03  0.47000000000E+01 0. -1.
         -5   -1    0    0    0  501 -0.00000000000E+00 -0.00000000000E+00 -0.42301373253E+03  0.42303984199E+03  0.47000000000E+01 0.  1.
          6    1    1    2  502    0 -0.11273560428E+03 -0.53791359713E+02  0.59951155602E+01  0.21265645597E+03  0.17200000000E+03 0. -1.
         -6    1    1    2    0  502  0.11273560428E+03  0.53791359713E+02 -0.28440275189E+03  0.35506584197E+03  0.17200000000E+03 0.  1.
</event>
<event>
 4    1 -0.6483339E-004  0.2010083E+03  0.7818608E-02  0.1148891E+00
         -5   -1    0    0    0  501 -0.00000000000E+00  0.00000000000E+00  0.29006800284E+03  0.29010607762E+03  0.47000000000E+01 0.  1.
          5   -1    0    0  501    0  0.00000000000E+00 -0.00000000000E+00 -0.26988450614E+03  0.26992542795E+03  0.47000000000E+01 0. -1.
          6    1    1    2  502    0 -0.74186966483E+02 -0.72915167922E+02 -0.18472084264E+03  0.27299472049E+03  0.17200000000E+03 0. -1.
         -6    1    1    2    0  502  0.74186966483E+02  0.72915167922E+02  0.20490433934E+03  0.28703678508E+03  0.17200000000E+03 0.  1.
</event>
<event>
 4    1 -0.6483339E-004  0.3997691E+03  0.7818608E-02  0.1043860E+00
          5   -1    0    0  501    0  0.00000000000E+00  0.00000000000E+00  0.12454626542E+04  0.12454715223E+04  0.47000000000E+01 0. -1.
         -5   -1    0    0    0  501 -0.00000000000E+00 -0.00000000000E+00 -0.17642262511E+03  0.17648521935E+03  0.47000000000E+01 0.  1.
          6    1    1    2  502    0  0.33737817477E+03  0.12809105127E+03  0.90588954026E+03  0.99017736258E+03  0.17200000000E+03 0. -1.
         -6    1    1    2    0  502 -0.33737817477E+03 -0.12809105127E+03  0.16315048883E+03  0.43177937912E+03  0.17200000000E+03 0.  1.
</event>
<event>
 4    1 -0.6483339E-004  0.2308964E+03  0.7818608E-02  0.1126010E+00
         -5   -1    0    0    0  501 -0.00000000000E+00  0.00000000000E+00  0.76425834122E+02  0.76570216934E+02  0.47000000000E+01 0.  1.
          5   -1    0    0  501    0  0.00000000000E+00 -0.00000000000E+00 -0.14932600921E+04  0.14932674886E+04  0.47000000000E+01 0. -1.
          6    1    1    2  502    0 -0.15403761477E+03 -0.12434318434E+01 -0.12816415775E+04  0.13022742669E+04  0.17200000000E+03 0. -1.
         -6    1    1    2    0  502  0.15403761477E+03  0.12434318434E+01 -0.13519268043E+03  0.26756343870E+03  0.17200000000E+03 0.  1.
</event>
<event>
 4    1 -0.6483339E-004  0.3484706E+03  0.7818608E-02  0.1063245E+00
         -5   -1    0    0    0  501 -0.00000000000E+00  0.00000000000E+00  0.14897097127E+03  0.14904509479E+03  0.47000000000E+01 0.  1.
          5   -1    0    0  501    0  0.00000000000E+00 -0.00000000000E+00 -0.15517438984E+04  0.15517510162E+04  0.47000000000E+01 0. -1.
          6    1    1    2  502    0 -0.27028827902E+03  0.13708395924E+03 -0.12873922147E+04  0.13337205405E+04  0.17200000000E+03 0. -1.
         -6    1    1    2    0  502  0.27028827902E+03 -0.13708395924E+03 -0.11538071245E+03  0.36707557051E+03  0.17200000000E+03 0.  1.
</event>
<event>
 4    1 -0.6483339E-004  0.1945356E+03  0.7818608E-02  0.1154433E+00
         -5   -1    0    0    0  501 -0.00000000000E+00  0.00000000000E+00  0.19209746697E+03  0.19215495522E+03  0.47000000000E+01 0.  1.
          5   -1    0    0  501    0  0.00000000000E+00 -0.00000000000E+00 -0.23245311254E+03  0.23250062264E+03  0.47000000000E+01 0. -1.
          6    1    1    2  502    0  0.74468830997E+02 -0.52100928979E+02 -0.10320849330E+03  0.22021831595E+03  0.17200000000E+03 0. -1.
         -6    1    1    2    0  502 -0.74468830997E+02  0.52100928979E+02  0.62852847734E+02  0.20443726191E+03  0.17200000000E+03 0. -1.
</event>
<event>
 4    1 -0.6483339E-004  0.1729596E+03  0.7818608E-02  0.1174796E+00
          5   -1    0    0  501    0  0.00000000000E+00  0.00000000000E+00  0.76211054709E+03  0.76212503960E+03  0.47000000000E+01 0. -1.
         -5   -1    0    0    0  501 -0.00000000000E+00 -0.00000000000E+00 -0.41030030200E+02  0.41298345950E+02  0.47000000000E+01 0.  1.
          6    1    1    2  502    0 -0.12692623261E+02  0.13035254704E+02  0.44742191645E+03  0.47968884901E+03  0.17200000000E+03 0. -1.
         -6    1    1    2    0  502  0.12692623261E+02 -0.13035254704E+02  0.27365860044E+03  0.32373453654E+03  0.17200000000E+03 0.  1.
</event>
<event>
 4    1 -0.6483339E-004  0.2199412E+03  0.7818608E-02  0.1133927E+00
          5   -1    0    0  501    0  0.00000000000E+00  0.00000000000E+00  0.29648754052E+03  0.29652479101E+03  0.47000000000E+01 0. -1.
         -5   -1    0    0    0  501 -0.00000000000E+00 -0.00000000000E+00 -0.26795106252E+03  0.26799227956E+03  0.47000000000E+01 0.  1.
          6    1    1    2  502    0  0.42003877039E+01  0.13701277580E+03  0.19082363623E+03  0.29118345443E+03  0.17200000000E+03 0. -1.
         -6    1    1    2    0  502 -0.42003877039E+01 -0.13701277580E+03 -0.16228715822E+03  0.27333361614E+03  0.17200000000E+03 0.  1.
</event>
<event>
 4    1 -0.6483339E-004  0.2276104E+03  0.7818608E-02  0.1128333E+00
          5   -1    0    0  501    0  0.00000000000E+00  0.00000000000E+00  0.23744759786E+03  0.23749410883E+03  0.47000000000E+01 0. -1.
         -5   -1    0    0    0  501 -0.00000000000E+00 -0.00000000000E+00 -0.27909784940E+03  0.27913742053E+03  0.47000000000E+01 0.  1.
          6    1    1    2  502    0  0.14837811521E+03 -0.14367486190E+02  0.99929296819E+02  0.24858067925E+03  0.17200000000E+03 0. -1.
         -6    1    1    2    0  502 -0.14837811521E+03  0.14367486190E+02 -0.14157954836E+03  0.26805085011E+03  0.17200000000E+03 0.  1.
</event>
<event>
 4    1 -0.6483339E-004  0.2180930E+03  0.7818608E-02  0.1135313E+00
          5   -1    0    0  501    0  0.00000000000E+00  0.00000000000E+00  0.68040847740E+03  0.68042471010E+03  0.47000000000E+01 0. -1.
         -5   -1    0    0    0  501 -0.00000000000E+00 -0.00000000000E+00 -0.16186696029E+03  0.16193518096E+03  0.47000000000E+01 0.  1.
          6    1    1    2  502    0 -0.81597233151E+02 -0.10640690258E+03  0.57677092058E+03  0.61662730413E+03  0.17200000000E+03 0. -1.
         -6    1    1    2    0  502  0.81597233151E+02  0.10640690258E+03 -0.58229403471E+02  0.22573258693E+03  0.17200000000E+03 0.  1.
</event>
<event>
 4    1 -0.6483339E-004  0.3697330E+03  0.7818608E-02  0.1054795E+00
         -5   -1    0    0    0  501 -0.00000000000E+00  0.00000000000E+00  0.58980234123E+02  0.59167203899E+02  0.47000000000E+01 0.  1.
          5   -1    0    0  501    0  0.00000000000E+00 -0.00000000000E+00 -0.23177939231E+04  0.23177986884E+04  0.47000000000E+01 0. -1.
          6    1    1    2  502    0 -0.13413070062E+03  0.29854216913E+03 -0.11780540091E+04  0.12347119988E+04  0.17200000000E+03 0. -1.
         -6    1    1    2    0  502  0.13413070062E+03 -0.29854216913E+03 -0.10807596799E+04  0.11422538935E+04  0.17200000000E+03 0.  1.
</event>
<event>
 4    1 -0.6483339E-004  0.3203660E+03  0.7818608E-02  0.1075481E+00
         -5   -1    0    0    0  501 -0.00000000000E+00  0.00000000000E+00  0.95154475888E+03  0.95155636625E+03  0.47000000000E+01 0.  1.
          5   -1    0    0  501    0  0.00000000000E+00 -0.00000000000E+00 -0.10780728120E+03  0.10790968390E+03  0.47000000000E+01 0. -1.
          6    1    1    2  502    0  0.23997399158E+03 -0.12434976964E+03  0.41678234962E+03  0.52568232688E+03  0.17200000000E+03 0. -1.
         -6    1    1    2    0  502 -0.23997399158E+03  0.12434976964E+03  0.42695512807E+03  0.53378372327E+03  0.17200000000E+03 0.  1.
</event>
<event>
 4    1 -0.6483339E-004  0.3824688E+03  0.7818608E-02  0.1050025E+00
         -5   -1    0    0    0  501 -0.00000000000E+00  0.00000000000E+00  0.31290502732E+03  0.31294032358E+03  0.47000000000E+01 0.  1.
          5   -1    0    0  501    0  0.00000000000E+00 -0.00000000000E+00 -0.47105120774E+03  0.47107465471E+03  0.47000000000E+01 0. -1.
          6    1    1    2  502    0 -0.27809842606E+03 -0.19839272228E+03 -0.44677636888E+02  0.38506947174E+03  0.17200000000E+03 0. -1.
         -6    1    1    2    0  502  0.27809842606E+03  0.19839272228E+03 -0.11346854353E+03  0.39894550655E+03  0.17200000000E+03 0.  1.
</event>
<event>
 4    1 -0.6483339E-004  0.6821300E+03  0.7818608E-02  0.9748290E-01
          5   -1    0    0  501    0  0.00000000000E+00  0.00000000000E+00  0.80261491182E+03  0.80262867297E+03  0.47000000000E+01 0. -1.
         -5   -1    0    0    0  501 -0.00000000000E+00 -0.00000000000E+00 -0.79442377463E+03  0.79443767767E+03  0.47000000000E+01 0.  1.
          6    1    1    2  502    0 -0.48901594447E+03 -0.44337421941E+03  0.41923614661E+03  0.80066237517E+03  0.17200000000E+03 0. -1.
         -6    1    1    2    0  502  0.48901594447E+03  0.44337421941E+03 -0.41104500942E+03  0.79640397548E+03  0.17200000000E+03 0.  1.
</event>
<event>
 4    1 -0.6483339E-004  0.2110473E+03  0.7818608E-02  0.1140739E+00
         -5   -1    0    0    0  501 -0.00000000000E+00  0.00000000000E+00  0.26921356682E+03  0.26925459060E+03  0.47000000000E+01 0.  1.
          5   -1    0    0  501    0  0.00000000000E+00 -0.00000000000E+00 -0.22573075728E+03  0.22577968195E+03  0.47000000000E+01 0. -1.
          6    1    1    2  502    0  0.12218819446E+03  0.51978599940E+01 -0.10623293523E+03  0.23627612902E+03  0.17200000000E+03 0. -1.
         -6    1    1    2    0  502 -0.12218819446E+03 -0.51978599940E+01  0.14971574477E+03  0.25875814354E+03  0.17200000000E+03 0.  1.
</event>
<event>
 4    1 -0.6483339E-004  0.2828413E+03  0.7818608E-02  0.1094147E+00
          5   -1    0    0  501    0  0.00000000000E+00  0.00000000000E+00  0.12748558014E+04  0.12748644651E+04  0.47000000000E+01 0. -1.
         -5   -1    0    0    0  501 -0.00000000000E+00 -0.00000000000E+00 -0.63133140629E+02  0.63307846636E+02  0.47000000000E+01 0.  1.
          6    1    1    2  502    0 -0.38254434077E+01 -0.22450070601E+03  0.66402442880E+03  0.72175317322E+03  0.17200000000E+03 0. -1.
         -6    1    1    2    0  502  0.38254434077E+01  0.22450070601E+03  0.54769823197E+03  0.61641913851E+03  0.17200000000E+03 0.  1.
</event>
<event>
 4    1 -0.6483339E-004  0.1783776E+03  0.7818608E-02  0.1169382E+00
          5   -1    0    0  501    0  0.00000000000E+00  0.00000000000E+00  0.79495632621E+03  0.79497021994E+03  0.47000000000E+01 0. -1.
         -5   -1    0    0    0  501 -0.00000000000E+00 -0.00000000000E+00 -0.69981936145E+02  0.70139585019E+02  0.47000000000E+01 0.  1.
          6    1    1    2  502    0  0.47212520439E+02 -0.23583997229E+01  0.79231355968E+02  0.19518245798E+03  0.17200000000E+03 0.  1.
         -6    1    1    2    0  502 -0.47212520439E+02  0.23583997229E+01  0.64574303410E+03  0.66992734698E+03  0.17200000000E+03 0. -1.
</event>
<event>
 4    1 -0.6483339E-004  0.1814066E+03  0.7818608E-02  0.1166449E+00
         -5   -1    0    0    0  501 -0.00000000000E+00  0.00000000000E+00  0.46036063616E+02  0.46275362271E+02  0.47000000000E+01 0.  1.
          5   -1    0    0  501    0  0.00000000000E+00 -0.00000000000E+00 -0.71897178501E+03  0.71898714706E+03  0.47000000000E+01 0. -1.
          6    1    1    2  502    0 -0.33233795041E+02  0.47115371295E+02 -0.37208971348E+03  0.41395543024E+03  0.17200000000E+03 0. -1.
         -6    1    1    2    0  502  0.33233795041E+02 -0.47115371295E+02 -0.30084600791E+03  0.35130707910E+03  0.17200000000E+03 0.  1.
</event>
<event>
 4    1 -0.6483339E-004  0.3244897E+03  0.7818608E-02  0.1073601E+00
          5   -1    0    0  501    0  0.00000000000E+00  0.00000000000E+00  0.64547694198E+03  0.64549405313E+03  0.47000000000E+01 0. -1.
         -5   -1    0    0    0  501 -0.00000000000E+00 -0.00000000000E+00 -0.16345232474E+03  0.16351988400E+03  0.47000000000E+01 0.  1.
          6    1    1    2  502    0 -0.27102088543E+03 -0.47510680859E+02  0.26051659085E+03  0.41612796018E+03  0.17200000000E+03 0. -1.
         -6    1    1    2    0  502  0.27102088543E+03  0.47510680859E+02  0.22150802639E+03  0.39288597696E+03  0.17200000000E+03 0.  1.
</event>
<event>
 4    1 -0.6483339E-004  0.2135460E+03  0.7818608E-02  0.1138788E+00
          5   -1    0    0  501    0  0.00000000000E+00  0.00000000000E+00  0.62959564656E+02  0.63134750983E+02  0.47000000000E+01 0. -1.
         -5   -1    0    0    0  501 -0.00000000000E+00 -0.00000000000E+00 -0.78057095267E+03  0.78058510244E+03  0.47000000000E+01 0.  1.
          6    1    1    2  502    0  0.11475440392E+03 -0.53379075243E+02 -0.47324499501E+03  0.51919430293E+03  0.17200000000E+03 0. -1.
         -6    1    1    2    0  502 -0.11475440392E+03  0.53379075243E+02 -0.24436639300E+03  0.32452555049E+03  0.17200000000E+03 0.  1.
</event>
<event>
 4    1 -0.6483339E-004  0.1910329E+03  0.7818608E-02  0.1157533E+00
         -5   -1    0    0    0  501 -0.00000000000E+00  0.00000000000E+00  0.24752107457E+03  0.24756569301E+03  0.47000000000E+01 0.  1.
          5   -1    0    0  501    0  0.00000000000E+00 -0.00000000000E+00 -0.15620021237E+03  0.15627090691E+03  0.47000000000E+01 0. -1.
          6    1    1    2  502    0 -0.80985675992E+02  0.18731763386E+02 -0.24096024455E+01  0.19104806950E+03  0.17200000000E+03 0. -1.
         -6    1    1    2    0  502  0.80985675992E+02 -0.18731763386E+02  0.93730464646E+02  0.21278853042E+03  0.17200000000E+03 0.  1.
</event>
<event>
 4    1 -0.6483339E-004  0.2242962E+03  0.7818608E-02  0.1130720E+00
         -5   -1    0    0    0  501 -0.00000000000E+00  0.00000000000E+00  0.11872232343E+04  0.11872325375E+04  0.47000000000E+01 0.  1.
          5   -1    0    0  501    0  0.00000000000E+00 -0.00000000000E+00 -0.88661762343E+02  0.88786249509E+02  0.47000000000E+01 0. -1.
          6    1    1    2  502    0  0.14379097262E+03 -0.69969588517E+01  0.10104362977E+04  0.10350315517E+04  0.17200000000E+03 0. -1.
         -6    1    1    2    0  502 -0.14379097262E+03  0.69969588517E+01  0.88125174216E+02  0.24098723528E+03  0.17200000000E+03 0. -1.
</event>
<event>
 4    1 -0.6483339E-004  0.2352581E+03  0.7818608E-02  0.1122993E+00
          5   -1    0    0  501    0  0.00000000000E+00  0.00000000000E+00  0.17487442165E+03  0.17493756986E+03  0.47000000000E+01 0. -1.
         -5   -1    0    0    0  501 -0.00000000000E+00 -0.00000000000E+00 -0.44096634432E+03  0.44099139087E+03  0.47000000000E+01 0.  1.
          6    1    1    2  502    0 -0.88379466377E+02 -0.13398299246E+03  0.30647737245E+02  0.23724598236E+03  0.17200000000E+03 0. -1.
         -6    1    1    2    0  502  0.88379466377E+02  0.13398299246E+03 -0.29673965991E+03  0.37868297837E+03  0.17200000000E+03 0.  1.
</event>
<event>
 4    1 -0.6483339E-004  0.2201643E+03  0.7818608E-02  0.1133761E+00
          5   -1    0    0  501    0  0.00000000000E+00  0.00000000000E+00  0.82389821329E+03  0.82391161896E+03  0.47000000000E+01 0. -1.
         -5   -1    0    0    0  501 -0.00000000000E+00 -0.00000000000E+00 -0.81542106523E+02  0.81677445701E+02  0.47000000000E+01 0.  1.
          6    1    1    2  502    0 -0.57112564398E+02 -0.12500587389E+03  0.61044015560E+03  0.64892950086E+03  0.17200000000E+03 0. -1.
         -6    1    1    2    0  502  0.57112564398E+02  0.12500587389E+03  0.13191595117E+03  0.25665956380E+03  0.17200000000E+03 0.  1.
</event>
<event>
 4    1 -0.6483339E-004  0.1745533E+03  0.7818608E-02  0.1173181E+00
          5   -1    0    0  501    0  0.00000000000E+00  0.00000000000E+00  0.39076408926E+03  0.39079235337E+03  0.47000000000E+01 0. -1.
         -5   -1    0    0    0  501 -0.00000000000E+00 -0.00000000000E+00 -0.19233870130E+03  0.19239611747E+03  0.47000000000E+01 0.  1.
          6    1    1    2  502    0 -0.20760461213E+02  0.21304221596E+02  0.32408892992E+03  0.36810664366E+03  0.17200000000E+03 0. -1.
         -6    1    1    2    0  502  0.20760461213E+02 -0.21304221596E+02 -0.12566354196E+03  0.21508182718E+03  0.17200000000E+03 0.  1.
</event>
<event>
 4    1 -0.6483339E-004  0.2378828E+03  0.7818608E-02  0.1121211E+00
          5   -1    0    0  501    0  0.00000000000E+00  0.00000000000E+00  0.11964142981E+04  0.11964235298E+04  0.47000000000E+01 0. -1.
         -5   -1    0    0    0  501 -0.00000000000E+00 -0.00000000000E+00 -0.70534493724E+02  0.70690910341E+02  0.47000000000E+01 0.  1.
          6    1    1    2  502    0  0.13944642813E+03 -0.86942004690E+02  0.92703679193E+03  0.95707127848E+03  0.17200000000E+03 0. -1.
         -6    1    1    2    0  502 -0.13944642813E+03  0.86942004690E+02  0.19884301241E+03  0.31004316164E+03  0.17200000000E+03 0.  1.
</event>
<event>
 4    1 -0.6483339E-004  0.2500751E+03  0.7818608E-02  0.1113257E+00
         -5   -1    0    0    0  501 -0.00000000000E+00  0.00000000000E+00  0.67137773269E+03  0.67139418373E+03  0.47000000000E+01 0.  1.
          5   -1    0    0  501    0  0.00000000000E+00 -0.00000000000E+00 -0.99697503963E+02  0.99808227599E+02  0.47000000000E+01 0. -1.
          6    1    1    2  502    0  0.75090794481E+02  0.16527226642E+03  0.38518528422E+03  0.45924421896E+03  0.17200000000E+03 0.  1.
         -6    1    1    2    0  502 -0.75090794481E+02 -0.16527226642E+03  0.18649494451E+03  0.31195819238E+03  0.17200000000E+03 0.  1.
</event>
<event>
 4    1 -0.6483339E-004  0.2363320E+03  0.7818608E-02  0.1122261E+00
          5   -1    0    0  501    0  0.00000000000E+00  0.00000000000E+00  0.98079244883E+02  0.98191793327E+02  0.47000000000E+01 0. -1.
         -5   -1    0    0    0  501 -0.00000000000E+00 -0.00000000000E+00 -0.88872164042E+03  0.88873406830E+03  0.47000000000E+01 0.  1.
          6    1    1    2  502    0  0.79710515730E+02  0.14112064618E+03 -0.99373781058E+02  0.25637463107E+03  0.17200000000E+03 0. -1.
         -6    1    1    2    0  502 -0.79710515730E+02 -0.14112064618E+03 -0.69126861448E+03  0.73055123055E+03  0.17200000000E+03 0. -1.
</event>
<event>
 4    1 -0.6483339E-004  0.1762010E+03  0.7818608E-02  0.1171531E+00
         -5   -1    0    0    0  501 -0.00000000000E+00  0.00000000000E+00  0.13913592810E+03  0.13921528827E+03  0.47000000000E+01 0.  1.
          5   -1    0    0  501    0  0.00000000000E+00 -0.00000000000E+00 -0.53150249775E+03  0.53152327806E+03  0.47000000000E+01 0. -1.
          6    1    1    2  502    0 -0.73164544667E+01  0.37540190802E+02  0.59305998925E+02  0.18591395305E+03  0.17200000000E+03 0.  1.
         -6    1    1    2    0  502  0.73164544667E+01 -0.37540190802E+02 -0.45167256858E+03  0.48482461327E+03  0.17200000000E+03 0. -1.
</event>
<event>
 4    1 -0.6483339E-004  0.2380869E+03  0.7818608E-02  0.1121074E+00
          5   -1    0    0  501    0  0.00000000000E+00  0.00000000000E+00  0.31919936061E+03  0.31923396093E+03  0.47000000000E+01 0. -1.
         -5   -1    0    0    0  501 -0.00000000000E+00 -0.00000000000E+00 -0.28774736758E+03  0.28778574939E+03  0.47000000000E+01 0.  1.
          6    1    1    2  502    0 -0.16297479414E+03  0.23250703294E+02 -0.17210441187E+03  0.29377764944E+03  0.17200000000E+03 0. -1.
         -6    1    1    2    0  502  0.16297479414E+03 -0.23250703294E+02  0.20355640490E+03  0.31324206088E+03  0.17200000000E+03 0.  1.
</event>
<event>
 4    1 -0.6483339E-004  0.1974792E+03  0.7818608E-02  0.1151883E+00
          5   -1    0    0  501    0  0.00000000000E+00  0.00000000000E+00  0.10844054551E+03  0.10854235077E+03  0.47000000000E+01 0. -1.
         -5   -1    0    0    0  501 -0.00000000000E+00 -0.00000000000E+00 -0.36105520179E+03  0.36108579138E+03  0.47000000000E+01 0.  1.
          6    1    1    2  502    0 -0.34543035668E+02 -0.90668610857E+02 -0.11012544956E+03  0.22610978075E+03  0.17200000000E+03 0.  1.
         -6    1    1    2    0  502  0.34543035668E+02  0.90668610857E+02 -0.14248920672E+03  0.24351836140E+03  0.17200000000E+03 0. -1.
</event>
<event>
 4    1 -0.6483339E-004  0.2075298E+03  0.7818608E-02  0.1143537E+00
          5   -1    0    0  501    0  0.00000000000E+00  0.00000000000E+00  0.72582360635E+02  0.72734373410E+02  0.47000000000E+01 0. -1.
         -5   -1    0    0    0  501 -0.00000000000E+00 -0.00000000000E+00 -0.72638807368E+03  0.72640327890E+03  0.47000000000E+01 0.  1.
          6    1    1    2  502    0  0.10991541968E+03 -0.37459529134E+02 -0.15543780484E+03  0.25928657308E+03  0.17200000000E+03 0. -1.
         -6    1    1    2    0  502 -0.10991541968E+03  0.37459529134E+02 -0.49836790820E+03  0.53985107922E+03  0.17200000000E+03 0.  1.
</event>
<event>
 4    1 -0.6483339E-004  0.2761684E+03  0.7818608E-02  0.1097800E+00
         -5   -1    0    0    0  501 -0.00000000000E+00  0.00000000000E+00  0.19238540786E+04  0.19238598196E+04  0.47000000000E+01 0.  1.
          5   -1    0    0  501    0  0.00000000000E+00 -0.00000000000E+00 -0.60801270226E+02  0.60982657052E+02  0.47000000000E+01 0. -1.
          6    1    1    2  502    0  0.14379056863E+02 -0.21558806090E+03  0.34523285324E+03  0.44210258112E+03  0.17200000000E+03 0. -1.
         -6    1    1    2    0  502 -0.14379056863E+02  0.21558806090E+03  0.15178199551E+04  0.15427398956E+04  0.17200000000E+03 0.  1.
</event>
<event>
 4    1 -0.6483339E-004  0.1787365E+03  0.7818608E-02  0.1169032E+00
          5   -1    0    0  501    0  0.00000000000E+00  0.00000000000E+00  0.95549442381E+03  0.95550598320E+03  0.47000000000E+01 0. -1.
         -5   -1    0    0    0  501 -0.00000000000E+00 -0.00000000000E+00 -0.33317769163E+02  0.33647640958E+02  0.47000000000E+01 0.  1.
          6    1    1    2  502    0  0.38462407859E+02 -0.29721481043E+02  0.44020609440E+03  0.47510854423E+03  0.17200000000E+03 0. -1.
         -6    1    1    2    0  502 -0.38462407859E+02  0.29721481043E+02  0.48197056024E+03  0.51404507992E+03  0.17200000000E+03 0. -1.
</event>
<event>
 4    1 -0.6483339E-004  0.1836952E+03  0.7818608E-02  0.1164274E+00
         -5   -1    0    0    0  501 -0.00000000000E+00  0.00000000000E+00  0.58200828969E+03  0.58202726678E+03  0.47000000000E+01 0.  1.
          5   -1    0    0  501    0  0.00000000000E+00 -0.00000000000E+00 -0.58446404194E+02  0.58635076219E+02  0.47000000000E+01 0. -1.
          6    1    1    2  502    0 -0.61276927149E+02  0.20126371381E+02  0.29372167201E+03  0.34643376457E+03  0.17200000000E+03 0. -1.
         -6    1    1    2    0  502  0.61276927149E+02 -0.20126371381E+02  0.22984021349E+03  0.29422857843E+03  0.17200000000E+03 0. -1.
</event>
<event>
 4    1 -0.6483339E-004  0.2147917E+03  0.7818608E-02  0.1137827E+00
          5   -1    0    0  501    0  0.00000000000E+00  0.00000000000E+00  0.11590919184E+03  0.11600444282E+03  0.47000000000E+01 0. -1.
         -5   -1    0    0    0  501 -0.00000000000E+00 -0.00000000000E+00 -0.79894235343E+03  0.79895617783E+03  0.47000000000E+01 0.  1.
          6    1    1    2  502    0  0.37138101531E+02  0.12317557816E+03 -0.17359969733E+02  0.21549206526E+03  0.17200000000E+03 0. -1.
         -6    1    1    2    0  502 -0.37138101531E+02 -0.12317557816E+03 -0.66567319185E+03  0.69946855539E+03  0.17200000000E+03 0.  1.
</event>
<event>
 4    1 -0.6483339E-004  0.1952641E+03  0.7818608E-02  0.1153797E+00
          5   -1    0    0  501    0  0.00000000000E+00  0.00000000000E+00  0.17796444459E+03  0.17802649673E+03  0.47000000000E+01 0. -1.
         -5   -1    0    0    0  501 -0.00000000000E+00 -0.00000000000E+00 -0.25878917218E+03  0.25883184819E+03  0.47000000000E+01 0.  1.
          6    1    1    2  502    0  0.72174879418E+02  0.57748333714E+02  0.50317107497E+02  0.20164298791E+03  0.17200000000E+03 0. -1.
         -6    1    1    2    0  502 -0.72174879418E+02 -0.57748333714E+02 -0.13114183509E+03  0.23521535701E+03  0.17200000000E+03 0.  1.
</event>
<event>
 4    1 -0.6483339E-004  0.2314927E+03  0.7818608E-02  0.1125594E+00
          5   -1    0    0  501    0  0.00000000000E+00  0.00000000000E+00  0.11308064456E+04  0.11308162129E+04  0.47000000000E+01 0. -1.
         -5   -1    0    0    0  501 -0.00000000000E+00 -0.00000000000E+00 -0.48657201420E+02  0.48883670586E+02  0.47000000000E+01 0.  1.
          6    1    1    2  502    0  0.14393786652E+03  0.57330382505E+02  0.64066005419E+03  0.68120054845E+03  0.17200000000E+03 0. -1.
         -6    1    1    2    0  502 -0.14393786652E+03 -0.57330382505E+02  0.44148918999E+03  0.49849933506E+03  0.17200000000E+03 0.  1.
</event>
<event>
 4    1 -0.6483339E-004  0.2170707E+03  0.7818608E-02  0.1136086E+00
          5   -1    0    0  501    0  0.00000000000E+00  0.00000000000E+00  0.99034633819E+02  0.99146097732E+02  0.47000000000E+01 0. -1.
         -5   -1    0    0    0  501 -0.00000000000E+00 -0.00000000000E+00 -0.47596487002E+03  0.47598807495E+03  0.47000000000E+01 0.  1.
          6    1    1    2  502    0 -0.65788277733E+02  0.11492433217E+03 -0.17855484768E+03  0.28107211395E+03  0.17200000000E+03 0. -1.
         -6    1    1    2    0  502  0.65788277733E+02 -0.11492433217E+03 -0.19837538853E+03  0.29406205873E+03  0.17200000000E+03 0.  1.
</event>
<event>
 4    1 -0.6483339E-004  0.1966016E+03  0.7818608E-02  0.1152638E+00
         -5   -1    0    0    0  501 -0.00000000000E+00  0.00000000000E+00  0.83943671383E+02  0.84075144753E+02  0.47000000000E+01 0.  1.
          5   -1    0    0  501    0  0.00000000000E+00 -0.00000000000E+00 -0.53586639011E+03  0.53588700119E+03  0.47000000000E+01 0. -1.
          6    1    1    2  502    0 -0.92275473288E+00 -0.95222605192E+02 -0.34261865035E+03  0.39501865220E+03  0.17200000000E+03 0. -1.
         -6    1    1    2    0  502  0.92275473288E+00  0.95222605192E+02 -0.10930406837E+03  0.22494349374E+03  0.17200000000E+03 0.  1.
</event>
<event>
 4    1 -0.6483339E-004  0.1860266E+03  0.7818608E-02  0.1162095E+00
          5   -1    0    0  501    0  0.00000000000E+00  0.00000000000E+00  0.14602001122E+03  0.14609563195E+03  0.47000000000E+01 0. -1.
         -5   -1    0    0    0  501 -0.00000000000E+00 -0.00000000000E+00 -0.31720358848E+03  0.31723840648E+03  0.47000000000E+01 0.  1.
          6    1    1    2  502    0 -0.40559491532E+02  0.58110564214E+02  0.30998233211E+02  0.18859162359E+03  0.17200000000E+03 0. -1.
         -6    1    1    2    0  502  0.40559491532E+02 -0.58110564214E+02 -0.20218181048E+03  0.27474241484E+03  0.17200000000E+03 0.  1.
</event>
<event>
 4    1 -0.6483339E-004  0.1916354E+03  0.7818608E-02  0.1156994E+00
          5   -1    0    0  501    0  0.00000000000E+00  0.00000000000E+00  0.16733234058E+03  0.16739833393E+03  0.47000000000E+01 0. -1.
         -5   -1    0    0    0  501 -0.00000000000E+00 -0.00000000000E+00 -0.26159346185E+03  0.26163568045E+03  0.47000000000E+01 0.  1.
          6    1    1    2  502    0  0.80836759704E+02  0.24608098926E+02  0.39071556575E+02  0.19557793021E+03  0.17200000000E+03 0.  1.
         -6    1    1    2    0  502 -0.80836759704E+02 -0.24608098926E+02 -0.13333267785E+03  0.23345608417E+03  0.17200000000E+03 0.  1.
</event>
<event>
 4    1 -0.6483339E-004  0.1790626E+03  0.7818608E-02  0.1168713E+00
         -5   -1    0    0    0  501 -0.00000000000E+00  0.00000000000E+00  0.18919055839E+04  0.18919114219E+04  0.47000000000E+01 0.  1.
          5   -1    0    0  501    0  0.00000000000E+00 -0.00000000000E+00 -0.19061040444E+02  0.19631944957E+02  0.47000000000E+01 0. -1.
          6    1    1    2  502    0  0.27785528709E+02 -0.41320472337E+02  0.59951095190E+03  0.62568106771E+03  0.17200000000E+03 0. -1.
         -6    1    1    2    0  502 -0.27785528709E+02  0.41320472337E+02  0.12733335915E+04  0.12858622991E+04  0.17200000000E+03 0.  1.
</event>
<event>
 4    1 -0.6483339E-004  0.3217226E+03  0.7818608E-02  0.1074859E+00
         -5   -1    0    0    0  501 -0.00000000000E+00  0.00000000000E+00  0.14360745240E+03  0.14368434287E+03  0.47000000000E+01 0.  1.
          5   -1    0    0  501    0  0.00000000000E+00 -0.00000000000E+00 -0.74851375431E+03  0.74852851008E+03  0.47000000000E+01 0. -1.
          6    1    1    2  502    0  0.14221148072E+03 -0.23172681703E+03 -0.21611726433E+03  0.38757205126E+03  0.17200000000E+03 0. -1.
         -6    1    1    2    0  502 -0.14221148072E+03  0.23172681703E+03 -0.38878903758E+03  0.50464080168E+03  0.17200000000E+03 0.  1.
</event>
<event>
 4    1 -0.6483339E-004  0.1730925E+03  0.7818608E-02  0.1174661E+00
          5   -1    0    0  501    0  0.00000000000E+00  0.00000000000E+00  0.75138707167E+02  0.75285558473E+02  0.47000000000E+01 0. -1.
         -5   -1    0    0    0  501 -0.00000000000E+00 -0.00000000000E+00 -0.42942232924E+03  0.42944804907E+03  0.47000000000E+01 0.  1.
          6    1    1    2  502    0  0.98385170732E+01 -0.16739769912E+02 -0.10909855352E+03  0.20460574453E+03  0.17200000000E+03 0. -1.
         -6    1    1    2    0  502 -0.98385170732E+01  0.16739769912E+02 -0.24518506855E+03  0.30012786301E+03  0.17200000000E+03 0.  1.
</event>
<event>
 4    1 -0.6483339E-004  0.1835125E+03  0.7818608E-02  0.1164446E+00
         -5   -1    0    0    0  501 -0.00000000000E+00  0.00000000000E+00  0.38609960718E+03  0.38612821273E+03  0.47000000000E+01 0.  1.
          5   -1    0    0  501    0  0.00000000000E+00 -0.00000000000E+00 -0.87967718126E+02  0.88093186072E+02  0.47000000000E+01 0. -1.
          6    1    1    2  502    0  0.12802062444E+02  0.62681358645E+02  0.12592041436E+03  0.22255964656E+03  0.17200000000E+03 0. -1.
         -6    1    1    2    0  502 -0.12802062444E+02 -0.62681358645E+02  0.17221147469E+03  0.25166175224E+03  0.17200000000E+03 0.  1.
</event>
<event>
 4    1 -0.6483339E-004  0.1737442E+03  0.7818608E-02  0.1173999E+00
          5   -1    0    0  501    0  0.00000000000E+00  0.00000000000E+00  0.25295889161E+03  0.25300255106E+03  0.47000000000E+01 0. -1.
         -5   -1    0    0    0  501 -0.00000000000E+00 -0.00000000000E+00 -0.28225770174E+03  0.28229682993E+03  0.47000000000E+01 0.  1.
          6    1    1    2  502    0  0.24447505596E+02  0.23134540398E+01  0.18871878198E+03  0.25651863728E+03  0.17200000000E+03 0. -1.
         -6    1    1    2    0  502 -0.24447505596E+02 -0.23134540398E+01 -0.21801759211E+03  0.27878074372E+03  0.17200000000E+03 0.  1.
</event>
<event>
 4    1 -0.6483339E-004  0.2001876E+03  0.7818608E-02  0.1149581E+00
         -5   -1    0    0    0  501 -0.00000000000E+00  0.00000000000E+00  0.35784092296E+03  0.35787178730E+03  0.47000000000E+01 0.  1.
          5   -1    0    0  501    0  0.00000000000E+00 -0.00000000000E+00 -0.14821518637E+03  0.14828968768E+03  0.47000000000E+01 0. -1.
          6    1    1    2  502    0 -0.10239310263E+03  0.25943964010E+01 -0.20399489079E+02  0.20122429653E+03  0.17200000000E+03 0. -1.
         -6    1    1    2    0  502  0.10239310263E+03 -0.25943964010E+01  0.23002522567E+03  0.30493717845E+03  0.17200000000E+03 0.  1.
</event>
<event>
 4    1 -0.6483339E-004  0.2561835E+03  0.7818608E-02  0.1109458E+00
          5   -1    0    0  501    0  0.00000000000E+00  0.00000000000E+00  0.12982064090E+04  0.12982149169E+04  0.47000000000E+01 0. -1.
         -5   -1    0    0    0  501 -0.00000000000E+00 -0.00000000000E+00 -0.73656768273E+02  0.73806568220E+02  0.47000000000E+01 0.  1.
          6    1    1    2  502    0 -0.13714479636E+03 -0.13129079355E+03  0.99694787770E+03  0.10293371841E+04  0.17200000000E+03 0. -1.
         -6    1    1    2    0  502  0.13714479636E+03  0.13129079355E+03  0.22760176306E+03  0.34268430105E+03  0.17200000000E+03 0.  1.
</event>
<event>
 4    1 -0.6483339E-004  0.3012013E+03  0.7818608E-02  0.1084642E+00
         -5   -1    0    0    0  501 -0.00000000000E+00  0.00000000000E+00  0.90441647962E+03  0.90442869183E+03  0.47000000000E+01 0.  1.
          5   -1    0    0  501    0  0.00000000000E+00 -0.00000000000E+00 -0.12903719824E+03  0.12912276534E+03  0.47000000000E+01 0. -1.
          6    1    1    2  502    0  0.24718030283E+03 -0.63336774232E+01  0.63170519108E+03  0.69983831419E+03  0.17200000000E+03 0.  1.
         -6    1    1    2    0  502 -0.24718030283E+03  0.63336774232E+01  0.14367409031E+03  0.33371314299E+03  0.17200000000E+03 0. -1.
</event>
<event>
 4    1 -0.6483339E-004  0.4280156E+03  0.7818608E-02  0.1034489E+00
          5   -1    0    0  501    0  0.00000000000E+00  0.00000000000E+00  0.10044262173E+04  0.10044372135E+04  0.47000000000E+01 0. -1.
         -5   -1    0    0    0  501 -0.00000000000E+00 -0.00000000000E+00 -0.18274682317E+03  0.18280725199E+03  0.47000000000E+01 0.  1.
          6    1    1    2  502    0  0.22593012134E+03  0.32026379953E+03  0.43857467073E+03  0.61281731603E+03  0.17200000000E+03 0. -1.
         -6    1    1    2    0  502 -0.22593012134E+03 -0.32026379953E+03  0.38310472335E+03  0.57442714949E+03  0.17200000000E+03 0.  1.
</event>
<event>
 4    1 -0.6483339E-004  0.5514620E+03  0.7818608E-02  0.1001156E+00
          5   -1    0    0  501    0  0.00000000000E+00  0.00000000000E+00  0.15873926427E+04  0.15873996006E+04  0.47000000000E+01 0. -1.
         -5   -1    0    0    0  501 -0.00000000000E+00 -0.00000000000E+00 -0.22943021019E+03  0.22947834614E+03  0.47000000000E+01 0.  1.
          6    1    1    2  502    0 -0.68449660471E+02  0.51946215877E+03  0.10480983539E+04  0.11843227811E+04  0.17200000000E+03 0. -1.
         -6    1    1    2    0  502  0.68449660471E+02 -0.51946215877E+03  0.30986407864E+03  0.63255516569E+03  0.17200000000E+03 0.  1.
</event>
<event>
 4    1 -0.6483339E-004  0.2237600E+03  0.7818608E-02  0.1131110E+00
         -5   -1    0    0    0  501 -0.00000000000E+00  0.00000000000E+00  0.37295429132E+03  0.37298390504E+03  0.47000000000E+01 0.  1.
          5   -1    0    0  501    0  0.00000000000E+00 -0.00000000000E+00 -0.14338237429E+03  0.14345938539E+03  0.47000000000E+01 0. -1.
          6    1    1    2  502    0 -0.13683331159E+03 -0.41966677070E+02  0.18020560019E+03  0.28730230679E+03  0.17200000000E+03 0.  1.
         -6    1    1    2    0  502  0.13683331159E+03  0.41966677070E+02  0.49366316848E+02  0.22914098364E+03  0.17200000000E+03 0. -1.
</event>
<event>
 4    1 -0.6483339E-004  0.1982836E+03  0.7818608E-02  0.1151195E+00
         -5   -1    0    0    0  501 -0.00000000000E+00  0.00000000000E+00  0.10467347884E+04  0.10467453403E+04  0.47000000000E+01 0.  1.
          5   -1    0    0  501    0  0.00000000000E+00 -0.00000000000E+00 -0.46548055761E+02  0.46784735706E+02  0.47000000000E+01 0. -1.
          6    1    1    2  502    0 -0.82031676906E+02 -0.54801224502E+02  0.25846064628E+03  0.32575800205E+03  0.17200000000E+03 0. -1.
         -6    1    1    2    0  502  0.82031676906E+02  0.54801224502E+02  0.74172608641E+03  0.76777207391E+03  0.17200000000E+03 0.  1.
</event>
<event>
 4    1 -0.6483339E-004  0.2007762E+03  0.7818608E-02  0.1149086E+00
         -5   -1    0    0    0  501 -0.00000000000E+00  0.00000000000E+00  0.55962144656E+03  0.55964118277E+03  0.47000000000E+01 0.  1.
          5   -1    0    0  501    0  0.00000000000E+00 -0.00000000000E+00 -0.79671587696E+02  0.79810098897E+02  0.47000000000E+01 0. -1.
          6    1    1    2  502    0 -0.26013839076E+02 -0.10025155326E+03  0.14044660410E+03  0.24502314658E+03  0.17200000000E+03 0.  1.
         -6    1    1    2    0  502  0.26013839076E+02  0.10025155326E+03  0.33950325476E+03  0.39442813509E+03  0.17200000000E+03 0.  1.
</event>
<event>
 4    1 -0.6483339E-004  0.1911552E+03  0.7818608E-02  0.1157424E+00
         -5   -1    0    0    0  501 -0.00000000000E+00  0.00000000000E+00  0.13504943829E+03  0.13513119841E+03  0.47000000000E+01 0.  1.
          5   -1    0    0  501    0  0.00000000000E+00 -0.00000000000E+00 -0.66188431890E+03  0.66190100590E+03  0.47000000000E+01 0. -1.
          6    1    1    2  502    0 -0.55581142919E+02  0.62185566458E+02 -0.56988437874E+03  0.60108943865E+03  0.17200000000E+03 0. -1.
         -6    1    1    2    0  502  0.55581142919E+02 -0.62185566458E+02  0.43049498130E+02  0.19594276566E+03  0.17200000000E+03 0.  1.
</event>
<event>
 4    1 -0.6483339E-004  0.2356711E+03  0.7818608E-02  0.1122711E+00
         -5   -1    0    0    0  501 -0.00000000000E+00  0.00000000000E+00  0.16480251942E+03  0.16486952540E+03  0.47000000000E+01 0.  1.
          5   -1    0    0  501    0  0.00000000000E+00 -0.00000000000E+00 -0.36645745351E+03  0.36648759219E+03  0.47000000000E+01 0. -1.
          6    1    1    2  502    0 -0.21225042978E+02  0.15970718355E+03 -0.25336961029E+02  0.23702921449E+03  0.17200000000E+03 0. -1.
         -6    1    1    2    0  502  0.21225042978E+02 -0.15970718355E+03 -0.17631797306E+03  0.29432790311E+03  0.17200000000E+03 0.  1.
</event>
<event>
 4    1 -0.6483339E-004  0.1883743E+03  0.7818608E-02  0.1159936E+00
         -5   -1    0    0    0  501 -0.00000000000E+00  0.00000000000E+00  0.14292774009E+03  0.14300499602E+03  0.47000000000E+01 0.  1.
          5   -1    0    0  501    0  0.00000000000E+00 -0.00000000000E+00 -0.29190595970E+03  0.29194379477E+03  0.47000000000E+01 0. -1.
          6    1    1    2  502    0 -0.65416184768E+02  0.40268925243E+02 -0.15871421919E+03  0.24632309462E+03  0.17200000000E+03 0. -1.
         -6    1    1    2    0  502  0.65416184768E+02 -0.40268925243E+02  0.97359995884E+01  0.18862569618E+03  0.17200000000E+03 0.  1.
</event>
<event>
 4    1 -0.6483339E-004  0.1984675E+03  0.7818608E-02  0.1151038E+00
          5   -1    0    0  501    0  0.00000000000E+00  0.00000000000E+00  0.29239663059E+03  0.29243440218E+03  0.47000000000E+01 0. -1.
         -5   -1    0    0    0  501 -0.00000000000E+00 -0.00000000000E+00 -0.18678408558E+03  0.18684320867E+03  0.47000000000E+01 0.  1.
          6    1    1    2  502    0  0.92677121037E+02 -0.34875211197E+02  0.17940471386E+03  0.26753575551E+03  0.17200000000E+03 0. -1.
         -6    1    1    2    0  502 -0.92677121037E+02  0.34875211197E+02 -0.73792168848E+02  0.21174185534E+03  0.17200000000E+03 0.  1.
</event>
<event>
 4    1 -0.6483339E-004  0.1866883E+03  0.7818608E-02  0.1161483E+00
         -5   -1    0    0    0  501 -0.00000000000E+00  0.00000000000E+00  0.45959076431E+03  0.45961479593E+03  0.47000000000E+01 0.  1.
          5   -1    0    0  501    0  0.00000000000E+00 -0.00000000000E+00 -0.14671447765E+03  0.14678974063E+03  0.47000000000E+01 0. -1.
          6    1    1    2  502    0 -0.61712802619E+02  0.38210505802E+02 -0.54358431400E+02  0.19444112689E+03  0.17200000000E+03 0. -1.
         -6    1    1    2    0  502  0.61712802619E+02 -0.38210505802E+02  0.36723471806E+03  0.41196340967E+03  0.17200000000E+03 0.  1.
</event>
<event>
 4    1 -0.6483339E-004  0.3780426E+03  0.7818608E-02  0.1051660E+00
          5   -1    0    0  501    0  0.00000000000E+00  0.00000000000E+00  0.77012073411E+03  0.77013507589E+03  0.47000000000E+01 0. -1.
         -5   -1    0    0    0  501 -0.00000000000E+00 -0.00000000000E+00 -0.46292054805E+03  0.46294440682E+03  0.47000000000E+01 0.  1.
          6    1    1    2  502    0 -0.15780751214E+03  0.29737010134E+03  0.63082927677E+03  0.73543304555E+03  0.17200000000E+03 0. -1.
         -6    1    1    2    0  502  0.15780751214E+03 -0.29737010134E+03 -0.32362909071E+03  0.49764643715E+03  0.17200000000E+03 0.  1.
</event>
<event>
 4    1 -0.6483339E-004  0.1751020E+03  0.7818608E-02  0.1172629E+00
         -5   -1    0    0    0  501 -0.00000000000E+00  0.00000000000E+00  0.11904990475E+03  0.11914264484E+03  0.47000000000E+01 0.  1.
          5   -1    0    0  501    0  0.00000000000E+00 -0.00000000000E+00 -0.26277840205E+03  0.26282043031E+03  0.47000000000E+01 0. -1.
          6    1    1    2  502    0  0.31318166336E+02  0.97913335161E+01 -0.44372516530E+02  0.18063670164E+03  0.17200000000E+03 0.  1.
         -6    1    1    2    0  502 -0.31318166336E+02 -0.97913335161E+01 -0.99355980778E+02  0.20132637351E+03  0.17200000000E+03 0. -1.
</event>
<event>
 4    1 -0.6483339E-004  0.2121869E+03  0.7818608E-02  0.1139846E+00
         -5   -1    0    0    0  501 -0.00000000000E+00  0.00000000000E+00  0.27776130518E+03  0.27780106669E+03  0.47000000000E+01 0.  1.
          5   -1    0    0  501    0  0.00000000000E+00 -0.00000000000E+00 -0.23346122510E+03  0.23350853009E+03  0.47000000000E+01 0. -1.
          6    1    1    2  502    0  0.12421767655E+03 -0.30444640970E+01 -0.11925558075E+03  0.24340335550E+03  0.17200000000E+03 0. -1.
         -6    1    1    2    0  502 -0.12421767655E+03  0.30444640970E+01  0.16355566083E+03  0.26790624128E+03  0.17200000000E+03 0.  1.
</event>
<event>
 4    1 -0.6483339E-004  0.2343136E+03  0.7818608E-02  0.1123640E+00
          5   -1    0    0  501    0  0.00000000000E+00  0.00000000000E+00  0.25861506880E+03  0.25865777354E+03  0.47000000000E+01 0. -1.
         -5   -1    0    0    0  501 -0.00000000000E+00 -0.00000000000E+00 -0.23006200184E+03  0.23011000562E+03  0.47000000000E+01 0.  1.
          6    1    1    2  502    0 -0.30215808790E+02 -0.15622383191E+03  0.82339703122E+02  0.24836003597E+03  0.17200000000E+03 0. -1.
         -6    1    1    2    0  502  0.30215808790E+02  0.15622383191E+03 -0.53786636156E+02  0.24040774319E+03  0.17200000000E+03 0.  1.
</event>
<event>
 4    1 -0.6483339E-004  0.2576552E+03  0.7818608E-02  0.1108560E+00
          5   -1    0    0  501    0  0.00000000000E+00  0.00000000000E+00  0.15620210815E+03  0.15627280183E+03  0.47000000000E+01 0. -1.
         -5   -1    0    0    0  501 -0.00000000000E+00 -0.00000000000E+00 -0.64868482083E+03  0.64870184737E+03  0.47000000000E+01 0.  1.
          6    1    1    2  502    0  0.13240343920E+03 -0.13882193138E+03 -0.48266742896E+03  0.54713256741E+03  0.17200000000E+03 0.  1.
         -6    1    1    2    0  502 -0.13240343920E+03  0.13882193138E+03 -0.98152837205E+01  0.25784208178E+03  0.17200000000E+03 0. -1.
</event>
<event>
 4    1 -0.6483339E-004  0.1902648E+03  0.7818608E-02  0.1158223E+00
          5   -1    0    0  501    0  0.00000000000E+00  0.00000000000E+00  0.59508308356E+02  0.59693624144E+02  0.47000000000E+01 0. -1.
         -5   -1    0    0    0  501 -0.00000000000E+00 -0.00000000000E+00 -0.74475282916E+03  0.74476765943E+03  0.47000000000E+01 0.  1.
          6    1    1    2  502    0 -0.80122926209E+02 -0.14036268448E+02 -0.16977570311E+03  0.25499899902E+03  0.17200000000E+03 0. -1.
         -6    1    1    2    0  502  0.80122926209E+02  0.14036268448E+02 -0.51546881769E+03  0.54946228455E+03  0.17200000000E+03 0.  1.
</event>
<event>
 4    1 -0.6483339E-004  0.2190288E+03  0.7818608E-02  0.1134609E+00
          5   -1    0    0  501    0  0.00000000000E+00  0.00000000000E+00  0.46946382898E+03  0.46948735523E+03  0.47000000000E+01 0. -1.
         -5   -1    0    0    0  501 -0.00000000000E+00 -0.00000000000E+00 -0.10641073974E+03  0.10651448508E+03  0.47000000000E+01 0.  1.
          6    1    1    2  502    0  0.99426695303E+02 -0.92216783566E+02  0.23940452395E+03  0.32448132304E+03  0.17200000000E+03 0. -1.
         -6    1    1    2    0  502 -0.99426695303E+02  0.92216783566E+02  0.12364856528E+03  0.25152051727E+03  0.17200000000E+03 0.  1.
</event>
<event>
 4    1 -0.6483339E-004  0.2437655E+03  0.7818608E-02  0.1117309E+00
         -5   -1    0    0    0  501 -0.00000000000E+00  0.00000000000E+00  0.68837583607E+02  0.68997847190E+02  0.47000000000E+01 0.  1.
          5   -1    0    0  501    0  0.00000000000E+00 -0.00000000000E+00 -0.13376826985E+04  0.13376909553E+04  0.47000000000E+01 0. -1.
          6    1    1    2  502    0 -0.17046399487E+03 -0.27922393958E+02 -0.10537970925E+04  0.10816237543E+04  0.17200000000E+03 0. -1.
         -6    1    1    2    0  502  0.17046399487E+03  0.27922393958E+02 -0.21504802237E+03  0.32506504819E+03  0.17200000000E+03 0.  1.
</event>
<event>
 4    1 -0.6483339E-004  0.4798011E+03  0.7818608E-02  0.1019190E+00
          5   -1    0    0  501    0  0.00000000000E+00  0.00000000000E+00  0.52080022371E+03  0.52082143103E+03  0.47000000000E+01 0. -1.
         -5   -1    0    0    0  501 -0.00000000000E+00 -0.00000000000E+00 -0.44443769896E+03  0.44446254989E+03  0.47000000000E+01 0.  1.
          6    1    1    2  502    0 -0.44470674757E+03  0.53488239760E+02  0.23422150277E+01  0.47980680393E+03  0.17200000000E+03 0. -1.
         -6    1    1    2    0  502  0.44470674757E+03 -0.53488239760E+02  0.74020309730E+02  0.48547717699E+03  0.17200000000E+03 0.  1.
</event>
<event>
 4    1 -0.6483339E-004  0.1741757E+03  0.7818608E-02  0.1173562E+00
          5   -1    0    0  501    0  0.00000000000E+00  0.00000000000E+00  0.74857740239E+03  0.74859215690E+03  0.47000000000E+01 0. -1.
         -5   -1    0    0    0  501 -0.00000000000E+00 -0.00000000000E+00 -0.40410765486E+02  0.40683165648E+02  0.47000000000E+01 0.  1.
          6    1    1    2  502    0  0.27423362338E+02 -0.10727453438E+01  0.34238184539E+03  0.38413867241E+03  0.17200000000E+03 0.  1.
         -6    1    1    2    0  502 -0.27423362338E+02  0.10727453438E+01  0.36578479151E+03  0.40513665014E+03  0.17200000000E+03 0.  1.
</event>
<event>
 4    1 -0.6483339E-004  0.2207043E+03  0.7818608E-02  0.1133359E+00
         -5   -1    0    0    0  501 -0.00000000000E+00  0.00000000000E+00  0.12897944851E+03  0.12906505390E+03  0.47000000000E+01 0.  1.
          5   -1    0    0  501    0  0.00000000000E+00 -0.00000000000E+00 -0.63379856918E+03  0.63381599562E+03  0.47000000000E+01 0. -1.
          6    1    1    2  502    0 -0.13170762360E+03 -0.42183918671E+02 -0.49498256179E+03  0.54195767140E+03  0.17200000000E+03 0. -1.
         -6    1    1    2    0  502  0.13170762360E+03  0.42183918671E+02 -0.98365588816E+01  0.22092337812E+03  0.17200000000E+03 0.  1.
</event>
<event>
 4    1 -0.6483339E-004  0.2711686E+03  0.7818608E-02  0.1100613E+00
         -5   -1    0    0    0  501 -0.00000000000E+00  0.00000000000E+00  0.26467960080E+03  0.26472132721E+03  0.47000000000E+01 0.  1.
          5   -1    0    0  501    0  0.00000000000E+00 -0.00000000000E+00 -0.27780611794E+03  0.27784587303E+03  0.47000000000E+01 0. -1.
          6    1    1    2  502    0  0.12520625460E+03 -0.16814219058E+03 -0.21673285973E+01  0.27117724786E+03  0.17200000000E+03 0. -1.
         -6    1    1    2    0  502 -0.12520625460E+03  0.16814219058E+03 -0.10959188535E+02  0.27138995239E+03  0.17200000000E+03 0. -1.
</event>
<event>
 4    1 -0.6483339E-004  0.3195697E+03  0.7818608E-02  0.1075848E+00
          5   -1    0    0  501    0  0.00000000000E+00  0.00000000000E+00  0.79606854293E+03  0.79608241725E+03  0.47000000000E+01 0. -1.
         -5   -1    0    0    0  501 -0.00000000000E+00 -0.00000000000E+00 -0.16369529124E+03  0.16376275027E+03  0.47000000000E+01 0.  1.
          6    1    1    2  502    0 -0.47874442438E+02  0.26504492403E+03  0.92857866116E+02  0.33278725530E+03  0.17200000000E+03 0. -1.
         -6    1    1    2    0  502  0.47874442438E+02 -0.26504492403E+03  0.53951538558E+03  0.62705791221E+03  0.17200000000E+03 0. -1.
</event>
<event>
 4    1 -0.6483339E-004  0.4684921E+03  0.7818608E-02  0.1022347E+00
         -5   -1    0    0    0  501 -0.00000000000E+00  0.00000000000E+00  0.79923701636E+03  0.79925083567E+03  0.47000000000E+01 0.  1.
          5   -1    0    0  501    0  0.00000000000E+00 -0.00000000000E+00 -0.58235138596E+03  0.58237035186E+03  0.47000000000E+01 0. -1.
          6    1    1    2  502    0 -0.29082018339E+03 -0.32453727759E+03 -0.39374157653E+03  0.61197814724E+03  0.17200000000E+03 0. -1.
         -6    1    1    2    0  502  0.29082018339E+03  0.32453727759E+03  0.61062720694E+03  0.76964304029E+03  0.17200000000E+03 0.  1.
</event>
<event>
 4    1 -0.6483339E-004  0.2327908E+03  0.7818608E-02  0.1124691E+00
         -5   -1    0    0    0  501 -0.00000000000E+00  0.00000000000E+00  0.82707001548E+03  0.82708336974E+03  0.47000000000E+01 0.  1.
          5   -1    0    0  501    0  0.00000000000E+00 -0.00000000000E+00 -0.65835663135E+02  0.66003216137E+02  0.47000000000E+01 0. -1.
          6    1    1    2  502    0 -0.71952311541E+02 -0.13939303829E+03  0.34536138403E+03  0.41649254476E+03  0.17200000000E+03 0. -1.
         -6    1    1    2    0  502  0.71952311541E+02  0.13939303829E+03  0.41587296832E+03  0.47659404113E+03  0.17200000000E+03 0. -1.
</event>
<event>
 4    1 -0.6483339E-004  0.1924403E+03  0.7818608E-02  0.1156279E+00
         -5   -1    0    0    0  501 -0.00000000000E+00  0.00000000000E+00  0.25044629767E+03  0.25049039506E+03  0.47000000000E+01 0.  1.
          5   -1    0    0  501    0  0.00000000000E+00 -0.00000000000E+00 -0.15974607688E+03  0.15981520290E+03  0.47000000000E+01 0. -1.
          6    1    1    2  502    0  0.41597230173E+02  0.75623640657E+02 -0.10790670691E+02  0.19274258263E+03  0.17200000000E+03 0. -1.
         -6    1    1    2    0  502 -0.41597230173E+02 -0.75623640657E+02  0.10149089148E+03  0.21756301533E+03  0.17200000000E+03 0.  1.
</event>
<event>
 4    1 -0.6483339E-004  0.2064955E+03  0.7818608E-02  0.1144372E+00
          5   -1    0    0  501    0  0.00000000000E+00  0.00000000000E+00  0.34325895077E+03  0.34329112614E+03  0.47000000000E+01 0. -1.
         -5   -1    0    0    0  501 -0.00000000000E+00 -0.00000000000E+00 -0.16126102628E+03  0.16132950318E+03  0.47000000000E+01 0.  1.
          6    1    1    2  502    0 -0.80168355368E+02  0.81421376980E+02  0.21201200353E+03  0.29595522545E+03  0.17200000000E+03 0.  1.
         -6    1    1    2    0  502  0.80168355368E+02 -0.81421376980E+02 -0.30014079041E+02  0.20866540387E+03  0.17200000000E+03 0.  1.
</event>
<event>
 4    1 -0.6483339E-004  0.2568018E+03  0.7818608E-02  0.1109080E+00
         -5   -1    0    0    0  501 -0.00000000000E+00  0.00000000000E+00  0.10004719772E+04  0.10004830170E+04  0.47000000000E+01 0.  1.
          5   -1    0    0  501    0  0.00000000000E+00 -0.00000000000E+00 -0.13496549673E+03  0.13504730766E+03  0.47000000000E+01 0. -1.
          6    1    1    2  502    0 -0.19066156857E+03 -0.33642052132E+01  0.26573391723E+02  0.25817299773E+03  0.17200000000E+03 0. -1.
         -6    1    1    2    0  502  0.19066156857E+03  0.33642052132E+01  0.83893308879E+03  0.87735732690E+03  0.17200000000E+03 0.  1.
</event>
<event>
 4    1 -0.6483339E-004  0.2326483E+03  0.7818608E-02  0.1124790E+00
         -5   -1    0    0    0  501 -0.00000000000E+00  0.00000000000E+00  0.10428149618E+03  0.10438735769E+03  0.47000000000E+01 0.  1.
          5   -1    0    0  501    0  0.00000000000E+00 -0.00000000000E+00 -0.60915698876E+03  0.60917512010E+03  0.47000000000E+01 0. -1.
          6    1    1    2  502    0 -0.15183771613E+03  0.38555445840E+02 -0.38994750407E+03  0.45407518142E+03  0.17200000000E+03 0. -1.
         -6    1    1    2    0  502  0.15183771613E+03 -0.38555445840E+02 -0.11492798850E+03  0.25948729638E+03  0.17200000000E+03 0.  1.
</event>
<event>
 4    1 -0.6483339E-004  0.2210058E+03  0.7818608E-02  0.1133135E+00
         -5   -1    0    0    0  501 -0.00000000000E+00  0.00000000000E+00  0.13640964027E+04  0.13641044996E+04  0.47000000000E+01 0.  1.
          5   -1    0    0  501    0  0.00000000000E+00 -0.00000000000E+00 -0.39371911949E+02  0.39651449539E+02  0.47000000000E+01 0. -1.
          6    1    1    2  502    0 -0.12929239625E+03 -0.50428637270E+02  0.87751010481E+03  0.90491300976E+03  0.17200000000E+03 0. -1.
         -6    1    1    2    0  502  0.12929239625E+03  0.50428637270E+02  0.44721438591E+03  0.49884293936E+03  0.17200000000E+03 0. -1.
</event>
<event>
 4    1 -0.6483339E-004  0.2876732E+03  0.7818608E-02  0.1091570E+00
          5   -1    0    0  501    0  0.00000000000E+00  0.00000000000E+00  0.53113357693E+03  0.53115437167E+03  0.47000000000E+01 0. -1.
         -5   -1    0    0    0  501 -0.00000000000E+00 -0.00000000000E+00 -0.16523643608E+03  0.16530326618E+03  0.47000000000E+01 0.  1.
          6    1    1    2  502    0 -0.85867115401E+02  0.21400630480E+03  0.99535886544E+02  0.30440639401E+03  0.17200000000E+03 0. -1.
         -6    1    1    2    0  502  0.85867115401E+02 -0.21400630480E+03  0.26636125430E+03  0.39205124384E+03  0.17200000000E+03 0. -1.
</event>
<event>
 4    1 -0.6483339E-004  0.1810141E+03  0.7818608E-02  0.1166825E+00
          5   -1    0    0  501    0  0.00000000000E+00  0.00000000000E+00  0.10921011036E+03  0.10931119890E+03  0.47000000000E+01 0. -1.
         -5   -1    0    0    0  501 -0.00000000000E+00 -0.00000000000E+00 -0.29998363764E+03  0.30002045406E+03  0.47000000000E+01 0.  1.
          6    1    1    2  502    0  0.96502756440E+00 -0.56401947758E+02 -0.89924573712E+02  0.20212011267E+03  0.17200000000E+03 0.  1.
         -6    1    1    2    0  502 -0.96502756440E+00  0.56401947758E+02 -0.10084895357E+03  0.20721154028E+03  0.17200000000E+03 0.  1.
</event>
<event>
 4    1 -0.6483339E-004  0.3163841E+03  0.7818608E-02  0.1077326E+00
         -5   -1    0    0    0  501 -0.00000000000E+00  0.00000000000E+00  0.80556314989E+02  0.80693307558E+02  0.47000000000E+01 0.  1.
          5   -1    0    0  501    0  0.00000000000E+00 -0.00000000000E+00 -0.12983905886E+04  0.12983990953E+04  0.47000000000E+01 0. -1.
          6    1    1    2  502    0  0.96354599836E+02  0.24744834345E+03 -0.75337631213E+03  0.81711367585E+03  0.17200000000E+03 0. -1.
         -6    1    1    2    0  502 -0.96354599836E+02 -0.24744834345E+03 -0.46445796151E+03  0.56197872699E+03  0.17200000000E+03 0.  1.
</event>
<event>
 4    1 -0.6483339E-004  0.1764553E+03  0.7818608E-02  0.1171278E+00
          5   -1    0    0  501    0  0.00000000000E+00  0.00000000000E+00  0.79863365014E+03  0.79864747989E+03  0.47000000000E+01 0. -1.
         -5   -1    0    0    0  501 -0.00000000000E+00 -0.00000000000E+00 -0.10486131778E+03  0.10496659453E+03  0.47000000000E+01 0.  1.
          6    1    1    2  502    0 -0.30248279360E+02  0.25249231825E+02  0.70505292888E+03  0.72679853786E+03  0.17200000000E+03 0. -1.
         -6    1    1    2    0  502  0.30248279360E+02 -0.25249231825E+02 -0.11280596514E+02  0.17681553656E+03  0.17200000000E+03 0.  1.
</event>
<event>
 4    1 -0.6483339E-004  0.2332343E+03  0.7818608E-02  0.1124384E+00
          5   -1    0    0  501    0  0.00000000000E+00  0.00000000000E+00  0.58882523599E+03  0.58884399338E+03  0.47000000000E+01 0. -1.
         -5   -1    0    0    0  501 -0.00000000000E+00 -0.00000000000E+00 -0.92316255375E+02  0.92435821014E+02  0.47000000000E+01 0.  1.
          6    1    1    2  502    0  0.38439287794E+02 -0.15276347720E+03  0.24439181943E+03  0.33782483659E+03  0.17200000000E+03 0. -1.
         -6    1    1    2    0  502 -0.38439287794E+02  0.15276347720E+03  0.25211716118E+03  0.34345497780E+03  0.17200000000E+03 0.  1.
</event>
<event>
 4    1 -0.6483339E-004  0.1947078E+03  0.7818608E-02  0.1154282E+00
          5   -1    0    0  501    0  0.00000000000E+00  0.00000000000E+00  0.27983954659E+03  0.27987901286E+03  0.47000000000E+01 0. -1.
         -5   -1    0    0    0  501 -0.00000000000E+00 -0.00000000000E+00 -0.19864954553E+03  0.19870513818E+03  0.47000000000E+01 0.  1.
          6    1    1    2  502    0  0.59195433053E+02  0.69448086820E+02  0.17559927145E+03  0.26219504227E+03  0.17200000000E+03 0. -1.
         -6    1    1    2    0  502 -0.59195433053E+02 -0.69448086820E+02 -0.94409270392E+02  0.21638910877E+03  0.17200000000E+03 0.  1.
</event>
<event>
 4    1 -0.6483339E-004  0.1840276E+03  0.7818608E-02  0.1163961E+00
          5   -1    0    0  501    0  0.00000000000E+00  0.00000000000E+00  0.22003646648E+02  0.22500010352E+02  0.47000000000E+01 0. -1.
         -5   -1    0    0    0  501 -0.00000000000E+00 -0.00000000000E+00 -0.20015288023E+04  0.20015343206E+04  0.47000000000E+01 0.  1.
          6    1    1    2  502    0 -0.53665552121E+02 -0.37445481620E+02 -0.49418802995E+03  0.52734046358E+03  0.17200000000E+03 0. -1.
         -6    1    1    2    0  502  0.53665552121E+02  0.37445481620E+02 -0.14853371257E+04  0.14966938674E+04  0.17200000000E+03 0.  1.
</event>
<event>
 4    1 -0.6483339E-004  0.2182284E+03  0.7818608E-02  0.1135211E+00
         -5   -1    0    0    0  501 -0.00000000000E+00  0.00000000000E+00  0.36147345191E+03  0.36150400612E+03  0.47000000000E+01 0.  1.
          5   -1    0    0  501    0  0.00000000000E+00 -0.00000000000E+00 -0.14187008176E+03  0.14194791333E+03  0.47000000000E+01 0. -1.
          6    1    1    2  502    0 -0.28745503907E+02  0.13119950567E+03  0.17727044263E+03  0.28115551589E+03  0.17200000000E+03 0. -1.
         -6    1    1    2    0  502  0.28745503907E+02 -0.13119950567E+03  0.42332927518E+02  0.22229640356E+03  0.17200000000E+03 0. -1.
</event>
<event>
 4    1 -0.6483339E-004  0.2253468E+03  0.7818608E-02  0.1129958E+00
         -5   -1    0    0    0  501 -0.00000000000E+00  0.00000000000E+00  0.11834030122E+03  0.11843359697E+03  0.47000000000E+01 0.  1.
          5   -1    0    0  501    0  0.00000000000E+00 -0.00000000000E+00 -0.47723918878E+03  0.47726233175E+03  0.47000000000E+01 0. -1.
          6    1    1    2  502    0  0.14443776368E+03  0.18300609989E+02 -0.84605612817E+02  0.24070581552E+03  0.17200000000E+03 0. -1.
         -6    1    1    2    0  502 -0.14443776368E+03 -0.18300609989E+02 -0.27429327475E+03  0.35499011321E+03  0.17200000000E+03 0. -1.
</event>
<event>
 4    1 -0.6483339E-004  0.2274814E+03  0.7818608E-02  0.1128425E+00
          5   -1    0    0  501    0  0.00000000000E+00  0.00000000000E+00  0.45811616760E+03  0.45814027657E+03  0.47000000000E+01 0. -1.
         -5   -1    0    0    0  501 -0.00000000000E+00 -0.00000000000E+00 -0.49254408861E+03  0.49256651249E+03  0.47000000000E+01 0.  1.
          6    1    1    2  502    0 -0.12499309062E+03 -0.80873360565E+02  0.40009303256E+03  0.46024146690E+03  0.17200000000E+03 0. -1.
         -6    1    1    2    0  502  0.12499309062E+03  0.80873360565E+02 -0.43452095357E+03  0.49046532216E+03  0.17200000000E+03 0.  1.
</event>
<event>
 4    1 -0.6483339E-004  0.1818023E+03  0.7818608E-02  0.1166070E+00
         -5   -1    0    0    0  501 -0.00000000000E+00  0.00000000000E+00  0.48628402859E+02  0.48855005522E+02  0.47000000000E+01 0.  1.
          5   -1    0    0  501    0  0.00000000000E+00 -0.00000000000E+00 -0.78982030317E+03  0.78983428724E+03  0.47000000000E+01 0. -1.
          6    1    1    2  502    0  0.20649617656E+02 -0.55151289535E+02 -0.52844776230E+03  0.55884623012E+03  0.17200000000E+03 0. -1.
         -6    1    1    2    0  502 -0.20649617656E+02  0.55151289535E+02 -0.21274413801E+03  0.27984306263E+03  0.17200000000E+03 0.  1.
</event>
<event>
 4    1 -0.6483339E-004  0.2456735E+03  0.7818608E-02  0.1116070E+00
          5   -1    0    0  501    0  0.00000000000E+00  0.00000000000E+00  0.56872993926E+03  0.56874935940E+03  0.47000000000E+01 0. -1.
         -5   -1    0    0    0  501 -0.00000000000E+00 -0.00000000000E+00 -0.19528430491E+03  0.19534085529E+03  0.47000000000E+01 0.  1.
          6    1    1    2  502    0  0.10267998954E+03 -0.14222626652E+03  0.44491077924E+03  0.50823330531E+03  0.17200000000E+03 0. -1.
         -6    1    1    2    0  502 -0.10267998954E+03  0.14222626652E+03 -0.71465144895E+02  0.25585690937E+03  0.17200000000E+03 0.  1.
</event>
<event>
 4    1 -0.6483339E-004  0.2524848E+03  0.7818608E-02  0.1111744E+00
         -5   -1    0    0    0  501 -0.00000000000E+00  0.00000000000E+00  0.13016290047E+03  0.13024772804E+03  0.47000000000E+01 0.  1.
          5   -1    0    0  501    0  0.00000000000E+00 -0.00000000000E+00 -0.49626584104E+03  0.49628809676E+03  0.47000000000E+01 0. -1.
          6    1    1    2  502    0 -0.17426886394E+03  0.61602977683E+02 -0.14648882936E+03  0.29190330749E+03  0.17200000000E+03 0. -1.
         -6    1    1    2    0  502  0.17426886394E+03 -0.61602977683E+02 -0.21961411121E+03  0.33463251730E+03  0.17200000000E+03 0.  1.
</event>
<event>
 4    1 -0.6483339E-004  0.7667764E+03  0.7818608E-02  0.9609392E-01
          5   -1    0    0  501    0  0.00000000000E+00  0.00000000000E+00  0.63077497817E+03  0.63079248813E+03  0.47000000000E+01 0. -1.
         -5   -1    0    0    0  501 -0.00000000000E+00 -0.00000000000E+00 -0.15529709347E+04  0.15529780468E+04  0.47000000000E+01 0.  1.
          6    1    1    2  502    0 -0.73007002859E+03 -0.15924768751E+03  0.22930802177E+03  0.80033008282E+03  0.17200000000E+03 0. -1.
         -6    1    1    2    0  502  0.73007002859E+03  0.15924768751E+03 -0.11515039783E+04  0.13834404521E+04  0.17200000000E+03 0.  1.
</event>
<event>
 4    1 -0.6483339E-004  0.1983101E+03  0.7818608E-02  0.1151173E+00
          5   -1    0    0  501    0  0.00000000000E+00  0.00000000000E+00  0.36788809974E+03  0.36791812123E+03  0.47000000000E+01 0. -1.
         -5   -1    0    0    0  501 -0.00000000000E+00 -0.00000000000E+00 -0.11965740769E+03  0.11974967731E+03  0.47000000000E+01 0.  1.
          6    1    1    2  502    0 -0.98199019029E+02  0.99920571975E+01  0.20396069877E+03  0.28447645806E+03  0.17200000000E+03 0.  1.
         -6    1    1    2    0  502  0.98199019029E+02 -0.99920571975E+01  0.44269993281E+02  0.20319134049E+03  0.17200000000E+03 0.  1.
</event>
<event>
 4    1 -0.6483339E-004  0.2664904E+03  0.7818608E-02  0.1103305E+00
         -5   -1    0    0    0  501 -0.00000000000E+00  0.00000000000E+00  0.10559188166E+04  0.10559292767E+04  0.47000000000E+01 0.  1.
          5   -1    0    0  501    0  0.00000000000E+00 -0.00000000000E+00 -0.70845136551E+02  0.71000868818E+02  0.47000000000E+01 0. -1.
          6    1    1    2  502    0  0.87164497855E+02  0.18394419704E+03  0.36423828858E+03  0.45131657202E+03  0.17200000000E+03 0. -1.
         -6    1    1    2    0  502 -0.87164497855E+02 -0.18394419704E+03  0.62083539152E+03  0.67561357348E+03  0.17200000000E+03 0.  1.
</event>
<event>
 4    1 -0.6483339E-004  0.1869446E+03  0.7818608E-02  0.1161246E+00
          5   -1    0    0  501    0  0.00000000000E+00  0.00000000000E+00  0.59952770414E+03  0.59954612670E+03  0.47000000000E+01 0. -1.
         -5   -1    0    0    0  501 -0.00000000000E+00 -0.00000000000E+00 -0.58183610417E+02  0.58373131843E+02  0.47000000000E+01 0.  1.
          6    1    1    2  502    0  0.21756404227E+02 -0.69935161346E+02  0.27362314174E+03  0.33138782659E+03  0.17200000000E+03 0. -1.
         -6    1    1    2    0  502 -0.21756404227E+02  0.69935161346E+02  0.26772095198E+03  0.32653143195E+03  0.17200000000E+03 0.  1.
</event>
<event>
 4    1 -0.6483339E-004  0.1830926E+03  0.7818608E-02  0.1164843E+00
         -5   -1    0    0    0  501 -0.00000000000E+00  0.00000000000E+00  0.14189147389E+03  0.14196929373E+03  0.47000000000E+01 0.  1.
          5   -1    0    0  501    0  0.00000000000E+00 -0.00000000000E+00 -0.24452365538E+03  0.24456882066E+03  0.47000000000E+01 0. -1.
          6    1    1    2  502    0 -0.36523299562E+02  0.51038588559E+02 -0.87197327188E+02  0.20279611141E+03  0.17200000000E+03 0. -1.
         -6    1    1    2    0  502  0.36523299562E+02 -0.51038588559E+02 -0.15434854305E+02  0.18374200298E+03  0.17200000000E+03 0.  1.
</event>
<event>
 4    1 -0.6483339E-004  0.2414199E+03  0.7818608E-02  0.1118850E+00
         -5   -1    0    0    0  501 -0.00000000000E+00  0.00000000000E+00  0.37136763627E+02  0.37432996309E+02  0.47000000000E+01 0.  1.
          5   -1    0    0  501    0  0.00000000000E+00 -0.00000000000E+00 -0.15659967837E+04  0.15660038367E+04  0.47000000000E+01 0. -1.
          6    1    1    2  502    0  0.12187446445E+03  0.11766989537E+03 -0.72876205876E+03  0.76770940313E+03  0.17200000000E+03 0. -1.
         -6    1    1    2    0  502 -0.12187446445E+03 -0.11766989537E+03 -0.80009796135E+03  0.83572742992E+03  0.17200000000E+03 0.  1.
</event>
<event>
 4    1 -0.6483339E-004  0.1890070E+03  0.7818608E-02  0.1159360E+00
         -5   -1    0    0    0  501 -0.00000000000E+00  0.00000000000E+00  0.41516396663E+02  0.41781589149E+02  0.47000000000E+01 0.  1.
          5   -1    0    0  501    0  0.00000000000E+00 -0.00000000000E+00 -0.86971058925E+03  0.86972328879E+03  0.47000000000E+01 0. -1.
          6    1    1    2  502    0  0.77674939094E+02  0.10307244232E+02 -0.46818012001E+03  0.50489232537E+03  0.17200000000E+03 0.  1.
         -6    1    1    2    0  502 -0.77674939094E+02 -0.10307244232E+02 -0.36001407258E+03  0.40661255256E+03  0.17200000000E+03 0.  1.
</event>
<event>
 4    1 -0.6483339E-004  0.1956677E+03  0.7818608E-02  0.1153447E+00
         -5   -1    0    0    0  501 -0.00000000000E+00  0.00000000000E+00  0.78468741267E+02  0.78609371935E+02  0.47000000000E+01 0.  1.
          5   -1    0    0  501    0  0.00000000000E+00 -0.00000000000E+00 -0.56230609101E+03  0.56232573300E+03  0.47000000000E+01 0. -1.
          6    1    1    2  502    0  0.38953675629E+02  0.84761213969E+02 -0.35892675136E+03  0.40879611676E+03  0.17200000000E+03 0. -1.
         -6    1    1    2    0  502 -0.38953675629E+02 -0.84761213969E+02 -0.12491059838E+03  0.23213898817E+03  0.17200000000E+03 0.  1.
</event>
<event>
 4    1 -0.6483339E-004  0.1983848E+03  0.7818608E-02  0.1151109E+00
         -5   -1    0    0    0  501 -0.00000000000E+00  0.00000000000E+00  0.66465379625E+02  0.66631349144E+02  0.47000000000E+01 0.  1.
          5   -1    0    0  501    0  0.00000000000E+00 -0.00000000000E+00 -0.60149817809E+03  0.60151654029E+03  0.47000000000E+01 0. -1.
          6    1    1    2  502    0 -0.16248328463E+02  0.97511723603E+02 -0.31117485009E+03  0.36903432326E+03  0.17200000000E+03 0. -1.
         -6    1    1    2    0  502  0.16248328463E+02 -0.97511723603E+02 -0.22385794838E+03  0.29911356617E+03  0.17200000000E+03 0.  1.
</event>
<event>
 4    1 -0.6483339E-004  0.2139205E+03  0.7818608E-02  0.1138498E+00
         -5   -1    0    0    0  501 -0.00000000000E+00  0.00000000000E+00  0.79746707180E+02  0.79885088133E+02  0.47000000000E+01 0.  1.
          5   -1    0    0  501    0  0.00000000000E+00 -0.00000000000E+00 -0.95620975752E+03  0.95622130827E+03  0.47000000000E+01 0. -1.
          6    1    1    2  502    0  0.53295269270E+02 -0.11548844907E+03 -0.11038541315E+03  0.24072163806E+03  0.17200000000E+03 0.  1.
         -6    1    1    2    0  502 -0.53295269270E+02  0.11548844907E+03 -0.76607763719E+03  0.79538475834E+03  0.17200000000E+03 0. -1.
</event>
<event>
 4    1 -0.6483339E-004  0.2534225E+03  0.7818608E-02  0.1111161E+00
          5   -1    0    0  501    0  0.00000000000E+00  0.00000000000E+00  0.10309661492E+03  0.10320369183E+03  0.47000000000E+01 0. -1.
         -5   -1    0    0    0  501 -0.00000000000E+00 -0.00000000000E+00 -0.67678354424E+03  0.67679986388E+03  0.47000000000E+01 0.  1.
          6    1    1    2  502    0  0.17563306843E+03 -0.61578924277E+02 -0.39728582365E+03  0.47123132782E+03  0.17200000000E+03 0.  1.
         -6    1    1    2    0  502 -0.17563306843E+03  0.61578924277E+02 -0.17640110567E+03  0.30877222790E+03  0.17200000000E+03 0.  1.
</event>
<event>
 4    1 -0.6483339E-004  0.3194841E+03  0.7818608E-02  0.1075887E+00
         -5   -1    0    0    0  501 -0.00000000000E+00  0.00000000000E+00  0.26775785901E+03  0.26779910579E+03  0.47000000000E+01 0.  1.
          5   -1    0    0  501    0  0.00000000000E+00 -0.00000000000E+00 -0.88306100891E+03  0.88307351645E+03  0.47000000000E+01 0. -1.
          6    1    1    2  502    0  0.20801457775E+03 -0.17092701382E+03 -0.74147589660E+03  0.80737637682E+03  0.17200000000E+03 0. -1.
         -6    1    1    2    0  502 -0.20801457775E+03  0.17092701382E+03  0.12617274670E+03  0.34349624542E+03  0.17200000000E+03 0.  1.
</event>
<event>
 4    1 -0.6483339E-004  0.1792627E+03  0.7818608E-02  0.1168518E+00
          5   -1    0    0  501    0  0.00000000000E+00  0.00000000000E+00  0.18140345463E+02  0.18739320519E+02  0.47000000000E+01 0. -1.
         -5   -1    0    0    0  501 -0.00000000000E+00 -0.00000000000E+00 -0.19317141890E+04  0.19317199068E+04  0.47000000000E+01 0.  1.
          6    1    1    2  502    0 -0.50433954868E+02  0.27464921418E+01 -0.65129234834E+03  0.67551228711E+03  0.17200000000E+03 0. -1.
         -6    1    1    2    0  502  0.50433954868E+02 -0.27464921418E+01 -0.12622814952E+04  0.12749469402E+04  0.17200000000E+03 0.  1.
</event>
<event>
 4    1 -0.6483339E-004  0.2491496E+03  0.7818608E-02  0.1113843E+00
          5   -1    0    0  501    0  0.00000000000E+00  0.00000000000E+00  0.32454296785E+03  0.32457699854E+03  0.47000000000E+01 0. -1.
         -5   -1    0    0    0  501 -0.00000000000E+00 -0.00000000000E+00 -0.37818641339E+03  0.37821561743E+03  0.47000000000E+01 0.  1.
          6    1    1    2  502    0  0.65559377002E+02 -0.16790916032E+03  0.22024116153E+03  0.33253824933E+03  0.17200000000E+03 0. -1.
         -6    1    1    2    0  502 -0.65559377002E+02  0.16790916032E+03 -0.27388460707E+03  0.37025436665E+03  0.17200000000E+03 0. -1.
</event>
<event>
 4    1 -0.6483339E-004  0.1942368E+03  0.7818608E-02  0.1154695E+00
          5   -1    0    0  501    0  0.00000000000E+00  0.00000000000E+00  0.32964105580E+03  0.32967456024E+03  0.47000000000E+01 0. -1.
         -5   -1    0    0    0  501 -0.00000000000E+00 -0.00000000000E+00 -0.21162132782E+03  0.21167351366E+03  0.47000000000E+01 0.  1.
          6    1    1    2  502    0  0.86810154291E+02 -0.24656294620E+02  0.24245974538E+03  0.31066809280E+03  0.17200000000E+03 0. -1.
         -6    1    1    2    0  502 -0.86810154291E+02  0.24656294620E+02 -0.12444001740E+03  0.23067998111E+03  0.17200000000E+03 0.  1.
</event>
<event>
 4    1 -0.6483339E-004  0.2195302E+03  0.7818608E-02  0.1134234E+00
         -5   -1    0    0    0  501 -0.00000000000E+00  0.00000000000E+00  0.18058403194E+03  0.18064518424E+03  0.47000000000E+01 0.  1.
          5   -1    0    0  501    0  0.00000000000E+00 -0.00000000000E+00 -0.43786547305E+03  0.43789069696E+03  0.47000000000E+01 0. -1.
          6    1    1    2  502    0  0.30314964084E+02 -0.13300562631E+03 -0.32195503595E+03  0.38967748056E+03  0.17200000000E+03 0. -1.
         -6    1    1    2    0  502 -0.30314964084E+02  0.13300562631E+03  0.64673594845E+02  0.22885840065E+03  0.17200000000E+03 0.  1.
</event>
<event>
 4    1 -0.6483339E-004  0.2700362E+03  0.7818608E-02  0.1101259E+00
          5   -1    0    0  501    0  0.00000000000E+00  0.00000000000E+00  0.29018020441E+03  0.29021826446E+03  0.47000000000E+01 0. -1.
         -5   -1    0    0    0  501 -0.00000000000E+00 -0.00000000000E+00 -0.29115710877E+03  0.29119504114E+03  0.47000000000E+01 0.  1.
          6    1    1    2  502    0  0.10384332726E+03 -0.18042208026E+03  0.10717114311E+03  0.29052576061E+03  0.17200000000E+03 0. -1.
         -6    1    1    2    0  502 -0.10384332726E+03  0.18042208026E+03 -0.10814804747E+03  0.29088754500E+03  0.17200000000E+03 0.  1.
</event>
<event>
 4    1 -0.6483339E-004  0.3470381E+03  0.7818608E-02  0.1063837E+00
         -5   -1    0    0    0  501 -0.00000000000E+00  0.00000000000E+00  0.10901987005E+03  0.10912113482E+03  0.47000000000E+01 0.  1.
          5   -1    0    0  501    0  0.00000000000E+00 -0.00000000000E+00 -0.11209814614E+04  0.11209913144E+04  0.47000000000E+01 0. -1.
          6    1    1    2  502    0  0.23085991663E+03  0.19379154318E+03 -0.58147290700E+03  0.67716039820E+03  0.17200000000E+03 0. -1.
         -6    1    1    2    0  502 -0.23085991663E+03 -0.19379154318E+03 -0.43048868440E+03  0.55295205100E+03  0.17200000000E+03 0.  1.
</event>
<event>
 4    1 -0.6483339E-004  0.1871469E+03  0.7818608E-02  0.1161060E+00
         -5   -1    0    0    0  501 -0.00000000000E+00  0.00000000000E+00  0.50701574965E+02  0.50918952306E+02  0.47000000000E+01 0.  1.
          5   -1    0    0  501    0  0.00000000000E+00 -0.00000000000E+00 -0.81043764123E+03  0.81045126955E+03  0.47000000000E+01 0. -1.
          6    1    1    2  502    0 -0.33221059986E+02 -0.65850873542E+02 -0.54650249491E+03  0.57765816303E+03  0.17200000000E+03 0. -1.
         -6    1    1    2    0  502  0.33221059986E+02  0.65850873542E+02 -0.21323357135E+03  0.28371205883E+03  0.17200000000E+03 0.  1.
</event>
<event>
 4    1 -0.6483339E-004  0.1740533E+03  0.7818608E-02  0.1173686E+00
          5   -1    0    0  501    0  0.00000000000E+00  0.00000000000E+00  0.78310013885E+02  0.78450929088E+02  0.47000000000E+01 0. -1.
         -5   -1    0    0    0  501 -0.00000000000E+00 -0.00000000000E+00 -0.38683175282E+03  0.38686030423E+03  0.47000000000E+01 0.  1.
          6    1    1    2  502    0  0.18502240091E+02  0.19188717259E+02 -0.16246096554E+03  0.23809263971E+03  0.17200000000E+03 0.  1.
         -6    1    1    2    0  502 -0.18502240091E+02 -0.19188717259E+02 -0.14606077340E+03  0.22721859361E+03  0.17200000000E+03 0.  1.
</event>
<event>
 4    1 -0.6483339E-004  0.1809068E+03  0.7818608E-02  0.1166928E+00
         -5   -1    0    0    0  501 -0.00000000000E+00  0.00000000000E+00  0.43158929538E+03  0.43161488608E+03  0.47000000000E+01 0.  1.
          5   -1    0    0  501    0  0.00000000000E+00 -0.00000000000E+00 -0.12318005340E+03  0.12326968628E+03  0.47000000000E+01 0. -1.
          6    1    1    2  502    0 -0.39051775853E+02 -0.40227220154E+02 -0.17892302950E+02  0.18178945223E+03  0.17200000000E+03 0. -1.
         -6    1    1    2    0  502  0.39051775853E+02  0.40227220154E+02  0.32630154493E+03  0.37309512013E+03  0.17200000000E+03 0.  1.
</event>
<event>
 4    1 -0.6483339E-004  0.3585431E+03  0.7818608E-02  0.1059162E+00
         -5   -1    0    0    0  501 -0.00000000000E+00  0.00000000000E+00  0.13759346537E+03  0.13767371467E+03  0.47000000000E+01 0.  1.
          5   -1    0    0  501    0  0.00000000000E+00 -0.00000000000E+00 -0.95787141222E+03  0.95788294293E+03  0.47000000000E+01 0. -1.
          6    1    1    2  502    0  0.17694700019E+03 -0.26011321012E+03 -0.32355627355E+03  0.48295112083E+03  0.17200000000E+03 0.  1.
         -6    1    1    2    0  502 -0.17694700019E+03  0.26011321012E+03 -0.49672167331E+03  0.61260553678E+03  0.17200000000E+03 0.  1.
</event>
<event>
 4    1 -0.6483339E-004  0.2095780E+03  0.7818608E-02  0.1141901E+00
          5   -1    0    0  501    0  0.00000000000E+00  0.00000000000E+00  0.92052510199E+02  0.92172417968E+02  0.47000000000E+01 0. -1.
         -5   -1    0    0    0  501 -0.00000000000E+00 -0.00000000000E+00 -0.49101239341E+03  0.49103488724E+03  0.47000000000E+01 0.  1.
          6    1    1    2  502    0  0.87796167614E+02 -0.81429460594E+02 -0.14971677831E+03  0.25756171651E+03  0.17200000000E+03 0. -1.
         -6    1    1    2    0  502 -0.87796167614E+02  0.81429460594E+02 -0.24924310490E+03  0.32564558870E+03  0.17200000000E+03 0.  1.
</event>
<event>
 4    1 -0.6483339E-004  0.3484322E+03  0.7818608E-02  0.1063260E+00
          5   -1    0    0  501    0  0.00000000000E+00  0.00000000000E+00  0.25621797018E+03  0.25626107438E+03  0.47000000000E+01 0. -1.
         -5   -1    0    0    0  501 -0.00000000000E+00 -0.00000000000E+00 -0.55121652271E+03  0.55123655984E+03  0.47000000000E+01 0.  1.
          6    1    1    2  502    0  0.23006787361E+03 -0.19720490052E+03  0.38600133915E+01  0.34845358222E+03  0.17200000000E+03 0. -1.
         -6    1    1    2    0  502 -0.23006787361E+03  0.19720490052E+03 -0.29885856592E+03  0.45904405200E+03  0.17200000000E+03 0.  1.
</event>
<event>
 4    1 -0.6483339E-004  0.2596936E+03  0.7818608E-02  0.1107327E+00
          5   -1    0    0  501    0  0.00000000000E+00  0.00000000000E+00  0.90753028753E+03  0.90754245784E+03  0.47000000000E+01 0. -1.
         -5   -1    0    0    0  501 -0.00000000000E+00 -0.00000000000E+00 -0.74477650417E+02  0.74625802586E+02  0.47000000000E+01 0.  1.
          6    1    1    2  502    0  0.16341231210E+03 -0.10560872935E+03  0.38797960982E+03  0.46687146529E+03  0.17200000000E+03 0.  1.
         -6    1    1    2    0  502 -0.16341231210E+03  0.10560872935E+03  0.44507302729E+03  0.51529679514E+03  0.17200000000E+03 0. -1.
</event>
<event>
 4    1 -0.6483339E-004  0.2058470E+03  0.7818608E-02  0.1144898E+00
         -5   -1    0    0    0  501 -0.00000000000E+00  0.00000000000E+00  0.98386222555E+02  0.98498420234E+02  0.47000000000E+01 0.  1.
          5   -1    0    0  501    0  0.00000000000E+00 -0.00000000000E+00 -0.43484654638E+03  0.43487194540E+03  0.47000000000E+01 0. -1.
          6    1    1    2  502    0  0.73330041696E+02 -0.86091274679E+02 -0.14099466056E+03  0.24950450276E+03  0.17200000000E+03 0.  1.
         -6    1    1    2    0  502 -0.73330041696E+02  0.86091274679E+02 -0.19546566327E+03  0.28386586288E+03  0.17200000000E+03 0.  1.
</event>
<event>
 4    1 -0.6483339E-004  0.2425582E+03  0.7818608E-02  0.1118100E+00
          5   -1    0    0  501    0  0.00000000000E+00  0.00000000000E+00  0.86890424426E+03  0.86891695558E+03  0.47000000000E+01 0. -1.
         -5   -1    0    0    0  501 -0.00000000000E+00 -0.00000000000E+00 -0.14488377240E+03  0.14495998587E+03  0.47000000000E+01 0.  1.
          6    1    1    2  502    0  0.13555011063E+03 -0.10429115202E+03  0.73204735047E+03  0.77118596992E+03  0.17200000000E+03 0. -1.
         -6    1    1    2    0  502 -0.13555011063E+03  0.10429115202E+03 -0.80268786049E+01  0.24269097153E+03  0.17200000000E+03 0.  1.
</event>
<event>
 4    1 -0.6483339E-004  0.2281258E+03  0.7818608E-02  0.1127966E+00
         -5   -1    0    0    0  501 -0.00000000000E+00  0.00000000000E+00  0.63826194353E+02  0.63999008474E+02  0.47000000000E+01 0.  1.
          5   -1    0    0  501    0  0.00000000000E+00 -0.00000000000E+00 -0.82503487609E+03  0.82504826330E+03  0.47000000000E+01 0. -1.
          6    1    1    2  502    0  0.10378622410E+03 -0.10810089116E+03 -0.32938498631E+03  0.40066925536E+03  0.17200000000E+03 0.  1.
         -6    1    1    2    0  502 -0.10378622410E+03  0.10810089116E+03 -0.43182369543E+03  0.48837801642E+03  0.17200000000E+03 0.  1.
</event>
<event>
 4    1 -0.6483339E-004  0.2809748E+03  0.7818608E-02  0.1095158E+00
         -5   -1    0    0    0  501 -0.00000000000E+00  0.00000000000E+00  0.35646942121E+03  0.35650040429E+03  0.47000000000E+01 0.  1.
          5   -1    0    0  501    0  0.00000000000E+00 -0.00000000000E+00 -0.22208469933E+03  0.22213442704E+03  0.47000000000E+01 0. -1.
          6    1    1    2  502    0 -0.20156065016E+03 -0.93467433858E+02  0.83215622979E+02  0.29303872917E+03  0.17200000000E+03 0. -1.
         -6    1    1    2    0  502  0.20156065016E+03  0.93467433858E+02  0.51169098905E+02  0.28559610216E+03  0.17200000000E+03 0.  1.
</event>
<event>
 4    1 -0.6483339E-004  0.1854703E+03  0.7818608E-02  0.1162611E+00
         -5   -1    0    0    0  501 -0.00000000000E+00  0.00000000000E+00  0.40050557358E+03  0.40053315027E+03  0.47000000000E+01 0.  1.
          5   -1    0    0  501    0  0.00000000000E+00 -0.00000000000E+00 -0.10095356850E+03  0.10106291601E+03  0.47000000000E+01 0. -1.
          6    1    1    2  502    0 -0.23502743481E+02 -0.65290442643E+02  0.52661856487E+02  0.19280169081E+03  0.17200000000E+03 0. -1.
         -6    1    1    2    0  502  0.23502743481E+02  0.65290442643E+02  0.24689014859E+03  0.30879437547E+03  0.17200000000E+03 0.  1.
</event>
<event>
 4    1 -0.6483339E-004  0.4362602E+03  0.7818608E-02  0.1031900E+00
          5   -1    0    0  501    0  0.00000000000E+00  0.00000000000E+00  0.43277504310E+03  0.43280056369E+03  0.47000000000E+01 0. -1.
         -5   -1    0    0    0  501 -0.00000000000E+00 -0.00000000000E+00 -0.11715011518E+04  0.11715105799E+04  0.47000000000E+01 0.  1.
          6    1    1    2  502    0 -0.24082002082E+02  0.40019876777E+03  0.26460765494E+03  0.51023544330E+03  0.17200000000E+03 0. -1.
         -6    1    1    2    0  502  0.24082002082E+02 -0.40019876777E+03 -0.10033337637E+04  0.10940757003E+04  0.17200000000E+03 0.  1.
</event>
<event>
 4    1 -0.6483339E-004  0.2278597E+03  0.7818608E-02  0.1128155E+00
         -5   -1    0    0    0  501 -0.00000000000E+00  0.00000000000E+00  0.83684479778E+02  0.83816359714E+02  0.47000000000E+01 0.  1.
          5   -1    0    0  501    0  0.00000000000E+00 -0.00000000000E+00 -0.64923597036E+03  0.64925298244E+03  0.47000000000E+01 0. -1.
          6    1    1    2  502    0  0.68619598419E+02 -0.13276827967E+03 -0.20473455982E+03  0.30632712149E+03  0.17200000000E+03 0. -1.
         -6    1    1    2    0  502 -0.68619598419E+02  0.13276827967E+03 -0.36081693076E+03  0.42674222066E+03  0.17200000000E+03 0.  1.
</event>
<event>
 4    1 -0.6483339E-004  0.1766625E+03  0.7818608E-02  0.1171073E+00
          5   -1    0    0  501    0  0.00000000000E+00  0.00000000000E+00  0.58763714099E+03  0.58765593631E+03  0.47000000000E+01 0. -1.
         -5   -1    0    0    0  501 -0.00000000000E+00 -0.00000000000E+00 -0.53023149968E+02  0.53231047637E+02  0.47000000000E+01 0.  1.
          6    1    1    2  502    0 -0.36552980165E+02  0.17015240399E+02  0.27568786209E+03  0.32743462869E+03  0.17200000000E+03 0.  1.
         -6    1    1    2    0  502  0.36552980165E+02 -0.17015240399E+02  0.25892612894E+03  0.31345235525E+03  0.17200000000E+03 0.  1.
</event>
<event>
 4    1 -0.6483339E-004  0.2130424E+03  0.7818608E-02  0.1139179E+00
         -5   -1    0    0    0  501 -0.00000000000E+00  0.00000000000E+00  0.92719077252E+03  0.92720268477E+03  0.47000000000E+01 0.  1.
          5   -1    0    0  501    0  0.00000000000E+00 -0.00000000000E+00 -0.59846289471E+02  0.60030561911E+02  0.47000000000E+01 0. -1.
          6    1    1    2  502    0  0.11470026136E+03 -0.51448241223E+02  0.64510882283E+03  0.67937652651E+03  0.17200000000E+03 0.  1.
         -6    1    1    2    0  502 -0.11470026136E+03  0.51448241223E+02  0.22223566022E+03  0.30785672017E+03  0.17200000000E+03 0. -1.
</event>
<event>
 4    1 -0.6483339E-004  0.1963196E+03  0.7818608E-02  0.1152882E+00
          5   -1    0    0  501    0  0.00000000000E+00  0.00000000000E+00  0.40598135522E+03  0.40600855999E+03  0.47000000000E+01 0. -1.
         -5   -1    0    0    0  501 -0.00000000000E+00 -0.00000000000E+00 -0.95370339613E+02  0.95486081068E+02  0.47000000000E+01 0.  1.
          6    1    1    2  502    0 -0.38723250886E+02  0.86359188647E+02  0.17389571482E+03  0.26226154742E+03  0.17200000000E+03 0.  1.
         -6    1    1    2    0  502  0.38723250886E+02 -0.86359188647E+02  0.13671530079E+03  0.23923309364E+03  0.17200000000E+03 0.  1.
</event>
<event>
 4    1 -0.6483339E-004  0.2068724E+03  0.7818608E-02  0.1144067E+00
         -5   -1    0    0    0  501 -0.00000000000E+00  0.00000000000E+00  0.24705399955E+03  0.24709870233E+03  0.47000000000E+01 0.  1.
          5   -1    0    0  501    0  0.00000000000E+00 -0.00000000000E+00 -0.18941288488E+03  0.18947118767E+03  0.47000000000E+01 0. -1.
          6    1    1    2  502    0  0.53121581197E+02 -0.10193266817E+03 -0.35154984932E+02  0.20983813808E+03  0.17200000000E+03 0. -1.
         -6    1    1    2    0  502 -0.53121581197E+02  0.10193266817E+03  0.92796099605E+02  0.22673175192E+03  0.17200000000E+03 0. -1.
</event>
<event>
 4    1 -0.6483339E-004  0.1837695E+03  0.7818608E-02  0.1164204E+00
         -5   -1    0    0    0  501 -0.00000000000E+00  0.00000000000E+00  0.37805040080E+02  0.38096076641E+02  0.47000000000E+01 0.  1.
          5   -1    0    0  501    0  0.00000000000E+00 -0.00000000000E+00 -0.10632644737E+04  0.10632748615E+04  0.47000000000E+01 0. -1.
          6    1    1    2  502    0 -0.14351946345E+02 -0.63097111472E+02 -0.73526839174E+03  0.75788576430E+03  0.17200000000E+03 0. -1.
         -6    1    1    2    0  502  0.14351946345E+02  0.63097111472E+02 -0.29019104190E+03  0.34348517382E+03  0.17200000000E+03 0.  1.
</event>
<event>
 4    1 -0.6483339E-004  0.2242874E+03  0.7818608E-02  0.1130726E+00
         -5   -1    0    0    0  501 -0.00000000000E+00  0.00000000000E+00  0.85089821233E+02  0.85219526386E+02  0.47000000000E+01 0.  1.
          5   -1    0    0  501    0  0.00000000000E+00 -0.00000000000E+00 -0.59068425694E+03  0.59070295530E+03  0.47000000000E+01 0. -1.
          6    1    1    2  502    0  0.12828421641E+03 -0.65299449067E+02 -0.25664120523E+03  0.34083656853E+03  0.17200000000E+03 0.  1.
         -6    1    1    2    0  502 -0.12828421641E+03  0.65299449067E+02 -0.24895323048E+03  0.33508591315E+03  0.17200000000E+03 0. -1.
</event>
<event>
 4    1 -0.6483339E-004  0.1824272E+03  0.7818608E-02  0.1165474E+00
         -5   -1    0    0    0  501 -0.00000000000E+00  0.00000000000E+00  0.19938396740E+03  0.19943935533E+03  0.47000000000E+01 0.  1.
          5   -1    0    0  501    0  0.00000000000E+00 -0.00000000000E+00 -0.17228113121E+03  0.17234522962E+03  0.47000000000E+01 0. -1.
          6    1    1    2  502    0 -0.34536107370E+02  0.50029433601E+02  0.46694351788E+02  0.18830838916E+03  0.17200000000E+03 0.  1.
         -6    1    1    2    0  502  0.34536107370E+02 -0.50029433601E+02 -0.19591515598E+02  0.18347619579E+03  0.17200000000E+03 0. -1.
</event>
<event>
 4    1 -0.6483339E-004  0.2756861E+03  0.7818608E-02  0.1098069E+00
          5   -1    0    0  501    0  0.00000000000E+00  0.00000000000E+00  0.62071765584E+03  0.62073544951E+03  0.47000000000E+01 0. -1.
         -5   -1    0    0    0  501 -0.00000000000E+00 -0.00000000000E+00 -0.12268885108E+03  0.12277884256E+03  0.47000000000E+01 0.  1.
          6    1    1    2  502    0 -0.13183863276E+03 -0.17040366383E+03  0.23033498223E+03  0.35924509429E+03  0.17200000000E+03 0.  1.
         -6    1    1    2    0  502  0.13183863276E+03  0.17040366383E+03  0.26769382253E+03  0.38426919777E+03  0.17200000000E+03 0. -1.
</event>
<event>
 4    1 -0.6483339E-004  0.1993012E+03  0.7818608E-02  0.1150330E+00
          5   -1    0    0  501    0  0.00000000000E+00  0.00000000000E+00  0.91014663960E+03  0.91015877493E+03  0.47000000000E+01 0. -1.
         -5   -1    0    0    0  501 -0.00000000000E+00 -0.00000000000E+00 -0.65110967640E+02  0.65280380721E+02  0.47000000000E+01 0.  1.
          6    1    1    2  502    0  0.98798179196E+02  0.19387435612E+02  0.70299823249E+03  0.73070340615E+03  0.17200000000E+03 0. -1.
         -6    1    1    2    0  502 -0.98798179196E+02 -0.19387435612E+02  0.14203743947E+03  0.24473574950E+03  0.17200000000E+03 0.  1.
</event>
<event>
 4    1 -0.6483339E-004  0.2513374E+03  0.7818608E-02  0.1112463E+00
         -5   -1    0    0    0  501 -0.00000000000E+00  0.00000000000E+00  0.19828822648E+03  0.19834392040E+03  0.47000000000E+01 0.  1.
          5   -1    0    0  501    0  0.00000000000E+00 -0.00000000000E+00 -0.89844826843E+03  0.89846056176E+03  0.47000000000E+01 0. -1.
          6    1    1    2  502    0  0.14250589041E+03 -0.11523257103E+03 -0.79067817369E+03  0.82966405767E+03  0.17200000000E+03 0. -1.
         -6    1    1    2    0  502 -0.14250589041E+03  0.11523257103E+03  0.90518131741E+02  0.26714042450E+03  0.17200000000E+03 0.  1.
</event>
<event>
 4    1 -0.6483339E-004  0.2350128E+03  0.7818608E-02  0.1123160E+00
         -5   -1    0    0    0  501 -0.00000000000E+00  0.00000000000E+00  0.11797601040E+03  0.11806959401E+03  0.47000000000E+01 0.  1.
          5   -1    0    0  501    0  0.00000000000E+00 -0.00000000000E+00 -0.64410371246E+03  0.64412086009E+03  0.47000000000E+01 0. -1.
          6    1    1    2  502    0 -0.14861415531E+03  0.59672892254E+02 -0.46239238397E+03  0.51868847875E+03  0.17200000000E+03 0. -1.
         -6    1    1    2    0  502  0.14861415531E+03 -0.59672892254E+02 -0.63735318088E+02  0.24350197535E+03  0.17200000000E+03 0.  1.
</event>
<event>
 4    1 -0.6483339E-004  0.2139284E+03  0.7818608E-02  0.1138492E+00
          5   -1    0    0  501    0  0.00000000000E+00  0.00000000000E+00  0.41280510987E+03  0.41283186497E+03  0.47000000000E+01 0. -1.
         -5   -1    0    0    0  501 -0.00000000000E+00 -0.00000000000E+00 -0.11123234799E+03  0.11133160036E+03  0.47000000000E+01 0.  1.
          6    1    1    2  502    0  0.12604257931E+03 -0.17164770728E+02  0.16741318940E+03  0.27164781821E+03  0.17200000000E+03 0. -1.
         -6    1    1    2    0  502 -0.12604257931E+03  0.17164770728E+02  0.13415957248E+03  0.25251564712E+03  0.17200000000E+03 0. -1.
</event>
<event>
 4    1 -0.6483339E-004  0.2418025E+03  0.7818608E-02  0.1118598E+00
          5   -1    0    0  501    0  0.00000000000E+00  0.00000000000E+00  0.79282831120E+02  0.79422020312E+02  0.47000000000E+01 0. -1.
         -5   -1    0    0    0  501 -0.00000000000E+00 -0.00000000000E+00 -0.81537763230E+03  0.81539117806E+03  0.47000000000E+01 0.  1.
          6    1    1    2  502    0 -0.13197942415E+03  0.10707879178E+03 -0.22905788097E+03  0.33307048636E+03  0.17200000000E+03 0. -1.
         -6    1    1    2    0  502  0.13197942415E+03 -0.10707879178E+03 -0.50703692021E+03  0.56174271201E+03  0.17200000000E+03 0.  1.
</event>
<event>
 4    1 -0.6483339E-004  0.2367259E+03  0.7818608E-02  0.1121993E+00
          5   -1    0    0  501    0  0.00000000000E+00  0.00000000000E+00  0.30405295321E+03  0.30408927695E+03  0.47000000000E+01 0. -1.
         -5   -1    0    0    0  501 -0.00000000000E+00 -0.00000000000E+00 -0.18817913248E+03  0.18823781740E+03  0.47000000000E+01 0.  1.
          6    1    1    2  502    0  0.20891816658E+01 -0.16263691831E+03  0.93589190196E+02  0.25455464718E+03  0.17200000000E+03 0. -1.
         -6    1    1    2    0  502 -0.20891816658E+01  0.16263691831E+03  0.22284630530E+02  0.23777244717E+03  0.17200000000E+03 0.  1.
</event>
<event>
 4    1 -0.6483339E-004  0.3102936E+03  0.7818608E-02  0.1080205E+00
          5   -1    0    0  501    0  0.00000000000E+00  0.00000000000E+00  0.38876071854E+03  0.38878912829E+03  0.47000000000E+01 0. -1.
         -5   -1    0    0    0  501 -0.00000000000E+00 -0.00000000000E+00 -0.26113610125E+03  0.26117839377E+03  0.47000000000E+01 0.  1.
          6    1    1    2  502    0 -0.14679116602E+03 -0.21248635387E+03  0.13778044344E+03  0.33950780196E+03  0.17200000000E+03 0.  1.
         -6    1    1    2    0  502  0.14679116602E+03  0.21248635387E+03 -0.10155826143E+02  0.31045972010E+03  0.17200000000E+03 0.  1.
</event>
<event>
 4    1 -0.6483339E-004  0.1896554E+03  0.7818608E-02  0.1158772E+00
          5   -1    0    0  501    0  0.00000000000E+00  0.00000000000E+00  0.16412702765E+02  0.17072399130E+02  0.47000000000E+01 0. -1.
         -5   -1    0    0    0  501 -0.00000000000E+00 -0.00000000000E+00 -0.24960951511E+04  0.24960995760E+04  0.47000000000E+01 0.  1.
          6    1    1    2  502    0 -0.74241581525E+02  0.29552816731E+02 -0.77044934035E+03  0.79344903268E+03  0.17200000000E+03 0. -1.
         -6    1    1    2    0  502  0.74241581525E+02 -0.29552816731E+02 -0.17092331080E+04  0.17197229424E+04  0.17200000000E+03 0.  1.
</event>
<event>
 4    1 -0.6483339E-004  0.1957229E+03  0.7818608E-02  0.1153399E+00
          5   -1    0    0  501    0  0.00000000000E+00  0.00000000000E+00  0.14249070690E+03  0.14256819965E+03  0.47000000000E+01 0. -1.
         -5   -1    0    0    0  501 -0.00000000000E+00 -0.00000000000E+00 -0.29516149427E+03  0.29519891209E+03  0.47000000000E+01 0.  1.
          6    1    1    2  502    0 -0.67367242918E+02  0.64692516821E+02 -0.10774531000E+02  0.19601927882E+03  0.17200000000E+03 0. -1.
         -6    1    1    2    0  502  0.67367242918E+02 -0.64692516821E+02 -0.14189625637E+03  0.24174783292E+03  0.17200000000E+03 0.  1.
</event>
<event>
 4    1 -0.6483339E-004  0.2475290E+03  0.7818608E-02  0.1114876E+00
          5   -1    0    0  501    0  0.00000000000E+00  0.00000000000E+00  0.17140173363E+04  0.17140237803E+04  0.47000000000E+01 0. -1.
         -5   -1    0    0    0  501 -0.00000000000E+00 -0.00000000000E+00 -0.35589356534E+02  0.35898360666E+02  0.47000000000E+01 0.  1.
          6    1    1    2  502    0  0.17059672101E+03  0.50826807181E+02  0.84797840201E+03  0.88336740705E+03  0.17200000000E+03 0. -1.
         -6    1    1    2    0  502 -0.17059672101E+03 -0.50826807181E+02  0.83044957780E+03  0.86655473388E+03  0.17200000000E+03 0.  1.
</event>
<event>
 4    1 -0.6483339E-004  0.2724541E+03  0.7818608E-02  0.1099883E+00
         -5   -1    0    0    0  501 -0.00000000000E+00  0.00000000000E+00  0.15803728912E+03  0.15810716224E+03  0.47000000000E+01 0.  1.
          5   -1    0    0  501    0  0.00000000000E+00 -0.00000000000E+00 -0.55902565253E+03  0.55904540977E+03  0.47000000000E+01 0. -1.
          6    1    1    2  502    0  0.19899501579E+03 -0.71050901971E+02 -0.34396091903E+03  0.43879421236E+03  0.17200000000E+03 0. -1.
         -6    1    1    2    0  502 -0.19899501579E+03  0.71050901971E+02 -0.57027444379E+02  0.27835835966E+03  0.17200000000E+03 0.  1.
</event>
<event>
 4    1 -0.6483339E-004  0.2711225E+03  0.7818608E-02  0.1100639E+00
          5   -1    0    0  501    0  0.00000000000E+00  0.00000000000E+00  0.21716920558E+03  0.21722005858E+03  0.47000000000E+01 0. -1.
         -5   -1    0    0    0  501 -0.00000000000E+00 -0.00000000000E+00 -0.38050705737E+03  0.38053608332E+03  0.47000000000E+01 0.  1.
          6    1    1    2  502    0  0.16893758847E+03 -0.12403016141E+03  0.17776018333E+02  0.27170457590E+03  0.17200000000E+03 0. -1.
         -6    1    1    2    0  502 -0.16893758847E+03  0.12403016141E+03 -0.18111387013E+03  0.32605156600E+03  0.17200000000E+03 0.  1.
</event>
<event>
 4    1 -0.6483339E-004  0.2839959E+03  0.7818608E-02  0.1093526E+00
         -5   -1    0    0    0  501 -0.00000000000E+00  0.00000000000E+00  0.49883420532E+03  0.49885634645E+03  0.47000000000E+01 0.  1.
          5   -1    0    0  501    0  0.00000000000E+00 -0.00000000000E+00 -0.22082969191E+03  0.22087970217E+03  0.47000000000E+01 0. -1.
          6    1    1    2  502    0  0.22185592631E+03 -0.43007356129E+02 -0.47298504746E+02  0.28790768186E+03  0.17200000000E+03 0. -1.
         -6    1    1    2    0  502 -0.22185592631E+03  0.43007356129E+02  0.32530301815E+03  0.43182836676E+03  0.17200000000E+03 0.  1.
</event>
<event>
 4    1 -0.6483339E-004  0.1758476E+03  0.7818608E-02  0.1171883E+00
         -5   -1    0    0    0  501 -0.00000000000E+00  0.00000000000E+00  0.68551764006E+03  0.68553375178E+03  0.47000000000E+01 0.  1.
          5   -1    0    0  501    0  0.00000000000E+00 -0.00000000000E+00 -0.46878553508E+02  0.47113573193E+02  0.47000000000E+01 0. -1.
          6    1    1    2  502    0 -0.18560630831E+02 -0.31525698774E+02  0.24558556313E+03  0.30205071680E+03  0.17200000000E+03 0. -1.
         -6    1    1    2    0  502  0.18560630831E+02  0.31525698774E+02  0.39305352342E+03  0.43059660818E+03  0.17200000000E+03 0. -1.
</event>
<event>
 4    1 -0.6483339E-004  0.1742503E+03  0.7818608E-02  0.1173487E+00
          5   -1    0    0  501    0  0.00000000000E+00  0.00000000000E+00  0.95109127728E+02  0.95225186675E+02  0.47000000000E+01 0. -1.
         -5   -1    0    0    0  501 -0.00000000000E+00 -0.00000000000E+00 -0.31961027813E+03  0.31964483398E+03  0.47000000000E+01 0.  1.
          6    1    1    2  502    0 -0.25702429232E+02  0.10888239322E+02 -0.10259547306E+03  0.20221028588E+03  0.17200000000E+03 0. -1.
         -6    1    1    2    0  502  0.25702429232E+02 -0.10888239322E+02 -0.12190567734E+03  0.21265973477E+03  0.17200000000E+03 0. -1.
</event>
<event>
 4    1 -0.6483339E-004  0.1751837E+03  0.7818608E-02  0.1172547E+00
         -5   -1    0    0    0  501 -0.00000000000E+00  0.00000000000E+00  0.87887161141E+02  0.88012743926E+02  0.47000000000E+01 0.  1.
          5   -1    0    0  501    0  0.00000000000E+00 -0.00000000000E+00 -0.10954937597E+04  0.10955038419E+04  0.47000000000E+01 0. -1.
          6    1    1    2  502    0 -0.33245874255E+02 -0.22621298832E+00 -0.15283951322E+02  0.17584919248E+03  0.17200000000E+03 0.  1.
         -6    1    1    2    0  502  0.33245874255E+02  0.22621298832E+00 -0.99232264723E+03  0.10076673933E+04  0.17200000000E+03 0. -1.
</event>
<event>
 4    1 -0.6483339E-004  0.1774308E+03  0.7818608E-02  0.1170313E+00
         -5   -1    0    0    0  501 -0.00000000000E+00  0.00000000000E+00  0.30132326068E+03  0.30135991343E+03  0.47000000000E+01 0.  1.
          5   -1    0    0  501    0  0.00000000000E+00 -0.00000000000E+00 -0.10798588667E+03  0.10808812016E+03  0.47000000000E+01 0. -1.
          6    1    1    2  502    0 -0.24300148163E+02  0.36154898819E+02  0.59294043496E+02  0.18707607411E+03  0.17200000000E+03 0. -1.
         -6    1    1    2    0  502  0.24300148163E+02 -0.36154898819E+02  0.13404333052E+03  0.22237195948E+03  0.17200000000E+03 0.  1.
</event>
<event>
 4    1 -0.6483339E-004  0.1949690E+03  0.7818608E-02  0.1154054E+00
          5   -1    0    0  501    0  0.00000000000E+00  0.00000000000E+00  0.27382827613E+02  0.27783254814E+02  0.47000000000E+01 0. -1.
         -5   -1    0    0    0  501 -0.00000000000E+00 -0.00000000000E+00 -0.14470151872E+04  0.14470228201E+04  0.47000000000E+01 0.  1.
          6    1    1    2  502    0 -0.58496146886E+02 -0.70760847755E+02 -0.87116095821E+03  0.89271177425E+03  0.17200000000E+03 0.  1.
         -6    1    1    2    0  502  0.58496146886E+02  0.70760847755E+02 -0.54847140138E+03  0.58209430070E+03  0.17200000000E+03 0. -1.
</event>
<event>
 4    1 -0.6483339E-004  0.1893225E+03  0.7818608E-02  0.1159074E+00
         -5   -1    0    0    0  501 -0.00000000000E+00  0.00000000000E+00  0.11392863241E+03  0.11402553785E+03  0.47000000000E+01 0.  1.
          5   -1    0    0  501    0  0.00000000000E+00 -0.00000000000E+00 -0.31576185125E+03  0.31579682820E+03  0.47000000000E+01 0. -1.
          6    1    1    2  502    0 -0.78416880769E+02 -0.10479283017E+02 -0.86606212095E+02  0.20819139880E+03  0.17200000000E+03 0. -1.
         -6    1    1    2    0  502  0.78416880769E+02  0.10479283017E+02 -0.11522700675E+03  0.22163096725E+03  0.17200000000E+03 0.  1.
</event>
<event>
 4    1 -0.6483339E-004  0.2235093E+03  0.7818608E-02  0.1131293E+00
          5   -1    0    0  501    0  0.00000000000E+00  0.00000000000E+00  0.78281306391E+03  0.78282717315E+03  0.47000000000E+01 0. -1.
         -5   -1    0    0    0  501 -0.00000000000E+00 -0.00000000000E+00 -0.75475138737E+02  0.75621336720E+02  0.47000000000E+01 0.  1.
          6    1    1    2  502    0  0.12111636745E+03  0.75519679316E+02  0.52290162737E+03  0.56866730901E+03  0.17200000000E+03 0. -1.
         -6    1    1    2    0  502 -0.12111636745E+03 -0.75519679316E+02  0.18443629780E+03  0.28978120086E+03  0.17200000000E+03 0.  1.
</event>
<event>
 4    1 -0.6483339E-004  0.1722430E+03  0.7818608E-02  0.1175529E+00
          5   -1    0    0  501    0  0.00000000000E+00  0.00000000000E+00  0.91854384864E+02  0.91974550930E+02  0.47000000000E+01 0. -1.
         -5   -1    0    0    0  501 -0.00000000000E+00 -0.00000000000E+00 -0.45828663349E+03  0.45831073349E+03  0.47000000000E+01 0.  1.
          6    1    1    2  502    0  0.70591782662E+01 -0.58155144261E+01 -0.33548649325E+02  0.17547981102E+03  0.17200000000E+03 0. -1.
         -6    1    1    2    0  502 -0.70591782662E+01  0.58155144261E+01 -0.33288359930E+03  0.37480547340E+03  0.17200000000E+03 0.  1.
</event>
<event>
 4    1 -0.6483339E-004  0.1798342E+03  0.7818608E-02  0.1167964E+00
          5   -1    0    0  501    0  0.00000000000E+00  0.00000000000E+00  0.18809341661E+03  0.18815212827E+03  0.47000000000E+01 0. -1.
         -5   -1    0    0    0  501 -0.00000000000E+00 -0.00000000000E+00 -0.19080804653E+03  0.19086592315E+03  0.47000000000E+01 0.  1.
          6    1    1    2  502    0  0.50013537470E+02 -0.15967817548E+02 -0.61120904332E+02  0.18993706872E+03  0.17200000000E+03 0. -1.
         -6    1    1    2    0  502 -0.50013537470E+02  0.15967817548E+02  0.58406274416E+02  0.18908098270E+03  0.17200000000E+03 0.  1.
</event>
<event>
 4    1 -0.6483339E-004  0.2232672E+03  0.7818608E-02  0.1131470E+00
          5   -1    0    0  501    0  0.00000000000E+00  0.00000000000E+00  0.15015028821E+03  0.15022382984E+03  0.47000000000E+01 0. -1.
         -5   -1    0    0    0  501 -0.00000000000E+00 -0.00000000000E+00 -0.76898006968E+03  0.76899443273E+03  0.47000000000E+01 0.  1.
          6    1    1    2  502    0  0.83533703285E+01  0.14210719813E+03  0.37102562009E+02  0.22632904070E+03  0.17200000000E+03 0. -1.
         -6    1    1    2    0  502 -0.83533703285E+01 -0.14210719813E+03 -0.65593234348E+03  0.69288922186E+03  0.17200000000E+03 0.  1.
</event>
<event>
 4    1 -0.6483339E-004  0.2160169E+03  0.7818608E-02  0.1136888E+00
          5   -1    0    0  501    0  0.00000000000E+00  0.00000000000E+00  0.53874750091E+03  0.53876800178E+03  0.47000000000E+01 0. -1.
         -5   -1    0    0    0  501 -0.00000000000E+00 -0.00000000000E+00 -0.17533360182E+03  0.17539658471E+03  0.47000000000E+01 0.  1.
          6    1    1    2  502    0  0.11165295199E+03 -0.67918479367E+02  0.43575237174E+03  0.48635730796E+03  0.17200000000E+03 0. -1.
         -6    1    1    2    0  502 -0.11165295199E+03  0.67918479367E+02 -0.72338472646E+02  0.22780727853E+03  0.17200000000E+03 0.  1.
</event>
<event>
 4    1 -0.6483339E-004  0.1954206E+03  0.7818608E-02  0.1153661E+00
          5   -1    0    0  501    0  0.00000000000E+00  0.00000000000E+00  0.73186285160E+02  0.73337046133E+02  0.47000000000E+01 0. -1.
         -5   -1    0    0    0  501 -0.00000000000E+00 -0.00000000000E+00 -0.58339685426E+03  0.58341578618E+03  0.47000000000E+01 0.  1.
          6    1    1    2  502    0  0.75103136615E+02 -0.54449296905E+02 -0.14782383947E+03  0.24503284388E+03  0.17200000000E+03 0.  1.
         -6    1    1    2    0  502 -0.75103136615E+02  0.54449296905E+02 -0.36238672963E+03  0.41171998844E+03  0.17200000000E+03 0.  1.
</event>
<event>
 4    1 -0.6483339E-004  0.1806660E+03  0.7818608E-02  0.1167160E+00
         -5   -1    0    0    0  501 -0.00000000000E+00  0.00000000000E+00  0.43115753711E+03  0.43118315343E+03  0.47000000000E+01 0.  1.
          5   -1    0    0  501    0  0.00000000000E+00 -0.00000000000E+00 -0.79422863842E+02  0.79561808054E+02  0.47000000000E+01 0. -1.
          6    1    1    2  502    0 -0.49763322197E+02 -0.24079626256E+02  0.11992058652E+03  0.21684363885E+03  0.17200000000E+03 0. -1.
         -6    1    1    2    0  502  0.49763322197E+02  0.24079626256E+02  0.23181408674E+03  0.29390132264E+03  0.17200000000E+03 0.  1.
</event>
<event>
 4    1 -0.6483339E-004  0.2079496E+03  0.7818608E-02  0.1143200E+00
         -5   -1    0    0    0  501 -0.00000000000E+00  0.00000000000E+00  0.51915210112E+03  0.51917337576E+03  0.47000000000E+01 0.  1.
          5   -1    0    0  501    0  0.00000000000E+00 -0.00000000000E+00 -0.83535093784E+02  0.83667209189E+02  0.47000000000E+01 0. -1.
          6    1    1    2  502    0 -0.11672804324E+03 -0.57956371308E+01  0.19891214704E+03  0.28776564723E+03  0.17200000000E+03 0.  1.
         -6    1    1    2    0  502  0.11672804324E+03  0.57956371308E+01  0.23670486030E+03  0.31507493772E+03  0.17200000000E+03 0. -1.
</event>
<event>
 4    1 -0.6483339E-004  0.2286925E+03  0.7818608E-02  0.1127563E+00
          5   -1    0    0  501    0  0.00000000000E+00  0.00000000000E+00  0.18215178972E+03  0.18221241587E+03  0.47000000000E+01 0. -1.
         -5   -1    0    0    0  501 -0.00000000000E+00 -0.00000000000E+00 -0.30118557529E+03  0.30122224480E+03  0.47000000000E+01 0.  1.
          6    1    1    2  502    0  0.18357929353E+02 -0.14959701611E+03 -0.11197205328E+03  0.25463311159E+03  0.17200000000E+03 0.  1.
         -6    1    1    2    0  502 -0.18357929353E+02  0.14959701611E+03 -0.70617322927E+01  0.22880154908E+03  0.17200000000E+03 0.  1.
</event>
<event>
 4    1 -0.6483339E-004  0.2168409E+03  0.7818608E-02  0.1136260E+00
          5   -1    0    0  501    0  0.00000000000E+00  0.00000000000E+00  0.12417384124E+03  0.12426275729E+03  0.47000000000E+01 0. -1.
         -5   -1    0    0    0  501 -0.00000000000E+00 -0.00000000000E+00 -0.40741136307E+03  0.40743847236E+03  0.47000000000E+01 0.  1.
          6    1    1    2  502    0 -0.11732715508E+03 -0.60583001815E+02 -0.21252232146E+03  0.30362097844E+03  0.17200000000E+03 0. -1.
         -6    1    1    2    0  502  0.11732715508E+03  0.60583001815E+02 -0.70715200374E+02  0.22808025121E+03  0.17200000000E+03 0.  1.
</event>
<event>
 4    1 -0.6483339E-004  0.2999709E+03  0.7818608E-02  0.1085255E+00
          5   -1    0    0  501    0  0.00000000000E+00  0.00000000000E+00  0.77603248656E+03  0.77604671908E+03  0.47000000000E+01 0. -1.
         -5   -1    0    0    0  501 -0.00000000000E+00 -0.00000000000E+00 -0.11600838169E+03  0.11610355130E+03  0.47000000000E+01 0.  1.
          6    1    1    2  502    0 -0.68171408298E+01  0.24566661664E+03  0.31571641018E+03  0.43549903743E+03  0.17200000000E+03 0.  1.
         -6    1    1    2    0  502  0.68171408298E+01 -0.24566661664E+03  0.34430769468E+03  0.45665123295E+03  0.17200000000E+03 0.  1.
</event>
<event>
 4    1 -0.6483339E-004  0.2070293E+03  0.7818608E-02  0.1143940E+00
          5   -1    0    0  501    0  0.00000000000E+00  0.00000000000E+00  0.41008060927E+03  0.41010754211E+03  0.47000000000E+01 0. -1.
         -5   -1    0    0    0  501 -0.00000000000E+00 -0.00000000000E+00 -0.10594419770E+03  0.10604839945E+03  0.47000000000E+01 0.  1.
          6    1    1    2  502    0 -0.11481895693E+03  0.96826519509E+01  0.18284525379E+03  0.27621284085E+03  0.17200000000E+03 0. -1.
         -6    1    1    2    0  502  0.11481895693E+03 -0.96826519509E+01  0.12129115778E+03  0.23994310071E+03  0.17200000000E+03 0. -1.
</event>
<event>
 4    1 -0.6483339E-004  0.3358888E+03  0.7818608E-02  0.1068561E+00
          5   -1    0    0  501    0  0.00000000000E+00  0.00000000000E+00  0.23508176039E+03  0.23512873935E+03  0.47000000000E+01 0. -1.
         -5   -1    0    0    0  501 -0.00000000000E+00 -0.00000000000E+00 -0.69381855123E+03  0.69383447019E+03  0.47000000000E+01 0.  1.
          6    1    1    2  502    0 -0.30488937250E+02 -0.28689322625E+03  0.28580104322E+02  0.33710253770E+03  0.17200000000E+03 0.  1.
         -6    1    1    2    0  502  0.30488937250E+02  0.28689322625E+03 -0.48731689516E+03  0.59186067184E+03  0.17200000000E+03 0. -1.
</event>
<event>
 4    1 -0.6483339E-004  0.1941213E+03  0.7818608E-02  0.1154796E+00
          5   -1    0    0  501    0  0.00000000000E+00  0.00000000000E+00  0.10726206863E+03  0.10736499134E+03  0.47000000000E+01 0. -1.
         -5   -1    0    0    0  501 -0.00000000000E+00 -0.00000000000E+00 -0.50245975405E+03  0.50248173543E+03  0.47000000000E+01 0.  1.
          6    1    1    2  502    0 -0.87891980333E+02 -0.19341283487E+02 -0.36497304954E+03  0.41338651689E+03  0.17200000000E+03 0.  1.
         -6    1    1    2    0  502  0.87891980333E+02  0.19341283487E+02 -0.30224635884E+02  0.19646020988E+03  0.17200000000E+03 0. -1.
</event>
<event>
 4    1 -0.6483339E-004  0.3779643E+03  0.7818608E-02  0.1051689E+00
         -5   -1    0    0    0  501 -0.00000000000E+00  0.00000000000E+00  0.93162068478E+03  0.93163254039E+03  0.47000000000E+01 0.  1.
          5   -1    0    0  501    0  0.00000000000E+00 -0.00000000000E+00 -0.56376252980E+03  0.56378212104E+03  0.47000000000E+01 0. -1.
          6    1    1    2  502    0  0.13010820635E+03  0.31039474704E+03 -0.45404266185E+03  0.59077219225E+03  0.17200000000E+03 0. -1.
         -6    1    1    2    0  502 -0.13010820635E+03 -0.31039474704E+03  0.82190081683E+03  0.90464246918E+03  0.17200000000E+03 0.  1.
</event>
<event>
 4    1 -0.6483339E-004  0.2856914E+03  0.7818608E-02  0.1092620E+00
         -5   -1    0    0    0  501 -0.00000000000E+00  0.00000000000E+00  0.95532353395E+03  0.95533509541E+03  0.47000000000E+01 0.  1.
          5   -1    0    0  501    0  0.00000000000E+00 -0.00000000000E+00 -0.95594106363E+02  0.95709577218E+02  0.47000000000E+01 0. -1.
          6    1    1    2  502    0  0.10608965854E+03 -0.20194201055E+03  0.25803460117E+03  0.38496941005E+03  0.17200000000E+03 0. -1.
         -6    1    1    2    0  502 -0.10608965854E+03  0.20194201055E+03  0.60169482641E+03  0.66607526257E+03  0.17200000000E+03 0.  1.
</event>
<event>
 4    1 -0.6483339E-004  0.2010332E+03  0.7818608E-02  0.1148870E+00
          5   -1    0    0  501    0  0.00000000000E+00  0.00000000000E+00  0.72273005779E+03  0.72274533996E+03  0.47000000000E+01 0. -1.
         -5   -1    0    0    0  501 -0.00000000000E+00 -0.00000000000E+00 -0.67113560369E+02  0.67277930894E+02  0.47000000000E+01 0.  1.
          6    1    1    2  502    0  0.22785829788E+02  0.10154379814E+03  0.48972325760E+03  0.52938002041E+03  0.17200000000E+03 0. -1.
         -6    1    1    2    0  502 -0.22785829788E+02 -0.10154379814E+03  0.16589323982E+03  0.26064325044E+03  0.17200000000E+03 0.  1.
</event>
<event>
 4    1 -0.6483339E-004  0.2058563E+03  0.7818608E-02  0.1144890E+00
          5   -1    0    0  501    0  0.00000000000E+00  0.00000000000E+00  0.36656186095E+03  0.36659199105E+03  0.47000000000E+01 0. -1.
         -5   -1    0    0    0  501 -0.00000000000E+00 -0.00000000000E+00 -0.11848758723E+03  0.11858076711E+03  0.47000000000E+01 0.  1.
          6    1    1    2  502    0 -0.41533348166E+02 -0.10520365172E+03  0.16238527632E+03  0.26219421296E+03  0.17200000000E+03 0. -1.
         -6    1    1    2    0  502  0.41533348166E+02  0.10520365172E+03  0.85688997399E+02  0.22297854520E+03  0.17200000000E+03 0.  1.
</event>
<event>
 4    1 -0.6483339E-004  0.4295025E+03  0.7818608E-02  0.1034017E+00
         -5   -1    0    0    0  501 -0.00000000000E+00  0.00000000000E+00  0.25466390762E+03  0.25470727482E+03  0.47000000000E+01 0.  1.
          5   -1    0    0  501    0  0.00000000000E+00 -0.00000000000E+00 -0.72558468830E+03  0.72559991035E+03  0.47000000000E+01 0. -1.
          6    1    1    2  502    0 -0.37700029110E+03 -0.11295640756E+03 -0.25637811598E+03  0.50020206702E+03  0.17200000000E+03 0. -1.
         -6    1    1    2    0  502  0.37700029110E+03  0.11295640756E+03 -0.21454266470E+03  0.48010511815E+03  0.17200000000E+03 0.  1.
</event>
<event>
 4    1 -0.6483339E-004  0.1954472E+03  0.7818608E-02  0.1153638E+00
         -5   -1    0    0    0  501 -0.00000000000E+00  0.00000000000E+00  0.56075230322E+03  0.56077199963E+03  0.47000000000E+01 0.  1.
          5   -1    0    0  501    0  0.00000000000E+00 -0.00000000000E+00 -0.90617122038E+02  0.90738926633E+02  0.47000000000E+01 0. -1.
          6    1    1    2  502    0 -0.12285014751E+02  0.92003650617E+02  0.72540627312E+02  0.20847478487E+03  0.17200000000E+03 0. -1.
         -6    1    1    2    0  502  0.12285014751E+02 -0.92003650617E+02  0.39759455387E+03  0.44303614139E+03  0.17200000000E+03 0.  1.
</event>
<event>
 4    1 -0.6483339E-004  0.2222243E+03  0.7818608E-02  0.1132236E+00
         -5   -1    0    0    0  501 -0.00000000000E+00  0.00000000000E+00  0.60240077113E+02  0.60423148632E+02  0.47000000000E+01 0.  1.
          5   -1    0    0  501    0  0.00000000000E+00 -0.00000000000E+00 -0.17904432135E+04  0.17904493824E+04  0.47000000000E+01 0. -1.
          6    1    1    2  502    0  0.92475692611E+02 -0.10605607870E+03 -0.15469651165E+04  0.15628450714E+04  0.17200000000E+03 0. -1.
         -6    1    1    2    0  502 -0.92475692611E+02  0.10605607870E+03 -0.18323801995E+03  0.28802745964E+03  0.17200000000E+03 0.  1.
</event>
<event>
 4    1 -0.6483339E-004  0.3232022E+03  0.7818608E-02  0.1074185E+00
         -5   -1    0    0    0  501 -0.00000000000E+00  0.00000000000E+00  0.17209455689E+04  0.17209519869E+04  0.47000000000E+01 0.  1.
          5   -1    0    0  501    0  0.00000000000E+00 -0.00000000000E+00 -0.16086292349E+03  0.16093156979E+03  0.47000000000E+01 0. -1.
          6    1    1    2  502    0 -0.15204687952E+02 -0.27321136210E+03  0.37494140244E+02  0.32536969968E+03  0.17200000000E+03 0. -1.
         -6    1    1    2    0  502  0.15204687952E+02  0.27321136210E+03  0.15225885051E+04  0.15565138570E+04  0.17200000000E+03 0.  1.
</event>
<event>
 4    1 -0.6483339E-004  0.2808275E+03  0.7818608E-02  0.1095238E+00
          5   -1    0    0  501    0  0.00000000000E+00  0.00000000000E+00  0.60362874727E+03  0.60364704466E+03  0.47000000000E+01 0. -1.
         -5   -1    0    0    0  501 -0.00000000000E+00 -0.00000000000E+00 -0.13903131154E+03  0.13911073139E+03  0.47000000000E+01 0.  1.
          6    1    1    2  502    0 -0.15229562293E+03 -0.16151199059E+03  0.32378914549E+03  0.42860645190E+03  0.17200000000E+03 0. -1.
         -6    1    1    2    0  502  0.15229562293E+03  0.16151199059E+03  0.14080829024E+03  0.31415132416E+03  0.17200000000E+03 0.  1.
</event>
<event>
 4    1 -0.6483339E-004  0.1912850E+03  0.7818608E-02  0.1157307E+00
         -5   -1    0    0    0  501 -0.00000000000E+00  0.00000000000E+00  0.35093897168E+02  0.35407225512E+02  0.47000000000E+01 0.  1.
          5   -1    0    0  501    0  0.00000000000E+00 -0.00000000000E+00 -0.10832038549E+04  0.10832140515E+04  0.47000000000E+01 0. -1.
          6    1    1    2  502    0  0.47648936541E+02  0.68815322236E+02 -0.63870167759E+03  0.66673068227E+03  0.17200000000E+03 0. -1.
         -6    1    1    2    0  502 -0.47648936541E+02 -0.68815322236E+02 -0.40940828018E+03  0.45189059473E+03  0.17200000000E+03 0. -1.
</event>
<event>
 4    1 -0.6483339E-004  0.7573112E+03  0.7818608E-02  0.9623950E-01
         -5   -1    0    0    0  501 -0.00000000000E+00  0.00000000000E+00  0.12239873317E+04  0.12239963555E+04  0.47000000000E+01 0.  1.
          5   -1    0    0  501    0  0.00000000000E+00 -0.00000000000E+00 -0.47601777448E+03  0.47604097683E+03  0.47000000000E+01 0. -1.
          6    1    1    2  502    0  0.69851413184E+03 -0.23667335022E+03  0.48048585863E+03  0.89687620518E+03  0.17200000000E+03 0. -1.
         -6    1    1    2    0  502 -0.69851413184E+03  0.23667335022E+03  0.26748369862E+03  0.80316112712E+03  0.17200000000E+03 0.  1.
</event>
<event>
 4    1 -0.6483339E-004  0.1938611E+03  0.7818608E-02  0.1155024E+00
         -5   -1    0    0    0  501 -0.00000000000E+00  0.00000000000E+00  0.17719666853E+03  0.17725898944E+03  0.47000000000E+01 0.  1.
          5   -1    0    0  501    0  0.00000000000E+00 -0.00000000000E+00 -0.45679490794E+03  0.45681908664E+03  0.47000000000E+01 0. -1.
          6    1    1    2  502    0  0.78294502108E+02 -0.43221616115E+02 -0.37187750980E+03  0.41937455748E+03  0.17200000000E+03 0. -1.
         -6    1    1    2    0  502 -0.78294502108E+02  0.43221616115E+02  0.92279270394E+02  0.21470351861E+03  0.17200000000E+03 0.  1.
</event>
<event>
 4    1 -0.6483339E-004  0.5672284E+03  0.7818608E-02  0.9975831E-01
          5   -1    0    0  501    0  0.00000000000E+00  0.00000000000E+00  0.23592473200E+03  0.23597154313E+03  0.47000000000E+01 0. -1.
         -5   -1    0    0    0  501 -0.00000000000E+00 -0.00000000000E+00 -0.20089186081E+04  0.20089241061E+04  0.47000000000E+01 0.  1.
          6    1    1    2  502    0  0.43942302525E+03  0.31475622029E+03 -0.25033117102E+03  0.62001110354E+03  0.17200000000E+03 0. -1.
         -6    1    1    2    0  502 -0.43942302525E+03 -0.31475622029E+03 -0.15226627051E+04  0.16248845457E+04  0.17200000000E+03 0.  1.
</event>
<event>
 4    1 -0.6483339E-004  0.1732345E+03  0.7818608E-02  0.1174516E+00
          5   -1    0    0  501    0  0.00000000000E+00  0.00000000000E+00  0.19053015040E+03  0.19058811141E+03  0.47000000000E+01 0. -1.
         -5   -1    0    0    0  501 -0.00000000000E+00 -0.00000000000E+00 -0.15783780334E+03  0.15790776473E+03  0.47000000000E+01 0.  1.
          6    1    1    2  502    0 -0.18914604736E+02  0.82729724116E+01  0.25603405362E+02  0.17511635763E+03  0.17200000000E+03 0.  1.
         -6    1    1    2    0  502  0.18914604736E+02 -0.82729724116E+01  0.70889416967E+01  0.17337951851E+03  0.17200000000E+03 0.  1.
</event>
<event>
 4    1 -0.6483339E-004  0.5723555E+03  0.7818608E-02  0.9964480E-01
         -5   -1    0    0    0  501 -0.00000000000E+00  0.00000000000E+00  0.62053804638E+03  0.62055584519E+03  0.47000000000E+01 0.  1.
          5   -1    0    0  501    0  0.00000000000E+00 -0.00000000000E+00 -0.53983108207E+03  0.53985154178E+03  0.47000000000E+01 0. -1.
          6    1    1    2  502    0  0.54544113259E+03 -0.22379436163E+02 -0.45977896173E+02  0.57419929921E+03  0.17200000000E+03 0.  1.
         -6    1    1    2    0  502 -0.54544113259E+03  0.22379436163E+02  0.12668486049E+03  0.58620808776E+03  0.17200000000E+03 0.  1.
</event>
<event>
 4    1 -0.6483339E-004  0.6039919E+03  0.7818608E-02  0.9897159E-01
         -5   -1    0    0    0  501 -0.00000000000E+00  0.00000000000E+00  0.26875780716E+03  0.26879890050E+03  0.47000000000E+01 0.  1.
          5   -1    0    0  501    0  0.00000000000E+00 -0.00000000000E+00 -0.16731542964E+04  0.16731608977E+04  0.47000000000E+01 0. -1.
          6    1    1    2  502    0 -0.57655187938E+03 -0.53010304877E+02 -0.28028076069E+03  0.66585543990E+03  0.17200000000E+03 0. -1.
         -6    1    1    2    0  502  0.57655187938E+03  0.53010304877E+02 -0.11241157285E+04  0.12761043583E+04  0.17200000000E+03 0.  1.
</event>
<event>
 4    1 -0.6483339E-004  0.2207604E+03  0.7818608E-02  0.1133317E+00
         -5   -1    0    0    0  501 -0.00000000000E+00  0.00000000000E+00  0.10255338535E+04  0.10255446234E+04  0.47000000000E+01 0.  1.
          5   -1    0    0  501    0  0.00000000000E+00 -0.00000000000E+00 -0.77975495008E+02  0.78117013650E+02  0.47000000000E+01 0. -1.
          6    1    1    2  502    0  0.12343944801E+03  0.62560848811E+02  0.12863330369E+03  0.25550280615E+03  0.17200000000E+03 0. -1.
         -6    1    1    2    0  502 -0.12343944801E+03 -0.62560848811E+02  0.81892505475E+03  0.84815883090E+03  0.17200000000E+03 0.  1.
</event>
<event>
 4    1 -0.6483339E-004  0.1874635E+03  0.7818608E-02  0.1160769E+00
         -5   -1    0    0    0  501 -0.00000000000E+00  0.00000000000E+00  0.24121325645E+04  0.24121371434E+04  0.47000000000E+01 0.  1.
          5   -1    0    0  501    0  0.00000000000E+00 -0.00000000000E+00 -0.16164625838E+02  0.16834046706E+02  0.47000000000E+01 0. -1.
          6    1    1    2  502    0  0.35325495286E+02 -0.65655643712E+02  0.78214770264E+03  0.80429943610E+03  0.17200000000E+03 0. -1.
         -6    1    1    2    0  502 -0.35325495286E+02  0.65655643712E+02  0.16138202360E+04  0.16246717540E+04  0.17200000000E+03 0.  1.
</event>
<event>
 4    1 -0.6483339E-004  0.2171977E+03  0.7818608E-02  0.1135990E+00
         -5   -1    0    0    0  501 -0.00000000000E+00  0.00000000000E+00  0.22095785690E+03  0.22100783815E+03  0.47000000000E+01 0.  1.
          5   -1    0    0  501    0  0.00000000000E+00 -0.00000000000E+00 -0.21794290226E+03  0.21799357478E+03  0.47000000000E+01 0. -1.
          6    1    1    2  502    0 -0.75331949731E+02  0.10916006618E+03 -0.30170784694E+02  0.21928314789E+03  0.17200000000E+03 0.  1.
         -6    1    1    2    0  502  0.75331949731E+02 -0.10916006618E+03  0.33185739334E+02  0.21971826504E+03  0.17200000000E+03 0. -1.
</event>
<event>
 4    1 -0.6483339E-004  0.1796280E+03  0.7818608E-02  0.1168164E+00
         -5   -1    0    0    0  501 -0.00000000000E+00  0.00000000000E+00  0.74481009173E+02  0.74629154674E+02  0.47000000000E+01 0.  1.
          5   -1    0    0  501    0  0.00000000000E+00 -0.00000000000E+00 -0.68733817444E+03  0.68735424349E+03  0.47000000000E+01 0. -1.
          6    1    1    2  502    0 -0.46708773771E+02 -0.22372231800E+02 -0.53833057595E+03  0.56750862135E+03  0.17200000000E+03 0. -1.
         -6    1    1    2    0  502  0.46708773771E+02  0.22372231800E+02 -0.74526589323E+02  0.19447477682E+03  0.17200000000E+03 0.  1.
</event>
<event>
 4    1 -0.6483339E-004  0.3208776E+03  0.7818608E-02  0.1075246E+00
         -5   -1    0    0    0  501 -0.00000000000E+00  0.00000000000E+00  0.52872308191E+03  0.52874397145E+03  0.47000000000E+01 0.  1.
          5   -1    0    0  501    0  0.00000000000E+00 -0.00000000000E+00 -0.19470077303E+03  0.19475749284E+03  0.47000000000E+01 0. -1.
          6    1    1    2  502    0 -0.95247526955E+02  0.25358689900E+03  0.16373223034E+03  0.36023693590E+03  0.17200000000E+03 0. -1.
         -6    1    1    2    0  502  0.95247526955E+02 -0.25358689900E+03  0.17029007854E+03  0.36326452839E+03  0.17200000000E+03 0.  1.
</event>
<event>
 4    1 -0.6483339E-004  0.1914383E+03  0.7818608E-02  0.1157170E+00
          5   -1    0    0  501    0  0.00000000000E+00  0.00000000000E+00  0.32141001239E+02  0.32482825626E+02  0.47000000000E+01 0. -1.
         -5   -1    0    0    0  501 -0.00000000000E+00 -0.00000000000E+00 -0.11813960216E+04  0.11814053706E+04  0.47000000000E+01 0.  1.
          6    1    1    2  502    0 -0.83215186334E+02  0.11825966664E+02 -0.45290663586E+03  0.49170422159E+03  0.17200000000E+03 0.  1.
         -6    1    1    2    0  502  0.83215186334E+02 -0.11825966664E+02 -0.69634838448E+03  0.72218397468E+03  0.17200000000E+03 0.  1.
</event>
<event>
 4    1 -0.6483339E-004  0.1964957E+03  0.7818608E-02  0.1152730E+00
          5   -1    0    0  501    0  0.00000000000E+00  0.00000000000E+00  0.33240720812E+03  0.33244043378E+03  0.47000000000E+01 0. -1.
         -5   -1    0    0    0  501 -0.00000000000E+00 -0.00000000000E+00 -0.24311317968E+03  0.24315860695E+03  0.47000000000E+01 0.  1.
          6    1    1    2  502    0 -0.93466223392E+02 -0.17047346921E+02  0.25265158186E+03  0.32006775652E+03  0.17200000000E+03 0. -1.
         -6    1    1    2    0  502  0.93466223392E+02  0.17047346921E+02 -0.16335755341E+03  0.25553128421E+03  0.17200000000E+03 0.  1.
</event>
<event>
 4    1 -0.6483339E-004  0.2746876E+03  0.7818608E-02  0.1098626E+00
         -5   -1    0    0    0  501 -0.00000000000E+00  0.00000000000E+00  0.86675834843E+03  0.86677109122E+03  0.47000000000E+01 0.  1.
          5   -1    0    0  501    0  0.00000000000E+00 -0.00000000000E+00 -0.87977152989E+02  0.88102607498E+02  0.47000000000E+01 0. -1.
          6    1    1    2  502    0 -0.13986173324E+03  0.16219727352E+03  0.33848496376E+03  0.43591894963E+03  0.17200000000E+03 0.  1.
         -6    1    1    2    0  502  0.13986173324E+03 -0.16219727352E+03  0.44029623169E+03  0.51895474908E+03  0.17200000000E+03 0. -1.
</event>
<event>
 4    1 -0.6483339E-004  0.2973312E+03  0.7818608E-02  0.1086582E+00
         -5   -1    0    0    0  501 -0.00000000000E+00  0.00000000000E+00  0.31868364984E+03  0.31871830615E+03  0.47000000000E+01 0.  1.
          5   -1    0    0  501    0  0.00000000000E+00 -0.00000000000E+00 -0.32219419532E+03  0.32222847406E+03  0.47000000000E+01 0. -1.
          6    1    1    2  502    0  0.13173980570E+03 -0.20363321431E+03  0.11780508536E+03  0.31981854311E+03  0.17200000000E+03 0. -1.
         -6    1    1    2    0  502 -0.13173980570E+03  0.20363321431E+03 -0.12131563085E+03  0.32112823710E+03  0.17200000000E+03 0.  1.
</event>
<event>
 4    1 -0.6483339E-004  0.4793974E+03  0.7818608E-02  0.1019301E+00
          5   -1    0    0  501    0  0.00000000000E+00  0.00000000000E+00  0.34691746330E+03  0.34694929938E+03  0.47000000000E+01 0. -1.
         -5   -1    0    0    0  501 -0.00000000000E+00 -0.00000000000E+00 -0.79894119414E+03  0.79895501857E+03  0.47000000000E+01 0.  1.
          6    1    1    2  502    0 -0.36103962520E+03 -0.26436381426E+03  0.10843672372E+02  0.47951999175E+03  0.17200000000E+03 0. -1.
         -6    1    1    2    0  502  0.36103962520E+03  0.26436381426E+03 -0.46286740321E+03  0.66638432620E+03  0.17200000000E+03 0.  1.
</event>
<event>
 4    1 -0.6483339E-004  0.1830476E+03  0.7818608E-02  0.1164886E+00
         -5   -1    0    0    0  501 -0.00000000000E+00  0.00000000000E+00  0.50657072527E+03  0.50659252828E+03  0.47000000000E+01 0.  1.
          5   -1    0    0  501    0  0.00000000000E+00 -0.00000000000E+00 -0.67880130287E+02  0.68042649036E+02  0.47000000000E+01 0. -1.
          6    1    1    2  502    0  0.19507664289E+02  0.59513775257E+02  0.17206457114E+03  0.25122232196E+03  0.17200000000E+03 0. -1.
         -6    1    1    2    0  502 -0.19507664289E+02 -0.59513775257E+02  0.26662602385E+03  0.32341285535E+03  0.17200000000E+03 0.  1.
</event>
<event>
 4    1 -0.6483339E-004  0.2314879E+03  0.7818608E-02  0.1125597E+00
          5   -1    0    0  501    0  0.00000000000E+00  0.00000000000E+00  0.21306991048E+04  0.21307042886E+04  0.47000000000E+01 0. -1.
         -5   -1    0    0    0  501 -0.00000000000E+00 -0.00000000000E+00 -0.25555394088E+02  0.25983998288E+02  0.47000000000E+01 0.  1.
          6    1    1    2  502    0  0.10773393174E+03  0.11133748481E+03  0.88463696407E+03  0.91442287470E+03  0.17200000000E+03 0. -1.
         -6    1    1    2    0  502 -0.10773393174E+03 -0.11133748481E+03  0.12205067467E+04  0.12422654122E+04  0.17200000000E+03 0.  1.
</event>
<event>
 4    1 -0.6483339E-004  0.1905992E+03  0.7818608E-02  0.1157922E+00
         -5   -1    0    0    0  501 -0.00000000000E+00  0.00000000000E+00  0.12958108565E+03  0.12966629384E+03  0.47000000000E+01 0.  1.
          5   -1    0    0  501    0  0.00000000000E+00 -0.00000000000E+00 -0.52156885535E+03  0.52159003142E+03  0.47000000000E+01 0. -1.
          6    1    1    2  502    0  0.60344899361E+01  0.81900285327E+02 -0.41750774287E+03  0.45895619308E+03  0.17200000000E+03 0. -1.
         -6    1    1    2    0  502 -0.60344899361E+01 -0.81900285327E+02  0.25519973172E+02  0.19230013218E+03  0.17200000000E+03 0.  1.
</event>
<event>
 4    1 -0.6483339E-004  0.2928524E+03  0.7818608E-02  0.1088869E+00
         -5   -1    0    0    0  501 -0.00000000000E+00  0.00000000000E+00  0.14605351799E+03  0.14612912138E+03  0.47000000000E+01 0.  1.
          5   -1    0    0  501    0  0.00000000000E+00 -0.00000000000E+00 -0.59793360826E+03  0.59795207993E+03  0.47000000000E+01 0. -1.
          6    1    1    2  502    0 -0.19602795160E+03  0.13323494921E+03 -0.27633184080E+03  0.40264350949E+03  0.17200000000E+03 0. -1.
         -6    1    1    2    0  502  0.19602795160E+03 -0.13323494921E+03 -0.17554824948E+03  0.34143769182E+03  0.17200000000E+03 0.  1.
</event>
<event>
 4    1 -0.6483339E-004  0.3369514E+03  0.7818608E-02  0.1068102E+00
         -5   -1    0    0    0  501 -0.00000000000E+00  0.00000000000E+00  0.25971950185E+03  0.25976202502E+03  0.47000000000E+01 0.  1.
          5   -1    0    0  501    0  0.00000000000E+00 -0.00000000000E+00 -0.50755257273E+03  0.50757433356E+03  0.47000000000E+01 0. -1.
          6    1    1    2  502    0  0.24965880281E+03  0.14704673629E+03 -0.26689249426E+03  0.42984632599E+03  0.17200000000E+03 0. -1.
         -6    1    1    2    0  502 -0.24965880281E+03 -0.14704673629E+03  0.19059423379E+02  0.33749003259E+03  0.17200000000E+03 0.  1.
</event>
<event>
 4    1 -0.6483339E-004  0.3442867E+03  0.7818608E-02  0.1064985E+00
          5   -1    0    0  501    0  0.00000000000E+00  0.00000000000E+00  0.17486465003E+03  0.17492780176E+03  0.47000000000E+01 0. -1.
         -5   -1    0    0    0  501 -0.00000000000E+00 -0.00000000000E+00 -0.10890659582E+04  0.10890760998E+04  0.47000000000E+01 0.  1.
          6    1    1    2  502    0  0.12926927743E+03 -0.26877275937E+03 -0.68673762174E+02  0.35106897880E+03  0.17200000000E+03 0. -1.
         -6    1    1    2    0  502 -0.12926927743E+03  0.26877275937E+03 -0.84552754596E+03  0.91293492279E+03  0.17200000000E+03 0.  1.
</event>
<event>
 4    1 -0.6483339E-004  0.1815944E+03  0.7818608E-02  0.1166269E+00
          5   -1    0    0  501    0  0.00000000000E+00  0.00000000000E+00  0.91149765162E+03  0.91150976896E+03  0.47000000000E+01 0. -1.
         -5   -1    0    0    0  501 -0.00000000000E+00 -0.00000000000E+00 -0.47127583173E+02  0.47361367123E+02  0.47000000000E+01 0.  1.
          6    1    1    2  502    0  0.58238541967E+02 -0.90216235750E+00  0.66431857941E+03  0.68869130720E+03  0.17200000000E+03 0. -1.
         -6    1    1    2    0  502 -0.58238541967E+02  0.90216235750E+00  0.20005148903E+03  0.27017982888E+03  0.17200000000E+03 0.  1.
</event>
<event>
 4    1 -0.6483339E-004  0.3137638E+03  0.7818608E-02  0.1078556E+00
          5   -1    0    0  501    0  0.00000000000E+00  0.00000000000E+00  0.39034957702E+03  0.39037787115E+03  0.47000000000E+01 0. -1.
         -5   -1    0    0    0  501 -0.00000000000E+00 -0.00000000000E+00 -0.26375948190E+03  0.26380135385E+03  0.47000000000E+01 0.  1.
          6    1    1    2  502    0  0.16319527946E+03  0.20550183892E+03  0.13192461895E+03  0.34037010757E+03  0.17200000000E+03 0. -1.
         -6    1    1    2    0  502 -0.16319527946E+03 -0.20550183892E+03 -0.53345238320E+01  0.31380911743E+03  0.17200000000E+03 0.  1.
</event>
<event>
 4    1 -0.6483339E-004  0.2036576E+03  0.7818608E-02  0.1146689E+00
          5   -1    0    0  501    0  0.00000000000E+00  0.00000000000E+00  0.38060226822E+03  0.38063128690E+03  0.47000000000E+01 0. -1.
         -5   -1    0    0    0  501 -0.00000000000E+00 -0.00000000000E+00 -0.15806762434E+03  0.15813748406E+03  0.47000000000E+01 0.  1.
          6    1    1    2  502    0  0.10700534319E+03  0.21030220159E+02  0.26146700279E+03  0.33142330513E+03  0.17200000000E+03 0. -1.
         -6    1    1    2    0  502 -0.10700534319E+03 -0.21030220159E+02 -0.38932358915E+02  0.20734546584E+03  0.17200000000E+03 0.  1.
</event>
<event>
 4    1 -0.6483339E-004  0.2466426E+03  0.7818608E-02  0.1115445E+00
          5   -1    0    0  501    0  0.00000000000E+00  0.00000000000E+00  0.18458426210E+03  0.18464408958E+03  0.47000000000E+01 0. -1.
         -5   -1    0    0    0  501 -0.00000000000E+00 -0.00000000000E+00 -0.41367743954E+03  0.41370413822E+03  0.47000000000E+01 0.  1.
          6    1    1    2  502    0  0.11798181780E+03  0.13163919851E+03  0.20446110391E+02  0.24748864893E+03  0.17200000000E+03 0. -1.
         -6    1    1    2    0  502 -0.11798181780E+03 -0.13163919851E+03 -0.24953928783E+03  0.35085957887E+03  0.17200000000E+03 0.  1.
</event>
<event>
 4    1 -0.6483339E-004  0.2624331E+03  0.7818608E-02  0.1105690E+00
          5   -1    0    0  501    0  0.00000000000E+00  0.00000000000E+00  0.95329085135E+03  0.95330243747E+03  0.47000000000E+01 0. -1.
         -5   -1    0    0    0  501 -0.00000000000E+00 -0.00000000000E+00 -0.75071421516E+02  0.75218404187E+02  0.47000000000E+01 0.  1.
          6    1    1    2  502    0  0.15709476410E+03 -0.12086502818E+03  0.54032409784E+03  0.60068398568E+03  0.17200000000E+03 0. -1.
         -6    1    1    2    0  502 -0.15709476410E+03  0.12086502818E+03  0.33789533200E+03  0.42783685597E+03  0.17200000000E+03 0.  1.
</event>
<event>
 4    1 -0.6483339E-004  0.2396893E+03  0.7818608E-02  0.1120000E+00
         -5   -1    0    0    0  501 -0.00000000000E+00  0.00000000000E+00  0.13085317029E+03  0.13093755067E+03  0.47000000000E+01 0.  1.
          5   -1    0    0  501    0  0.00000000000E+00 -0.00000000000E+00 -0.54675116167E+03  0.54677136245E+03  0.47000000000E+01 0. -1.
          6    1    1    2  502    0  0.11561692395E+03 -0.12041457383E+03 -0.35849474402E+03  0.43124172361E+03  0.17200000000E+03 0. -1.
         -6    1    1    2    0  502 -0.11561692395E+03  0.12041457383E+03 -0.57403247366E+02  0.24646718951E+03  0.17200000000E+03 0.  1.
</event>
<event>
 4    1 -0.6483339E-004  0.2334313E+03  0.7818608E-02  0.1124248E+00
         -5   -1    0    0    0  501 -0.00000000000E+00  0.00000000000E+00  0.13523683247E+03  0.13531847936E+03  0.47000000000E+01 0.  1.
          5   -1    0    0  501    0  0.00000000000E+00 -0.00000000000E+00 -0.40280168068E+03  0.40282910019E+03  0.47000000000E+01 0. -1.
          6    1    1    2  502    0  0.47898305225E+02 -0.15037267818E+03 -0.12966256996E+03  0.26702541459E+03  0.17200000000E+03 0. -1.
         -6    1    1    2    0  502 -0.47898305225E+02  0.15037267818E+03 -0.13790227825E+03  0.27112216496E+03  0.17200000000E+03 0.  1.
</event>
<event>
 4    1 -0.6483339E-004  0.1882205E+03  0.7818608E-02  0.1160076E+00
          5   -1    0    0  501    0  0.00000000000E+00  0.00000000000E+00  0.23708770087E+03  0.23713428243E+03  0.47000000000E+01 0. -1.
         -5   -1    0    0    0  501 -0.00000000000E+00 -0.00000000000E+00 -0.26672490039E+03  0.26676630688E+03  0.47000000000E+01 0.  1.
          6    1    1    2  502    0  0.72237649201E+02  0.24993804385E+02  0.15230113534E+03  0.24212105246E+03  0.17200000000E+03 0. -1.
         -6    1    1    2    0  502 -0.72237649201E+02 -0.24993804385E+02 -0.18193833486E+03  0.26177953685E+03  0.17200000000E+03 0.  1.
</event>
<event>
 4    1 -0.6483339E-004  0.2055724E+03  0.7818608E-02  0.1145121E+00
         -5   -1    0    0    0  501 -0.00000000000E+00  0.00000000000E+00  0.26743382267E+03  0.26747511942E+03  0.47000000000E+01 0.  1.
          5   -1    0    0  501    0  0.00000000000E+00 -0.00000000000E+00 -0.21097035590E+03  0.21102270273E+03  0.47000000000E+01 0. -1.
          6    1    1    2  502    0  0.79167764323E+02  0.80052835151E+02 -0.91698652786E+02  0.22509694411E+03  0.17200000000E+03 0. -1.
         -6    1    1    2    0  502 -0.79167764323E+02 -0.80052835151E+02  0.14816211956E+03  0.25340087805E+03  0.17200000000E+03 0.  1.
</event>
<event>
 4    1 -0.6483339E-004  0.2444910E+03  0.7818608E-02  0.1116837E+00
          5   -1    0    0  501    0  0.00000000000E+00  0.00000000000E+00  0.47887436439E+03  0.47889742834E+03  0.47000000000E+01 0. -1.
         -5   -1    0    0    0  501 -0.00000000000E+00 -0.00000000000E+00 -0.22544827888E+03  0.22549726484E+03  0.47000000000E+01 0.  1.
          6    1    1    2  502    0 -0.14163134819E+03  0.10065975392E+03  0.36204106305E+03  0.43686331522E+03  0.17200000000E+03 0. -1.
         -6    1    1    2    0  502  0.14163134819E+03 -0.10065975392E+03 -0.10861497754E+03  0.26753137796E+03  0.17200000000E+03 0.  1.
</event>
<event>
 4    1 -0.6483339E-004  0.2441059E+03  0.7818608E-02  0.1117087E+00
         -5   -1    0    0    0  501 -0.00000000000E+00  0.00000000000E+00  0.18281967989E+03  0.18288008463E+03  0.47000000000E+01 0.  1.
          5   -1    0    0  501    0  0.00000000000E+00 -0.00000000000E+00 -0.41881312384E+03  0.41883949515E+03  0.47000000000E+01 0. -1.
          6    1    1    2  502    0  0.95424524693E+02 -0.14456084395E+03 -0.25976069826E+03  0.35645939163E+03  0.17200000000E+03 0. -1.
         -6    1    1    2    0  502 -0.95424524693E+02  0.14456084395E+03  0.23767254309E+02  0.24526018816E+03  0.17200000000E+03 0. -1.
</event>
<event>
 4    1 -0.6483339E-004  0.1786705E+03  0.7818608E-02  0.1169096E+00
         -5   -1    0    0    0  501 -0.00000000000E+00  0.00000000000E+00  0.88035266573E+03  0.88036521175E+03  0.47000000000E+01 0.  1.
          5   -1    0    0  501    0  0.00000000000E+00 -0.00000000000E+00 -0.36296996673E+02  0.36600026878E+02  0.47000000000E+01 0. -1.
          6    1    1    2  502    0  0.22609754439E+02  0.42754616863E+02  0.45594470890E+03  0.48970270148E+03  0.17200000000E+03 0.  1.
         -6    1    1    2    0  502 -0.22609754439E+02 -0.42754616863E+02  0.38811096016E+03  0.42726253715E+03  0.17200000000E+03 0. -1.
</event>
<event>
 4    1 -0.6483339E-004  0.2778920E+03  0.7818608E-02  0.1096846E+00
         -5   -1    0    0    0  501 -0.00000000000E+00  0.00000000000E+00  0.11348308405E+03  0.11358036963E+03  0.47000000000E+01 0.  1.
          5   -1    0    0  501    0  0.00000000000E+00 -0.00000000000E+00 -0.69625312164E+03  0.69626898494E+03  0.47000000000E+01 0. -1.
          6    1    1    2  502    0  0.20895925436E+03  0.63055647474E+02 -0.35307168248E+03  0.44931458649E+03  0.17200000000E+03 0. -1.
         -6    1    1    2    0  502 -0.20895925436E+03 -0.63055647474E+02 -0.22969835511E+03  0.36053476809E+03  0.17200000000E+03 0. -1.
</event>
<event>
 4    1 -0.6483339E-004  0.1720621E+03  0.7818608E-02  0.1175714E+00
         -5   -1    0    0    0  501 -0.00000000000E+00  0.00000000000E+00  0.62682793284E+02  0.62858750973E+02  0.47000000000E+01 0.  1.
          5   -1    0    0  501    0  0.00000000000E+00 -0.00000000000E+00 -0.65568234361E+03  0.65569918844E+03  0.47000000000E+01 0. -1.
          6    1    1    2  502    0  0.45990690625E+01 -0.47500437466E+00 -0.10608654151E+03  0.20213790183E+03  0.17200000000E+03 0.  1.
         -6    1    1    2    0  502 -0.45990690625E+01  0.47500437466E+00 -0.48691300882E+03  0.51642003759E+03  0.17200000000E+03 0. -1.
</event>
<event>
 4    1 -0.6483339E-004  0.1937468E+03  0.7818608E-02  0.1155125E+00
          5   -1    0    0  501    0  0.00000000000E+00  0.00000000000E+00  0.23263457146E+03  0.23268204451E+03  0.47000000000E+01 0. -1.
         -5   -1    0    0    0  501 -0.00000000000E+00 -0.00000000000E+00 -0.16646653109E+03  0.16653286755E+03  0.47000000000E+01 0.  1.
          6    1    1    2  502    0  0.88689079754E+02 -0.93835562008E+01  0.68368318145E+02  0.20545566656E+03  0.17200000000E+03 0. -1.
         -6    1    1    2    0  502 -0.88689079754E+02  0.93835562008E+01 -0.22002777751E+01  0.19375924550E+03  0.17200000000E+03 0.  1.
</event>
<event>
 4    1 -0.6483339E-004  0.2303963E+03  0.7818608E-02  0.1126361E+00
         -5   -1    0    0    0  501 -0.00000000000E+00  0.00000000000E+00  0.65810047391E+02  0.65977665445E+02  0.47000000000E+01 0.  1.
          5   -1    0    0  501    0  0.00000000000E+00 -0.00000000000E+00 -0.90758349784E+03  0.90759566743E+03  0.47000000000E+01 0. -1.
          6    1    1    2  502    0  0.92946771877E+02 -0.12189886745E+03 -0.58420759796E+03  0.62799757468E+03  0.17200000000E+03 0. -1.
         -6    1    1    2    0  502 -0.92946771877E+02  0.12189886745E+03 -0.25756585248E+03  0.34557575820E+03  0.17200000000E+03 0. -1.
</event>
<event>
 4    1 -0.6483339E-004  0.2524193E+03  0.7818608E-02  0.1111785E+00
         -5   -1    0    0    0  501 -0.00000000000E+00  0.00000000000E+00  0.20877991370E+03  0.20883280960E+03  0.47000000000E+01 0.  1.
          5   -1    0    0  501    0  0.00000000000E+00 -0.00000000000E+00 -0.11460508517E+04  0.11460604891E+04  0.47000000000E+01 0. -1.
          6    1    1    2  502    0 -0.42358345470E+02 -0.17982570131E+03 -0.10489342818E+04  0.10788784175E+04  0.17200000000E+03 0. -1.
         -6    1    1    2    0  502  0.42358345470E+02  0.17982570131E+03  0.11166334380E+03  0.27601488117E+03  0.17200000000E+03 0.  1.
</event>
<event>
 4    1 -0.6483339E-004  0.1838115E+03  0.7818608E-02  0.1164164E+00
          5   -1    0    0  501    0  0.00000000000E+00  0.00000000000E+00  0.39859190512E+02  0.40135334411E+02  0.47000000000E+01 0. -1.
         -5   -1    0    0    0  501 -0.00000000000E+00 -0.00000000000E+00 -0.10979853359E+04  0.10979953952E+04  0.47000000000E+01 0.  1.
          6    1    1    2  502    0 -0.32027253511E+02  0.56364049677E+02 -0.25564097448E+03  0.31486339720E+03  0.17200000000E+03 0. -1.
         -6    1    1    2    0  502  0.32027253511E+02 -0.56364049677E+02 -0.80248517088E+03  0.82326733237E+03  0.17200000000E+03 0.  1.
</event>
<event>
 4    1 -0.6483339E-004  0.3552705E+03  0.7818608E-02  0.1060472E+00
         -5   -1    0    0    0  501 -0.00000000000E+00  0.00000000000E+00  0.11809922489E+04  0.11810016012E+04  0.47000000000E+01 0.  1.
          5   -1    0    0  501    0  0.00000000000E+00 -0.00000000000E+00 -0.12247275646E+03  0.12256290661E+03  0.47000000000E+01 0. -1.
          6    1    1    2  502    0 -0.30552268006E+03 -0.57349741946E+02  0.29629155404E+03  0.46260759389E+03  0.17200000000E+03 0. -1.
         -6    1    1    2    0  502  0.30552268006E+03  0.57349741946E+02  0.76222793843E+03  0.84095691391E+03  0.17200000000E+03 0. -1.
</event>
<event>
 4    1 -0.6483339E-004  0.2758662E+03  0.7818608E-02  0.1097968E+00
         -5   -1    0    0    0  501 -0.00000000000E+00  0.00000000000E+00  0.16672901208E+03  0.16679524415E+03  0.47000000000E+01 0.  1.
          5   -1    0    0  501    0  0.00000000000E+00 -0.00000000000E+00 -0.45853018307E+03  0.45855427028E+03  0.47000000000E+01 0. -1.
          6    1    1    2  502    0 -0.18434140332E+03 -0.11196603681E+03 -0.16783542028E+03  0.32291001019E+03  0.17200000000E+03 0. -1.
         -6    1    1    2    0  502  0.18434140332E+03  0.11196603681E+03 -0.12396575071E+03  0.30243950424E+03  0.17200000000E+03 0.  1.
</event>
<event>
 4    1 -0.6483339E-004  0.2483280E+03  0.7818608E-02  0.1114366E+00
          5   -1    0    0  501    0  0.00000000000E+00  0.00000000000E+00  0.55006829115E+03  0.55008837011E+03  0.47000000000E+01 0. -1.
         -5   -1    0    0    0  501 -0.00000000000E+00 -0.00000000000E+00 -0.12336771953E+03  0.12345721616E+03  0.47000000000E+01 0.  1.
          6    1    1    2  502    0 -0.96236912284E+02 -0.15106706709E+03  0.31536919221E+03  0.40140320058E+03  0.17200000000E+03 0.  1.
         -6    1    1    2    0  502  0.96236912284E+02  0.15106706709E+03  0.11133137942E+03  0.27214238569E+03  0.17200000000E+03 0.  1.
</event>
<event>
 4    1 -0.6483339E-004  0.3768193E+03  0.7818608E-02  0.1052116E+00
         -5   -1    0    0    0  501 -0.00000000000E+00  0.00000000000E+00  0.32234092720E+03  0.32237519034E+03  0.47000000000E+01 0.  1.
          5   -1    0    0  501    0  0.00000000000E+00 -0.00000000000E+00 -0.49951957942E+03  0.49954169017E+03  0.47000000000E+01 0. -1.
          6    1    1    2  502    0  0.16747709583E+03 -0.29044822278E+03 -0.22991948103E+03  0.44142464306E+03  0.17200000000E+03 0. -1.
         -6    1    1    2    0  502 -0.16747709583E+03  0.29044822278E+03  0.52740828818E+02  0.38049223746E+03  0.17200000000E+03 0.  1.
</event>
<event>
 4    1 -0.6483339E-004  0.2173234E+03  0.7818608E-02  0.1135894E+00
         -5   -1    0    0    0  501 -0.00000000000E+00  0.00000000000E+00  0.17509119596E+04  0.17509182677E+04  0.47000000000E+01 0.  1.
          5   -1    0    0  501    0  0.00000000000E+00 -0.00000000000E+00 -0.32758216063E+02  0.33093665854E+02  0.47000000000E+01 0. -1.
          6    1    1    2  502    0 -0.10615894606E+03  0.79848202287E+02  0.47966517230E+03  0.52660054572E+03  0.17200000000E+03 0. -1.
         -6    1    1    2    0  502  0.10615894606E+03 -0.79848202287E+02  0.12384885712E+04  0.12574113879E+04  0.17200000000E+03 0.  1.
</event>
<event>
 4    1 -0.6483339E-004  0.2308355E+03  0.7818608E-02  0.1126053E+00
          5   -1    0    0  501    0  0.00000000000E+00  0.00000000000E+00  0.10764735603E+04  0.10764838206E+04  0.47000000000E+01 0. -1.
         -5   -1    0    0    0  501 -0.00000000000E+00 -0.00000000000E+00 -0.64357781341E+02  0.64529171846E+02  0.47000000000E+01 0.  1.
          6    1    1    2  502    0 -0.57277734220E+02 -0.14289963721E+03  0.78086007584E+03  0.81426500796E+03  0.17200000000E+03 0. -1.
         -6    1    1    2    0  502  0.57277734220E+02  0.14289963721E+03  0.23125570316E+03  0.32674798453E+03  0.17200000000E+03 0.  1.
</event>
<event>
 4    1 -0.6483339E-004  0.2311411E+03  0.7818608E-02  0.1125839E+00
         -5   -1    0    0    0  501 -0.00000000000E+00  0.00000000000E+00  0.15604398637E+03  0.15611475165E+03  0.47000000000E+01 0.  1.
          5   -1    0    0  501    0  0.00000000000E+00 -0.00000000000E+00 -0.48327982628E+03  0.48330267999E+03  0.47000000000E+01 0. -1.
          6    1    1    2  502    0 -0.11215854378E+02  0.15400127197E+03 -0.33632935934E+03  0.40809756813E+03  0.17200000000E+03 0. -1.
         -6    1    1    2    0  502  0.11215854378E+02 -0.15400127197E+03  0.90935194379E+01  0.23131986351E+03  0.17200000000E+03 0.  1.
</event>
<event>
 4    1 -0.6483339E-004  0.1865437E+03  0.7818608E-02  0.1161616E+00
         -5   -1    0    0    0  501 -0.00000000000E+00  0.00000000000E+00  0.94506042410E+02  0.94622841069E+02  0.47000000000E+01 0.  1.
          5   -1    0    0  501    0  0.00000000000E+00 -0.00000000000E+00 -0.36949283106E+03  0.36952272218E+03  0.47000000000E+01 0. -1.
          6    1    1    2  502    0  0.33199105093E+02 -0.64127917126E+02 -0.15293620205E+03  0.24122199782E+03  0.17200000000E+03 0. -1.
         -6    1    1    2    0  502 -0.33199105093E+02  0.64127917126E+02 -0.12205058661E+03  0.22292356543E+03  0.17200000000E+03 0.  1.
</event>
<event>
 4    1 -0.6483339E-004  0.2148045E+03  0.7818608E-02  0.1137817E+00
         -5   -1    0    0    0  501 -0.00000000000E+00  0.00000000000E+00  0.63646487490E+02  0.63819788231E+02  0.47000000000E+01 0.  1.
          5   -1    0    0  501    0  0.00000000000E+00 -0.00000000000E+00 -0.72381480475E+03  0.72383006402E+03  0.47000000000E+01 0. -1.
          6    1    1    2  502    0 -0.39961387272E+02  0.12231125275E+03 -0.33237818228E+03  0.39574766086E+03  0.17200000000E+03 0. -1.
         -6    1    1    2    0  502  0.39961387272E+02 -0.12231125275E+03 -0.32779013498E+03  0.39190219138E+03  0.17200000000E+03 0. -1.
</event>
<event>
 4    1 -0.6483339E-004  0.2065557E+03  0.7818608E-02  0.1144323E+00
          5   -1    0    0  501    0  0.00000000000E+00  0.00000000000E+00  0.67810184506E+03  0.67811813298E+03  0.47000000000E+01 0. -1.
         -5   -1    0    0    0  501 -0.00000000000E+00 -0.00000000000E+00 -0.62953256668E+02  0.63128460500E+02  0.47000000000E+01 0.  1.
          6    1    1    2  502    0  0.10757527091E+03  0.38843591110E+02  0.29015850183E+03  0.35617021165E+03  0.17200000000E+03 0.  1.
         -6    1    1    2    0  502 -0.10757527091E+03 -0.38843591110E+02  0.32499008656E+03  0.38507638183E+03  0.17200000000E+03 0.  1.
</event>
<event>
 4    1 -0.6483339E-004  0.2463914E+03  0.7818608E-02  0.1115607E+00
         -5   -1    0    0    0  501 -0.00000000000E+00  0.00000000000E+00  0.20558204836E+03  0.20563576685E+03  0.47000000000E+01 0.  1.
          5   -1    0    0  501    0  0.00000000000E+00 -0.00000000000E+00 -0.43352722534E+03  0.43355270165E+03  0.47000000000E+01 0. -1.
          6    1    1    2  502    0 -0.18831632138E+02  0.17541406935E+03 -0.29448893974E+03  0.38396934998E+03  0.17200000000E+03 0. -1.
         -6    1    1    2    0  502  0.18831632138E+02 -0.17541406935E+03  0.66543762762E+02  0.25521911852E+03  0.17200000000E+03 0.  1.
</event>
<event>
 4    1 -0.6483339E-004  0.1837739E+03  0.7818608E-02  0.1164200E+00
          5   -1    0    0  501    0  0.00000000000E+00  0.00000000000E+00  0.87854987566E+03  0.87856244743E+03  0.47000000000E+01 0. -1.
         -5   -1    0    0    0  501 -0.00000000000E+00 -0.00000000000E+00 -0.47521105625E+02  0.47752963047E+02  0.47000000000E+01 0.  1.
          6    1    1    2  502    0 -0.46272057064E+02 -0.45251978482E+02  0.61911965853E+03  0.64581885726E+03  0.17200000000E+03 0. -1.
         -6    1    1    2    0  502  0.46272057064E+02  0.45251978482E+02  0.21190911151E+03  0.28049655321E+03  0.17200000000E+03 0.  1.
</event>
<event>
 4    1 -0.6483339E-004  0.2933839E+03  0.7818608E-02  0.1088596E+00
          5   -1    0    0  501    0  0.00000000000E+00  0.00000000000E+00  0.12348176175E+04  0.12348265622E+04  0.47000000000E+01 0. -1.
         -5   -1    0    0    0  501 -0.00000000000E+00 -0.00000000000E+00 -0.12321674258E+03  0.12330634879E+03  0.47000000000E+01 0.  1.
          6    1    1    2  502    0  0.16185000992E+03 -0.17405362087E+03  0.10034339402E+04  0.10454442888E+04  0.17200000000E+03 0. -1.
         -6    1    1    2    0  502 -0.16185000992E+03  0.17405362087E+03  0.10816693478E+03  0.31268862216E+03  0.17200000000E+03 0.  1.
</event>
<event>
 4    1 -0.6483339E-004  0.2718677E+03  0.7818608E-02  0.1100215E+00
         -5   -1    0    0    0  501 -0.00000000000E+00  0.00000000000E+00  0.26213087263E+03  0.26217300469E+03  0.47000000000E+01 0.  1.
          5   -1    0    0  501    0  0.00000000000E+00 -0.00000000000E+00 -0.39880384609E+03  0.39883154045E+03  0.47000000000E+01 0. -1.
          6    1    1    2  502    0  0.19312032514E+03  0.83860523815E+02 -0.24727416393E+03  0.36750042120E+03  0.17200000000E+03 0. -1.
         -6    1    1    2    0  502 -0.19312032514E+03 -0.83860523815E+02  0.11060119047E+03  0.29350412394E+03  0.17200000000E+03 0.  1.
</event>
<event>
 4    1 -0.6483339E-004  0.2762385E+03  0.7818608E-02  0.1097761E+00
         -5   -1    0    0    0  501 -0.00000000000E+00  0.00000000000E+00  0.57869659829E+03  0.57871568397E+03  0.47000000000E+01 0.  1.
          5   -1    0    0  501    0  0.00000000000E+00 -0.00000000000E+00 -0.18737038204E+03  0.18742932019E+03  0.47000000000E+01 0. -1.
          6    1    1    2  502    0 -0.13744559702E+03  0.16683053144E+03 -0.12908123224E+02  0.27653993926E+03  0.17200000000E+03 0. -1.
         -6    1    1    2    0  502  0.13744559702E+03 -0.16683053144E+03  0.40423433948E+03  0.48960506490E+03  0.17200000000E+03 0.  1.
</event>
<event>
 4    1 -0.6483339E-004  0.2199450E+03  0.7818608E-02  0.1133924E+00
          5   -1    0    0  501    0  0.00000000000E+00  0.00000000000E+00  0.16086228423E+03  0.16093093080E+03  0.47000000000E+01 0. -1.
         -5   -1    0    0    0  501 -0.00000000000E+00 -0.00000000000E+00 -0.49151742148E+03  0.49153989220E+03  0.47000000000E+01 0.  1.
          6    1    1    2  502    0 -0.13663724841E+03  0.11047383015E+02  0.37986507995E+02  0.22320115841E+03  0.17200000000E+03 0. -1.
         -6    1    1    2    0  502  0.13663724841E+03 -0.11047383015E+02 -0.36864164525E+03  0.42926966459E+03  0.17200000000E+03 0.  1.
</event>
<event>
 4    1 -0.6483339E-004  0.1784208E+03  0.7818608E-02  0.1169340E+00
         -5   -1    0    0    0  501 -0.00000000000E+00  0.00000000000E+00  0.62887764894E+03  0.62889521173E+03  0.47000000000E+01 0.  1.
          5   -1    0    0  501    0  0.00000000000E+00 -0.00000000000E+00 -0.71343224005E+02  0.71497871376E+02  0.47000000000E+01 0. -1.
          6    1    1    2  502    0 -0.38558807557E+02  0.27626289326E+02  0.89719478277E+02  0.19970873362E+03  0.17200000000E+03 0. -1.
         -6    1    1    2    0  502  0.38558807557E+02 -0.27626289326E+02  0.46781494666E+03  0.50068434949E+03  0.17200000000E+03 0.  1.
</event>
<event>
 4    1 -0.6483339E-004  0.1735993E+03  0.7818608E-02  0.1174145E+00
          5   -1    0    0  501    0  0.00000000000E+00  0.00000000000E+00  0.27748895671E+03  0.27752875724E+03  0.47000000000E+01 0. -1.
         -5   -1    0    0    0  501 -0.00000000000E+00 -0.00000000000E+00 -0.11237671593E+03  0.11247495847E+03  0.47000000000E+01 0.  1.
          6    1    1    2  502    0 -0.17557468522E+02  0.15635078840E+02  0.46391023782E+02  0.17969097773E+03  0.17200000000E+03 0.  1.
         -6    1    1    2    0  502  0.17557468522E+02 -0.15635078840E+02  0.11872121700E+03  0.21031273798E+03  0.17200000000E+03 0. -1.
</event>
<event>
 4    1 -0.6483339E-004  0.2011526E+03  0.7818608E-02  0.1148770E+00
         -5   -1    0    0    0  501 -0.00000000000E+00  0.00000000000E+00  0.31227219918E+03  0.31230756697E+03  0.47000000000E+01 0.  1.
          5   -1    0    0  501    0  0.00000000000E+00 -0.00000000000E+00 -0.16418800159E+03  0.16425525826E+03  0.47000000000E+01 0. -1.
          6    1    1    2  502    0  0.43470706542E+02 -0.94808652593E+02 -0.35462404913E+02  0.20425465746E+03  0.17200000000E+03 0. -1.
         -6    1    1    2    0  502 -0.43470706542E+02  0.94808652593E+02  0.18354660251E+03  0.27230816776E+03  0.17200000000E+03 0.  1.
</event>
<event>
 4    1 -0.6483339E-004  0.2596253E+03  0.7818608E-02  0.1107369E+00
         -5   -1    0    0    0  501 -0.00000000000E+00  0.00000000000E+00  0.10077364801E+03  0.10088319053E+03  0.47000000000E+01 0.  1.
          5   -1    0    0  501    0  0.00000000000E+00 -0.00000000000E+00 -0.84700834294E+03  0.84702138285E+03  0.47000000000E+01 0. -1.
          6    1    1    2  502    0  0.14349551708E+03  0.13126436691E+03 -0.59074463633E+03  0.64527863965E+03  0.17200000000E+03 0. -1.
         -6    1    1    2    0  502 -0.14349551708E+03 -0.13126436691E+03 -0.15549005861E+03  0.30262593373E+03  0.17200000000E+03 0.  1.
</event>
<event>
 4    1 -0.6483339E-004  0.5298491E+03  0.7818608E-02  0.1006269E+00
          5   -1    0    0  501    0  0.00000000000E+00  0.00000000000E+00  0.35733544053E+03  0.35736634852E+03  0.47000000000E+01 0. -1.
         -5   -1    0    0    0  501 -0.00000000000E+00 -0.00000000000E+00 -0.89425149858E+03  0.89426384960E+03  0.47000000000E+01 0.  1.
          6    1    1    2  502    0  0.23122176381E+03 -0.44462626898E+03 -0.48661560711E+03  0.71939889644E+03  0.17200000000E+03 0. -1.
         -6    1    1    2    0  502 -0.23122176381E+03  0.44462626898E+03 -0.50300450940E+02  0.53223130168E+03  0.17200000000E+03 0.  1.
</event>
<event>
 4    1 -0.6483339E-004  0.1966096E+03  0.7818608E-02  0.1152631E+00
         -5   -1    0    0    0  501 -0.00000000000E+00  0.00000000000E+00  0.26551672069E+03  0.26555831556E+03  0.47000000000E+01 0.  1.
          5   -1    0    0  501    0  0.00000000000E+00 -0.00000000000E+00 -0.14758411729E+03  0.14765893700E+03  0.47000000000E+01 0. -1.
          6    1    1    2  502    0 -0.24728247162E+02 -0.91977384099E+02  0.83542101094E+02  0.21362258319E+03  0.17200000000E+03 0. -1.
         -6    1    1    2    0  502  0.24728247162E+02  0.91977384099E+02  0.34390502303E+02  0.19959466937E+03  0.17200000000E+03 0.  1.
</event>
<event>
 4    1 -0.6483339E-004  0.1792578E+03  0.7818608E-02  0.1168523E+00
          5   -1    0    0  501    0  0.00000000000E+00  0.00000000000E+00  0.10591653346E+04  0.10591757626E+04  0.47000000000E+01 0. -1.
         -5   -1    0    0    0  501 -0.00000000000E+00 -0.00000000000E+00 -0.30199323062E+02  0.30562871485E+02  0.47000000000E+01 0.  1.
          6    1    1    2  502    0 -0.50293291094E+02 -0.44667139275E+01  0.53729888633E+03  0.56641279992E+03  0.17200000000E+03 0. -1.
         -6    1    1    2    0  502  0.50293291094E+02  0.44667139275E+01  0.49166712520E+03  0.52332583413E+03  0.17200000000E+03 0. -1.
</event>
<event>
 4    1 -0.6483339E-004  0.2070984E+03  0.7818608E-02  0.1143885E+00
         -5   -1    0    0    0  501 -0.00000000000E+00  0.00000000000E+00  0.62254344504E+02  0.62431509750E+02  0.47000000000E+01 0.  1.
          5   -1    0    0  501    0  0.00000000000E+00 -0.00000000000E+00 -0.75388649706E+03  0.75390114767E+03  0.47000000000E+01 0. -1.
          6    1    1    2  502    0 -0.88570869506E+02  0.73898260961E+02 -0.46666742105E+03  0.51055678800E+03  0.17200000000E+03 0. -1.
         -6    1    1    2    0  502  0.88570869506E+02 -0.73898260961E+02 -0.22496473151E+03  0.30577586942E+03  0.17200000000E+03 0.  1.
</event>
<event>
 4    1 -0.6483339E-004  0.1767608E+03  0.7818608E-02  0.1170975E+00
         -5   -1    0    0    0  501 -0.00000000000E+00  0.00000000000E+00  0.20798171938E+03  0.20803481823E+03  0.47000000000E+01 0.  1.
          5   -1    0    0  501    0  0.00000000000E+00 -0.00000000000E+00 -0.16316158492E+03  0.16322926451E+03  0.47000000000E+01 0. -1.
          6    1    1    2  502    0  0.19492188375E+02  0.35783216616E+02 -0.30056863535E+02  0.17929807318E+03  0.17200000000E+03 0. -1.
         -6    1    1    2    0  502 -0.19492188375E+02 -0.35783216616E+02  0.74876998003E+02  0.19196600957E+03  0.17200000000E+03 0.  1.
</event>
<event>
 4    1 -0.6483339E-004  0.1846908E+03  0.7818608E-02  0.1163339E+00
         -5   -1    0    0    0  501 -0.00000000000E+00  0.00000000000E+00  0.68729823326E+02  0.68890337598E+02  0.47000000000E+01 0.  1.
          5   -1    0    0  501    0  0.00000000000E+00 -0.00000000000E+00 -0.53387179236E+03  0.53389248045E+03  0.47000000000E+01 0. -1.
          6    1    1    2  502    0  0.54062316358E+02 -0.40049571964E+02 -0.31330504570E+03  0.36369046444E+03  0.17200000000E+03 0. -1.
         -6    1    1    2    0  502 -0.54062316358E+02  0.40049571964E+02 -0.15183692333E+03  0.23909235360E+03  0.17200000000E+03 0. -1.
</event>
<event>
 4    1 -0.6483339E-004  0.2033746E+03  0.7818608E-02  0.1146923E+00
          5   -1    0    0  501    0  0.00000000000E+00  0.00000000000E+00  0.97402783488E+02  0.97516112675E+02  0.47000000000E+01 0. -1.
         -5   -1    0    0    0  501 -0.00000000000E+00 -0.00000000000E+00 -0.42651724809E+03  0.42654314309E+03  0.47000000000E+01 0.  1.
          6    1    1    2  502    0 -0.10031162900E+03 -0.41410105680E+02 -0.18358331226E+03  0.27397819677E+03  0.17200000000E+03 0.  1.
         -6    1    1    2    0  502  0.10031162900E+03  0.41410105680E+02 -0.14553115234E+03  0.25008105899E+03  0.17200000000E+03 0.  1.
</event>
<event>
 4    1 -0.6483339E-004  0.1747305E+03  0.7818608E-02  0.1173003E+00
         -5   -1    0    0    0  501 -0.00000000000E+00  0.00000000000E+00  0.26128015944E+02  0.26547376841E+02  0.47000000000E+01 0.  1.
          5   -1    0    0  501    0  0.00000000000E+00 -0.00000000000E+00 -0.12224157212E+04  0.12224247566E+04  0.47000000000E+01 0. -1.
          6    1    1    2  502    0 -0.22096548817E+02  0.21412326411E+02 -0.74060305278E+03  0.76093602029E+03  0.17200000000E+03 0. -1.
         -6    1    1    2    0  502  0.22096548817E+02 -0.21412326411E+02 -0.45568465250E+03  0.48803611313E+03  0.17200000000E+03 0.  1.
</event>
<event>
 4    1 -0.6483339E-004  0.2062475E+03  0.7818608E-02  0.1144572E+00
          5   -1    0    0  501    0  0.00000000000E+00  0.00000000000E+00  0.12629965141E+03  0.12638707191E+03  0.47000000000E+01 0. -1.
         -5   -1    0    0    0  501 -0.00000000000E+00 -0.00000000000E+00 -0.46935549493E+03  0.46937902661E+03  0.47000000000E+01 0.  1.
          6    1    1    2  502    0 -0.82474676336E+02  0.78434430890E+02 -0.13112705584E+02  0.20666391856E+03  0.17200000000E+03 0. -1.
         -6    1    1    2    0  502  0.82474676336E+02 -0.78434430890E+02 -0.32994313793E+03  0.38910217997E+03  0.17200000000E+03 0.  1.
</event>
<event>
 4    1 -0.6483339E-004  0.1986299E+03  0.7818608E-02  0.1150900E+00
          5   -1    0    0  501    0  0.00000000000E+00  0.00000000000E+00  0.13117874022E+03  0.13126291131E+03  0.47000000000E+01 0. -1.
         -5   -1    0    0    0  501 -0.00000000000E+00 -0.00000000000E+00 -0.34732332462E+03  0.34735512351E+03  0.47000000000E+01 0.  1.
          6    1    1    2  502    0  0.19810896073E+02 -0.97351833369E+02 -0.20281843925E+02  0.19966272626E+03  0.17200000000E+03 0.  1.
         -6    1    1    2    0  502 -0.19810896073E+02  0.97351833369E+02 -0.19586274048E+03  0.27895530856E+03  0.17200000000E+03 0.  1.
</event>
<event>
 4    1 -0.6483339E-004  0.3802906E+03  0.7818608E-02  0.1050826E+00
         -5   -1    0    0    0  501 -0.00000000000E+00  0.00000000000E+00  0.11730517957E+04  0.11730612113E+04  0.47000000000E+01 0.  1.
          5   -1    0    0  501    0  0.00000000000E+00 -0.00000000000E+00 -0.17313968743E+03  0.17320346810E+03  0.47000000000E+01 0. -1.
          6    1    1    2  502    0  0.30723502002E+03 -0.14367866009E+03  0.13864538073E+03  0.40477581016E+03  0.17200000000E+03 0. -1.
         -6    1    1    2    0  502 -0.30723502002E+03  0.14367866009E+03  0.86126672754E+03  0.94148886921E+03  0.17200000000E+03 0. -1.
</event>
<event>
 4    1 -0.6483339E-004  0.1834924E+03  0.7818608E-02  0.1164465E+00
          5   -1    0    0  501    0  0.00000000000E+00  0.00000000000E+00  0.86556278754E+02  0.86683789671E+02  0.47000000000E+01 0. -1.
         -5   -1    0    0    0  501 -0.00000000000E+00 -0.00000000000E+00 -0.39898106934E+03  0.39900875140E+03  0.47000000000E+01 0.  1.
          6    1    1    2  502    0 -0.57776799888E+02  0.27336891571E+02 -0.11697491757E+03  0.21760651550E+03  0.17200000000E+03 0.  1.
         -6    1    1    2    0  502  0.57776799888E+02 -0.27336891571E+02 -0.19544987302E+03  0.26808602557E+03  0.17200000000E+03 0.  1.
</event>
<event>
 4    1 -0.6483339E-004  0.2009229E+03  0.7818608E-02  0.1148963E+00
         -5   -1    0    0    0  501 -0.00000000000E+00  0.00000000000E+00  0.23371023794E+04  0.23371071053E+04  0.47000000000E+01 0.  1.
          5   -1    0    0  501    0  0.00000000000E+00 -0.00000000000E+00 -0.32892480605E+02  0.33226574912E+02  0.47000000000E+01 0. -1.
          6    1    1    2  502    0 -0.71118549213E+02  0.75684557570E+02  0.33307188655E+03  0.38898185292E+03  0.17200000000E+03 0. -1.
         -6    1    1    2    0  502  0.71118549213E+02 -0.75684557570E+02  0.19711380122E+04  0.19813518273E+04  0.17200000000E+03 0.  1.
</event>
<event>
 4    1 -0.6483339E-004  0.2705776E+03  0.7818608E-02  0.1100949E+00
          5   -1    0    0  501    0  0.00000000000E+00  0.00000000000E+00  0.33139998574E+03  0.33143331237E+03  0.47000000000E+01 0. -1.
         -5   -1    0    0    0  501 -0.00000000000E+00 -0.00000000000E+00 -0.41538823888E+03  0.41541482761E+03  0.47000000000E+01 0.  1.
          6    1    1    2  502    0 -0.29507428045E+02  0.20677896096E+03  0.21353584590E+03  0.34468795234E+03  0.17200000000E+03 0. -1.
         -6    1    1    2    0  502  0.29507428045E+02 -0.20677896096E+03 -0.29752409904E+03  0.40216018763E+03  0.17200000000E+03 0.  1.
</event>
<event>
 4    1 -0.6483339E-004  0.2332663E+03  0.7818608E-02  0.1124362E+00
          5   -1    0    0  501    0  0.00000000000E+00  0.00000000000E+00  0.60735365270E+02  0.60916948336E+02  0.47000000000E+01 0. -1.
         -5   -1    0    0    0  501 -0.00000000000E+00 -0.00000000000E+00 -0.92250586938E+03  0.92251784212E+03  0.47000000000E+01 0.  1.
          6    1    1    2  502    0 -0.14333936710E+03 -0.65444637334E+02 -0.34503702369E+03  0.41648976270E+03  0.17200000000E+03 0. -1.
         -6    1    1    2    0  502  0.14333936710E+03  0.65444637334E+02 -0.51673348041E+03  0.56694502776E+03  0.17200000000E+03 0.  1.
</event>
<event>
 4    1 -0.6483339E-004  0.4953954E+03  0.7818608E-02  0.1014988E+00
         -5   -1    0    0    0  501 -0.00000000000E+00  0.00000000000E+00  0.57657103046E+03  0.57659018650E+03  0.47000000000E+01 0.  1.
          5   -1    0    0  501    0  0.00000000000E+00 -0.00000000000E+00 -0.53894023403E+03  0.53896072757E+03  0.47000000000E+01 0. -1.
          6    1    1    2  502    0  0.44948848419E+03  0.11744248617E+03 -0.23695255373E+03  0.54914765564E+03  0.17200000000E+03 0. -1.
         -6    1    1    2    0  502 -0.44948848419E+03 -0.11744248617E+03  0.27458335015E+03  0.56640325843E+03  0.17200000000E+03 0.  1.
</event>
<event>
 4    1 -0.6483339E-004  0.1820601E+03  0.7818608E-02  0.1165824E+00
         -5   -1    0    0    0  501 -0.00000000000E+00  0.00000000000E+00  0.13777463669E+03  0.13785478053E+03  0.47000000000E+01 0.  1.
          5   -1    0    0  501    0  0.00000000000E+00 -0.00000000000E+00 -0.24669741178E+03  0.24674217916E+03  0.47000000000E+01 0. -1.
          6    1    1    2  502    0 -0.56205589585E+02  0.20070253652E+02 -0.85159366573E+02  0.20099253990E+03  0.17200000000E+03 0. -1.
         -6    1    1    2    0  502  0.56205589585E+02 -0.20070253652E+02 -0.23763408510E+02  0.18360441979E+03  0.17200000000E+03 0.  1.
</event>
<event>
 4    1 -0.6483339E-004  0.2897157E+03  0.7818608E-02  0.1090498E+00
         -5   -1    0    0    0  501 -0.00000000000E+00  0.00000000000E+00  0.20992801152E+03  0.20998061820E+03  0.47000000000E+01 0.  1.
          5   -1    0    0  501    0  0.00000000000E+00 -0.00000000000E+00 -0.80690807996E+03  0.80692176790E+03  0.47000000000E+01 0. -1.
          6    1    1    2  502    0  0.15807588309E+03  0.17135698036E+03 -0.65966640541E+03  0.72048245361E+03  0.17200000000E+03 0. -1.
         -6    1    1    2    0  502 -0.15807588309E+03 -0.17135698036E+03  0.62686336965E+02  0.29641993249E+03  0.17200000000E+03 0.  1.
</event>
<event>
 4    1 -0.6483339E-004  0.2333194E+03  0.7818608E-02  0.1124325E+00
         -5   -1    0    0    0  501 -0.00000000000E+00  0.00000000000E+00  0.53140943221E+03  0.53143021615E+03  0.47000000000E+01 0.  1.
          5   -1    0    0  501    0  0.00000000000E+00 -0.00000000000E+00 -0.27816849320E+03  0.27820819652E+03  0.47000000000E+01 0. -1.
          6    1    1    2  502    0  0.19964225047E+01  0.15763870663E+03 -0.19515160227E+03  0.30417444896E+03  0.17200000000E+03 0. -1.
         -6    1    1    2    0  502 -0.19964225047E+01 -0.15763870663E+03  0.44839254128E+03  0.50546396371E+03  0.17200000000E+03 0.  1.
</event>
<event>
 4    1 -0.6483339E-004  0.2110091E+03  0.7818608E-02  0.1140769E+00
         -5   -1    0    0    0  501 -0.00000000000E+00  0.00000000000E+00  0.29128798522E+03  0.29132590056E+03  0.47000000000E+01 0.  1.
          5   -1    0    0  501    0  0.00000000000E+00 -0.00000000000E+00 -0.19428361466E+03  0.19434045622E+03  0.47000000000E+01 0. -1.
          6    1    1    2  502    0  0.77563799415E+02 -0.94470702391E+02  0.16072080525E+03  0.26524711842E+03  0.17200000000E+03 0. -1.
         -6    1    1    2    0  502 -0.77563799415E+02  0.94470702391E+02 -0.63716434683E+02  0.22041923836E+03  0.17200000000E+03 0.  1.
</event>
<event>
 4    1 -0.6483339E-004  0.2051820E+03  0.7818608E-02  0.1145439E+00
         -5   -1    0    0    0  501 -0.00000000000E+00  0.00000000000E+00  0.29665380999E+03  0.29669103960E+03  0.47000000000E+01 0.  1.
          5   -1    0    0  501    0  0.00000000000E+00 -0.00000000000E+00 -0.23081677996E+03  0.23086462681E+03  0.47000000000E+01 0. -1.
          6    1    1    2  502    0 -0.48947274476E+02 -0.10059738144E+03 -0.13082835562E+03  0.24334281881E+03  0.17200000000E+03 0. -1.
         -6    1    1    2    0  502  0.48947274476E+02  0.10059738144E+03  0.19666538564E+03  0.28421284760E+03  0.17200000000E+03 0.  1.
</event>
<event>
 4    1 -0.6483339E-004  0.1849364E+03  0.7818608E-02  0.1163109E+00
         -5   -1    0    0    0  501 -0.00000000000E+00  0.00000000000E+00  0.35314389238E+03  0.35317516720E+03  0.47000000000E+01 0.  1.
          5   -1    0    0  501    0  0.00000000000E+00 -0.00000000000E+00 -0.97709035393E+02  0.97822009781E+02  0.47000000000E+01 0. -1.
          6    1    1    2  502    0  0.48685547842E+02 -0.47404459274E+02  0.10546239475E+03  0.21289382808E+03  0.17200000000E+03 0. -1.
         -6    1    1    2    0  502 -0.48685547842E+02  0.47404459274E+02  0.14997246223E+03  0.23810334890E+03  0.17200000000E+03 0. -1.
</event>
<event>
 4    1 -0.6483339E-004  0.1751630E+03  0.7818608E-02  0.1172568E+00
         -5   -1    0    0    0  501 -0.00000000000E+00  0.00000000000E+00  0.42133967141E+02  0.42395296756E+02  0.47000000000E+01 0.  1.
          5   -1    0    0  501    0  0.00000000000E+00 -0.00000000000E+00 -0.74962363568E+03  0.74963836960E+03  0.47000000000E+01 0. -1.
          6    1    1    2  502    0 -0.29429277859E+02  0.15231307587E+02 -0.42450413739E+03  0.45922308063E+03  0.17200000000E+03 0.  1.
         -6    1    1    2    0  502  0.29429277859E+02 -0.15231307587E+02 -0.28298553115E+03  0.33281058572E+03  0.17200000000E+03 0.  1.
</event>
<event>
 4    1 -0.6483339E-004  0.2432508E+03  0.7818608E-02  0.1117646E+00
         -5   -1    0    0    0  501 -0.00000000000E+00  0.00000000000E+00  0.38422529780E+03  0.38425404288E+03  0.47000000000E+01 0.  1.
          5   -1    0    0  501    0  0.00000000000E+00 -0.00000000000E+00 -0.64034410207E+03  0.64036135038E+03  0.47000000000E+01 0. -1.
          6    1    1    2  502    0 -0.15989629450E+03  0.63404631013E+02 -0.57453966320E+03  0.62391249131E+03  0.17200000000E+03 0. -1.
         -6    1    1    2    0  502  0.15989629450E+03 -0.63404631013E+02  0.31842085892E+03  0.40070290194E+03  0.17200000000E+03 0.  1.
</event>
<event>
 4    1 -0.6483339E-004  0.3627989E+03  0.7818608E-02  0.1057481E+00
          5   -1    0    0  501    0  0.00000000000E+00  0.00000000000E+00  0.49477509883E+03  0.49479742160E+03  0.47000000000E+01 0. -1.
         -5   -1    0    0    0  501 -0.00000000000E+00 -0.00000000000E+00 -0.27308812759E+03  0.27312856941E+03  0.47000000000E+01 0.  1.
          6    1    1    2  502    0  0.16653736111E+02  0.31900114606E+03  0.48891225432E+02  0.36607844793E+03  0.17200000000E+03 0. -1.
         -6    1    1    2    0  502 -0.16653736111E+02 -0.31900114606E+03  0.17279574581E+03  0.40184754308E+03  0.17200000000E+03 0.  1.
</event>
<event>
 4    1 -0.6483339E-004  0.1899690E+03  0.7818608E-02  0.1158489E+00
         -5   -1    0    0    0  501 -0.00000000000E+00  0.00000000000E+00  0.30009532225E+03  0.30013212496E+03  0.47000000000E+01 0.  1.
          5   -1    0    0  501    0  0.00000000000E+00 -0.00000000000E+00 -0.12032925929E+03  0.12042101412E+03  0.47000000000E+01 0. -1.
          6    1    1    2  502    0 -0.16172481011E+02 -0.79010476788E+02  0.97631734461E+02  0.21358876412E+03  0.17200000000E+03 0. -1.
         -6    1    1    2    0  502  0.16172481011E+02  0.79010476788E+02  0.82134328498E+02  0.20696437496E+03  0.17200000000E+03 0.  1.
</event>
<event>
 4    1 -0.6483339E-004  0.1997366E+03  0.7818608E-02  0.1149961E+00
          5   -1    0    0  501    0  0.00000000000E+00  0.00000000000E+00  0.12155075248E+03  0.12164158593E+03  0.47000000000E+01 0. -1.
         -5   -1    0    0    0  501 -0.00000000000E+00 -0.00000000000E+00 -0.35839247037E+03  0.35842328722E+03  0.47000000000E+01 0.  1.
          6    1    1    2  502    0  0.10070020163E+03  0.13046023071E+02 -0.18832629730E+03  0.27452053399E+03  0.17200000000E+03 0.  1.
         -6    1    1    2    0  502 -0.10070020163E+03 -0.13046023071E+02 -0.48515420594E+02  0.20554433916E+03  0.17200000000E+03 0.  1.
</event>
<event>
 4    1 -0.6483339E-004  0.6993621E+03  0.7818608E-02  0.9718324E-01
         -5   -1    0    0    0  501 -0.00000000000E+00  0.00000000000E+00  0.34055911439E+03  0.34059154481E+03  0.47000000000E+01 0.  1.
          5   -1    0    0  501    0  0.00000000000E+00 -0.00000000000E+00 -0.14369942179E+04  0.14370019041E+04  0.47000000000E+01 0. -1.
          6    1    1    2  502    0 -0.21672738890E+03 -0.64230258546E+03 -0.57057777743E+03  0.90258870616E+03  0.17200000000E+03 0. -1.
         -6    1    1    2    0  502  0.21672738890E+03  0.64230258546E+03 -0.52585732611E+03  0.87500474274E+03  0.17200000000E+03 0.  1.
</event>
<event>
 4    1 -0.6483339E-004  0.2184454E+03  0.7818608E-02  0.1135047E+00
         -5   -1    0    0    0  501 -0.00000000000E+00  0.00000000000E+00  0.33217294064E+03  0.33220618973E+03  0.47000000000E+01 0.  1.
          5   -1    0    0  501    0  0.00000000000E+00 -0.00000000000E+00 -0.16478624701E+03  0.16485325961E+03  0.47000000000E+01 0. -1.
          6    1    1    2  502    0 -0.12927784383E+03  0.37704554946E+02 -0.54416455978E+01  0.21851317094E+03  0.17200000000E+03 0. -1.
         -6    1    1    2    0  502  0.12927784383E+03 -0.37704554946E+02  0.17282833923E+03  0.27854627840E+03  0.17200000000E+03 0.  1.
</event>
<event>
 4    1 -0.6483339E-004  0.2696664E+03  0.7818608E-02  0.1101471E+00
         -5   -1    0    0    0  501 -0.00000000000E+00  0.00000000000E+00  0.14282189832E+03  0.14289921148E+03  0.47000000000E+01 0.  1.
          5   -1    0    0  501    0  0.00000000000E+00 -0.00000000000E+00 -0.52280443184E+03  0.52282555786E+03  0.47000000000E+01 0. -1.
          6    1    1    2  502    0 -0.59098353418E+01 -0.20760784291E+03 -0.24419341517E+03  0.36379989913E+03  0.17200000000E+03 0.  1.
         -6    1    1    2    0  502  0.59098353418E+01  0.20760784291E+03 -0.13578911835E+03  0.30192487021E+03  0.17200000000E+03 0.  1.
</event>
<event>
 4    1 -0.6483339E-004  0.2692423E+03  0.7818608E-02  0.1101714E+00
          5   -1    0    0  501    0  0.00000000000E+00  0.00000000000E+00  0.26369227444E+03  0.26373415706E+03  0.47000000000E+01 0. -1.
         -5   -1    0    0    0  501 -0.00000000000E+00 -0.00000000000E+00 -0.27544861328E+03  0.27548870858E+03  0.47000000000E+01 0.  1.
          6    1    1    2  502    0 -0.16444737017E+03  0.12595425354E+03  0.69451865183E+01  0.26933185322E+03  0.17200000000E+03 0. -1.
         -6    1    1    2    0  502  0.16444737017E+03 -0.12595425354E+03 -0.18701525351E+02  0.26989101243E+03  0.17200000000E+03 0. -1.
</event>
<event>
 4    1 -0.6483339E-004  0.3571162E+03  0.7818608E-02  0.1059732E+00
          5   -1    0    0  501    0  0.00000000000E+00  0.00000000000E+00  0.30903668171E+03  0.30907241974E+03  0.47000000000E+01 0. -1.
         -5   -1    0    0    0  501 -0.00000000000E+00 -0.00000000000E+00 -0.43583415516E+03  0.43585949663E+03  0.47000000000E+01 0.  1.
          6    1    1    2  502    0  0.66129604907E+02  0.30590008433E+03  0.22588003585E+02  0.35782985362E+03  0.17200000000E+03 0. -1.
         -6    1    1    2    0  502 -0.66129604907E+02 -0.30590008433E+03 -0.14938547703E+03  0.38710206275E+03  0.17200000000E+03 0.  1.
</event>
<event>
 4    1 -0.6483339E-004  0.2169671E+03  0.7818608E-02  0.1136165E+00
          5   -1    0    0  501    0  0.00000000000E+00  0.00000000000E+00  0.10252613461E+03  0.10263380670E+03  0.47000000000E+01 0. -1.
         -5   -1    0    0    0  501 -0.00000000000E+00 -0.00000000000E+00 -0.51865985042E+03  0.51868114525E+03  0.47000000000E+01 0.  1.
          6    1    1    2  502    0 -0.17864172634E+02 -0.13104049027E+03 -0.10253166659E+03  0.23997391819E+03  0.17200000000E+03 0. -1.
         -6    1    1    2    0  502  0.17864172634E+02  0.13104049027E+03 -0.31360204922E+03  0.38134103376E+03  0.17200000000E+03 0.  1.
</event>
<event>
 4    1 -0.6483339E-004  0.2237895E+03  0.7818608E-02  0.1131089E+00
          5   -1    0    0  501    0  0.00000000000E+00  0.00000000000E+00  0.12600773487E+03  0.12609535775E+03  0.47000000000E+01 0. -1.
         -5   -1    0    0    0  501 -0.00000000000E+00 -0.00000000000E+00 -0.61267031757E+03  0.61268834494E+03  0.47000000000E+01 0.  1.
          6    1    1    2  502    0 -0.13866108381E+03 -0.35648805309E+02 -0.24293851498E+02  0.22510425297E+03  0.17200000000E+03 0. -1.
         -6    1    1    2    0  502  0.13866108381E+03  0.35648805309E+02 -0.46236873120E+03  0.51367944973E+03  0.17200000000E+03 0.  1.
</event>
<event>
 4    1 -0.6483339E-004  0.2154675E+03  0.7818608E-02  0.1137308E+00
          5   -1    0    0  501    0  0.00000000000E+00  0.00000000000E+00  0.47570466018E+03  0.47572787780E+03  0.47000000000E+01 0. -1.
         -5   -1    0    0    0  501 -0.00000000000E+00 -0.00000000000E+00 -0.10330488275E+03  0.10341174401E+03  0.47000000000E+01 0.  1.
          6    1    1    2  502    0 -0.12897472144E+03 -0.14413624703E+02  0.25472399059E+03  0.33363234665E+03  0.17200000000E+03 0.  1.
         -6    1    1    2    0  502  0.12897472144E+03  0.14413624703E+02  0.11767578684E+03  0.24550727516E+03  0.17200000000E+03 0.  1.
</event>
<event>
 4    1 -0.6483339E-004  0.2465039E+03  0.7818608E-02  0.1115534E+00
          5   -1    0    0  501    0  0.00000000000E+00  0.00000000000E+00  0.11772657237E+03  0.11782035410E+03  0.47000000000E+01 0. -1.
         -5   -1    0    0    0  501 -0.00000000000E+00 -0.00000000000E+00 -0.83269905141E+03  0.83271231540E+03  0.47000000000E+01 0.  1.
          6    1    1    2  502    0 -0.12053351649E+03  0.12904197251E+03 -0.64329767408E+02  0.25475964798E+03  0.17200000000E+03 0. -1.
         -6    1    1    2    0  502  0.12053351649E+03 -0.12904197251E+03 -0.65064271163E+03  0.69577302152E+03  0.17200000000E+03 0.  1.
</event>
<event>
 4    1 -0.6483339E-004  0.2025993E+03  0.7818608E-02  0.1147564E+00
         -5   -1    0    0    0  501 -0.00000000000E+00  0.00000000000E+00  0.39259414346E+03  0.39262227583E+03  0.47000000000E+01 0.  1.
          5   -1    0    0  501    0  0.00000000000E+00 -0.00000000000E+00 -0.13755318952E+03  0.13763346231E+03  0.47000000000E+01 0. -1.
          6    1    1    2  502    0  0.99423624022E+02  0.39716882444E+02 -0.24517915839E+01  0.20261416300E+03  0.17200000000E+03 0. -1.
         -6    1    1    2    0  502 -0.99423624022E+02 -0.39716882444E+02  0.25749274552E+03  0.32764157514E+03  0.17200000000E+03 0.  1.
</event>
<event>
 4    1 -0.6483339E-004  0.2623702E+03  0.7818608E-02  0.1105727E+00
         -5   -1    0    0    0  501 -0.00000000000E+00  0.00000000000E+00  0.10974086678E+03  0.10984146686E+03  0.47000000000E+01 0.  1.
          5   -1    0    0  501    0  0.00000000000E+00 -0.00000000000E+00 -0.72658566084E+03  0.72660086192E+03  0.47000000000E+01 0. -1.
          6    1    1    2  502    0 -0.19731708640E+03 -0.17890985484E+02 -0.46333371791E+03  0.53246244384E+03  0.17200000000E+03 0. -1.
         -6    1    1    2    0  502  0.19731708640E+03  0.17890985484E+02 -0.15351107615E+03  0.30397988494E+03  0.17200000000E+03 0. -1.
</event>
<event>
 4    1 -0.6483339E-004  0.2602247E+03  0.7818608E-02  0.1107008E+00
          5   -1    0    0  501    0  0.00000000000E+00  0.00000000000E+00  0.53669960347E+03  0.53672018256E+03  0.47000000000E+01 0. -1.
         -5   -1    0    0    0  501 -0.00000000000E+00 -0.00000000000E+00 -0.15483050668E+03  0.15490182633E+03  0.47000000000E+01 0.  1.
          6    1    1    2  502    0  0.13044799823E+03 -0.14531415366E+03  0.33983517692E+03  0.42802433455E+03  0.17200000000E+03 0. -1.
         -6    1    1    2    0  502 -0.13044799823E+03  0.14531415366E+03  0.42033919871E+02  0.26359767434E+03  0.17200000000E+03 0.  1.
</event>
<event>
 4    1 -0.6483339E-004  0.3978399E+03  0.7818608E-02  0.1044530E+00
         -5   -1    0    0    0  501 -0.00000000000E+00  0.00000000000E+00  0.12033781891E+04  0.12033873674E+04  0.47000000000E+01 0.  1.
          5   -1    0    0  501    0  0.00000000000E+00 -0.00000000000E+00 -0.27823055978E+03  0.27827025424E+03  0.47000000000E+01 0. -1.
          6    1    1    2  502    0  0.35037906615E+03 -0.76987840207E+02 -0.75394817765E+02  0.40492097511E+03  0.17200000000E+03 0. -1.
         -6    1    1    2    0  502 -0.35037906615E+03  0.76987840207E+02  0.10005424471E+04  0.10767366465E+04  0.17200000000E+03 0.  1.
</event>
<event>
 4    1 -0.6483339E-004  0.4221464E+03  0.7818608E-02  0.1036370E+00
         -5   -1    0    0    0  501 -0.00000000000E+00  0.00000000000E+00  0.24854927939E+03  0.24859371328E+03  0.47000000000E+01 0.  1.
          5   -1    0    0  501    0  0.00000000000E+00 -0.00000000000E+00 -0.72543857827E+03  0.72545380338E+03  0.47000000000E+01 0. -1.
          6    1    1    2  502    0 -0.22456618375E+03 -0.31335864749E+03 -0.18553151165E+03  0.46111772321E+03  0.17200000000E+03 0. -1.
         -6    1    1    2    0  502  0.22456618375E+03  0.31335864749E+03 -0.29135778723E+03  0.51292979346E+03  0.17200000000E+03 0. -1.
</event>
<event>
 4    1 -0.6483339E-004  0.1914066E+03  0.7818608E-02  0.1157199E+00
          5   -1    0    0  501    0  0.00000000000E+00  0.00000000000E+00  0.17134421759E+03  0.17140866636E+03  0.47000000000E+01 0. -1.
         -5   -1    0    0    0  501 -0.00000000000E+00 -0.00000000000E+00 -0.28075202033E+03  0.28079135834E+03  0.47000000000E+01 0.  1.
          6    1    1    2  502    0 -0.81941982616E+02  0.18385088380E+02  0.55780277056E+02  0.19936885238E+03  0.17200000000E+03 0. -1.
         -6    1    1    2    0  502  0.81941982616E+02 -0.18385088380E+02 -0.16518807979E+03  0.25283117232E+03  0.17200000000E+03 0.  1.
</event>
<event>
 4    1 -0.6483339E-004  0.4388405E+03  0.7818608E-02  0.1031103E+00
          5   -1    0    0  501    0  0.00000000000E+00  0.00000000000E+00  0.53950226664E+03  0.53952273882E+03  0.47000000000E+01 0. -1.
         -5   -1    0    0    0  501 -0.00000000000E+00 -0.00000000000E+00 -0.46413210762E+03  0.46415590411E+03  0.47000000000E+01 0.  1.
          6    1    1    2  502    0  0.22831796247E+03 -0.33296832366E+03  0.27886875761E+03  0.51995074817E+03  0.17200000000E+03 0. -1.
         -6    1    1    2    0  502 -0.22831796247E+03  0.33296832366E+03 -0.20349859859E+03  0.48372789477E+03  0.17200000000E+03 0.  1.
</event>
<event>
 4    1 -0.6483339E-004  0.2345876E+03  0.7818608E-02  0.1123452E+00
          5   -1    0    0  501    0  0.00000000000E+00  0.00000000000E+00  0.36459377847E+03  0.36462407120E+03  0.47000000000E+01 0. -1.
         -5   -1    0    0    0  501 -0.00000000000E+00 -0.00000000000E+00 -0.17131040396E+03  0.17137486544E+03  0.47000000000E+01 0.  1.
          6    1    1    2  502    0  0.11285236913E+03  0.11274618819E+03  0.40851420736E+01  0.23462320549E+03  0.17200000000E+03 0. -1.
         -6    1    1    2    0  502 -0.11285236913E+03 -0.11274618819E+03  0.18919823243E+03  0.30137573115E+03  0.17200000000E+03 0.  1.
</event>
<event>
 4    1 -0.6483339E-004  0.2194617E+03  0.7818608E-02  0.1134285E+00
         -5   -1    0    0    0  501 -0.00000000000E+00  0.00000000000E+00  0.67249874903E+02  0.67413913063E+02  0.47000000000E+01 0.  1.
          5   -1    0    0  501    0  0.00000000000E+00 -0.00000000000E+00 -0.71619807328E+03  0.71621349483E+03  0.47000000000E+01 0. -1.
          6    1    1    2  502    0 -0.66270987856E+02 -0.11911174107E+03 -0.30943245772E+03  0.37935721501E+03  0.17200000000E+03 0. -1.
         -6    1    1    2    0  502  0.66270987856E+02  0.11911174107E+03 -0.33951574067E+03  0.40427019288E+03  0.17200000000E+03 0. -1.
</event>
<event>
 4    1 -0.6483339E-004  0.3191026E+03  0.7818608E-02  0.1076063E+00
         -5   -1    0    0    0  501 -0.00000000000E+00  0.00000000000E+00  0.24249200085E+03  0.24253754446E+03  0.47000000000E+01 0.  1.
          5   -1    0    0  501    0  0.00000000000E+00 -0.00000000000E+00 -0.49128080957E+03  0.49130329110E+03  0.47000000000E+01 0. -1.
          6    1    1    2  502    0 -0.16590402005E+03  0.21146714158E+03 -0.26432532256E+03  0.41436019594E+03  0.17200000000E+03 0. -1.
         -6    1    1    2    0  502  0.16590402005E+03 -0.21146714158E+03  0.15536513835E+02  0.31948063963E+03  0.17200000000E+03 0.  1.
</event>
<event>
 4    1 -0.6483339E-004  0.2204221E+03  0.7818608E-02  0.1133569E+00
          5   -1    0    0  501    0  0.00000000000E+00  0.00000000000E+00  0.11695908021E+03  0.11705347685E+03  0.47000000000E+01 0. -1.
         -5   -1    0    0    0  501 -0.00000000000E+00 -0.00000000000E+00 -0.10184711463E+04  0.10184819909E+04  0.47000000000E+01 0.  1.
          6    1    1    2  502    0 -0.11802058804E+03  0.71225370263E+02 -0.13785474896E+02  0.22085278330E+03  0.17200000000E+03 0. -1.
         -6    1    1    2    0  502  0.11802058804E+03 -0.71225370263E+02 -0.88772659117E+03  0.91468268445E+03  0.17200000000E+03 0.  1.
</event>
<event>
 4    1 -0.6483339E-004  0.1838052E+03  0.7818608E-02  0.1164170E+00
         -5   -1    0    0    0  501 -0.00000000000E+00  0.00000000000E+00  0.30579650224E+03  0.30583261890E+03  0.47000000000E+01 0.  1.
          5   -1    0    0  501    0  0.00000000000E+00 -0.00000000000E+00 -0.11622949721E+03  0.11632448591E+03  0.47000000000E+01 0. -1.
          6    1    1    2  502    0 -0.44513166442E+02 -0.47105699757E+02  0.47487318877E+02  0.18984049723E+03  0.17200000000E+03 0. -1.
         -6    1    1    2    0  502  0.44513166442E+02  0.47105699757E+02  0.14207968615E+03  0.23231660757E+03  0.17200000000E+03 0.  1.
</event>
<event>
 4    1 -0.6483339E-004  0.2420919E+03  0.7818608E-02  0.1118407E+00
         -5   -1    0    0    0  501 -0.00000000000E+00  0.00000000000E+00  0.34857120948E+03  0.34860289453E+03  0.47000000000E+01 0.  1.
          5   -1    0    0  501    0  0.00000000000E+00 -0.00000000000E+00 -0.19044174638E+03  0.19049973429E+03  0.47000000000E+01 0. -1.
          6    1    1    2  502    0 -0.17022707234E+03 -0.68718814513E+01  0.17143511962E+03  0.29664537608E+03  0.17200000000E+03 0. -1.
         -6    1    1    2    0  502  0.17022707234E+03  0.68718814513E+01 -0.13305656526E+02  0.24245725274E+03  0.17200000000E+03 0.  1.
</event>
<event>
 4    1 -0.6483339E-004  0.3866130E+03  0.7818608E-02  0.1048516E+00
         -5   -1    0    0    0  501 -0.00000000000E+00  0.00000000000E+00  0.27510582367E+03  0.27514596893E+03  0.47000000000E+01 0.  1.
          5   -1    0    0  501    0  0.00000000000E+00 -0.00000000000E+00 -0.15356542953E+04  0.15356614877E+04  0.47000000000E+01 0. -1.
          6    1    1    2  502    0 -0.32943101590E+03 -0.10658726468E+03 -0.13581165344E+04  0.14120730010E+04  0.17200000000E+03 0. -1.
         -6    1    1    2    0  502  0.32943101590E+03  0.10658726468E+03  0.97568062706E+02  0.39873445561E+03  0.17200000000E+03 0.  1.
</event>
<event>
 4    1 -0.6483339E-004  0.2156203E+03  0.7818608E-02  0.1137191E+00
          5   -1    0    0  501    0  0.00000000000E+00  0.00000000000E+00  0.13668731670E+03  0.13676809770E+03  0.47000000000E+01 0. -1.
         -5   -1    0    0    0  501 -0.00000000000E+00 -0.00000000000E+00 -0.34879235386E+03  0.34882401883E+03  0.47000000000E+01 0.  1.
          6    1    1    2  502    0  0.46673097773E+02 -0.12136614489E+03 -0.14473217795E+03  0.25969120608E+03  0.17200000000E+03 0.  1.
         -6    1    1    2    0  502 -0.46673097773E+02  0.12136614489E+03 -0.67372859209E+02  0.22590091045E+03  0.17200000000E+03 0. -1.
</event>
<event>
 4    1 -0.6483339E-004  0.1830457E+03  0.7818608E-02  0.1164887E+00
         -5   -1    0    0    0  501 -0.00000000000E+00  0.00000000000E+00  0.13521793887E+04  0.13521875569E+04  0.47000000000E+01 0.  1.
          5   -1    0    0  501    0  0.00000000000E+00 -0.00000000000E+00 -0.25617403920E+02  0.26044987687E+02  0.47000000000E+01 0. -1.
          6    1    1    2  502    0  0.41596834440E+02  0.46812905090E+02  0.80287946639E+03  0.82348113656E+03  0.17200000000E+03 0.  1.
         -6    1    1    2    0  502 -0.41596834440E+02 -0.46812905090E+02  0.52368251836E+03  0.55475140807E+03  0.17200000000E+03 0. -1.
</event>
<event>
 4    1 -0.6483339E-004  0.3445524E+03  0.7818608E-02  0.1064873E+00
          5   -1    0    0  501    0  0.00000000000E+00  0.00000000000E+00  0.48830632280E+03  0.48832894127E+03  0.47000000000E+01 0. -1.
         -5   -1    0    0    0  501 -0.00000000000E+00 -0.00000000000E+00 -0.31222118800E+03  0.31225656156E+03  0.47000000000E+01 0.  1.
          6    1    1    2  502    0 -0.16837808292E+03  0.24653845367E+03  0.27641169243E+03  0.44172368247E+03  0.17200000000E+03 0. -1.
         -6    1    1    2    0  502  0.16837808292E+03 -0.24653845367E+03 -0.10032655763E+03  0.35886182036E+03  0.17200000000E+03 0.  1.
</event>
<event>
 4    1 -0.6483339E-004  0.2428242E+03  0.7818608E-02  0.1117926E+00
         -5   -1    0    0    0  501 -0.00000000000E+00  0.00000000000E+00  0.92785961775E+02  0.92904922919E+02  0.47000000000E+01 0.  1.
          5   -1    0    0  501    0  0.00000000000E+00 -0.00000000000E+00 -0.11397213017E+04  0.11397309926E+04  0.47000000000E+01 0. -1.
          6    1    1    2  502    0 -0.15553961825E+03 -0.72020994920E+02 -0.93360542443E+03  0.96466713693E+03  0.17200000000E+03 0. -1.
         -6    1    1    2    0  502  0.15553961825E+03  0.72020994920E+02 -0.11332991547E+03  0.26796877859E+03  0.17200000000E+03 0.  1.
</event>
<event>
 4    1 -0.6483339E-004  0.1723021E+03  0.7818608E-02  0.1175468E+00
         -5   -1    0    0    0  501 -0.00000000000E+00  0.00000000000E+00  0.62062574060E+03  0.62064353690E+03  0.47000000000E+01 0.  1.
          5   -1    0    0  501    0  0.00000000000E+00 -0.00000000000E+00 -0.61224304520E+02  0.61404441729E+02  0.47000000000E+01 0. -1.
          6    1    1    2  502    0 -0.99873953305E+01  0.20639644359E+01  0.11972155242E+03  0.20981243559E+03  0.17200000000E+03 0. -1.
         -6    1    1    2    0  502  0.99873953305E+01 -0.20639644359E+01  0.43967988366E+03  0.47223554304E+03  0.17200000000E+03 0.  1.
</event>
<event>
 4    1 -0.6483339E-004  0.3720809E+03  0.7818608E-02  0.1053900E+00
          5   -1    0    0  501    0  0.00000000000E+00  0.00000000000E+00  0.18281559156E+03  0.18287599765E+03  0.47000000000E+01 0. -1.
         -5   -1    0    0    0  501 -0.00000000000E+00 -0.00000000000E+00 -0.80250092558E+03  0.80251468869E+03  0.47000000000E+01 0.  1.
          6    1    1    2  502    0 -0.31331425550E+03  0.10341351911E+03 -0.19265348754E+03  0.41899826360E+03  0.17200000000E+03 0. -1.
         -6    1    1    2    0  502  0.31331425550E+03 -0.10341351911E+03 -0.42703184648E+03  0.56639242274E+03  0.17200000000E+03 0.  1.
</event>
<event>
 4    1 -0.6483339E-004  0.2244942E+03  0.7818608E-02  0.1130576E+00
          5   -1    0    0  501    0  0.00000000000E+00  0.00000000000E+00  0.63198793549E+02  0.63373318566E+02  0.47000000000E+01 0. -1.
         -5   -1    0    0    0  501 -0.00000000000E+00 -0.00000000000E+00 -0.18796995438E+04  0.18797054197E+04  0.47000000000E+01 0.  1.
          6    1    1    2  502    0  0.10078190655E+03  0.10323100751E+03 -0.17065829607E+03  0.28199625461E+03  0.17200000000E+03 0. -1.
         -6    1    1    2    0  502 -0.10078190655E+03 -0.10323100751E+03 -0.16458424542E+04  0.16610824837E+04  0.17200000000E+03 0.  1.
</event>
<event>
 4    1 -0.6483339E-004  0.1755965E+03  0.7818608E-02  0.1172134E+00
         -5   -1    0    0    0  501 -0.00000000000E+00  0.00000000000E+00  0.29549376774E+03  0.29553114349E+03  0.47000000000E+01 0.  1.
          5   -1    0    0  501    0  0.00000000000E+00 -0.00000000000E+00 -0.12449592022E+03  0.12458460639E+03  0.47000000000E+01 0. -1.
          6    1    1    2  502    0  0.35159321113E+02  0.37356960960E+01  0.83748147735E+00  0.17559850416E+03  0.17200000000E+03 0. -1.
         -6    1    1    2    0  502 -0.35159321113E+02 -0.37356960960E+01  0.17016036605E+03  0.24451724573E+03  0.17200000000E+03 0.  1.
</event>
<event>
 4    1 -0.6483339E-004  0.1723176E+03  0.7818608E-02  0.1175452E+00
         -5   -1    0    0    0  501 -0.00000000000E+00  0.00000000000E+00  0.79178751471E+02  0.79318123305E+02  0.47000000000E+01 0.  1.
          5   -1    0    0  501    0  0.00000000000E+00 -0.00000000000E+00 -0.38818085490E+03  0.38820930709E+03  0.47000000000E+01 0. -1.
          6    1    1    2  502    0  0.10188365892E+02  0.23541643000E+01 -0.11067795959E+03  0.20479979402E+03  0.17200000000E+03 0.  1.
         -6    1    1    2    0  502 -0.10188365892E+02 -0.23541643000E+01 -0.19832414384E+03  0.26272763638E+03  0.17200000000E+03 0. -1.
</event>
<event>
 4    1 -0.6483339E-004  0.1749644E+03  0.7818608E-02  0.1172767E+00
         -5   -1    0    0    0  501 -0.00000000000E+00  0.00000000000E+00  0.13979170208E+03  0.13987069017E+03  0.47000000000E+01 0.  1.
          5   -1    0    0  501    0  0.00000000000E+00 -0.00000000000E+00 -0.24488344393E+03  0.24492854287E+03  0.47000000000E+01 0. -1.
          6    1    1    2  502    0  0.12416185468E+02  0.29569930101E+02  0.10205280693E+02  0.17526177616E+03  0.17200000000E+03 0.  1.
         -6    1    1    2    0  502 -0.12416185468E+02 -0.29569930101E+02 -0.11529702255E+03  0.20953745688E+03  0.17200000000E+03 0. -1.
</event>
<event>
 4    1 -0.6483339E-004  0.1771842E+03  0.7818608E-02  0.1170556E+00
          5   -1    0    0  501    0  0.00000000000E+00  0.00000000000E+00  0.46320283711E+02  0.46558121559E+02  0.47000000000E+01 0. -1.
         -5   -1    0    0    0  501 -0.00000000000E+00 -0.00000000000E+00 -0.67625984956E+03  0.67627618185E+03  0.47000000000E+01 0.  1.
          6    1    1    2  502    0  0.41439899435E+02 -0.96417112821E+01 -0.32456974727E+03  0.36978338078E+03  0.17200000000E+03 0. -1.
         -6    1    1    2    0  502 -0.41439899435E+02  0.96417112821E+01 -0.30536981859E+03  0.35305092262E+03  0.17200000000E+03 0. -1.
</event>
<event>
 4    1 -0.6483339E-004  0.2405661E+03  0.7818608E-02  0.1119416E+00
          5   -1    0    0  501    0  0.00000000000E+00  0.00000000000E+00  0.11185854844E+03  0.11195724568E+03  0.47000000000E+01 0. -1.
         -5   -1    0    0    0  501 -0.00000000000E+00 -0.00000000000E+00 -0.84197904988E+03  0.84199216768E+03  0.47000000000E+01 0.  1.
          6    1    1    2  502    0  0.48028997463E+02  0.16118703705E+03 -0.68766797341E+02  0.25020175445E+03  0.17200000000E+03 0. -1.
         -6    1    1    2    0  502 -0.48028997463E+02 -0.16118703705E+03 -0.66135370409E+03  0.70374765891E+03  0.17200000000E+03 0. -1.
</event>
<event>
 4    1 -0.6483339E-004  0.1758365E+03  0.7818608E-02  0.1171894E+00
          5   -1    0    0  501    0  0.00000000000E+00  0.00000000000E+00  0.87165586249E+02  0.87292207133E+02  0.47000000000E+01 0. -1.
         -5   -1    0    0    0  501 -0.00000000000E+00 -0.00000000000E+00 -0.43940421990E+03  0.43942935549E+03  0.47000000000E+01 0.  1.
          6    1    1    2  502    0  0.53037779143E+01  0.36143222378E+02 -0.60243469008E+02  0.18587021855E+03  0.17200000000E+03 0. -1.
         -6    1    1    2    0  502 -0.53037779143E+01 -0.36143222378E+02 -0.29199516464E+03  0.34085134408E+03  0.17200000000E+03 0.  1.
</event>
<event>
 4    1 -0.6483339E-004  0.2107612E+03  0.7818608E-02  0.1140965E+00
          5   -1    0    0  501    0  0.00000000000E+00  0.00000000000E+00  0.38831273423E+02  0.39114674940E+02  0.47000000000E+01 0. -1.
         -5   -1    0    0    0  501 -0.00000000000E+00 -0.00000000000E+00 -0.14564777978E+04  0.14564853812E+04  0.47000000000E+01 0.  1.
          6    1    1    2  502    0  0.88897463545E+02  0.83267913435E+02 -0.35999186170E+03  0.41715038646E+03  0.17200000000E+03 0. -1.
         -6    1    1    2    0  502 -0.88897463545E+02 -0.83267913435E+02 -0.10576546627E+04  0.10784496696E+04  0.17200000000E+03 0.  1.
</event>
<event>
 4    1 -0.6483339E-004  0.1961976E+03  0.7818608E-02  0.1152987E+00
          5   -1    0    0  501    0  0.00000000000E+00  0.00000000000E+00  0.21085741124E+03  0.21090978611E+03  0.47000000000E+01 0. -1.
         -5   -1    0    0    0  501 -0.00000000000E+00 -0.00000000000E+00 -0.22507143860E+03  0.22512050656E+03  0.47000000000E+01 0.  1.
          6    1    1    2  502    0  0.73559208471E+02  0.59148627156E+02 -0.10195498216E+03  0.22110706825E+03  0.17200000000E+03 0.  1.
         -6    1    1    2    0  502 -0.73559208471E+02 -0.59148627156E+02  0.87740954798E+02  0.21492322442E+03  0.17200000000E+03 0. -1.
</event>
<event>
 4    1 -0.6483339E-004  0.1782308E+03  0.7818608E-02  0.1169526E+00
          5   -1    0    0  501    0  0.00000000000E+00  0.00000000000E+00  0.37846410798E+02  0.38137131647E+02  0.47000000000E+01 0. -1.
         -5   -1    0    0    0  501 -0.00000000000E+00 -0.00000000000E+00 -0.14726448913E+04  0.14726523914E+04  0.47000000000E+01 0.  1.
          6    1    1    2  502    0 -0.27073211033E+02 -0.38069307042E+02 -0.22071003606E+03  0.28368847512E+03  0.17200000000E+03 0. -1.
         -6    1    1    2    0  502  0.27073211033E+02  0.38069307042E+02 -0.12140884444E+04  0.12271010479E+04  0.17200000000E+03 0.  1.
</event>
<event>
 4    1 -0.6483339E-004  0.2102370E+03  0.7818608E-02  0.1141378E+00
          5   -1    0    0  501    0  0.00000000000E+00  0.00000000000E+00  0.10754285599E+03  0.10764551024E+03  0.47000000000E+01 0. -1.
         -5   -1    0    0    0  501 -0.00000000000E+00 -0.00000000000E+00 -0.48620337067E+03  0.48622608697E+03  0.47000000000E+01 0.  1.
          6    1    1    2  502    0 -0.31336685503E+02  0.11676302377E+03 -0.30634182108E+03  0.37154394481E+03  0.17200000000E+03 0.  1.
         -6    1    1    2    0  502  0.31336685503E+02 -0.11676302377E+03 -0.72318693598E+02  0.22232765240E+03  0.17200000000E+03 0. -1.
</event>
<event>
 4    1 -0.6483339E-004  0.3453130E+03  0.7818608E-02  0.1064555E+00
         -5   -1    0    0    0  501 -0.00000000000E+00  0.00000000000E+00  0.45728952167E+03  0.45731367423E+03  0.47000000000E+01 0.  1.
          5   -1    0    0  501    0  0.00000000000E+00 -0.00000000000E+00 -0.26920926951E+03  0.26925029395E+03  0.47000000000E+01 0. -1.
          6    1    1    2  502    0 -0.18459409463E+03  0.23575849900E+03  0.29475908665E+02  0.34656872163E+03  0.17200000000E+03 0. -1.
         -6    1    1    2    0  502  0.18459409463E+03 -0.23575849900E+03  0.15860434350E+03  0.37999524655E+03  0.17200000000E+03 0.  1.
</event>
