<event>
 4    1  0.8483901E-001  0.2466143E+03  0.7818608E-02  0.1115463E+00
          2   -1    0    0  502    0  0.00000000000E+00  0.00000000000E+00  0.25363873482E+03  0.25363873482E+03  0.00000000000E+00 0.  1.
         -2   -1    0    0    0  501 -0.00000000000E+00 -0.00000000000E+00 -0.24856723073E+03  0.24856723073E+03  0.00000000000E+00 0. -1.
          6    1    1    2  502    0  0.11560736893E+03  0.13367700316E+03  0.49736389676E+02  0.25157963627E+03  0.17200000000E+03 0.  1.
         -6    1    1    2    0  501 -0.11560736893E+03 -0.13367700316E+03 -0.44664885583E+02  0.25062632928E+03  0.17200000000E+03 0. -1.
</event>
<event>
 4    1  0.8483901E-001  0.2152450E+03  0.7818608E-02  0.1137479E+00
         -2   -1    0    0    0  501 -0.00000000000E+00  0.00000000000E+00  0.19063172770E+02  0.19063172770E+02  0.00000000000E+00 0. -1.
          2   -1    0    0  502    0  0.00000000000E+00 -0.00000000000E+00 -0.24811669275E+04  0.24811669275E+04  0.00000000000E+00 0.  1.
          6    1    1    2  502    0 -0.10487396105E+03 -0.75814589404E+02 -0.10521654535E+04  0.10739564894E+04  0.17200000000E+03 0.  1.
         -6    1    1    2    0  501  0.10487396105E+03  0.75814589404E+02 -0.14099383012E+04  0.14262736108E+04  0.17200000000E+03 0. -1.
</event>
<event>
 4    1  0.8483901E-001  0.1769560E+03  0.7818608E-02  0.1170782E+00
         -2   -1    0    0    0  501 -0.00000000000E+00  0.00000000000E+00  0.17343774287E+02  0.17343774287E+02  0.00000000000E+00 0.  1.
          2   -1    0    0  502    0  0.00000000000E+00 -0.00000000000E+00 -0.18055405847E+04  0.18055405847E+04  0.00000000000E+00 0. -1.
          6    1    1    2  502    0 -0.21230155427E+02 -0.35758790482E+02 -0.90035960310E+03  0.91758423346E+03  0.17200000000E+03 0.  1.
         -6    1    1    2    0  501  0.21230155427E+02  0.35758790482E+02 -0.88783720736E+03  0.90530012558E+03  0.17200000000E+03 0. -1.
</event>
<event>
 4    1  0.8483901E-001  0.1727035E+03  0.7818608E-02  0.1175058E+00
         -2   -1    0    0    0  501 -0.00000000000E+00  0.00000000000E+00  0.37951552001E+02  0.37951552001E+02  0.00000000000E+00 0.  1.
          2   -1    0    0  502    0  0.00000000000E+00 -0.00000000000E+00 -0.86816857897E+03  0.86816857897E+03  0.00000000000E+00 0. -1.
          6    1    1    2  502    0  0.12428161737E+02  0.93827841066E+01 -0.27565003052E+03  0.32528362265E+03  0.17200000000E+03 0.  1.
         -6    1    1    2    0  501 -0.12428161737E+02 -0.93827841066E+01 -0.55456699645E+03  0.58083650832E+03  0.17200000000E+03 0. -1.
</event>
<event>
 4    1  0.8483901E-001  0.1931270E+03  0.7818608E-02  0.1155671E+00
         -3   -1    0    0    0  501 -0.00000000000E+00  0.00000000000E+00  0.73395510699E+02  0.73395510699E+02  0.00000000000E+00 0. -1.
          3   -1    0    0  502    0  0.00000000000E+00 -0.00000000000E+00 -0.72121444225E+03  0.72121444225E+03  0.00000000000E+00 0.  1.
          6    1    1    2  502    0  0.81835975644E+02 -0.31888756235E+02 -0.53984208363E+03  0.57334762138E+03  0.17200000000E+03 0. -1.
         -6    1    1    2    0  501 -0.81835975644E+02  0.31888756235E+02 -0.10797684792E+03  0.22126233157E+03  0.17200000000E+03 0. -1.
</event>
<event>
 4    1  0.8483901E-001  0.1908879E+03  0.7818608E-02  0.1157663E+00
         -2   -1    0    0    0  501 -0.00000000000E+00  0.00000000000E+00  0.80725369657E+02  0.80725369657E+02  0.00000000000E+00 0.  1.
          2   -1    0    0  502    0  0.00000000000E+00 -0.00000000000E+00 -0.46637017194E+03  0.46637017194E+03  0.00000000000E+00 0. -1.
          6    1    1    2  502    0 -0.87437897941E+01 -0.82326999890E+02 -0.24185720521E+03  0.30811214920E+03  0.17200000000E+03 0.  1.
         -6    1    1    2    0  501  0.87437897941E+01  0.82326999890E+02 -0.14378759707E+03  0.23898339240E+03  0.17200000000E+03 0.  1.
</event>
<event>
 4    1  0.8483901E-001  0.1919035E+03  0.7818608E-02  0.1156756E+00
         -2   -1    0    0    0  501 -0.00000000000E+00  0.00000000000E+00  0.38983841366E+02  0.38983841366E+02  0.00000000000E+00 0.  1.
          2   -1    0    0  502    0  0.00000000000E+00 -0.00000000000E+00 -0.96785333133E+03  0.96785333133E+03  0.00000000000E+00 0. -1.
          6    1    1    2  502    0 -0.17415387943E+02  0.83304591564E+02 -0.54234451080E+03  0.57529515825E+03  0.17200000000E+03 0. -1.
         -6    1    1    2    0  501  0.17415387943E+02 -0.83304591564E+02 -0.38652497916E+03  0.43154201444E+03  0.17200000000E+03 0. -1.
</event>
<event>
 4    1  0.8483901E-001  0.1750243E+03  0.7818608E-02  0.1172707E+00
          1   -1    0    0  502    0  0.00000000000E+00  0.00000000000E+00  0.65084519682E+03  0.65084519682E+03  0.00000000000E+00 0. -1.
         -1   -1    0    0    0  501 -0.00000000000E+00 -0.00000000000E+00 -0.47114053777E+02  0.47114053777E+02  0.00000000000E+00 0.  1.
          6    1    1    2  502    0  0.29074027178E+02 -0.14289623159E+02  0.29086604817E+03  0.33946509447E+03  0.17200000000E+03 0.  1.
         -6    1    1    2    0  501 -0.29074027178E+02  0.14289623159E+02  0.31286509487E+03  0.35849415613E+03  0.17200000000E+03 0. -1.
</event>
<event>
 4    1  0.8483901E-001  0.1839008E+03  0.7818608E-02  0.1164080E+00
          2   -1    0    0  502    0  0.00000000000E+00  0.00000000000E+00  0.11309477971E+04  0.11309477971E+04  0.00000000000E+00 0. -1.
         -2   -1    0    0    0  501 -0.00000000000E+00 -0.00000000000E+00 -0.45245660104E+02  0.45245660104E+02  0.00000000000E+00 0.  1.
          6    1    1    2  502    0  0.55617764027E+02 -0.33796095439E+02  0.20039814929E+03  0.27199067995E+03  0.17200000000E+03 0.  1.
         -6    1    1    2    0  501 -0.55617764027E+02  0.33796095439E+02  0.88530398769E+03  0.90420277724E+03  0.17200000000E+03 0.  1.
</event>
<event>
 4    1  0.8483901E-001  0.2158434E+03  0.7818608E-02  0.1137020E+00
         -1   -1    0    0    0  501 -0.00000000000E+00  0.00000000000E+00  0.80366212938E+02  0.80366212938E+02  0.00000000000E+00 0. -1.
          1   -1    0    0  502    0  0.00000000000E+00 -0.00000000000E+00 -0.12651921448E+04  0.12651921448E+04  0.00000000000E+00 0.  1.
          6    1    1    2  502    0  0.72626323557E+02  0.10830412316E+03 -0.10876296356E+04  0.11088402005E+04  0.17200000000E+03 0.  1.
         -6    1    1    2    0  501 -0.72626323557E+02 -0.10830412316E+03 -0.97196296257E+02  0.23671815725E+03  0.17200000000E+03 0. -1.
</event>
<event>
 4    1  0.8483901E-001  0.3310157E+03  0.7818608E-02  0.1070688E+00
         -1   -1    0    0    0  501 -0.00000000000E+00  0.00000000000E+00  0.93801407240E+02  0.93801407240E+02  0.00000000000E+00 0. -1.
          1   -1    0    0  502    0  0.00000000000E+00 -0.00000000000E+00 -0.13766864271E+04  0.13766864271E+04  0.00000000000E+00 0.  1.
          6    1    1    2  502    0  0.14843694025E+02  0.28243064338E+03 -0.35526534692E+03  0.48557684283E+03  0.17200000000E+03 0.  1.
         -6    1    1    2    0  501 -0.14843694025E+02 -0.28243064338E+03 -0.92761967299E+03  0.98491099155E+03  0.17200000000E+03 0. -1.
</event>
<event>
 4    1  0.8483901E-001  0.1952521E+03  0.7818608E-02  0.1153808E+00
         -1   -1    0    0    0  501 -0.00000000000E+00  0.00000000000E+00  0.26369548452E+03  0.26369548452E+03  0.00000000000E+00 0. -1.
          1   -1    0    0  502    0  0.00000000000E+00 -0.00000000000E+00 -0.16422551568E+03  0.16422551568E+03  0.00000000000E+00 0.  1.
          6    1    1    2  502    0 -0.86309261615E+02 -0.33016777369E+02 -0.24279398340E+02  0.19675590312E+03  0.17200000000E+03 0.  1.
         -6    1    1    2    0  501  0.86309261615E+02  0.33016777369E+02  0.12374936718E+03  0.23116509708E+03  0.17200000000E+03 0. -1.
</event>
<event>
 4    1  0.8483901E-001  0.3100474E+03  0.7818608E-02  0.1080323E+00
          1   -1    0    0  502    0  0.00000000000E+00  0.00000000000E+00  0.29501846841E+04  0.29501846841E+04  0.00000000000E+00 0.  1.
         -1   -1    0    0    0  501 -0.00000000000E+00 -0.00000000000E+00 -0.33662638748E+02  0.33662638748E+02  0.00000000000E+00 0. -1.
          6    1    1    2  502    0 -0.13500372834E+03  0.21981675999E+03  0.11912250329E+04  0.12309128700E+04  0.17200000000E+03 0.  1.
         -6    1    1    2    0  501  0.13500372834E+03 -0.21981675999E+03  0.17252970125E+04  0.17529344528E+04  0.17200000000E+03 0. -1.
</event>
<event>
 4    1  0.8483901E-001  0.1867079E+03  0.7818608E-02  0.1161464E+00
         -2   -1    0    0    0  501 -0.00000000000E+00  0.00000000000E+00  0.14638151952E+03  0.14638151952E+03  0.00000000000E+00 0. -1.
          2   -1    0    0  502    0  0.00000000000E+00 -0.00000000000E+00 -0.33754564156E+03  0.33754564156E+03  0.00000000000E+00 0.  1.
          6    1    1    2  502    0  0.12584252390E+02 -0.71536664700E+02  0.35722819368E+02  0.19009465439E+03  0.17200000000E+03 0. -1.
         -6    1    1    2    0  501 -0.12584252390E+02  0.71536664700E+02 -0.22688694141E+03  0.29383250669E+03  0.17200000000E+03 0.  1.
</event>
<event>
 4    1  0.8483901E-001  0.2623572E+03  0.7818608E-02  0.1105735E+00
         -1   -1    0    0    0  501 -0.00000000000E+00  0.00000000000E+00  0.75314668973E+03  0.75314668973E+03  0.00000000000E+00 0. -1.
          1   -1    0    0  502    0  0.00000000000E+00 -0.00000000000E+00 -0.95220805122E+02  0.95220805122E+02  0.00000000000E+00 0.  1.
          6    1    1    2  502    0  0.96228635844E+02 -0.17316852495E+03  0.24389971421E+03  0.35821552030E+03  0.17200000000E+03 0.  1.
         -6    1    1    2    0  501 -0.96228635844E+02  0.17316852495E+03  0.41402617040E+03  0.49015197456E+03  0.17200000000E+03 0.  1.
</event>
<event>
 4    1  0.8483901E-001  0.1809581E+03  0.7818608E-02  0.1166879E+00
         -2   -1    0    0    0  501 -0.00000000000E+00  0.00000000000E+00  0.10492079227E+03  0.10492079227E+03  0.00000000000E+00 0. -1.
          2   -1    0    0  502    0  0.00000000000E+00 -0.00000000000E+00 -0.32067658996E+03  0.32067658996E+03  0.00000000000E+00 0.  1.
          6    1    1    2  502    0  0.51276617171E+02  0.23077080917E+02 -0.14267773796E+03  0.23044040453E+03  0.17200000000E+03 0.  1.
         -6    1    1    2    0  501 -0.51276617171E+02 -0.23077080917E+02 -0.73078059736E+02  0.19515697770E+03  0.17200000000E+03 0. -1.
</event>
<event>
 4    1  0.8483901E-001  0.2089168E+03  0.7818608E-02  0.1142427E+00
          2   -1    0    0  502    0  0.00000000000E+00  0.00000000000E+00  0.12685588369E+04  0.12685588369E+04  0.00000000000E+00 0. -1.
         -2   -1    0    0    0  501 -0.00000000000E+00 -0.00000000000E+00 -0.42973598917E+02  0.42973598917E+02  0.00000000000E+00 0.  1.
          6    1    1    2  502    0  0.99083993174E+02  0.65150557800E+02  0.90559445371E+03  0.92938019533E+03  0.17200000000E+03 0. -1.
         -6    1    1    2    0  501 -0.99083993174E+02 -0.65150557800E+02  0.31999078425E+03  0.38215224046E+03  0.17200000000E+03 0.  1.
</event>
<event>
 4    1  0.8483901E-001  0.1753743E+03  0.7818608E-02  0.1172356E+00
          1   -1    0    0  502    0  0.00000000000E+00  0.00000000000E+00  0.32626013580E+03  0.32626013580E+03  0.00000000000E+00 0. -1.
         -1   -1    0    0    0  501 -0.00000000000E+00 -0.00000000000E+00 -0.94473215330E+02  0.94473215330E+02  0.00000000000E+00 0.  1.
          6    1    1    2  502    0 -0.79499514459E+01 -0.33300849852E+02  0.12567910888E+03  0.21575770378E+03  0.17200000000E+03 0.  1.
         -6    1    1    2    0  501  0.79499514459E+01  0.33300849852E+02  0.10610781159E+03  0.20497564736E+03  0.17200000000E+03 0. -1.
</event>
<event>
 4    1  0.8483901E-001  0.1850908E+03  0.7818608E-02  0.1162965E+00
         -4   -1    0    0    0  501 -0.00000000000E+00  0.00000000000E+00  0.23207602665E+03  0.23207602665E+03  0.00000000000E+00 0. -1.
          4   -1    0    0  502    0  0.00000000000E+00 -0.00000000000E+00 -0.15666799606E+03  0.15666799606E+03  0.00000000000E+00 0.  1.
          6    1    1    2  502    0  0.25760585156E+01 -0.68322432861E+02  0.84420333283E+02  0.20343397843E+03  0.17200000000E+03 0. -1.
         -6    1    1    2    0  501 -0.25760585156E+01  0.68322432861E+02 -0.90123026963E+01  0.18531004428E+03  0.17200000000E+03 0.  1.
</event>
<event>
 4    1  0.8483901E-001  0.2084738E+03  0.7818608E-02  0.1142780E+00
          1   -1    0    0  502    0  0.00000000000E+00  0.00000000000E+00  0.56057910184E+03  0.56057910184E+03  0.00000000000E+00 0. -1.
         -1   -1    0    0    0  501 -0.00000000000E+00 -0.00000000000E+00 -0.98021158548E+02  0.98021158548E+02  0.00000000000E+00 0.  1.
          6    1    1    2  502    0  0.11455983259E+03 -0.27447820237E+02  0.80714660000E+02  0.22355356051E+03  0.17200000000E+03 0.  1.
         -6    1    1    2    0  501 -0.11455983259E+03  0.27447820237E+02  0.38184328330E+03  0.43504669988E+03  0.17200000000E+03 0. -1.
</event>
<event>
 4    1  0.8483901E-001  0.2312073E+03  0.7818608E-02  0.1125793E+00
         -1   -1    0    0    0  501 -0.00000000000E+00  0.00000000000E+00  0.70438050328E+03  0.70438050328E+03  0.00000000000E+00 0.  1.
          1   -1    0    0  502    0  0.00000000000E+00 -0.00000000000E+00 -0.79305133039E+02  0.79305133039E+02  0.00000000000E+00 0. -1.
          6    1    1    2  502    0  0.98767357600E+02 -0.11881849112E+03  0.23124720421E+03  0.32700473118E+03  0.17200000000E+03 0.  1.
         -6    1    1    2    0  501 -0.98767357600E+02  0.11881849112E+03  0.39382816604E+03  0.45668090514E+03  0.17200000000E+03 0. -1.
</event>
<event>
 4    1  0.8483901E-001  0.2684403E+03  0.7818608E-02  0.1102176E+00
          2   -1    0    0  502    0  0.00000000000E+00  0.00000000000E+00  0.11610273767E+04  0.11610273767E+04  0.00000000000E+00 0.  1.
         -2   -1    0    0    0  501 -0.00000000000E+00 -0.00000000000E+00 -0.69795948985E+02  0.69795948985E+02  0.00000000000E+00 0. -1.
          6    1    1    2  502    0 -0.15674926873E+03 -0.13381274955E+03  0.75042154370E+03  0.79698976056E+03  0.17200000000E+03 0.  1.
         -6    1    1    2    0  501  0.15674926873E+03  0.13381274955E+03  0.34080988402E+03  0.43383356513E+03  0.17200000000E+03 0.  1.
</event>
<event>
 4    1  0.8483901E-001  0.1946762E+03  0.7818608E-02  0.1154310E+00
         -2   -1    0    0    0  501 -0.00000000000E+00  0.00000000000E+00  0.11672060223E+03  0.11672060223E+03  0.00000000000E+00 0.  1.
          2   -1    0    0  502    0  0.00000000000E+00 -0.00000000000E+00 -0.32519883395E+03  0.32519883395E+03  0.00000000000E+00 0. -1.
          6    1    1    2  502    0  0.90671006893E+02  0.96739557050E+01 -0.11292001821E+03  0.22505498755E+03  0.17200000000E+03 0. -1.
         -6    1    1    2    0  501 -0.90671006893E+02 -0.96739557050E+01 -0.95558213513E+02  0.21686444863E+03  0.17200000000E+03 0. -1.
</event>
<event>
 4    1  0.8483901E-001  0.1746799E+03  0.7818608E-02  0.1173053E+00
         -2   -1    0    0    0  501 -0.00000000000E+00  0.00000000000E+00  0.20032802697E+03  0.20032802697E+03  0.00000000000E+00 0.  1.
          2   -1    0    0  502    0  0.00000000000E+00 -0.00000000000E+00 -0.17198452770E+03  0.17198452770E+03  0.00000000000E+00 0. -1.
          6    1    1    2  502    0  0.11696643376E+01 -0.30458260308E+02  0.77125829901E+02  0.19094886062E+03  0.17200000000E+03 0.  1.
         -6    1    1    2    0  501 -0.11696643376E+01  0.30458260308E+02 -0.48782330629E+02  0.18136369404E+03  0.17200000000E+03 0. -1.
</event>
<event>
 4    1  0.8483901E-001  0.1760356E+03  0.7818608E-02  0.1171696E+00
         -1   -1    0    0    0  501 -0.00000000000E+00  0.00000000000E+00  0.52440533721E+02  0.52440533721E+02  0.00000000000E+00 0.  1.
          1   -1    0    0  502    0  0.00000000000E+00 -0.00000000000E+00 -0.88556940601E+03  0.88556940601E+03  0.00000000000E+00 0. -1.
          6    1    1    2  502    0 -0.34669541887E+02 -0.14232125555E+02 -0.68709337116E+03  0.70928543706E+03  0.17200000000E+03 0. -1.
         -6    1    1    2    0  501  0.34669541887E+02  0.14232125555E+02 -0.14603550113E+03  0.22872450267E+03  0.17200000000E+03 0.  1.
</event>
<event>
 4    1  0.8483901E-001  0.3437990E+03  0.7818608E-02  0.1065189E+00
         -2   -1    0    0    0  501 -0.00000000000E+00  0.00000000000E+00  0.32420712555E+03  0.32420712555E+03  0.00000000000E+00 0. -1.
          2   -1    0    0  502    0  0.00000000000E+00 -0.00000000000E+00 -0.36497766420E+03  0.36497766420E+03  0.00000000000E+00 0.  1.
          6    1    1    2  502    0  0.73891441253E+02  0.28836403440E+03 -0.89372727422E+01  0.34391515853E+03  0.17200000000E+03 0. -1.
         -6    1    1    2    0  501 -0.73891441253E+02 -0.28836403440E+03 -0.31833265900E+02  0.34526963122E+03  0.17200000000E+03 0. -1.
</event>
<event>
 4    1  0.8483901E-001  0.2430330E+03  0.7818608E-02  0.1117789E+00
         -1   -1    0    0    0  501 -0.00000000000E+00  0.00000000000E+00  0.13138406954E+03  0.13138406954E+03  0.00000000000E+00 0.  1.
          1   -1    0    0  502    0  0.00000000000E+00 -0.00000000000E+00 -0.51607446129E+03  0.51607446129E+03  0.00000000000E+00 0. -1.
          6    1    1    2  502    0  0.15820397275E+03 -0.66727455754E+02 -0.76124594039E+02  0.25467627326E+03  0.17200000000E+03 0.  1.
         -6    1    1    2    0  501 -0.15820397275E+03  0.66727455754E+02 -0.30856579770E+03  0.39278225757E+03  0.17200000000E+03 0. -1.
</event>
<event>
 4    1  0.8483901E-001  0.2063164E+03  0.7818608E-02  0.1144517E+00
         -1   -1    0    0    0  501 -0.00000000000E+00  0.00000000000E+00  0.96006711706E+02  0.96006711706E+02  0.00000000000E+00 0.  1.
          1   -1    0    0  502    0  0.00000000000E+00 -0.00000000000E+00 -0.62128315907E+03  0.62128315907E+03  0.00000000000E+00 0. -1.
          6    1    1    2  502    0  0.11305469608E+03 -0.14180318696E+02 -0.70716302158E+02  0.21809915436E+03  0.17200000000E+03 0.  1.
         -6    1    1    2    0  501 -0.11305469608E+03  0.14180318696E+02 -0.45456014520E+03  0.49919071641E+03  0.17200000000E+03 0. -1.
</event>
<event>
 4    1  0.8483901E-001  0.2259187E+03  0.7818608E-02  0.1129546E+00
          1   -1    0    0  502    0  0.00000000000E+00  0.00000000000E+00  0.13686769926E+03  0.13686769926E+03  0.00000000000E+00 0. -1.
         -1   -1    0    0    0  501 -0.00000000000E+00 -0.00000000000E+00 -0.42170482652E+03  0.42170482652E+03  0.00000000000E+00 0.  1.
          6    1    1    2  502    0  0.63086132115E+02  0.13219455219E+03 -0.23742096553E+03  0.32773155870E+03  0.17200000000E+03 0.  1.
         -6    1    1    2    0  501 -0.63086132115E+02 -0.13219455219E+03 -0.47416161731E+02  0.23084096709E+03  0.17200000000E+03 0. -1.
</event>
<event>
 4    1  0.8483901E-001  0.1958487E+03  0.7818608E-02  0.1153289E+00
          3   -1    0    0  502    0  0.00000000000E+00  0.00000000000E+00  0.13599615486E+03  0.13599615486E+03  0.00000000000E+00 0.  1.
         -3   -1    0    0    0  501 -0.00000000000E+00 -0.00000000000E+00 -0.30553265461E+03  0.30553265461E+03  0.00000000000E+00 0. -1.
          6    1    1    2  502    0  0.80866519205E+01 -0.93313029180E+02 -0.14598099025E+03  0.24426863259E+03  0.17200000000E+03 0. -1.
         -6    1    1    2    0  501 -0.80866519205E+01  0.93313029180E+02 -0.23555509510E+02  0.19726017688E+03  0.17200000000E+03 0.  1.
</event>
<event>
 4    1  0.8483901E-001  0.2258122E+03  0.7818608E-02  0.1129622E+00
         -2   -1    0    0    0  501 -0.00000000000E+00  0.00000000000E+00  0.45043823513E+02  0.45043823513E+02  0.00000000000E+00 0. -1.
          2   -1    0    0  502    0  0.00000000000E+00 -0.00000000000E+00 -0.12318703173E+04  0.12318703173E+04  0.00000000000E+00 0.  1.
          6    1    1    2  502    0 -0.61796766211E+02  0.13262098836E+03 -0.77517067568E+03  0.80739131981E+03  0.17200000000E+03 0.  1.
         -6    1    1    2    0  501  0.61796766211E+02 -0.13262098836E+03 -0.41165581816E+03  0.46952282105E+03  0.17200000000E+03 0.  1.
</event>
<event>
 4    1  0.8483901E-001  0.2518046E+03  0.7818608E-02  0.1112170E+00
          2   -1    0    0  502    0  0.00000000000E+00  0.00000000000E+00  0.75850170864E+03  0.75850170864E+03  0.00000000000E+00 0.  1.
         -2   -1    0    0    0  501 -0.00000000000E+00 -0.00000000000E+00 -0.92127994523E+02  0.92127994523E+02  0.00000000000E+00 0. -1.
          6    1    1    2  502    0  0.18036028880E+03 -0.35940703484E+02  0.20373393809E+03  0.32390289512E+03  0.17200000000E+03 0. -1.
         -6    1    1    2    0  501 -0.18036028880E+03  0.35940703484E+02  0.46263977602E+03  0.52672680803E+03  0.17200000000E+03 0. -1.
</event>
<event>
 4    1  0.8483901E-001  0.2197745E+03  0.7818608E-02  0.1134051E+00
          2   -1    0    0  502    0  0.00000000000E+00  0.00000000000E+00  0.20971856677E+04  0.20971856677E+04  0.00000000000E+00 0.  1.
         -2   -1    0    0    0  501 -0.00000000000E+00 -0.00000000000E+00 -0.34062216771E+02  0.34062216771E+02  0.00000000000E+00 0. -1.
          6    1    1    2  502    0  0.13339916112E+03  0.30356109789E+02  0.16379825343E+04  0.16526607675E+04  0.17200000000E+03 0.  1.
         -6    1    1    2    0  501 -0.13339916112E+03 -0.30356109789E+02  0.42514091664E+03  0.47858711703E+03  0.17200000000E+03 0. -1.
</event>
<event>
 4    1  0.8483901E-001  0.2756619E+03  0.7818608E-02  0.1098082E+00
         -1   -1    0    0    0  501 -0.00000000000E+00  0.00000000000E+00  0.13584394875E+03  0.13584394875E+03  0.00000000000E+00 0. -1.
          1   -1    0    0  502    0  0.00000000000E+00 -0.00000000000E+00 -0.81702905643E+03  0.81702905643E+03  0.00000000000E+00 0.  1.
          6    1    1    2  502    0 -0.21316603936E+03 -0.31075696102E+02 -0.73049358725E+02  0.28517655590E+03  0.17200000000E+03 0. -1.
         -6    1    1    2    0  501  0.21316603936E+03  0.31075696102E+02 -0.60813574895E+03  0.66769644928E+03  0.17200000000E+03 0.  1.
</event>
<event>
 4    1  0.8483901E-001  0.2017534E+03  0.7818608E-02  0.1148268E+00
         -1   -1    0    0    0  501 -0.00000000000E+00  0.00000000000E+00  0.16844444584E+04  0.16844444584E+04  0.00000000000E+00 0. -1.
          1   -1    0    0  502    0  0.00000000000E+00 -0.00000000000E+00 -0.24346530711E+02  0.24346530711E+02  0.00000000000E+00 0.  1.
          6    1    1    2  502    0  0.93997799010E+02  0.47800184340E+02  0.90384390133E+03  0.92608759943E+03  0.17200000000E+03 0. -1.
         -6    1    1    2    0  501 -0.93997799010E+02 -0.47800184340E+02  0.75625402640E+03  0.78270338973E+03  0.17200000000E+03 0.  1.
</event>
<event>
 4    1  0.8483901E-001  0.2506492E+03  0.7818608E-02  0.1112895E+00
          2   -1    0    0  502    0  0.00000000000E+00  0.00000000000E+00  0.10733235641E+04  0.10733235641E+04  0.00000000000E+00 0.  1.
         -2   -1    0    0    0  501 -0.00000000000E+00 -0.00000000000E+00 -0.58536273725E+02  0.58536273725E+02  0.00000000000E+00 0. -1.
          6    1    1    2  502    0 -0.16885848176E+03 -0.68759083529E+02  0.50325287286E+03  0.56221744234E+03  0.17200000000E+03 0.  1.
         -6    1    1    2    0  501  0.16885848176E+03  0.68759083529E+02  0.51153441753E+03  0.56964239550E+03  0.17200000000E+03 0. -1.
</event>
<event>
 4    1  0.8483901E-001  0.2144812E+03  0.7818608E-02  0.1138066E+00
          1   -1    0    0  502    0  0.00000000000E+00  0.00000000000E+00  0.84060908063E+03  0.84060908063E+03  0.00000000000E+00 0.  1.
         -1   -1    0    0    0  501 -0.00000000000E+00 -0.00000000000E+00 -0.74979524824E+02  0.74979524824E+02  0.00000000000E+00 0. -1.
          6    1    1    2  502    0 -0.93585849081E+02  0.87520731976E+02  0.14487783049E+03  0.25882769450E+03  0.17200000000E+03 0. -1.
         -6    1    1    2    0  501  0.93585849081E+02 -0.87520731976E+02  0.62075172531E+03  0.65676091095E+03  0.17200000000E+03 0.  1.
</event>
<event>
 4    1  0.8483901E-001  0.1807036E+03  0.7818608E-02  0.1167124E+00
         -2   -1    0    0    0  501 -0.00000000000E+00  0.00000000000E+00  0.96959206288E+02  0.96959206288E+02  0.00000000000E+00 0.  1.
          2   -1    0    0  502    0  0.00000000000E+00 -0.00000000000E+00 -0.35322552578E+03  0.35322552578E+03  0.00000000000E+00 0. -1.
          6    1    1    2  502    0  0.48299749095E+02 -0.27146202125E+02 -0.79562098124E+02  0.19744343370E+03  0.17200000000E+03 0. -1.
         -6    1    1    2    0  501 -0.48299749095E+02  0.27146202125E+02 -0.17670422136E+03  0.25274129837E+03  0.17200000000E+03 0. -1.
</event>
<event>
 4    1  0.8483901E-001  0.2526753E+03  0.7818608E-02  0.1111626E+00
          1   -1    0    0  502    0  0.00000000000E+00  0.00000000000E+00  0.58709036959E+03  0.58709036959E+03  0.00000000000E+00 0.  1.
         -1   -1    0    0    0  501 -0.00000000000E+00 -0.00000000000E+00 -0.21811368407E+03  0.21811368407E+03  0.00000000000E+00 0. -1.
          6    1    1    2  502    0 -0.42430254521E+02  0.18016795659E+03 -0.10059728452E+03  0.27196439608E+03  0.17200000000E+03 0. -1.
         -6    1    1    2    0  501  0.42430254521E+02 -0.18016795659E+03  0.46957397004E+03  0.53323965758E+03  0.17200000000E+03 0.  1.
</event>
<event>
 4    1  0.8483901E-001  0.2928572E+03  0.7818608E-02  0.1088867E+00
          1   -1    0    0  502    0  0.00000000000E+00  0.00000000000E+00  0.17519410588E+04  0.17519410588E+04  0.00000000000E+00 0.  1.
         -1   -1    0    0    0  501 -0.00000000000E+00 -0.00000000000E+00 -0.55491515426E+02  0.55491515426E+02  0.00000000000E+00 0. -1.
          6    1    1    2  502    0  0.23409812339E+03  0.37140570632E+02  0.53804788770E+03  0.61258540859E+03  0.17200000000E+03 0.  1.
         -6    1    1    2    0  501 -0.23409812339E+03 -0.37140570632E+02  0.11584016557E+04  0.11948471657E+04  0.17200000000E+03 0. -1.
</event>
<event>
 4    1  0.8483901E-001  0.1843620E+03  0.7818608E-02  0.1163647E+00
         -1   -1    0    0    0  501 -0.00000000000E+00  0.00000000000E+00  0.21866429504E+02  0.21866429504E+02  0.00000000000E+00 0. -1.
          1   -1    0    0  502    0  0.00000000000E+00 -0.00000000000E+00 -0.16696297005E+04  0.16696297005E+04  0.00000000000E+00 0.  1.
          6    1    1    2  502    0  0.24347829260E+02 -0.61745757926E+02 -0.60170526883E+03  0.62931596670E+03  0.17200000000E+03 0. -1.
         -6    1    1    2    0  501 -0.24347829260E+02  0.61745757926E+02 -0.10460580022E+04  0.10621801633E+04  0.17200000000E+03 0.  1.
</event>
<event>
 4    1  0.8483901E-001  0.1813537E+03  0.7818608E-02  0.1166499E+00
         -2   -1    0    0    0  501 -0.00000000000E+00  0.00000000000E+00  0.57799514753E+02  0.57799514753E+02  0.00000000000E+00 0. -1.
          2   -1    0    0  502    0  0.00000000000E+00 -0.00000000000E+00 -0.89394087419E+03  0.89394087419E+03  0.00000000000E+00 0.  1.
          6    1    1    2  502    0 -0.36592344273E+02  0.44341356371E+02 -0.70496505797E+03  0.72791818805E+03  0.17200000000E+03 0.  1.
         -6    1    1    2    0  501  0.36592344273E+02 -0.44341356371E+02 -0.13117630147E+03  0.22382220089E+03  0.17200000000E+03 0. -1.
</event>
<event>
 4    1  0.8483901E-001  0.1847197E+03  0.7818608E-02  0.1163312E+00
         -2   -1    0    0    0  501 -0.00000000000E+00  0.00000000000E+00  0.41970893415E+02  0.41970893415E+02  0.00000000000E+00 0.  1.
          2   -1    0    0  502    0  0.00000000000E+00 -0.00000000000E+00 -0.12270447722E+04  0.12270447722E+04  0.00000000000E+00 0. -1.
          6    1    1    2  502    0 -0.57903875147E+02 -0.34416659053E+02 -0.96112610966E+03  0.97871587493E+03  0.17200000000E+03 0. -1.
         -6    1    1    2    0  501  0.57903875147E+02  0.34416659053E+02 -0.22394776915E+03  0.29029979071E+03  0.17200000000E+03 0.  1.
</event>
<event>
 4    1  0.8483901E-001  0.2002511E+03  0.7818608E-02  0.1149527E+00
         -1   -1    0    0    0  501 -0.00000000000E+00  0.00000000000E+00  0.48770593438E+03  0.48770593438E+03  0.00000000000E+00 0. -1.
          1   -1    0    0  502    0  0.00000000000E+00 -0.00000000000E+00 -0.90902325642E+02  0.90902325642E+02  0.00000000000E+00 0.  1.
          6    1    1    2  502    0 -0.90740567371E+02 -0.47777153504E+02  0.28779762410E+03  0.35061086606E+03  0.17200000000E+03 0. -1.
         -6    1    1    2    0  501  0.90740567371E+02  0.47777153504E+02  0.10900598463E+03  0.22799739395E+03  0.17200000000E+03 0.  1.
</event>
<event>
 4    1  0.8483901E-001  0.2731574E+03  0.7818608E-02  0.1099486E+00
         -1   -1    0    0    0  501 -0.00000000000E+00  0.00000000000E+00  0.20122794230E+03  0.20122794230E+03  0.00000000000E+00 0.  1.
          1   -1    0    0  502    0  0.00000000000E+00 -0.00000000000E+00 -0.37232809605E+03  0.37232809605E+03  0.00000000000E+00 0. -1.
          6    1    1    2  502    0 -0.20589332546E+03  0.51370469262E+02 -0.10393214276E+03  0.29226165825E+03  0.17200000000E+03 0.  1.
         -6    1    1    2    0  501  0.20589332546E+03 -0.51370469262E+02 -0.67168010979E+02  0.28129438011E+03  0.17200000000E+03 0.  1.
</event>
<event>
 4    1  0.8483901E-001  0.1756331E+03  0.7818608E-02  0.1172098E+00
          1   -1    0    0  502    0  0.00000000000E+00  0.00000000000E+00  0.67969864659E+03  0.67969864659E+03  0.00000000000E+00 0.  1.
         -1   -1    0    0    0  501 -0.00000000000E+00 -0.00000000000E+00 -0.60548760325E+02  0.60548760325E+02  0.00000000000E+00 0. -1.
          6    1    1    2  502    0  0.34389451306E+02  0.89636907037E+01  0.12434049159E+03  0.21519186779E+03  0.17200000000E+03 0. -1.
         -6    1    1    2    0  501 -0.34389451306E+02 -0.89636907037E+01  0.49480939467E+03  0.52505553913E+03  0.17200000000E+03 0.  1.
</event>
<event>
 4    1  0.8483901E-001  0.1814587E+03  0.7818608E-02  0.1166399E+00
         -4   -1    0    0    0  501 -0.00000000000E+00  0.00000000000E+00  0.13826440558E+03  0.13826440558E+03  0.00000000000E+00 0.  1.
          4   -1    0    0  502    0  0.00000000000E+00 -0.00000000000E+00 -0.23836976644E+03  0.23836976644E+03  0.00000000000E+00 0. -1.
          6    1    1    2  502    0  0.57485789961E+02  0.62165251729E+01 -0.44296508509E+02  0.18678715667E+03  0.17200000000E+03 0.  1.
         -6    1    1    2    0  501 -0.57485789961E+02 -0.62165251729E+01 -0.55808852356E+02  0.18984701534E+03  0.17200000000E+03 0.  1.
</event>
<event>
 4    1  0.8483901E-001  0.1878293E+03  0.7818608E-02  0.1160434E+00
         -1   -1    0    0    0  501 -0.00000000000E+00  0.00000000000E+00  0.17528668678E+03  0.17528668678E+03  0.00000000000E+00 0. -1.
          1   -1    0    0  502    0  0.00000000000E+00 -0.00000000000E+00 -0.20134802453E+03  0.20134802453E+03  0.00000000000E+00 0.  1.
          6    1    1    2  502    0 -0.57475246434E+02  0.48912579291E+02 -0.93091021072E+01  0.18805984087E+03  0.17200000000E+03 0. -1.
         -6    1    1    2    0  501  0.57475246434E+02 -0.48912579291E+02 -0.16752235643E+02  0.18857487045E+03  0.17200000000E+03 0. -1.
</event>
<event>
 4    1  0.8483901E-001  0.1728061E+03  0.7818608E-02  0.1174953E+00
          2   -1    0    0  502    0  0.00000000000E+00  0.00000000000E+00  0.13939779614E+04  0.13939779614E+04  0.00000000000E+00 0. -1.
         -2   -1    0    0    0  501 -0.00000000000E+00 -0.00000000000E+00 -0.23603486846E+02  0.23603486846E+02  0.00000000000E+00 0.  1.
          6    1    1    2  502    0 -0.15621180888E+02 -0.58246890744E+01  0.46971299641E+03  0.50049200522E+03  0.17200000000E+03 0.  1.
         -6    1    1    2    0  501  0.15621180888E+02  0.58246890744E+01  0.90066147819E+03  0.91708944307E+03  0.17200000000E+03 0. -1.
</event>
<event>
 4    1  0.8483901E-001  0.2267922E+03  0.7818608E-02  0.1128918E+00
         -2   -1    0    0    0  501 -0.00000000000E+00  0.00000000000E+00  0.39152569645E+03  0.39152569645E+03  0.00000000000E+00 0.  1.
          2   -1    0    0  502    0  0.00000000000E+00 -0.00000000000E+00 -0.14741651435E+03  0.14741651435E+03  0.00000000000E+00 0. -1.
          6    1    1    2  502    0  0.14529350728E+03 -0.27211928187E+02  0.21096053926E+03  0.30974028059E+03  0.17200000000E+03 0. -1.
         -6    1    1    2    0  501 -0.14529350728E+03  0.27211928187E+02  0.33148642843E+02  0.22920193022E+03  0.17200000000E+03 0. -1.
</event>
<event>
 4    1  0.8483901E-001  0.1846591E+03  0.7818608E-02  0.1163369E+00
         -2   -1    0    0    0  501 -0.00000000000E+00  0.00000000000E+00  0.26490298799E+03  0.26490298799E+03  0.00000000000E+00 0.  1.
          2   -1    0    0  502    0  0.00000000000E+00 -0.00000000000E+00 -0.15126535746E+03  0.15126535746E+03  0.00000000000E+00 0. -1.
          6    1    1    2  502    0  0.17080644820E+02  0.64986280444E+02  0.13714814587E+03  0.23001864922E+03  0.17200000000E+03 0.  1.
         -6    1    1    2    0  501 -0.17080644820E+02 -0.64986280444E+02 -0.23510515341E+02  0.18614969623E+03  0.17200000000E+03 0. -1.
</event>
<event>
 4    1  0.8483901E-001  0.3744071E+03  0.7818608E-02  0.1053021E+00
         -2   -1    0    0    0  501 -0.00000000000E+00  0.00000000000E+00  0.60493857409E+02  0.60493857409E+02  0.00000000000E+00 0. -1.
          2   -1    0    0  502    0  0.00000000000E+00 -0.00000000000E+00 -0.33934119940E+04  0.33934119940E+04  0.00000000000E+00 0.  1.
          6    1    1    2  502    0  0.23151739284E+03 -0.23873906561E+03 -0.26389752763E+04  0.26654026251E+04  0.17200000000E+03 0.  1.
         -6    1    1    2    0  501 -0.23151739284E+03  0.23873906561E+03 -0.69394286021E+03  0.78850322629E+03  0.17200000000E+03 0. -1.
</event>
<event>
 4    1  0.8483901E-001  0.1773478E+03  0.7818608E-02  0.1170395E+00
         -2   -1    0    0    0  501 -0.00000000000E+00  0.00000000000E+00  0.79421259321E+01  0.79421259321E+01  0.00000000000E+00 0.  1.
          2   -1    0    0  502    0  0.00000000000E+00 -0.00000000000E+00 -0.40257363599E+04  0.40257363599E+04  0.00000000000E+00 0. -1.
          6    1    1    2  502    0 -0.29714577677E+02  0.31389522186E+02 -0.17515306972E+04  0.17604863083E+04  0.17200000000E+03 0.  1.
         -6    1    1    2    0  501  0.29714577677E+02 -0.31389522186E+02 -0.22662635367E+04  0.22731921775E+04  0.17200000000E+03 0.  1.
</event>
<event>
 4    1  0.8483901E-001  0.1808192E+03  0.7818608E-02  0.1167013E+00
          4   -1    0    0  502    0  0.00000000000E+00  0.00000000000E+00  0.26001979857E+02  0.26001979857E+02  0.00000000000E+00 0.  1.
         -4   -1    0    0    0  501 -0.00000000000E+00 -0.00000000000E+00 -0.12724332185E+04  0.12724332185E+04  0.00000000000E+00 0. -1.
          6    1    1    2  502    0 -0.12375952379E+02  0.54391259552E+02 -0.55271084069E+03  0.58153662544E+03  0.17200000000E+03 0. -1.
         -6    1    1    2    0  501  0.12375952379E+02 -0.54391259552E+02 -0.69372039795E+03  0.71689857292E+03  0.17200000000E+03 0. -1.
</event>
<event>
 4    1  0.8483901E-001  0.2025754E+03  0.7818608E-02  0.1147584E+00
         -2   -1    0    0    0  501 -0.00000000000E+00  0.00000000000E+00  0.38300039335E+02  0.38300039335E+02  0.00000000000E+00 0.  1.
          2   -1    0    0  502    0  0.00000000000E+00 -0.00000000000E+00 -0.10821065815E+04  0.10821065815E+04  0.00000000000E+00 0. -1.
          6    1    1    2  502    0 -0.65623987372E+02 -0.84535604647E+02 -0.57748265064E+03  0.61198283306E+03  0.17200000000E+03 0. -1.
         -6    1    1    2    0  501  0.65623987372E+02  0.84535604647E+02 -0.46632389157E+03  0.50842378782E+03  0.17200000000E+03 0.  1.
</event>
<event>
 4    1  0.8483901E-001  0.3373737E+03  0.7818608E-02  0.1067920E+00
         -1   -1    0    0    0  501 -0.00000000000E+00  0.00000000000E+00  0.15696053108E+04  0.15696053108E+04  0.00000000000E+00 0.  1.
          1   -1    0    0  502    0  0.00000000000E+00 -0.00000000000E+00 -0.74961957301E+02  0.74961957301E+02  0.00000000000E+00 0. -1.
          6    1    1    2  502    0 -0.27177729390E+03 -0.10185324511E+03  0.59877774907E+03  0.68728143711E+03  0.17200000000E+03 0. -1.
         -6    1    1    2    0  501  0.27177729390E+03  0.10185324511E+03  0.89586560448E+03  0.95728583104E+03  0.17200000000E+03 0.  1.
</event>
<event>
 4    1  0.8483901E-001  0.2068675E+03  0.7818608E-02  0.1144071E+00
         -2   -1    0    0    0  501 -0.00000000000E+00  0.00000000000E+00  0.11213818272E+03  0.11213818272E+03  0.00000000000E+00 0. -1.
          2   -1    0    0  502    0  0.00000000000E+00 -0.00000000000E+00 -0.43343728739E+03  0.43343728739E+03  0.00000000000E+00 0.  1.
          6    1    1    2  502    0 -0.98157369819E+02 -0.59793909358E+02 -0.25496845940E+03  0.32833381814E+03  0.17200000000E+03 0. -1.
         -6    1    1    2    0  501  0.98157369819E+02  0.59793909358E+02 -0.66330645262E+02  0.21724165196E+03  0.17200000000E+03 0. -1.
</event>
<event>
 4    1  0.8483901E-001  0.1953952E+03  0.7818608E-02  0.1153683E+00
          1   -1    0    0  502    0  0.00000000000E+00  0.00000000000E+00  0.23451305741E+03  0.23451305741E+03  0.00000000000E+00 0. -1.
         -1   -1    0    0    0  501 -0.00000000000E+00 -0.00000000000E+00 -0.22149399560E+03  0.22149399560E+03  0.00000000000E+00 0.  1.
          6    1    1    2  502    0  0.91994362654E+02 -0.11502295300E+02  0.12387731546E+03  0.23135439231E+03  0.17200000000E+03 0. -1.
         -6    1    1    2    0  501 -0.91994362654E+02  0.11502295300E+02 -0.11085825365E+03  0.22465266070E+03  0.17200000000E+03 0.  1.
</event>
<event>
 4    1  0.8483901E-001  0.1735872E+03  0.7818608E-02  0.1174158E+00
          1   -1    0    0  502    0  0.00000000000E+00  0.00000000000E+00  0.17178892613E+04  0.17178892613E+04  0.00000000000E+00 0. -1.
         -1   -1    0    0    0  501 -0.00000000000E+00 -0.00000000000E+00 -0.22467180141E+02  0.22467180141E+02  0.00000000000E+00 0.  1.
          6    1    1    2  502    0 -0.19890282968E+02 -0.12365638601E+02  0.44022401723E+03  0.47321212761E+03  0.17200000000E+03 0.  1.
         -6    1    1    2    0  501  0.19890282968E+02  0.12365638601E+02  0.12551980639E+04  0.12671443138E+04  0.17200000000E+03 0. -1.
</event>
<event>
 4    1  0.8483901E-001  0.2569692E+03  0.7818608E-02  0.1108978E+00
          2   -1    0    0  502    0  0.00000000000E+00  0.00000000000E+00  0.44899944166E+03  0.44899944166E+03  0.00000000000E+00 0.  1.
         -2   -1    0    0    0  501 -0.00000000000E+00 -0.00000000000E+00 -0.14760304571E+03  0.14760304571E+03  0.00000000000E+00 0. -1.
          6    1    1    2  502    0  0.41194009212E+02  0.18641950617E+03  0.13272820718E+03  0.28922302062E+03  0.17200000000E+03 0.  1.
         -6    1    1    2    0  501 -0.41194009212E+02 -0.18641950617E+03  0.16866818877E+03  0.30737946675E+03  0.17200000000E+03 0. -1.
</event>
<event>
 4    1  0.8483901E-001  0.1820652E+03  0.7818608E-02  0.1165819E+00
          2   -1    0    0  502    0  0.00000000000E+00  0.00000000000E+00  0.47053195040E+03  0.47053195040E+03  0.00000000000E+00 0. -1.
         -2   -1    0    0    0  501 -0.00000000000E+00 -0.00000000000E+00 -0.82900539318E+02  0.82900539318E+02  0.00000000000E+00 0.  1.
          6    1    1    2  502    0  0.45525572148E+02  0.38615730462E+02  0.86566173229E+02  0.20159725868E+03  0.17200000000E+03 0.  1.
         -6    1    1    2    0  501 -0.45525572148E+02 -0.38615730462E+02  0.30106523786E+03  0.35183523105E+03  0.17200000000E+03 0.  1.
</event>
<event>
 4    1  0.8483901E-001  0.2228442E+03  0.7818608E-02  0.1131780E+00
         -1   -1    0    0    0  501 -0.00000000000E+00  0.00000000000E+00  0.57417283633E+03  0.57417283633E+03  0.00000000000E+00 0. -1.
          1   -1    0    0  502    0  0.00000000000E+00 -0.00000000000E+00 -0.98140963852E+02  0.98140963852E+02  0.00000000000E+00 0.  1.
          6    1    1    2  502    0  0.12450241608E+03  0.67636371845E+02  0.12218626818E+03  0.25414368876E+03  0.17200000000E+03 0.  1.
         -6    1    1    2    0  501 -0.12450241608E+03 -0.67636371845E+02  0.35384560429E+03  0.41817011142E+03  0.17200000000E+03 0. -1.
</event>
<event>
 4    1  0.8483901E-001  0.2441549E+03  0.7818608E-02  0.1117056E+00
         -1   -1    0    0    0  501 -0.00000000000E+00  0.00000000000E+00  0.17308182485E+03  0.17308182485E+03  0.00000000000E+00 0.  1.
          1   -1    0    0  502    0  0.00000000000E+00 -0.00000000000E+00 -0.75590550423E+03  0.75590550423E+03  0.00000000000E+00 0. -1.
          6    1    1    2  502    0 -0.13378718556E+03  0.11012984384E+03  0.51298429463E+02  0.24948571581E+03  0.17200000000E+03 0.  1.
         -6    1    1    2    0  501  0.13378718556E+03 -0.11012984384E+03 -0.63412210884E+03  0.67950161328E+03  0.17200000000E+03 0. -1.
</event>
<event>
 4    1  0.8483901E-001  0.1860828E+03  0.7818608E-02  0.1162043E+00
         -1   -1    0    0    0  501 -0.00000000000E+00  0.00000000000E+00  0.12045066762E+03  0.12045066762E+03  0.00000000000E+00 0. -1.
          1   -1    0    0  502    0  0.00000000000E+00 -0.00000000000E+00 -0.47467609256E+03  0.47467609256E+03  0.00000000000E+00 0.  1.
          6    1    1    2  502    0 -0.70414090905E+02  0.92003251860E+01 -0.36397976484E+03  0.40878852650E+03  0.17200000000E+03 0.  1.
         -6    1    1    2    0  501  0.70414090905E+02 -0.92003251860E+01  0.97543399025E+01  0.18633823367E+03  0.17200000000E+03 0. -1.
</event>
<event>
 4    1  0.8483901E-001  0.1768899E+03  0.7818608E-02  0.1170847E+00
          4   -1    0    0  502    0  0.00000000000E+00  0.00000000000E+00  0.11824114199E+03  0.11824114199E+03  0.00000000000E+00 0.  1.
         -4   -1    0    0    0  501 -0.00000000000E+00 -0.00000000000E+00 -0.40037205642E+03  0.40037205642E+03  0.00000000000E+00 0. -1.
          6    1    1    2  502    0  0.34699222963E+02  0.22404996715E+02 -0.29205285760E+03  0.34144529808E+03  0.17200000000E+03 0. -1.
         -6    1    1    2    0  501 -0.34699222963E+02 -0.22404996715E+02  0.99219431602E+01  0.17716790033E+03  0.17200000000E+03 0.  1.
</event>
<event>
 4    1  0.8483901E-001  0.2091161E+03  0.7818608E-02  0.1142268E+00
          2   -1    0    0  502    0  0.00000000000E+00  0.00000000000E+00  0.60790241838E+02  0.60790241838E+02  0.00000000000E+00 0. -1.
         -2   -1    0    0    0  501 -0.00000000000E+00 -0.00000000000E+00 -0.94799411289E+03  0.94799411289E+03  0.00000000000E+00 0.  1.
          6    1    1    2  502    0  0.93977031527E+02 -0.72896175232E+02 -0.69131241078E+03  0.72224814580E+03  0.17200000000E+03 0.  1.
         -6    1    1    2    0  501 -0.93977031527E+02  0.72896175232E+02 -0.19589146028E+03  0.28653620893E+03  0.17200000000E+03 0. -1.
</event>
<event>
 4    1  0.8483901E-001  0.4193062E+03  0.7818608E-02  0.1037292E+00
          2   -1    0    0  502    0  0.00000000000E+00  0.00000000000E+00  0.14857019148E+04  0.14857019148E+04  0.00000000000E+00 0.  1.
         -2   -1    0    0    0  501 -0.00000000000E+00 -0.00000000000E+00 -0.12378292958E+03  0.12378292958E+03  0.00000000000E+00 0. -1.
          6    1    1    2  502    0 -0.22151901109E+02  0.38176297079E+03  0.51220679801E+03  0.66194673239E+03  0.17200000000E+03 0.  1.
         -6    1    1    2    0  501  0.22151901109E+02 -0.38176297079E+03  0.84971218724E+03  0.94753811202E+03  0.17200000000E+03 0. -1.
</event>
<event>
 4    1  0.8483901E-001  0.3025936E+03  0.7818608E-02  0.1083951E+00
          2   -1    0    0  502    0  0.00000000000E+00  0.00000000000E+00  0.22264584118E+04  0.22264584118E+04  0.00000000000E+00 0. -1.
         -2   -1    0    0    0  501 -0.00000000000E+00 -0.00000000000E+00 -0.41153875496E+02  0.41153875496E+02  0.00000000000E+00 0.  1.
          6    1    1    2  502    0 -0.12865156166E+03 -0.21313766106E+03  0.10625690589E+04  0.11048148676E+04  0.17200000000E+03 0. -1.
         -6    1    1    2    0  501  0.12865156166E+03  0.21313766106E+03  0.11227354774E+04  0.11627974196E+04  0.17200000000E+03 0.  1.
</event>
<event>
 4    1  0.8483901E-001  0.1818884E+03  0.7818608E-02  0.1165988E+00
         -2   -1    0    0    0  501 -0.00000000000E+00  0.00000000000E+00  0.10166412433E+03  0.10166412433E+03  0.00000000000E+00 0. -1.
          2   -1    0    0  502    0  0.00000000000E+00 -0.00000000000E+00 -0.33635871387E+03  0.33635871387E+03  0.00000000000E+00 0.  1.
          6    1    1    2  502    0 -0.45356276793E+02  0.37976192251E+02 -0.15684565528E+03  0.24017481675E+03  0.17200000000E+03 0.  1.
         -6    1    1    2    0  501  0.45356276793E+02 -0.37976192251E+02 -0.77848934263E+02  0.19784802144E+03  0.17200000000E+03 0. -1.
</event>
<event>
 4    1  0.8483901E-001  0.3646041E+03  0.7818608E-02  0.1056776E+00
         -2   -1    0    0    0  501 -0.00000000000E+00  0.00000000000E+00  0.14729318238E+03  0.14729318238E+03  0.00000000000E+00 0. -1.
          2   -1    0    0  502    0  0.00000000000E+00 -0.00000000000E+00 -0.10650633312E+04  0.10650633312E+04  0.00000000000E+00 0.  1.
          6    1    1    2  502    0 -0.35354294066E+00 -0.32148408468E+03 -0.22208204689E+03  0.42691518741E+03  0.17200000000E+03 0. -1.
         -6    1    1    2    0  501  0.35354294066E+00  0.32148408468E+03 -0.69568810192E+03  0.78544132616E+03  0.17200000000E+03 0.  1.
</event>
<event>
 4    1  0.8483901E-001  0.2493412E+03  0.7818608E-02  0.1113722E+00
          3   -1    0    0  502    0  0.00000000000E+00  0.00000000000E+00  0.10130340269E+03  0.10130340269E+03  0.00000000000E+00 0.  1.
         -3   -1    0    0    0  501 -0.00000000000E+00 -0.00000000000E+00 -0.70759175187E+03  0.70759175187E+03  0.00000000000E+00 0. -1.
          6    1    1    2  502    0  0.13795568500E+03  0.11642699523E+03 -0.45046327321E+03  0.51486714476E+03  0.17200000000E+03 0. -1.
         -6    1    1    2    0  501 -0.13795568500E+03 -0.11642699523E+03 -0.15582507597E+03  0.29402800980E+03  0.17200000000E+03 0.  1.
</event>
<event>
 4    1  0.8483901E-001  0.2071538E+03  0.7818608E-02  0.1143840E+00
          1   -1    0    0  502    0  0.00000000000E+00  0.00000000000E+00  0.14020984145E+04  0.14020984145E+04  0.00000000000E+00 0.  1.
         -1   -1    0    0    0  501 -0.00000000000E+00 -0.00000000000E+00 -0.32181798768E+02  0.32181798768E+02  0.00000000000E+00 0. -1.
          6    1    1    2  502    0 -0.10094943951E+03  0.56017166520E+02  0.52627159541E+03  0.56557449060E+03  0.17200000000E+03 0.  1.
         -6    1    1    2    0  501  0.10094943951E+03 -0.56017166520E+02  0.84364502031E+03  0.86870572265E+03  0.17200000000E+03 0. -1.
</event>
<event>
 4    1  0.8483901E-001  0.2762053E+03  0.7818608E-02  0.1097780E+00
          2   -1    0    0  502    0  0.00000000000E+00  0.00000000000E+00  0.21813411594E+04  0.21813411594E+04  0.00000000000E+00 0. -1.
         -2   -1    0    0    0  501 -0.00000000000E+00 -0.00000000000E+00 -0.39283907993E+02  0.39283907993E+02  0.00000000000E+00 0.  1.
          6    1    1    2  502    0  0.20899373689E+03 -0.55018293222E+02  0.70324609761E+03  0.75554249944E+03  0.17200000000E+03 0.  1.
         -6    1    1    2    0  501 -0.20899373689E+03  0.55018293222E+02  0.14388111538E+04  0.14650825680E+04  0.17200000000E+03 0. -1.
</event>
<event>
 4    1  0.8483901E-001  0.2612248E+03  0.7818608E-02  0.1106410E+00
         -2   -1    0    0    0  501 -0.00000000000E+00  0.00000000000E+00  0.45935635891E+02  0.45935635891E+02  0.00000000000E+00 0.  1.
          2   -1    0    0  502    0  0.00000000000E+00 -0.00000000000E+00 -0.15799046282E+04  0.15799046282E+04  0.00000000000E+00 0. -1.
          6    1    1    2  502    0  0.17038524305E+03 -0.98098215248E+02 -0.96567578090E+03  0.10003839786E+04  0.17200000000E+03 0. -1.
         -6    1    1    2    0  501 -0.17038524305E+03  0.98098215248E+02 -0.56829321138E+03  0.62545628543E+03  0.17200000000E+03 0.  1.
</event>
<event>
 4    1  0.8483901E-001  0.1928329E+03  0.7818608E-02  0.1155931E+00
          1   -1    0    0  502    0  0.00000000000E+00  0.00000000000E+00  0.15259797339E+03  0.15259797339E+03  0.00000000000E+00 0. -1.
         -1   -1    0    0    0  501 -0.00000000000E+00 -0.00000000000E+00 -0.24596993984E+03  0.24596993984E+03  0.00000000000E+00 0.  1.
          6    1    1    2  502    0 -0.51731904573E+02 -0.70173731117E+02 -0.65929014658E+02  0.20379199558E+03  0.17200000000E+03 0. -1.
         -6    1    1    2    0  501  0.51731904573E+02  0.70173731117E+02 -0.27442951794E+02  0.19477591764E+03  0.17200000000E+03 0. -1.
</event>
<event>
 4    1  0.8483901E-001  0.1720114E+03  0.7818608E-02  0.1175766E+00
         -1   -1    0    0    0  501 -0.00000000000E+00  0.00000000000E+00  0.27587470691E+02  0.27587470691E+02  0.00000000000E+00 0. -1.
          1   -1    0    0  502    0  0.00000000000E+00 -0.00000000000E+00 -0.10734547117E+04  0.10734547117E+04  0.00000000000E+00 0.  1.
          6    1    1    2  502    0 -0.19841808342E+01 -0.14670089766E-01 -0.53923428646E+03  0.56600490535E+03  0.17200000000E+03 0.  1.
         -6    1    1    2    0  501  0.19841808342E+01  0.14670089766E-01 -0.50663295458E+03  0.53503727707E+03  0.17200000000E+03 0. -1.
</event>
<event>
 4    1  0.8483901E-001  0.1971341E+03  0.7818608E-02  0.1152180E+00
          4   -1    0    0  502    0  0.00000000000E+00  0.00000000000E+00  0.87993588803E+02  0.87993588803E+02  0.00000000000E+00 0.  1.
         -4   -1    0    0    0  501 -0.00000000000E+00 -0.00000000000E+00 -0.45196450457E+03  0.45196450457E+03  0.00000000000E+00 0. -1.
          6    1    1    2  502    0  0.60585672754E+02 -0.74881461807E+02 -0.22278209894E+03  0.29747894157E+03  0.17200000000E+03 0. -1.
         -6    1    1    2    0  501 -0.60585672754E+02  0.74881461807E+02 -0.14118881682E+03  0.24247915181E+03  0.17200000000E+03 0.  1.
</event>
<event>
 4    1  0.8483901E-001  0.1856693E+03  0.7818608E-02  0.1162426E+00
         -1   -1    0    0    0  501 -0.00000000000E+00  0.00000000000E+00  0.23841327701E+03  0.23841327701E+03  0.00000000000E+00 0. -1.
          1   -1    0    0  502    0  0.00000000000E+00 -0.00000000000E+00 -0.22364646353E+03  0.22364646353E+03  0.00000000000E+00 0.  1.
          6    1    1    2  502    0 -0.40924046930E+02 -0.56694924785E+02  0.14473865247E+03  0.23541956086E+03  0.17200000000E+03 0. -1.
         -6    1    1    2    0  501  0.40924046930E+02  0.56694924785E+02 -0.12997183900E+03  0.22664017968E+03  0.17200000000E+03 0. -1.
</event>
<event>
 4    1  0.8483901E-001  0.2181310E+03  0.7818608E-02  0.1135284E+00
         -4   -1    0    0    0  501 -0.00000000000E+00  0.00000000000E+00  0.16172288781E+04  0.16172288781E+04  0.00000000000E+00 0.  1.
          4   -1    0    0  502    0  0.00000000000E+00 -0.00000000000E+00 -0.30524023099E+02  0.30524023099E+02  0.00000000000E+00 0. -1.
          6    1    1    2  502    0 -0.28133826166E+02 -0.13117014083E+03  0.94993994678E+03  0.97466251621E+03  0.17200000000E+03 0. -1.
         -6    1    1    2    0  501  0.28133826166E+02  0.13117014083E+03  0.63676490822E+03  0.67309038499E+03  0.17200000000E+03 0. -1.
</event>
<event>
 4    1  0.8483901E-001  0.1770949E+03  0.7818608E-02  0.1170645E+00
         -2   -1    0    0    0  501 -0.00000000000E+00  0.00000000000E+00  0.58609731777E+03  0.58609731777E+03  0.00000000000E+00 0.  1.
          2   -1    0    0  502    0  0.00000000000E+00 -0.00000000000E+00 -0.65530366714E+02  0.65530366714E+02  0.00000000000E+00 0. -1.
          6    1    1    2  502    0 -0.41200912404E+02 -0.90040659568E+01  0.39982100661E+03  0.43728643440E+03  0.17200000000E+03 0.  1.
         -6    1    1    2    0  501  0.41200912404E+02  0.90040659568E+01  0.12074594445E+03  0.21434125008E+03  0.17200000000E+03 0. -1.
</event>
<event>
 4    1  0.8483901E-001  0.2095157E+03  0.7818608E-02  0.1141950E+00
         -2   -1    0    0    0  501 -0.00000000000E+00  0.00000000000E+00  0.13354979401E+03  0.13354979401E+03  0.00000000000E+00 0. -1.
          2   -1    0    0  502    0  0.00000000000E+00 -0.00000000000E+00 -0.41237363701E+03  0.41237363701E+03  0.00000000000E+00 0.  1.
          6    1    1    2  502    0  0.11279852476E+03  0.39866031611E+02 -0.26237372775E+03  0.33576298289E+03  0.17200000000E+03 0.  1.
         -6    1    1    2    0  501 -0.11279852476E+03 -0.39866031611E+02 -0.16450115243E+02  0.21016044813E+03  0.17200000000E+03 0. -1.
</event>
<event>
 4    1  0.8483901E-001  0.1728873E+03  0.7818608E-02  0.1174870E+00
          2   -1    0    0  502    0  0.00000000000E+00  0.00000000000E+00  0.24736555750E+03  0.24736555750E+03  0.00000000000E+00 0. -1.
         -2   -1    0    0    0  501 -0.00000000000E+00 -0.00000000000E+00 -0.13036105120E+03  0.13036105120E+03  0.00000000000E+00 0.  1.
          6    1    1    2  502    0  0.57716173868E+01  0.16513893741E+02  0.10956059223E+03  0.20467912357E+03  0.17200000000E+03 0. -1.
         -6    1    1    2    0  501 -0.57716173868E+01 -0.16513893741E+02  0.74439140732E+01  0.17304748513E+03  0.17200000000E+03 0.  1.
</event>
<event>
 4    1  0.8483901E-001  0.1912136E+03  0.7818608E-02  0.1157371E+00
          1   -1    0    0  502    0  0.00000000000E+00  0.00000000000E+00  0.15147347719E+04  0.15147347719E+04  0.00000000000E+00 0.  1.
         -1   -1    0    0    0  501 -0.00000000000E+00 -0.00000000000E+00 -0.26215969460E+02  0.26215969460E+02  0.00000000000E+00 0. -1.
          6    1    1    2  502    0 -0.30433466396E+02 -0.77797446983E+02  0.96117830456E+03  0.98001345490E+03  0.17200000000E+03 0.  1.
         -6    1    1    2    0  501  0.30433466396E+02  0.77797446983E+02  0.52734049790E+03  0.56093728647E+03  0.17200000000E+03 0. -1.
</event>
<event>
 4    1  0.8483901E-001  0.1725567E+03  0.7818608E-02  0.1175208E+00
         -2   -1    0    0    0  501 -0.00000000000E+00  0.00000000000E+00  0.12405553502E+02  0.12405553502E+02  0.00000000000E+00 0.  1.
          2   -1    0    0  502    0  0.00000000000E+00 -0.00000000000E+00 -0.25047769552E+04  0.25047769552E+04  0.00000000000E+00 0. -1.
          6    1    1    2  502    0  0.87331262543E+01 -0.10749950983E+02 -0.15033525153E+04  0.15132232533E+04  0.17200000000E+03 0. -1.
         -6    1    1    2    0  501 -0.87331262543E+01  0.10749950983E+02 -0.98901888644E+03  0.10039592555E+04  0.17200000000E+03 0.  1.
</event>
<event>
 4    1  0.8483901E-001  0.2809639E+03  0.7818608E-02  0.1095164E+00
         -1   -1    0    0    0  501 -0.00000000000E+00  0.00000000000E+00  0.33490956836E+03  0.33490956836E+03  0.00000000000E+00 0. -1.
          1   -1    0    0  502    0  0.00000000000E+00 -0.00000000000E+00 -0.32628806727E+03  0.32628806727E+03  0.00000000000E+00 0.  1.
          6    1    1    2  502    0 -0.55084581158E+02  0.21522636645E+03  0.17849873682E+03  0.33287009319E+03  0.17200000000E+03 0. -1.
         -6    1    1    2    0  501  0.55084581158E+02 -0.21522636645E+03 -0.16987723573E+03  0.32832754243E+03  0.17200000000E+03 0. -1.
</event>
<event>
 4    1  0.8483901E-001  0.1803363E+03  0.7818608E-02  0.1167478E+00
          1   -1    0    0  502    0  0.00000000000E+00  0.00000000000E+00  0.17480577204E+03  0.17480577204E+03  0.00000000000E+00 0. -1.
         -1   -1    0    0    0  501 -0.00000000000E+00 -0.00000000000E+00 -0.18667160603E+03  0.18667160603E+03  0.00000000000E+00 0.  1.
          6    1    1    2  502    0 -0.49090847826E+02  0.22962616396E+02 -0.16430529245E+02  0.18108328300E+03  0.17200000000E+03 0.  1.
         -6    1    1    2    0  501  0.49090847826E+02 -0.22962616396E+02  0.45646952639E+01  0.18039409507E+03  0.17200000000E+03 0.  1.
</event>
<event>
 4    1  0.8483901E-001  0.1877268E+03  0.7818608E-02  0.1160528E+00
          3   -1    0    0  502    0  0.00000000000E+00  0.00000000000E+00  0.61415046439E+03  0.61415046439E+03  0.00000000000E+00 0. -1.
         -3   -1    0    0    0  501 -0.00000000000E+00 -0.00000000000E+00 -0.58276955723E+02  0.58276955723E+02  0.00000000000E+00 0.  1.
          6    1    1    2  502    0 -0.15241544280E+02 -0.73654932868E+02  0.31959489262E+03  0.37065111520E+03  0.17200000000E+03 0. -1.
         -6    1    1    2    0  501  0.15241544280E+02  0.73654932868E+02  0.23627861604E+03  0.30177630491E+03  0.17200000000E+03 0. -1.
</event>
<event>
 4    1  0.8483901E-001  0.2673828E+03  0.7818608E-02  0.1102787E+00
          2   -1    0    0  502    0  0.00000000000E+00  0.00000000000E+00  0.27901352185E+03  0.27901352185E+03  0.00000000000E+00 0.  1.
         -2   -1    0    0    0  501 -0.00000000000E+00 -0.00000000000E+00 -0.31113539997E+03  0.31113539997E+03  0.00000000000E+00 0. -1.
          6    1    1    2  502    0 -0.42060030068E+02 -0.20035099356E+03 -0.14000823341E+03  0.30182092733E+03  0.17200000000E+03 0. -1.
         -6    1    1    2    0  501  0.42060030068E+02  0.20035099356E+03  0.10788635528E+03  0.28832799449E+03  0.17200000000E+03 0.  1.
</event>
<event>
 4    1  0.8483901E-001  0.1774302E+03  0.7818608E-02  0.1170314E+00
          2   -1    0    0  502    0  0.00000000000E+00  0.00000000000E+00  0.79796551195E+02  0.79796551195E+02  0.00000000000E+00 0. -1.
         -2   -1    0    0    0  501 -0.00000000000E+00 -0.00000000000E+00 -0.42354711957E+03  0.42354711957E+03  0.00000000000E+00 0.  1.
          6    1    1    2  502    0 -0.13386592735E+01  0.43539381540E+02 -0.10599232115E+03  0.20667811180E+03  0.17200000000E+03 0. -1.
         -6    1    1    2    0  501  0.13386592735E+01 -0.43539381540E+02 -0.23775824723E+03  0.29666555897E+03  0.17200000000E+03 0. -1.
</event>
<event>
 4    1  0.8483901E-001  0.1928374E+03  0.7818608E-02  0.1155927E+00
          2   -1    0    0  502    0  0.00000000000E+00  0.00000000000E+00  0.88917473659E+03  0.88917473659E+03  0.00000000000E+00 0.  1.
         -2   -1    0    0    0  501 -0.00000000000E+00 -0.00000000000E+00 -0.42690731383E+02  0.42690731383E+02  0.00000000000E+00 0. -1.
          6    1    1    2  502    0 -0.19233974786E+02 -0.85042993843E+02  0.35674125138E+03  0.40552506337E+03  0.17200000000E+03 0. -1.
         -6    1    1    2    0  501  0.19233974786E+02  0.85042993843E+02  0.48974275383E+03  0.52634040460E+03  0.17200000000E+03 0.  1.
</event>
<event>
 4    1  0.8483901E-001  0.1858797E+03  0.7818608E-02  0.1162231E+00
         -2   -1    0    0    0  501 -0.00000000000E+00  0.00000000000E+00  0.11831151363E+03  0.11831151363E+03  0.00000000000E+00 0. -1.
          2   -1    0    0  502    0  0.00000000000E+00 -0.00000000000E+00 -0.31422593309E+03  0.31422593309E+03  0.00000000000E+00 0.  1.
          6    1    1    2  502    0  0.70024731174E+02  0.79885091549E+01 -0.15542783184E+03  0.24229958763E+03  0.17200000000E+03 0.  1.
         -6    1    1    2    0  501 -0.70024731174E+02 -0.79885091549E+01 -0.40486587606E+02  0.19023785909E+03  0.17200000000E+03 0.  1.
</event>
<event>
 4    1  0.8483901E-001  0.2007257E+03  0.7818608E-02  0.1149128E+00
         -2   -1    0    0    0  501 -0.00000000000E+00  0.00000000000E+00  0.48888208089E+03  0.48888208089E+03  0.00000000000E+00 0.  1.
          2   -1    0    0  502    0  0.00000000000E+00 -0.00000000000E+00 -0.82618422386E+02  0.82618422386E+02  0.00000000000E+00 0. -1.
          6    1    1    2  502    0 -0.10121046531E+03 -0.21523470519E+02  0.21733928123E+03  0.29584993027E+03  0.17200000000E+03 0. -1.
         -6    1    1    2    0  501  0.10121046531E+03  0.21523470519E+02  0.18892437727E+03  0.27565057301E+03  0.17200000000E+03 0. -1.
</event>
<event>
 4    1  0.8483901E-001  0.1807184E+03  0.7818608E-02  0.1167110E+00
          1   -1    0    0  502    0  0.00000000000E+00  0.00000000000E+00  0.11696151142E+03  0.11696151142E+03  0.00000000000E+00 0.  1.
         -1   -1    0    0    0  501 -0.00000000000E+00 -0.00000000000E+00 -0.31473653159E+03  0.31473653159E+03  0.00000000000E+00 0. -1.
          6    1    1    2  502    0 -0.22239219475E+02  0.50799282851E+02 -0.17138639090E+03  0.24906313458E+03  0.17200000000E+03 0. -1.
         -6    1    1    2    0  501  0.22239219475E+02 -0.50799282851E+02 -0.26388629262E+02  0.18263490843E+03  0.17200000000E+03 0.  1.
</event>
<event>
 4    1  0.8483901E-001  0.1889262E+03  0.7818608E-02  0.1159433E+00
          1   -1    0    0  502    0  0.00000000000E+00  0.00000000000E+00  0.27881844578E+02  0.27881844578E+02  0.00000000000E+00 0. -1.
         -1   -1    0    0    0  501 -0.00000000000E+00 -0.00000000000E+00 -0.12813725185E+04  0.12813725185E+04  0.00000000000E+00 0.  1.
          6    1    1    2  502    0 -0.58675192839E+02  0.51636356794E+02 -0.64692144959E+03  0.67394395430E+03  0.17200000000E+03 0.  1.
         -6    1    1    2    0  501  0.58675192839E+02 -0.51636356794E+02 -0.60656922436E+03  0.63531040881E+03  0.17200000000E+03 0. -1.
</event>
<event>
 4    1  0.8483901E-001  0.1927309E+03  0.7818608E-02  0.1156021E+00
          2   -1    0    0  502    0  0.00000000000E+00  0.00000000000E+00  0.81906678218E+03  0.81906678218E+03  0.00000000000E+00 0.  1.
         -2   -1    0    0    0  501 -0.00000000000E+00 -0.00000000000E+00 -0.47708937345E+02  0.47708937345E+02  0.00000000000E+00 0. -1.
          6    1    1    2  502    0  0.73487928061E+02 -0.46483500309E+02  0.28932321755E+03  0.34763934700E+03  0.17200000000E+03 0. -1.
         -6    1    1    2    0  501 -0.73487928061E+02  0.46483500309E+02  0.48203462728E+03  0.51913637252E+03  0.17200000000E+03 0.  1.
</event>
<event>
 4    1  0.8483901E-001  0.1983177E+03  0.7818608E-02  0.1151166E+00
          1   -1    0    0  502    0  0.00000000000E+00  0.00000000000E+00  0.53992298855E+03  0.53992298855E+03  0.00000000000E+00 0.  1.
         -1   -1    0    0    0  501 -0.00000000000E+00 -0.00000000000E+00 -0.73361669611E+02  0.73361669611E+02  0.00000000000E+00 0. -1.
          6    1    1    2  502    0 -0.93822964036E+02 -0.30711188763E+02  0.25904969530E+03  0.32624633382E+03  0.17200000000E+03 0. -1.
         -6    1    1    2    0  501  0.93822964036E+02  0.30711188763E+02  0.20751162365E+03  0.28703832435E+03  0.17200000000E+03 0. -1.
</event>
<event>
 4    1  0.8483901E-001  0.1887114E+03  0.7818608E-02  0.1159629E+00
          1   -1    0    0  502    0  0.00000000000E+00  0.00000000000E+00  0.23940614167E+04  0.23940614167E+04  0.00000000000E+00 0. -1.
         -1   -1    0    0    0  501 -0.00000000000E+00 -0.00000000000E+00 -0.16186343788E+02  0.16186343788E+02  0.00000000000E+00 0.  1.
          6    1    1    2  502    0  0.49156280204E+02 -0.60097122173E+02  0.84593917320E+03  0.86673242049E+03  0.17200000000E+03 0.  1.
         -6    1    1    2    0  501 -0.49156280204E+02  0.60097122173E+02  0.15319358997E+04  0.15435153400E+04  0.17200000000E+03 0. -1.
</event>
<event>
 4    1  0.8483901E-001  0.2367400E+03  0.7818608E-02  0.1121984E+00
          2   -1    0    0  502    0  0.00000000000E+00  0.00000000000E+00  0.24920718215E+03  0.24920718215E+03  0.00000000000E+00 0.  1.
         -2   -1    0    0    0  501 -0.00000000000E+00 -0.00000000000E+00 -0.39531298766E+03  0.39531298766E+03  0.00000000000E+00 0. -1.
          6    1    1    2  502    0 -0.87359815750E+02 -0.13722282090E+03  0.13853541911E+03  0.27429528310E+03  0.17200000000E+03 0.  1.
         -6    1    1    2    0  501  0.87359815750E+02  0.13722282090E+03 -0.28464122462E+03  0.37022488671E+03  0.17200000000E+03 0. -1.
</event>
<event>
 4    1  0.8483901E-001  0.1939674E+03  0.7818608E-02  0.1154931E+00
         -2   -1    0    0    0  501 -0.00000000000E+00  0.00000000000E+00  0.30504655244E+02  0.30504655244E+02  0.00000000000E+00 0. -1.
          2   -1    0    0  502    0  0.00000000000E+00 -0.00000000000E+00 -0.15455431142E+04  0.15455431142E+04  0.00000000000E+00 0.  1.
          6    1    1    2  502    0 -0.89016789591E+02 -0.10739840912E+02 -0.40335802793E+03  0.44757237594E+03  0.17200000000E+03 0. -1.
         -6    1    1    2    0  501  0.89016789591E+02  0.10739840912E+02 -0.11116804310E+04  0.11284753935E+04  0.17200000000E+03 0. -1.
</event>
<event>
 4    1  0.8483901E-001  0.2410560E+03  0.7818608E-02  0.1119091E+00
         -2   -1    0    0    0  501 -0.00000000000E+00  0.00000000000E+00  0.92782322639E+02  0.92782322639E+02  0.00000000000E+00 0. -1.
          2   -1    0    0  502    0  0.00000000000E+00 -0.00000000000E+00 -0.66305142705E+03  0.66305142705E+03  0.00000000000E+00 0.  1.
          6    1    1    2  502    0  0.14789020217E+03 -0.81562687161E+02 -0.37412854304E+03  0.44506196260E+03  0.17200000000E+03 0.  1.
         -6    1    1    2    0  501 -0.14789020217E+03  0.81562687161E+02 -0.19614056137E+03  0.31077178709E+03  0.17200000000E+03 0.  1.
</event>
<event>
 4    1  0.8483901E-001  0.2417003E+03  0.7818608E-02  0.1118665E+00
         -2   -1    0    0    0  501 -0.00000000000E+00  0.00000000000E+00  0.54380951463E+02  0.54380951463E+02  0.00000000000E+00 0.  1.
          2   -1    0    0  502    0  0.00000000000E+00 -0.00000000000E+00 -0.11158120781E+04  0.11158120781E+04  0.00000000000E+00 0. -1.
          6    1    1    2  502    0 -0.87097972308E+02  0.14577032432E+03 -0.41780070334E+03  0.48267636356E+03  0.17200000000E+03 0.  1.
         -6    1    1    2    0  501  0.87097972308E+02 -0.14577032432E+03 -0.64363042329E+03  0.68751666600E+03  0.17200000000E+03 0. -1.
</event>
<event>
 4    1  0.8483901E-001  0.1725068E+03  0.7818608E-02  0.1175259E+00
          1   -1    0    0  502    0  0.00000000000E+00  0.00000000000E+00  0.12678676200E+04  0.12678676200E+04  0.00000000000E+00 0. -1.
         -1   -1    0    0    0  501 -0.00000000000E+00 -0.00000000000E+00 -0.24213032719E+02  0.24213032719E+02  0.00000000000E+00 0.  1.
          6    1    1    2  502    0  0.75838483772E+01  0.10821205563E+02  0.50876106811E+03  0.53721172518E+03  0.17200000000E+03 0.  1.
         -6    1    1    2    0  501 -0.75838483772E+01 -0.10821205563E+02  0.73489351921E+03  0.75486892758E+03  0.17200000000E+03 0. -1.
</event>
<event>
 4    1  0.8483901E-001  0.1801249E+03  0.7818608E-02  0.1167682E+00
         -2   -1    0    0    0  501 -0.00000000000E+00  0.00000000000E+00  0.43319442577E+02  0.43319442577E+02  0.00000000000E+00 0.  1.
          2   -1    0    0  502    0  0.00000000000E+00 -0.00000000000E+00 -0.96496962232E+03  0.96496962232E+03  0.00000000000E+00 0. -1.
          6    1    1    2  502    0 -0.20928913508E+02 -0.49223682110E+02 -0.69934470549E+03  0.72216896042E+03  0.17200000000E+03 0. -1.
         -6    1    1    2    0  501  0.20928913508E+02  0.49223682110E+02 -0.22230547425E+03  0.28612010447E+03  0.17200000000E+03 0.  1.
</event>
<event>
 4    1  0.8483901E-001  0.1729690E+03  0.7818608E-02  0.1174787E+00
         -2   -1    0    0    0  501 -0.00000000000E+00  0.00000000000E+00  0.98915075051E+01  0.98915075051E+01  0.00000000000E+00 0. -1.
          2   -1    0    0  502    0  0.00000000000E+00 -0.00000000000E+00 -0.31633851848E+04  0.31633851848E+04  0.00000000000E+00 0.  1.
          6    1    1    2  502    0 -0.39184480275E+01 -0.17858305928E+02 -0.12444646517E+04  0.12564276910E+04  0.17200000000E+03 0. -1.
         -6    1    1    2    0  501  0.39184480275E+01  0.17858305928E+02 -0.19090290256E+04  0.19168490013E+04  0.17200000000E+03 0.  1.
</event>
<event>
 4    1  0.8483901E-001  0.1746187E+03  0.7818608E-02  0.1173115E+00
         -2   -1    0    0    0  501 -0.00000000000E+00  0.00000000000E+00  0.16572836825E+04  0.16572836825E+04  0.00000000000E+00 0. -1.
          2   -1    0    0  502    0  0.00000000000E+00 -0.00000000000E+00 -0.18526009674E+02  0.18526009674E+02  0.00000000000E+00 0.  1.
          6    1    1    2  502    0  0.21351404765E+02  0.21255791488E+02  0.74989022998E+03  0.76995262723E+03  0.17200000000E+03 0.  1.
         -6    1    1    2    0  501 -0.21351404765E+02 -0.21255791488E+02  0.88886744283E+03  0.90585706493E+03  0.17200000000E+03 0. -1.
</event>
<event>
 4    1  0.8483901E-001  0.4503925E+03  0.7818608E-02  0.1027605E+00
          2   -1    0    0  502    0  0.00000000000E+00  0.00000000000E+00  0.10712280513E+04  0.10712280513E+04  0.00000000000E+00 0.  1.
         -2   -1    0    0    0  501 -0.00000000000E+00 -0.00000000000E+00 -0.22790608882E+03  0.22790608882E+03  0.00000000000E+00 0. -1.
          6    1    1    2  502    0  0.20917134225E+03 -0.35988429924E+03  0.15454082380E+03  0.47616827433E+03  0.17200000000E+03 0. -1.
         -6    1    1    2    0  501 -0.20917134225E+03  0.35988429924E+03  0.68878113873E+03  0.82296586583E+03  0.17200000000E+03 0.  1.
</event>
<event>
 4    1  0.8483901E-001  0.1957812E+03  0.7818608E-02  0.1153348E+00
         -1   -1    0    0    0  501 -0.00000000000E+00  0.00000000000E+00  0.62879140075E+02  0.62879140075E+02  0.00000000000E+00 0. -1.
          1   -1    0    0  502    0  0.00000000000E+00 -0.00000000000E+00 -0.83102646912E+03  0.83102646912E+03  0.00000000000E+00 0.  1.
          6    1    1    2  502    0 -0.12563942278E+02  0.92673793560E+02 -0.15335533816E+03  0.24869287163E+03  0.17200000000E+03 0. -1.
         -6    1    1    2    0  501  0.12563942278E+02 -0.92673793560E+02 -0.61479199088E+03  0.64521273756E+03  0.17200000000E+03 0.  1.
</event>
<event>
 4    1  0.8483901E-001  0.1838337E+03  0.7818608E-02  0.1164144E+00
         -1   -1    0    0    0  501 -0.00000000000E+00  0.00000000000E+00  0.21017228553E+03  0.21017228553E+03  0.00000000000E+00 0. -1.
          1   -1    0    0  502    0  0.00000000000E+00 -0.00000000000E+00 -0.17786924038E+03  0.17786924038E+03  0.00000000000E+00 0.  1.
          6    1    1    2  502    0  0.63935442577E+02  0.11094403146E+02  0.76263076163E+02  0.19902483108E+03  0.17200000000E+03 0. -1.
         -6    1    1    2    0  501 -0.63935442577E+02 -0.11094403146E+02 -0.43960031016E+02  0.18901669483E+03  0.17200000000E+03 0.  1.
</event>
<event>
 4    1  0.8483901E-001  0.1877724E+03  0.7818608E-02  0.1160486E+00
         -1   -1    0    0    0  501 -0.00000000000E+00  0.00000000000E+00  0.20216934329E+03  0.20216934329E+03  0.00000000000E+00 0. -1.
          1   -1    0    0  502    0  0.00000000000E+00 -0.00000000000E+00 -0.17467576452E+03  0.17467576452E+03  0.00000000000E+00 0.  1.
          6    1    1    2  502    0  0.57537630617E+02  0.48619841611E+02  0.21224374832E+02  0.18896809790E+03  0.17200000000E+03 0.  1.
         -6    1    1    2    0  501 -0.57537630617E+02 -0.48619841611E+02  0.62692039456E+01  0.18787700991E+03  0.17200000000E+03 0.  1.
</event>
<event>
 4    1  0.8483901E-001  0.2105423E+03  0.7818608E-02  0.1141137E+00
          2   -1    0    0  502    0  0.00000000000E+00  0.00000000000E+00  0.45662681171E+03  0.45662681171E+03  0.00000000000E+00 0. -1.
         -2   -1    0    0    0  501 -0.00000000000E+00 -0.00000000000E+00 -0.14685553527E+03  0.14685553527E+03  0.00000000000E+00 0.  1.
          6    1    1    2  502    0  0.30712474864E+02  0.11747677255E+03  0.33056050722E+03  0.39191618637E+03  0.17200000000E+03 0. -1.
         -6    1    1    2    0  501 -0.30712474864E+02 -0.11747677255E+03 -0.20789230787E+02  0.21156616062E+03  0.17200000000E+03 0.  1.
</event>
<event>
 4    1  0.8483901E-001  0.1722214E+03  0.7818608E-02  0.1175551E+00
          1   -1    0    0  502    0  0.00000000000E+00  0.00000000000E+00  0.72365129247E+03  0.72365129247E+03  0.00000000000E+00 0. -1.
         -1   -1    0    0    0  501 -0.00000000000E+00 -0.00000000000E+00 -0.46164183680E+02  0.46164183680E+02  0.00000000000E+00 0.  1.
          6    1    1    2  502    0  0.36512131704E+01 -0.79294864586E+01  0.46764444412E+03  0.49834880779E+03  0.17200000000E+03 0. -1.
         -6    1    1    2    0  501 -0.36512131704E+01  0.79294864586E+01  0.20984266467E+03  0.27146666836E+03  0.17200000000E+03 0.  1.
</event>
<event>
 4    1  0.8483901E-001  0.2341246E+03  0.7818608E-02  0.1123770E+00
         -2   -1    0    0    0  501 -0.00000000000E+00  0.00000000000E+00  0.13489698345E+03  0.13489698345E+03  0.00000000000E+00 0.  1.
          2   -1    0    0  502    0  0.00000000000E+00 -0.00000000000E+00 -0.40684579058E+03  0.40684579058E+03  0.00000000000E+00 0. -1.
          6    1    1    2  502    0  0.31288355542E+02  0.15572844802E+03 -0.12644268720E+03  0.26608657212E+03  0.17200000000E+03 0.  1.
         -6    1    1    2    0  501 -0.31288355542E+02 -0.15572844802E+03 -0.14550611993E+03  0.27565620191E+03  0.17200000000E+03 0. -1.
</event>
<event>
 4    1  0.8483901E-001  0.1728214E+03  0.7818608E-02  0.1174937E+00
         -1   -1    0    0    0  501 -0.00000000000E+00  0.00000000000E+00  0.14386060293E+02  0.14386060293E+02  0.00000000000E+00 0.  1.
          1   -1    0    0  502    0  0.00000000000E+00 -0.00000000000E+00 -0.20912336402E+04  0.20912336402E+04  0.00000000000E+00 0. -1.
          6    1    1    2  502    0 -0.14717540684E+02 -0.81626485091E+01 -0.94893143893E+03  0.96454036236E+03  0.17200000000E+03 0.  1.
         -6    1    1    2    0  501  0.14717540684E+02  0.81626485091E+01 -0.11279161410E+04  0.11410793381E+04  0.17200000000E+03 0. -1.
</event>
<event>
 4    1  0.8483901E-001  0.3135464E+03  0.7818608E-02  0.1078658E+00
         -1   -1    0    0    0  501 -0.00000000000E+00  0.00000000000E+00  0.10844103209E+03  0.10844103209E+03  0.00000000000E+00 0.  1.
          1   -1    0    0  502    0  0.00000000000E+00 -0.00000000000E+00 -0.12886899706E+04  0.12886899706E+04  0.00000000000E+00 0. -1.
          6    1    1    2  502    0  0.21334639746E+03 -0.15235054227E+03 -0.97050857975E+03  0.10199011111E+04  0.17200000000E+03 0. -1.
         -6    1    1    2    0  501 -0.21334639746E+03  0.15235054227E+03 -0.20974035881E+03  0.37722989165E+03  0.17200000000E+03 0.  1.
</event>
<event>
 4    1  0.8483901E-001  0.2142683E+03  0.7818608E-02  0.1138230E+00
          1   -1    0    0  502    0  0.00000000000E+00  0.00000000000E+00  0.96308429292E+03  0.96308429292E+03  0.00000000000E+00 0. -1.
         -1   -1    0    0    0  501 -0.00000000000E+00 -0.00000000000E+00 -0.49359118111E+02  0.49359118111E+02  0.00000000000E+00 0.  1.
          6    1    1    2  502    0 -0.65750799048E+02  0.10956152267E+03  0.55048893453E+03  0.59071902108E+03  0.17200000000E+03 0. -1.
         -6    1    1    2    0  501  0.65750799048E+02 -0.10956152267E+03  0.36323624027E+03  0.42172438994E+03  0.17200000000E+03 0.  1.
</event>
<event>
 4    1  0.8483901E-001  0.1957876E+03  0.7818608E-02  0.1153342E+00
         -2   -1    0    0    0  501 -0.00000000000E+00  0.00000000000E+00  0.20719458955E+03  0.20719458955E+03  0.00000000000E+00 0. -1.
          2   -1    0    0  502    0  0.00000000000E+00 -0.00000000000E+00 -0.18800709314E+03  0.18800709314E+03  0.00000000000E+00 0.  1.
          6    1    1    2  502    0  0.92611181997E+02 -0.13113195700E+02 -0.15360880241E+02  0.19638926542E+03  0.17200000000E+03 0.  1.
         -6    1    1    2    0  501 -0.92611181997E+02  0.13113195700E+02  0.34548376648E+02  0.19881241727E+03  0.17200000000E+03 0. -1.
</event>
<event>
 4    1  0.8483901E-001  0.1801651E+03  0.7818608E-02  0.1167643E+00
         -2   -1    0    0    0  501 -0.00000000000E+00  0.00000000000E+00  0.47847550048E+02  0.47847550048E+02  0.00000000000E+00 0.  1.
          2   -1    0    0  502    0  0.00000000000E+00 -0.00000000000E+00 -0.10142764685E+04  0.10142764685E+04  0.00000000000E+00 0. -1.
          6    1    1    2  502    0 -0.20167739126E+02 -0.49686401944E+02 -0.17760912870E+03  0.25299106474E+03  0.17200000000E+03 0.  1.
         -6    1    1    2    0  501  0.20167739126E+02  0.49686401944E+02 -0.78881978979E+03  0.80913295385E+03  0.17200000000E+03 0. -1.
</event>
<event>
 4    1  0.8483901E-001  0.2421521E+03  0.7818608E-02  0.1118367E+00
          1   -1    0    0  502    0  0.00000000000E+00  0.00000000000E+00  0.37452012283E+03  0.37452012283E+03  0.00000000000E+00 0.  1.
         -1   -1    0    0    0  501 -0.00000000000E+00 -0.00000000000E+00 -0.19656213966E+03  0.19656213966E+03  0.00000000000E+00 0. -1.
          6    1    1    2  502    0 -0.14990505444E+03  0.81130121383E+02 -0.39822373651E+02  0.24540465233E+03  0.17200000000E+03 0. -1.
         -6    1    1    2    0  501  0.14990505444E+03 -0.81130121383E+02  0.21778035682E+03  0.32567761016E+03  0.17200000000E+03 0.  1.
</event>
<event>
 4    1  0.8483901E-001  0.2063112E+03  0.7818608E-02  0.1144521E+00
          2   -1    0    0  502    0  0.00000000000E+00  0.00000000000E+00  0.13479648203E+03  0.13479648203E+03  0.00000000000E+00 0. -1.
         -2   -1    0    0    0  501 -0.00000000000E+00 -0.00000000000E+00 -0.33373664263E+03  0.33373664263E+03  0.00000000000E+00 0.  1.
          6    1    1    2  502    0  0.95121749331E+02  0.62707121408E+02 -0.15382935309E+03  0.25734762510E+03  0.17200000000E+03 0.  1.
         -6    1    1    2    0  501 -0.95121749331E+02 -0.62707121408E+02 -0.45110807506E+02  0.21118549956E+03  0.17200000000E+03 0. -1.
</event>
<event>
 4    1  0.8483901E-001  0.1852464E+03  0.7818608E-02  0.1162820E+00
          2   -1    0    0  502    0  0.00000000000E+00  0.00000000000E+00  0.18348920758E+04  0.18348920758E+04  0.00000000000E+00 0. -1.
         -2   -1    0    0    0  501 -0.00000000000E+00 -0.00000000000E+00 -0.39594969210E+02  0.39594969210E+02  0.00000000000E+00 0.  1.
          6    1    1    2  502    0  0.26375366771E+02 -0.63534105880E+02  0.15784680898E+04  0.15893010266E+04  0.17200000000E+03 0. -1.
         -6    1    1    2    0  501 -0.26375366771E+02  0.63534105880E+02  0.21682901678E+03  0.28518601841E+03  0.17200000000E+03 0.  1.
</event>
<event>
 4    1  0.8483901E-001  0.1765272E+03  0.7818608E-02  0.1171207E+00
         -1   -1    0    0    0  501 -0.00000000000E+00  0.00000000000E+00  0.24766504614E+03  0.24766504614E+03  0.00000000000E+00 0. -1.
          1   -1    0    0  502    0  0.00000000000E+00 -0.00000000000E+00 -0.12766352630E+03  0.12766352630E+03  0.00000000000E+00 0.  1.
          6    1    1    2  502    0  0.29978017968E+02  0.26060931492E+02  0.82536375492E+02  0.19486946141E+03  0.17200000000E+03 0. -1.
         -6    1    1    2    0  501 -0.29978017968E+02 -0.26060931492E+02  0.37465144354E+02  0.18045911103E+03  0.17200000000E+03 0.  1.
</event>
<event>
 4    1  0.8483901E-001  0.2326867E+03  0.7818608E-02  0.1124763E+00
          1   -1    0    0  502    0  0.00000000000E+00  0.00000000000E+00  0.15568826895E+04  0.15568826895E+04  0.00000000000E+00 0. -1.
         -1   -1    0    0    0  501 -0.00000000000E+00 -0.00000000000E+00 -0.52283965443E+02  0.52283965443E+02  0.00000000000E+00 0.  1.
          6    1    1    2  502    0  0.11943801373E+03 -0.10145773408E+03  0.28671651284E+03  0.36925529064E+03  0.17200000000E+03 0.  1.
         -6    1    1    2    0  501 -0.11943801373E+03  0.10145773408E+03  0.12178822113E+04  0.12399113644E+04  0.17200000000E+03 0. -1.
</event>
<event>
 4    1  0.8483901E-001  0.1745979E+03  0.7818608E-02  0.1173136E+00
          1   -1    0    0  502    0  0.00000000000E+00  0.00000000000E+00  0.13782982541E+04  0.13782982541E+04  0.00000000000E+00 0. -1.
         -1   -1    0    0    0  501 -0.00000000000E+00 -0.00000000000E+00 -0.26549089318E+02  0.26549089318E+02  0.00000000000E+00 0.  1.
          6    1    1    2  502    0 -0.14957781194E+02 -0.26013484147E+02  0.38889120227E+03  0.42628723154E+03  0.17200000000E+03 0.  1.
         -6    1    1    2    0  501  0.14957781194E+02  0.26013484147E+02  0.96285796251E+03  0.97856011188E+03  0.17200000000E+03 0. -1.
</event>
<event>
 4    1  0.8483901E-001  0.3027535E+03  0.7818608E-02  0.1083872E+00
         -2   -1    0    0    0  501 -0.00000000000E+00  0.00000000000E+00  0.15877090903E+03  0.15877090903E+03  0.00000000000E+00 0. -1.
          2   -1    0    0  502    0  0.00000000000E+00 -0.00000000000E+00 -0.11229385585E+04  0.11229385585E+04  0.00000000000E+00 0.  1.
          6    1    1    2  502    0 -0.24680968795E+03 -0.34068297459E+02 -0.92879935879E+03  0.97689708765E+03  0.17200000000E+03 0.  1.
         -6    1    1    2    0  501  0.24680968795E+03  0.34068297459E+02 -0.35368290714E+02  0.30481237991E+03  0.17200000000E+03 0. -1.
</event>
<event>
 4    1  0.8483901E-001  0.1896433E+03  0.7818608E-02  0.1158783E+00
         -1   -1    0    0    0  501 -0.00000000000E+00  0.00000000000E+00  0.28935879000E+02  0.28935879000E+02  0.00000000000E+00 0.  1.
          1   -1    0    0  502    0  0.00000000000E+00 -0.00000000000E+00 -0.13174846905E+04  0.13174846905E+04  0.00000000000E+00 0. -1.
          6    1    1    2  502    0  0.72964134099E+02  0.32508833019E+02 -0.80444551259E+03  0.82649692790E+03  0.17200000000E+03 0. -1.
         -6    1    1    2    0  501 -0.72964134099E+02 -0.32508833019E+02 -0.48410329893E+03  0.51992364163E+03  0.17200000000E+03 0.  1.
</event>
<event>
 4    1  0.8483901E-001  0.1752103E+03  0.7818608E-02  0.1172521E+00
          2   -1    0    0  502    0  0.00000000000E+00  0.00000000000E+00  0.12875451205E+03  0.12875451205E+03  0.00000000000E+00 0.  1.
         -2   -1    0    0    0  501 -0.00000000000E+00 -0.00000000000E+00 -0.23853780476E+03  0.23853780476E+03  0.00000000000E+00 0. -1.
          6    1    1    2  502    0  0.33183804465E+02  0.36735729745E+01 -0.58834700864E+02  0.18482473331E+03  0.17200000000E+03 0. -1.
         -6    1    1    2    0  501 -0.33183804465E+02 -0.36735729745E+01 -0.50948591842E+02  0.18246758350E+03  0.17200000000E+03 0.  1.
</event>
<event>
 4    1  0.8483901E-001  0.2270113E+03  0.7818608E-02  0.1128761E+00
         -2   -1    0    0    0  501 -0.00000000000E+00  0.00000000000E+00  0.38112483513E+03  0.38112483513E+03  0.00000000000E+00 0.  1.
          2   -1    0    0  502    0  0.00000000000E+00 -0.00000000000E+00 -0.20203690709E+03  0.20203690709E+03  0.00000000000E+00 0. -1.
          6    1    1    2  502    0  0.14551809575E+03 -0.27831552036E+02  0.25723135376E+03  0.34307736859E+03  0.17200000000E+03 0.  1.
         -6    1    1    2    0  501 -0.14551809575E+03  0.27831552036E+02 -0.78143425713E+02  0.24008437363E+03  0.17200000000E+03 0.  1.
</event>
<event>
 4    1  0.8483901E-001  0.2350969E+03  0.7818608E-02  0.1123103E+00
          1   -1    0    0  502    0  0.00000000000E+00  0.00000000000E+00  0.14634377150E+04  0.14634377150E+04  0.00000000000E+00 0.  1.
         -1   -1    0    0    0  501 -0.00000000000E+00 -0.00000000000E+00 -0.74094086631E+02  0.74094086631E+02  0.00000000000E+00 0. -1.
          6    1    1    2  502    0 -0.11414311469E+03 -0.11250739427E+03  0.15638480855E+03  0.28235929725E+03  0.17200000000E+03 0. -1.
         -6    1    1    2    0  501  0.11414311469E+03  0.11250739427E+03  0.12329588198E+04  0.12551725044E+04  0.17200000000E+03 0.  1.
</event>
<event>
 4    1  0.8483901E-001  0.3104721E+03  0.7818608E-02  0.1080120E+00
          1   -1    0    0  502    0  0.00000000000E+00  0.00000000000E+00  0.25531269407E+03  0.25531269407E+03  0.00000000000E+00 0.  1.
         -1   -1    0    0    0  501 -0.00000000000E+00 -0.00000000000E+00 -0.37853844586E+03  0.37853844586E+03  0.00000000000E+00 0. -1.
          6    1    1    2  502    0 -0.25732523354E+03 -0.24344401736E+02 -0.77820043206E+02  0.32007637344E+03  0.17200000000E+03 0. -1.
         -6    1    1    2    0  501  0.25732523354E+03  0.24344401736E+02 -0.45405708582E+02  0.31377476649E+03  0.17200000000E+03 0.  1.
</event>
<event>
 4    1  0.8483901E-001  0.2054376E+03  0.7818608E-02  0.1145231E+00
         -2   -1    0    0    0  501 -0.00000000000E+00  0.00000000000E+00  0.87194966127E+02  0.87194966127E+02  0.00000000000E+00 0. -1.
          2   -1    0    0  502    0  0.00000000000E+00 -0.00000000000E+00 -0.10043444315E+04  0.10043444315E+04  0.00000000000E+00 0.  1.
          6    1    1    2  502    0  0.97917442849E+02  0.55070845116E+02 -0.85140299064E+03  0.87583769961E+03  0.17200000000E+03 0.  1.
         -6    1    1    2    0  501 -0.97917442849E+02 -0.55070845116E+02 -0.65746474767E+02  0.21570169805E+03  0.17200000000E+03 0. -1.
</event>
<event>
 4    1  0.8483901E-001  0.2486468E+03  0.7818608E-02  0.1114163E+00
          1   -1    0    0  502    0  0.00000000000E+00  0.00000000000E+00  0.43769019741E+03  0.43769019741E+03  0.00000000000E+00 0.  1.
         -1   -1    0    0    0  501 -0.00000000000E+00 -0.00000000000E+00 -0.25015133198E+03  0.25015133198E+03  0.00000000000E+00 0. -1.
          6    1    1    2  502    0  0.13808598757E+03 -0.11477573903E+03 -0.13314749110E+03  0.28205223740E+03  0.17200000000E+03 0. -1.
         -6    1    1    2    0  501 -0.13808598757E+03  0.11477573903E+03  0.32068635653E+03  0.40578929199E+03  0.17200000000E+03 0.  1.
</event>
<event>
 4    1  0.8483901E-001  0.1746922E+03  0.7818608E-02  0.1173041E+00
          2   -1    0    0  502    0  0.00000000000E+00  0.00000000000E+00  0.10528207886E+04  0.10528207886E+04  0.00000000000E+00 0. -1.
         -2   -1    0    0    0  501 -0.00000000000E+00 -0.00000000000E+00 -0.30596212715E+02  0.30596212715E+02  0.00000000000E+00 0.  1.
          6    1    1    2  502    0  0.75146262014E+01  0.29612542753E+02  0.38685156737E+03  0.42446614408E+03  0.17200000000E+03 0.  1.
         -6    1    1    2    0  501 -0.75146262014E+01 -0.29612542753E+02  0.63537300848E+03  0.65895085719E+03  0.17200000000E+03 0. -1.
</event>
<event>
 4    1  0.8483901E-001  0.2046554E+03  0.7818608E-02  0.1145870E+00
         -3   -1    0    0    0  501 -0.00000000000E+00  0.00000000000E+00  0.22327850334E+03  0.22327850334E+03  0.00000000000E+00 0.  1.
          3   -1    0    0  502    0  0.00000000000E+00 -0.00000000000E+00 -0.20176803582E+03  0.20176803582E+03  0.00000000000E+00 0. -1.
          6    1    1    2  502    0 -0.48546028942E+02  0.99715212968E+02  0.67100200751E+02  0.21537473753E+03  0.17200000000E+03 0.  1.
         -6    1    1    2    0  501  0.48546028942E+02 -0.99715212968E+02 -0.45589733229E+02  0.20967180163E+03  0.17200000000E+03 0. -1.
</event>
<event>
 4    1  0.8483901E-001  0.1865990E+03  0.7818608E-02  0.1161565E+00
         -2   -1    0    0    0  501 -0.00000000000E+00  0.00000000000E+00  0.66276169103E+02  0.66276169103E+02  0.00000000000E+00 0.  1.
          2   -1    0    0  502    0  0.00000000000E+00 -0.00000000000E+00 -0.11419997119E+04  0.11419997119E+04  0.00000000000E+00 0. -1.
          6    1    1    2  502    0  0.41955418806E+02  0.58948561661E+02 -0.93929167717E+02  0.20890638726E+03  0.17200000000E+03 0.  1.
         -6    1    1    2    0  501 -0.41955418806E+02 -0.58948561661E+02 -0.98179437509E+03  0.99936949376E+03  0.17200000000E+03 0. -1.
</event>
<event>
 4    1  0.8483901E-001  0.3064604E+03  0.7818608E-02  0.1082055E+00
         -1   -1    0    0    0  501 -0.00000000000E+00  0.00000000000E+00  0.11861654140E+03  0.11861654140E+03  0.00000000000E+00 0.  1.
          1   -1    0    0  502    0  0.00000000000E+00 -0.00000000000E+00 -0.13368398851E+04  0.13368398851E+04  0.00000000000E+00 0. -1.
          6    1    1    2  502    0  0.20984533825E+03  0.14247428271E+03 -0.14443340883E+03  0.33879049102E+03  0.17200000000E+03 0.  1.
         -6    1    1    2    0  501 -0.20984533825E+03 -0.14247428271E+03 -0.10737899349E+04  0.11166659355E+04  0.17200000000E+03 0. -1.
</event>
<event>
 4    1  0.8483901E-001  0.4948872E+03  0.7818608E-02  0.1015122E+00
          2   -1    0    0  502    0  0.00000000000E+00  0.00000000000E+00  0.16329507046E+04  0.16329507046E+04  0.00000000000E+00 0. -1.
         -2   -1    0    0    0  501 -0.00000000000E+00 -0.00000000000E+00 -0.23471989164E+03  0.23471989164E+03  0.00000000000E+00 0.  1.
          6    1    1    2  502    0  0.24889288813E+03 -0.39163968836E+03  0.12602073124E+04  0.13538965195E+04  0.17200000000E+03 0. -1.
         -6    1    1    2    0  501 -0.24889288813E+03  0.39163968836E+03  0.13802350058E+03  0.51377407678E+03  0.17200000000E+03 0.  1.
</event>
<event>
 4    1  0.8483901E-001  0.2293106E+03  0.7818608E-02  0.1127126E+00
         -3   -1    0    0    0  501 -0.00000000000E+00  0.00000000000E+00  0.15200560349E+03  0.15200560349E+03  0.00000000000E+00 0. -1.
          3   -1    0    0  502    0  0.00000000000E+00 -0.00000000000E+00 -0.37791339844E+03  0.37791339844E+03  0.00000000000E+00 0.  1.
          6    1    1    2  502    0  0.75584011790E+02 -0.13147780997E+03 -0.19003413143E+03  0.29781928826E+03  0.17200000000E+03 0.  1.
         -6    1    1    2    0  501 -0.75584011790E+02  0.13147780997E+03 -0.35873663514E+02  0.23209971367E+03  0.17200000000E+03 0. -1.
</event>
<event>
 4    1  0.8483901E-001  0.2332477E+03  0.7818608E-02  0.1124375E+00
         -2   -1    0    0    0  501 -0.00000000000E+00  0.00000000000E+00  0.14087062997E+03  0.14087062997E+03  0.00000000000E+00 0.  1.
          2   -1    0    0  502    0  0.00000000000E+00 -0.00000000000E+00 -0.43797630178E+03  0.43797630178E+03  0.00000000000E+00 0. -1.
          6    1    1    2  502    0 -0.10016323114E+03 -0.12160524110E+03 -0.49043024842E+02  0.23834790920E+03  0.17200000000E+03 0.  1.
         -6    1    1    2    0  501  0.10016323114E+03  0.12160524110E+03 -0.24806264696E+03  0.34049902254E+03  0.17200000000E+03 0. -1.
</event>
<event>
 4    1  0.8483901E-001  0.3258233E+03  0.7818608E-02  0.1073000E+00
         -2   -1    0    0    0  501 -0.00000000000E+00  0.00000000000E+00  0.14473835443E+03  0.14473835443E+03  0.00000000000E+00 0. -1.
          2   -1    0    0  502    0  0.00000000000E+00 -0.00000000000E+00 -0.82290056030E+03  0.82290056030E+03  0.00000000000E+00 0.  1.
          6    1    1    2  502    0  0.14212834604E+03 -0.23743711242E+03 -0.17958164988E+03  0.37203550647E+03  0.17200000000E+03 0. -1.
         -6    1    1    2    0  501 -0.14212834604E+03  0.23743711242E+03 -0.49858055600E+03  0.59560340825E+03  0.17200000000E+03 0.  1.
</event>
<event>
 4    1  0.8483901E-001  0.1826787E+03  0.7818608E-02  0.1165235E+00
         -2   -1    0    0    0  501 -0.00000000000E+00  0.00000000000E+00  0.16611489129E+03  0.16611489129E+03  0.00000000000E+00 0. -1.
          2   -1    0    0  502    0  0.00000000000E+00 -0.00000000000E+00 -0.20092169941E+03  0.20092169941E+03  0.00000000000E+00 0.  1.
          6    1    1    2  502    0  0.61070539548E+02 -0.76093561698E+01 -0.15255229464E+02  0.18331457969E+03  0.17200000000E+03 0. -1.
         -6    1    1    2    0  501 -0.61070539548E+02  0.76093561698E+01 -0.19551578660E+02  0.18372201101E+03  0.17200000000E+03 0.  1.
</event>
<event>
 4    1  0.8483901E-001  0.1959778E+03  0.7818608E-02  0.1153178E+00
          2   -1    0    0  502    0  0.00000000000E+00  0.00000000000E+00  0.76431283967E+03  0.76431283967E+03  0.00000000000E+00 0. -1.
         -2   -1    0    0    0  501 -0.00000000000E+00 -0.00000000000E+00 -0.51271787320E+02  0.51271787320E+02  0.00000000000E+00 0.  1.
          6    1    1    2  502    0 -0.61078719809E+02  0.71363118060E+02  0.41406683834E+03  0.45810331940E+03  0.17200000000E+03 0. -1.
         -6    1    1    2    0  501  0.61078719809E+02 -0.71363118060E+02  0.29897421401E+03  0.35748130758E+03  0.17200000000E+03 0.  1.
</event>
<event>
 4    1  0.8483901E-001  0.1873969E+03  0.7818608E-02  0.1160830E+00
          2   -1    0    0  502    0  0.00000000000E+00  0.00000000000E+00  0.82755977772E+02  0.82755977772E+02  0.00000000000E+00 0. -1.
         -2   -1    0    0    0  501 -0.00000000000E+00 -0.00000000000E+00 -0.45565264904E+03  0.45565264904E+03  0.00000000000E+00 0.  1.
          6    1    1    2  502    0 -0.23224487977E+02  0.70669878288E+02 -0.11589030636E+03  0.22033649640E+03  0.17200000000E+03 0. -1.
         -6    1    1    2    0  501  0.23224487977E+02 -0.70669878288E+02 -0.25700636492E+03  0.31807213042E+03  0.17200000000E+03 0.  1.
</event>
<event>
 4    1  0.8483901E-001  0.2259982E+03  0.7818608E-02  0.1129489E+00
         -1   -1    0    0    0  501 -0.00000000000E+00  0.00000000000E+00  0.64585886302E+02  0.64585886302E+02  0.00000000000E+00 0.  1.
          1   -1    0    0  502    0  0.00000000000E+00 -0.00000000000E+00 -0.80920212846E+03  0.80920212846E+03  0.00000000000E+00 0. -1.
          6    1    1    2  502    0 -0.14205313213E+03 -0.36222722545E+02 -0.30644214126E+03  0.38076497202E+03  0.17200000000E+03 0. -1.
         -6    1    1    2    0  501  0.14205313213E+03  0.36222722545E+02 -0.43817410090E+03  0.49302304274E+03  0.17200000000E+03 0. -1.
</event>
<event>
 4    1  0.8483901E-001  0.1797426E+03  0.7818608E-02  0.1168052E+00
          2   -1    0    0  502    0  0.00000000000E+00  0.00000000000E+00  0.81959966125E+03  0.81959966125E+03  0.00000000000E+00 0.  1.
         -2   -1    0    0    0  501 -0.00000000000E+00 -0.00000000000E+00 -0.42824372967E+02  0.42824372967E+02  0.00000000000E+00 0. -1.
          6    1    1    2  502    0 -0.10961938230E+02  0.51021955468E+02  0.50999460133E+03  0.54074198784E+03  0.17200000000E+03 0.  1.
         -6    1    1    2    0  501  0.10961938230E+02 -0.51021955468E+02  0.26678068696E+03  0.32168204638E+03  0.17200000000E+03 0.  1.
</event>
<event>
 4    1  0.8483901E-001  0.4440402E+03  0.7818608E-02  0.1029514E+00
          2   -1    0    0  502    0  0.00000000000E+00  0.00000000000E+00  0.51813174807E+03  0.51813174807E+03  0.00000000000E+00 0.  1.
         -2   -1    0    0    0  501 -0.00000000000E+00 -0.00000000000E+00 -0.43647917553E+03  0.43647917553E+03  0.00000000000E+00 0. -1.
          6    1    1    2  502    0  0.19217014124E+03 -0.36146687010E+03  0.21169365825E+03  0.49192058943E+03  0.17200000000E+03 0.  1.
         -6    1    1    2    0  501 -0.19217014124E+03  0.36146687010E+03 -0.13004108570E+03  0.46269033417E+03  0.17200000000E+03 0. -1.
</event>
<event>
 4    1  0.8483901E-001  0.2279821E+03  0.7818608E-02  0.1128068E+00
          1   -1    0    0  502    0  0.00000000000E+00  0.00000000000E+00  0.13495976493E+03  0.13495976493E+03  0.00000000000E+00 0.  1.
         -1   -1    0    0    0  501 -0.00000000000E+00 -0.00000000000E+00 -0.41441841286E+03  0.41441841286E+03  0.00000000000E+00 0. -1.
          6    1    1    2  502    0 -0.14650071641E+03  0.30485985030E+02 -0.66693544551E+02  0.23753712147E+03  0.17200000000E+03 0.  1.
         -6    1    1    2    0  501  0.14650071641E+03 -0.30485985030E+02 -0.21276510338E+03  0.31184105632E+03  0.17200000000E+03 0. -1.
</event>
<event>
 4    1  0.8483901E-001  0.2018504E+03  0.7818608E-02  0.1148187E+00
         -2   -1    0    0    0  501 -0.00000000000E+00  0.00000000000E+00  0.18995608342E+02  0.18995608342E+02  0.00000000000E+00 0. -1.
          2   -1    0    0  502    0  0.00000000000E+00 -0.00000000000E+00 -0.21988174501E+04  0.21988174501E+04  0.00000000000E+00 0.  1.
          6    1    1    2  502    0  0.74158583963E+02 -0.75233462799E+02 -0.91625542888E+03  0.93822576199E+03  0.17200000000E+03 0.  1.
         -6    1    1    2    0  501 -0.74158583963E+02  0.75233462799E+02 -0.12635664129E+04  0.12795872965E+04  0.17200000000E+03 0. -1.
</event>
<event>
 4    1  0.8483901E-001  0.2805275E+03  0.7818608E-02  0.1095401E+00
          2   -1    0    0  502    0  0.00000000000E+00  0.00000000000E+00  0.14176503218E+04  0.14176503218E+04  0.00000000000E+00 0.  1.
         -2   -1    0    0    0  501 -0.00000000000E+00 -0.00000000000E+00 -0.60264404522E+02  0.60264404522E+02  0.00000000000E+00 0. -1.
          6    1    1    2  502    0  0.13110292245E+03  0.17867205403E+03  0.88622037236E+03  0.92956023341E+03  0.17200000000E+03 0. -1.
         -6    1    1    2    0  501 -0.13110292245E+03 -0.17867205403E+03  0.47116554489E+03  0.54835449288E+03  0.17200000000E+03 0. -1.
</event>
<event>
 4    1  0.8483901E-001  0.1929766E+03  0.7818608E-02  0.1155804E+00
         -2   -1    0    0    0  501 -0.00000000000E+00  0.00000000000E+00  0.80774735658E+02  0.80774735658E+02  0.00000000000E+00 0. -1.
          2   -1    0    0  502    0  0.00000000000E+00 -0.00000000000E+00 -0.10024077089E+04  0.10024077089E+04  0.00000000000E+00 0.  1.
          6    1    1    2  502    0 -0.13968091650E+02  0.86376224631E+02 -0.85882989152E+03  0.88024356989E+03  0.17200000000E+03 0.  1.
         -6    1    1    2    0  501  0.13968091650E+02 -0.86376224631E+02 -0.62803081681E+02  0.20293887463E+03  0.17200000000E+03 0. -1.
</event>
<event>
 4    1  0.8483901E-001  0.2095791E+03  0.7818608E-02  0.1141900E+00
          1   -1    0    0  502    0  0.00000000000E+00  0.00000000000E+00  0.91517890399E+02  0.91517890399E+02  0.00000000000E+00 0. -1.
         -1   -1    0    0    0  501 -0.00000000000E+00 -0.00000000000E+00 -0.53119773252E+03  0.53119773252E+03  0.00000000000E+00 0.  1.
          6    1    1    2  502    0  0.97821061188E+02 -0.69068260445E+02 -0.12312399172E+03  0.24306974709E+03  0.17200000000E+03 0. -1.
         -6    1    1    2    0  501 -0.97821061188E+02  0.69068260445E+02 -0.31655585040E+03  0.37964587583E+03  0.17200000000E+03 0.  1.
</event>
<event>
 4    1  0.8483901E-001  0.1737018E+03  0.7818608E-02  0.1174041E+00
         -1   -1    0    0    0  501 -0.00000000000E+00  0.00000000000E+00  0.78452415818E+03  0.78452415818E+03  0.00000000000E+00 0.  1.
          1   -1    0    0  502    0  0.00000000000E+00 -0.00000000000E+00 -0.41737352361E+02  0.41737352361E+02  0.00000000000E+00 0. -1.
          6    1    1    2  502    0 -0.13221330864E+02 -0.20335329335E+02  0.25561532634E+03  0.30904938807E+03  0.17200000000E+03 0. -1.
         -6    1    1    2    0  501  0.13221330864E+02  0.20335329335E+02  0.48717147948E+03  0.51721212247E+03  0.17200000000E+03 0.  1.
</event>
<event>
 4    1  0.8483901E-001  0.1896465E+03  0.7818608E-02  0.1158781E+00
          1   -1    0    0  502    0  0.00000000000E+00  0.00000000000E+00  0.30264741797E+04  0.30264741797E+04  0.00000000000E+00 0.  1.
         -1   -1    0    0    0  501 -0.00000000000E+00 -0.00000000000E+00 -0.12015651971E+02  0.12015651971E+02  0.00000000000E+00 0. -1.
          6    1    1    2  502    0 -0.16258792316E+02 -0.78214122440E+02  0.16664190716E+04  0.16771756973E+04  0.17200000000E+03 0. -1.
         -6    1    1    2    0  501  0.16258792316E+02  0.78214122440E+02  0.13480394562E+04  0.13613141344E+04  0.17200000000E+03 0. -1.
</event>
<event>
 4    1  0.8483901E-001  0.2027033E+03  0.7818608E-02  0.1147478E+00
         -1   -1    0    0    0  501 -0.00000000000E+00  0.00000000000E+00  0.96667639235E+02  0.96667639235E+02  0.00000000000E+00 0. -1.
          1   -1    0    0  502    0  0.00000000000E+00 -0.00000000000E+00 -0.45827568278E+03  0.45827568278E+03  0.00000000000E+00 0.  1.
          6    1    1    2  502    0 -0.12128870094E+02 -0.10657169003E+03 -0.10609234274E+03  0.22878859192E+03  0.17200000000E+03 0. -1.
         -6    1    1    2    0  501  0.12128870094E+02  0.10657169003E+03 -0.25551570081E+03  0.32615473010E+03  0.17200000000E+03 0.  1.
</event>
<event>
 4    1  0.8483901E-001  0.1851884E+03  0.7818608E-02  0.1162874E+00
         -2   -1    0    0    0  501 -0.00000000000E+00  0.00000000000E+00  0.91171937229E+01  0.91171937229E+01  0.00000000000E+00 0.  1.
          2   -1    0    0  502    0  0.00000000000E+00 -0.00000000000E+00 -0.37786702539E+04  0.37786702539E+04  0.00000000000E+00 0. -1.
          6    1    1    2  502    0 -0.23701241020E+02 -0.64412811545E+02 -0.17572882316E+04  0.17670191533E+04  0.17200000000E+03 0.  1.
         -6    1    1    2    0  501  0.23701241020E+02  0.64412811545E+02 -0.20122648285E+04  0.20207682943E+04  0.17200000000E+03 0. -1.
</event>
<event>
 4    1  0.8483901E-001  0.2396924E+03  0.7818608E-02  0.1119998E+00
         -2   -1    0    0    0  501 -0.00000000000E+00  0.00000000000E+00  0.16560841092E+03  0.16560841092E+03  0.00000000000E+00 0. -1.
          2   -1    0    0  502    0  0.00000000000E+00 -0.00000000000E+00 -0.37948801434E+03  0.37948801434E+03  0.00000000000E+00 0.  1.
          6    1    1    2  502    0  0.11236706124E+03 -0.12345895429E+03 -0.18678633282E+03  0.30387761348E+03  0.17200000000E+03 0.  1.
         -6    1    1    2    0  501 -0.11236706124E+03  0.12345895429E+03 -0.27093270601E+02  0.24121881178E+03  0.17200000000E+03 0. -1.
</event>
<event>
 4    1  0.8483901E-001  0.2611056E+03  0.7818608E-02  0.1106481E+00
          2   -1    0    0  502    0  0.00000000000E+00  0.00000000000E+00  0.10836461670E+04  0.10836461670E+04  0.00000000000E+00 0.  1.
         -2   -1    0    0    0  501 -0.00000000000E+00 -0.00000000000E+00 -0.86781547414E+02  0.86781547414E+02  0.00000000000E+00 0. -1.
          6    1    1    2  502    0  0.15642275145E+03  0.11884470548E+03  0.19152449911E+03  0.32381750255E+03  0.17200000000E+03 0. -1.
         -6    1    1    2    0  501 -0.15642275145E+03 -0.11884470548E+03  0.80534012044E+03  0.84661021184E+03  0.17200000000E+03 0.  1.
</event>
<event>
 4    1  0.8483901E-001  0.1784961E+03  0.7818608E-02  0.1169267E+00
          1   -1    0    0  502    0  0.00000000000E+00  0.00000000000E+00  0.24894119009E+04  0.24894119009E+04  0.00000000000E+00 0. -1.
         -1   -1    0    0    0  501 -0.00000000000E+00 -0.00000000000E+00 -0.20415173585E+02  0.20415173585E+02  0.00000000000E+00 0.  1.
          6    1    1    2  502    0  0.47699932835E+02  0.12480259952E+01  0.20010100116E+04  0.20089554270E+04  0.17200000000E+03 0. -1.
         -6    1    1    2    0  501 -0.47699932835E+02 -0.12480259952E+01  0.46798671565E+03  0.50087164741E+03  0.17200000000E+03 0.  1.
</event>
<event>
 4    1  0.8483901E-001  0.1778625E+03  0.7818608E-02  0.1169888E+00
          3   -1    0    0  502    0  0.00000000000E+00  0.00000000000E+00  0.31602818060E+02  0.31602818060E+02  0.00000000000E+00 0.  1.
         -3   -1    0    0    0  501 -0.00000000000E+00 -0.00000000000E+00 -0.10693515996E+04  0.10693515996E+04  0.00000000000E+00 0. -1.
          6    1    1    2  502    0  0.30923832846E+02 -0.33087408970E+02 -0.37972248543E+03  0.41931399453E+03  0.17200000000E+03 0.  1.
         -6    1    1    2    0  501 -0.30923832846E+02  0.33087408970E+02 -0.65802629614E+03  0.68164042316E+03  0.17200000000E+03 0. -1.
</event>
<event>
 4    1  0.8483901E-001  0.2223129E+03  0.7818608E-02  0.1132170E+00
         -1   -1    0    0    0  501 -0.00000000000E+00  0.00000000000E+00  0.47269876534E+02  0.47269876534E+02  0.00000000000E+00 0.  1.
          1   -1    0    0  502    0  0.00000000000E+00 -0.00000000000E+00 -0.11460402804E+04  0.11460402804E+04  0.00000000000E+00 0. -1.
          6    1    1    2  502    0 -0.13051479075E+03 -0.52961456971E+02 -0.37270613218E+03  0.43397337187E+03  0.17200000000E+03 0.  1.
         -6    1    1    2    0  501  0.13051479075E+03  0.52961456971E+02 -0.72606427168E+03  0.75933678506E+03  0.17200000000E+03 0. -1.
</event>
<event>
 4    1  0.8483901E-001  0.1862584E+03  0.7818608E-02  0.1161880E+00
          2   -1    0    0  502    0  0.00000000000E+00  0.00000000000E+00  0.72069761240E+02  0.72069761240E+02  0.00000000000E+00 0. -1.
         -2   -1    0    0    0  501 -0.00000000000E+00 -0.00000000000E+00 -0.51730539795E+03  0.51730539795E+03  0.00000000000E+00 0.  1.
          6    1    1    2  502    0  0.57097625938E+02  0.42988794803E+02 -0.30028783163E+03  0.35336235962E+03  0.17200000000E+03 0. -1.
         -6    1    1    2    0  501 -0.57097625938E+02 -0.42988794803E+02 -0.14494780508E+03  0.23601279957E+03  0.17200000000E+03 0. -1.
</event>
<event>
 4    1  0.8483901E-001  0.3011847E+03  0.7818608E-02  0.1084650E+00
         -2   -1    0    0    0  501 -0.00000000000E+00  0.00000000000E+00  0.55535053436E+02  0.55535053436E+02  0.00000000000E+00 0.  1.
          2   -1    0    0  502    0  0.00000000000E+00 -0.00000000000E+00 -0.22749963309E+04  0.22749963309E+04  0.00000000000E+00 0. -1.
          6    1    1    2  502    0 -0.14880743173E+03 -0.19744504739E+03 -0.17285415676E+04  0.17545848938E+04  0.17200000000E+03 0. -1.
         -6    1    1    2    0  501  0.14880743173E+03  0.19744504739E+03 -0.49091970986E+03  0.57594649057E+03  0.17200000000E+03 0.  1.
</event>
<event>
 4    1  0.8483901E-001  0.1865504E+03  0.7818608E-02  0.1161610E+00
          2   -1    0    0  502    0  0.00000000000E+00  0.00000000000E+00  0.12973339711E+03  0.12973339711E+03  0.00000000000E+00 0. -1.
         -2   -1    0    0    0  501 -0.00000000000E+00 -0.00000000000E+00 -0.32618045243E+03  0.32618045243E+03  0.00000000000E+00 0.  1.
          6    1    1    2  502    0 -0.26753919528E+01 -0.72179590553E+02 -0.21562814918E+01  0.18656285955E+03  0.17200000000E+03 0. -1.
         -6    1    1    2    0  501  0.26753919528E+01  0.72179590553E+02 -0.19429077383E+03  0.26935098999E+03  0.17200000000E+03 0.  1.
</event>
<event>
 4    1  0.8483901E-001  0.1858419E+03  0.7818608E-02  0.1162266E+00
          2   -1    0    0  502    0  0.00000000000E+00  0.00000000000E+00  0.96037732257E+03  0.96037732257E+03  0.00000000000E+00 0. -1.
         -2   -1    0    0    0  501 -0.00000000000E+00 -0.00000000000E+00 -0.36007925542E+02  0.36007925542E+02  0.00000000000E+00 0.  1.
          6    1    1    2  502    0 -0.46117650863E+02 -0.53163613430E+02  0.44441653787E+03  0.48170869480E+03  0.17200000000E+03 0. -1.
         -6    1    1    2    0  501  0.46117650863E+02  0.53163613430E+02  0.47995285916E+03  0.51467655331E+03  0.17200000000E+03 0.  1.
</event>
<event>
 4    1  0.8483901E-001  0.1785629E+03  0.7818608E-02  0.1169201E+00
          2   -1    0    0  502    0  0.00000000000E+00  0.00000000000E+00  0.18686600402E+04  0.18686600402E+04  0.00000000000E+00 0.  1.
         -2   -1    0    0    0  501 -0.00000000000E+00 -0.00000000000E+00 -0.20070196043E+02  0.20070196043E+02  0.00000000000E+00 0. -1.
          6    1    1    2  502    0 -0.29921110054E+02  0.37489373616E+02  0.55873926135E+03  0.58657845864E+03  0.17200000000E+03 0.  1.
         -6    1    1    2    0  501  0.29921110054E+02 -0.37489373616E+02  0.12898505828E+04  0.13021517776E+04  0.17200000000E+03 0.  1.
</event>
<event>
 4    1  0.8483901E-001  0.1878160E+03  0.7818608E-02  0.1160446E+00
          2   -1    0    0  502    0  0.00000000000E+00  0.00000000000E+00  0.19740666128E+04  0.19740666128E+04  0.00000000000E+00 0.  1.
         -2   -1    0    0    0  501 -0.00000000000E+00 -0.00000000000E+00 -0.72570090125E+02  0.72570090125E+02  0.00000000000E+00 0. -1.
          6    1    1    2  502    0  0.44775813053E+01 -0.75304798110E+02  0.18391908912E+04  0.18487557967E+04  0.17200000000E+03 0.  1.
         -6    1    1    2    0  501 -0.44775813053E+01  0.75304798110E+02  0.62305631458E+02  0.19788090626E+03  0.17200000000E+03 0. -1.
</event>
<event>
 4    1  0.8483901E-001  0.2033545E+03  0.7818608E-02  0.1146939E+00
          2   -1    0    0  502    0  0.00000000000E+00  0.00000000000E+00  0.19052893876E+04  0.19052893876E+04  0.00000000000E+00 0.  1.
         -2   -1    0    0    0  501 -0.00000000000E+00 -0.00000000000E+00 -0.36771022818E+02  0.36771022818E+02  0.00000000000E+00 0. -1.
          6    1    1    2  502    0 -0.96369680068E+02 -0.49818902965E+02  0.15558273793E+04  0.15690608250E+04  0.17200000000E+03 0.  1.
         -6    1    1    2    0  501  0.96369680068E+02  0.49818902965E+02  0.31269098547E+03  0.37299958542E+03  0.17200000000E+03 0. -1.
</event>
<event>
 4    1  0.8483901E-001  0.1852882E+03  0.7818608E-02  0.1162781E+00
         -2   -1    0    0    0  501 -0.00000000000E+00  0.00000000000E+00  0.37384354445E+02  0.37384354445E+02  0.00000000000E+00 0.  1.
          2   -1    0    0  502    0  0.00000000000E+00 -0.00000000000E+00 -0.91834449947E+03  0.91834449947E+03  0.00000000000E+00 0. -1.
          6    1    1    2  502    0 -0.66987764616E+02 -0.16135532417E+02 -0.44052132927E+03  0.47790245611E+03  0.17200000000E+03 0. -1.
         -6    1    1    2    0  501  0.66987764616E+02  0.16135532417E+02 -0.44043881575E+03  0.47782639780E+03  0.17200000000E+03 0. -1.
</event>
<event>
 4    1  0.8483901E-001  0.2872906E+03  0.7818608E-02  0.1091772E+00
          1   -1    0    0  502    0  0.00000000000E+00  0.00000000000E+00  0.42812279191E+03  0.42812279191E+03  0.00000000000E+00 0.  1.
         -1   -1    0    0    0  501 -0.00000000000E+00 -0.00000000000E+00 -0.29813750390E+03  0.29813750390E+03  0.00000000000E+00 0. -1.
          6    1    1    2  502    0 -0.22900379193E+03 -0.22564707695E+02 -0.15086887399E+03  0.32449548517E+03  0.17200000000E+03 0. -1.
         -6    1    1    2    0  501  0.22900379193E+03  0.22564707695E+02  0.28085416201E+03  0.40176481064E+03  0.17200000000E+03 0.  1.
</event>
<event>
 4    1  0.8483901E-001  0.2122852E+03  0.7818608E-02  0.1139769E+00
         -1   -1    0    0    0  501 -0.00000000000E+00  0.00000000000E+00  0.31937237242E+02  0.31937237242E+02  0.00000000000E+00 0.  1.
          1   -1    0    0  502    0  0.00000000000E+00 -0.00000000000E+00 -0.15835709889E+04  0.15835709889E+04  0.00000000000E+00 0. -1.
          6    1    1    2  502    0  0.11579115618E+03  0.45534892118E+02 -0.50920334795E+03  0.55168203507E+03  0.17200000000E+03 0.  1.
         -6    1    1    2    0  501 -0.11579115618E+03 -0.45534892118E+02 -0.10424304037E+04  0.10638261911E+04  0.17200000000E+03 0. -1.
</event>
<event>
 4    1  0.8483901E-001  0.2012963E+03  0.7818608E-02  0.1148650E+00
          1   -1    0    0  502    0  0.00000000000E+00  0.00000000000E+00  0.16221503829E+03  0.16221503829E+03  0.00000000000E+00 0. -1.
         -1   -1    0    0    0  501 -0.00000000000E+00 -0.00000000000E+00 -0.26111594384E+03  0.26111594384E+03  0.00000000000E+00 0.  1.
          6    1    1    2  502    0 -0.77749742694E+02  0.69937088044E+02 -0.53738025774E+01  0.20136806233E+03  0.17200000000E+03 0. -1.
         -6    1    1    2    0  501  0.77749742694E+02 -0.69937088044E+02 -0.93527102982E+02  0.22196291980E+03  0.17200000000E+03 0. -1.
</event>
<event>
 4    1  0.8483901E-001  0.1764085E+03  0.7818608E-02  0.1171325E+00
         -2   -1    0    0    0  501 -0.00000000000E+00  0.00000000000E+00  0.30976993467E+02  0.30976993467E+02  0.00000000000E+00 0.  1.
          2   -1    0    0  502    0  0.00000000000E+00 -0.00000000000E+00 -0.10076154712E+04  0.10076154712E+04  0.00000000000E+00 0. -1.
          6    1    1    2  502    0  0.39095087214E+02 -0.27421736287E+01 -0.45998061972E+03  0.49264806493E+03  0.17200000000E+03 0.  1.
         -6    1    1    2    0  501 -0.39095087214E+02  0.27421736287E+01 -0.51665785806E+03  0.54594439978E+03  0.17200000000E+03 0.  1.
</event>
<event>
 4    1  0.8483901E-001  0.1932050E+03  0.7818608E-02  0.1155602E+00
         -3   -1    0    0    0  501 -0.00000000000E+00  0.00000000000E+00  0.25318097530E+03  0.25318097530E+03  0.00000000000E+00 0.  1.
          3   -1    0    0  502    0  0.00000000000E+00 -0.00000000000E+00 -0.15029075823E+03  0.15029075823E+03  0.00000000000E+00 0. -1.
          6    1    1    2  502    0  0.42927897924E+02 -0.76820447819E+02  0.79244990356E+02  0.20882517597E+03  0.17200000000E+03 0.  1.
         -6    1    1    2    0  501 -0.42927897924E+02  0.76820447819E+02  0.23645226717E+02  0.19464655756E+03  0.17200000000E+03 0. -1.
</event>
<event>
 4    1  0.8483901E-001  0.1814202E+03  0.7818608E-02  0.1166436E+00
          3   -1    0    0  502    0  0.00000000000E+00  0.00000000000E+00  0.42040948519E+03  0.42040948519E+03  0.00000000000E+00 0. -1.
         -3   -1    0    0    0  501 -0.00000000000E+00 -0.00000000000E+00 -0.81041524603E+02  0.81041524603E+02  0.00000000000E+00 0.  1.
          6    1    1    2  502    0 -0.57599201783E+02  0.34109767374E+01  0.12347400671E+03  0.21945189254E+03  0.17200000000E+03 0.  1.
         -6    1    1    2    0  501  0.57599201783E+02 -0.34109767374E+01  0.21589395388E+03  0.28199911725E+03  0.17200000000E+03 0. -1.
</event>
<event>
 4    1  0.8483901E-001  0.3266573E+03  0.7818608E-02  0.1072626E+00
         -2   -1    0    0    0  501 -0.00000000000E+00  0.00000000000E+00  0.28472084716E+03  0.28472084716E+03  0.00000000000E+00 0.  1.
          2   -1    0    0  502    0  0.00000000000E+00 -0.00000000000E+00 -0.40227094403E+03  0.40227094403E+03  0.00000000000E+00 0. -1.
          6    1    1    2  502    0  0.17686002022E+03  0.21410628813E+03 -0.14858660184E+03  0.35886341081E+03  0.17200000000E+03 0.  1.
         -6    1    1    2    0  501 -0.17686002022E+03 -0.21410628813E+03  0.31036504980E+02  0.32812838038E+03  0.17200000000E+03 0. -1.
</event>
<event>
 4    1  0.8483901E-001  0.2144439E+03  0.7818608E-02  0.1138094E+00
          2   -1    0    0  502    0  0.00000000000E+00  0.00000000000E+00  0.35938485749E+03  0.35938485749E+03  0.00000000000E+00 0.  1.
         -2   -1    0    0    0  501 -0.00000000000E+00 -0.00000000000E+00 -0.17849584871E+03  0.17849584871E+03  0.00000000000E+00 0. -1.
          6    1    1    2  502    0  0.77216970967E+02  0.10217493341E+03 -0.52658966107E+02  0.22081472853E+03  0.17200000000E+03 0. -1.
         -6    1    1    2    0  501 -0.77216970967E+02 -0.10217493341E+03  0.23354797489E+03  0.31706597768E+03  0.17200000000E+03 0.  1.
</event>
<event>
 4    1  0.8483901E-001  0.1838970E+03  0.7818608E-02  0.1164084E+00
         -2   -1    0    0    0  501 -0.00000000000E+00  0.00000000000E+00  0.29416111182E+03  0.29416111182E+03  0.00000000000E+00 0. -1.
          2   -1    0    0  502    0  0.00000000000E+00 -0.00000000000E+00 -0.79322625209E+03  0.79322625209E+03  0.00000000000E+00 0.  1.
          6    1    1    2  502    0  0.57440666034E+02  0.30572312707E+02 -0.75228525467E+03  0.77443605340E+03  0.17200000000E+03 0.  1.
         -6    1    1    2    0  501 -0.57440666034E+02 -0.30572312707E+02  0.25322011439E+03  0.31295131051E+03  0.17200000000E+03 0. -1.
</event>
<event>
 4    1  0.8483901E-001  0.1760515E+03  0.7818608E-02  0.1171680E+00
          1   -1    0    0  502    0  0.00000000000E+00  0.00000000000E+00  0.12891857610E+03  0.12891857610E+03  0.00000000000E+00 0. -1.
         -1   -1    0    0    0  501 -0.00000000000E+00 -0.00000000000E+00 -0.47269630326E+03  0.47269630326E+03  0.00000000000E+00 0.  1.
          6    1    1    2  502    0  0.71652867388E+01 -0.36861833775E+02 -0.38275328874E+03  0.42130062445E+03  0.17200000000E+03 0.  1.
         -6    1    1    2    0  501 -0.71652867388E+01  0.36861833775E+02  0.38975561574E+02  0.18031425491E+03  0.17200000000E+03 0. -1.
</event>
<event>
 4    1  0.8483901E-001  0.1815885E+03  0.7818608E-02  0.1166275E+00
          2   -1    0    0  502    0  0.00000000000E+00  0.00000000000E+00  0.42075760628E+03  0.42075760628E+03  0.00000000000E+00 0. -1.
         -2   -1    0    0    0  501 -0.00000000000E+00 -0.00000000000E+00 -0.80599319358E+02  0.80599319358E+02  0.00000000000E+00 0.  1.
          6    1    1    2  502    0 -0.53483421719E+02  0.23019502265E+02  0.21177856158E+03  0.27897048774E+03  0.17200000000E+03 0. -1.
         -6    1    1    2    0  501  0.53483421719E+02 -0.23019502265E+02  0.12837972534E+03  0.22238643790E+03  0.17200000000E+03 0.  1.
</event>
<event>
 4    1  0.8483901E-001  0.1951357E+03  0.7818608E-02  0.1153909E+00
          2   -1    0    0  502    0  0.00000000000E+00  0.00000000000E+00  0.14900875522E+04  0.14900875522E+04  0.00000000000E+00 0.  1.
         -2   -1    0    0    0  501 -0.00000000000E+00 -0.00000000000E+00 -0.26584686996E+02  0.26584686996E+02  0.00000000000E+00 0. -1.
          6    1    1    2  502    0  0.12484442617E+02 -0.91313111215E+02  0.58244646484E+03  0.61426527657E+03  0.17200000000E+03 0. -1.
         -6    1    1    2    0  501 -0.12484442617E+02  0.91313111215E+02  0.88105640038E+03  0.90240696264E+03  0.17200000000E+03 0. -1.
</event>
<event>
 4    1  0.8483901E-001  0.1852901E+03  0.7818608E-02  0.1162779E+00
          1   -1    0    0  502    0  0.00000000000E+00  0.00000000000E+00  0.52245122139E+03  0.52245122139E+03  0.00000000000E+00 0. -1.
         -1   -1    0    0    0  501 -0.00000000000E+00 -0.00000000000E+00 -0.69263467784E+02  0.69263467784E+02  0.00000000000E+00 0.  1.
          6    1    1    2  502    0  0.33686892827E+01  0.68826438268E+02  0.29356753173E+03  0.34715172815E+03  0.17200000000E+03 0. -1.
         -6    1    1    2    0  501 -0.33686892827E+01 -0.68826438268E+02  0.15962022188E+03  0.24456296102E+03  0.17200000000E+03 0.  1.
</event>
<event>
 4    1  0.8483901E-001  0.3393082E+03  0.7818608E-02  0.1067091E+00
         -1   -1    0    0    0  501 -0.00000000000E+00  0.00000000000E+00  0.12172740620E+04  0.12172740620E+04  0.00000000000E+00 0.  1.
          1   -1    0    0  502    0  0.00000000000E+00 -0.00000000000E+00 -0.95512626908E+02  0.95512626908E+02  0.00000000000E+00 0. -1.
          6    1    1    2  502    0 -0.24127477064E+03  0.16532551610E+03  0.49602654481E+03  0.60097618454E+03  0.17200000000E+03 0. -1.
         -6    1    1    2    0  501  0.24127477064E+03 -0.16532551610E+03  0.62573489030E+03  0.71181050439E+03  0.17200000000E+03 0.  1.
</event>
<event>
 4    1  0.8483901E-001  0.3442529E+03  0.7818608E-02  0.1064999E+00
          2   -1    0    0  502    0  0.00000000000E+00  0.00000000000E+00  0.18612194704E+04  0.18612194704E+04  0.00000000000E+00 0. -1.
         -2   -1    0    0    0  501 -0.00000000000E+00 -0.00000000000E+00 -0.63708489532E+02  0.63708489532E+02  0.00000000000E+00 0.  1.
          6    1    1    2  502    0 -0.29354552475E+03  0.52507861705E+02  0.87614670820E+03  0.94135174347E+03  0.17200000000E+03 0. -1.
         -6    1    1    2    0  501  0.29354552475E+03 -0.52507861705E+02  0.92136427266E+03  0.98357621645E+03  0.17200000000E+03 0.  1.
</event>
<event>
 4    1  0.8483901E-001  0.1753898E+03  0.7818608E-02  0.1172341E+00
         -1   -1    0    0    0  501 -0.00000000000E+00  0.00000000000E+00  0.33672956715E+03  0.33672956715E+03  0.00000000000E+00 0. -1.
          1   -1    0    0  502    0  0.00000000000E+00 -0.00000000000E+00 -0.13525071304E+03  0.13525071304E+03  0.00000000000E+00 0.  1.
          6    1    1    2  502    0 -0.27979784050E+02  0.19867003930E+02 -0.33704277178E+02  0.17859883667E+03  0.17200000000E+03 0.  1.
         -6    1    1    2    0  501  0.27979784050E+02 -0.19867003930E+02  0.23518313129E+03  0.29338144352E+03  0.17200000000E+03 0. -1.
</event>
<event>
 4    1  0.8483901E-001  0.1982437E+03  0.7818608E-02  0.1151229E+00
         -2   -1    0    0    0  501 -0.00000000000E+00  0.00000000000E+00  0.28239871879E+02  0.28239871879E+02  0.00000000000E+00 0. -1.
          2   -1    0    0  502    0  0.00000000000E+00 -0.00000000000E+00 -0.14323270260E+04  0.14323270260E+04  0.00000000000E+00 0.  1.
          6    1    1    2  502    0  0.92073214993E+02  0.35200428400E+02 -0.57900398933E+03  0.61200177021E+03  0.17200000000E+03 0. -1.
         -6    1    1    2    0  501 -0.92073214993E+02 -0.35200428400E+02 -0.82508316480E+03  0.84856512768E+03  0.17200000000E+03 0.  1.
</event>
<event>
 4    1  0.8483901E-001  0.2368383E+03  0.7818608E-02  0.1121917E+00
         -1   -1    0    0    0  501 -0.00000000000E+00  0.00000000000E+00  0.11067723749E+03  0.11067723749E+03  0.00000000000E+00 0. -1.
          1   -1    0    0  502    0  0.00000000000E+00 -0.00000000000E+00 -0.65294227062E+03  0.65294227062E+03  0.00000000000E+00 0.  1.
          6    1    1    2  502    0  0.14118068632E+03 -0.81094973007E+02 -0.45175924670E+03  0.51007724691E+03  0.17200000000E+03 0.  1.
         -6    1    1    2    0  501 -0.14118068632E+03  0.81094973007E+02 -0.90505786421E+02  0.25354226120E+03  0.17200000000E+03 0. -1.
</event>
<event>
 4    1  0.8483901E-001  0.2044238E+03  0.7818608E-02  0.1146059E+00
          2   -1    0    0  502    0  0.00000000000E+00  0.00000000000E+00  0.15341176954E+04  0.15341176954E+04  0.00000000000E+00 0. -1.
         -2   -1    0    0    0  501 -0.00000000000E+00 -0.00000000000E+00 -0.28348070703E+02  0.28348070703E+02  0.00000000000E+00 0.  1.
          6    1    1    2  502    0  0.27953461768E+02  0.10688176212E+03  0.59841786274E+03  0.63237097146E+03  0.17200000000E+03 0.  1.
         -6    1    1    2    0  501 -0.27953461768E+02 -0.10688176212E+03  0.90735176199E+03  0.93009479468E+03  0.17200000000E+03 0. -1.
</event>
<event>
 4    1  0.8483901E-001  0.1744046E+03  0.7818608E-02  0.1173331E+00
         -2   -1    0    0    0  501 -0.00000000000E+00  0.00000000000E+00  0.58370464900E+02  0.58370464900E+02  0.00000000000E+00 0.  1.
          2   -1    0    0  502    0  0.00000000000E+00 -0.00000000000E+00 -0.53230702144E+03  0.53230702144E+03  0.00000000000E+00 0. -1.
          6    1    1    2  502    0 -0.28158574175E+02  0.63301892906E+01 -0.27981742255E+03  0.32971922382E+03  0.17200000000E+03 0. -1.
         -6    1    1    2    0  501  0.28158574175E+02 -0.63301892906E+01 -0.19411913400E+03  0.26095826252E+03  0.17200000000E+03 0.  1.
</event>
<event>
 4    1  0.8483901E-001  0.2889751E+03  0.7818608E-02  0.1090885E+00
          2   -1    0    0  502    0  0.00000000000E+00  0.00000000000E+00  0.18517275829E+03  0.18517275829E+03  0.00000000000E+00 0. -1.
         -2   -1    0    0    0  501 -0.00000000000E+00 -0.00000000000E+00 -0.88055572413E+03  0.88055572413E+03  0.00000000000E+00 0.  1.
          6    1    1    2  502    0 -0.18844820816E+03 -0.13568309623E+03  0.24498829799E+02  0.29001176256E+03  0.17200000000E+03 0. -1.
         -6    1    1    2    0  501  0.18844820816E+03  0.13568309623E+03 -0.71988179564E+03  0.77571671985E+03  0.17200000000E+03 0.  1.
</event>
<event>
 4    1  0.8483901E-001  0.3061320E+03  0.7818608E-02  0.1082215E+00
          2   -1    0    0  502    0  0.00000000000E+00  0.00000000000E+00  0.26358795842E+03  0.26358795842E+03  0.00000000000E+00 0.  1.
         -2   -1    0    0    0  501 -0.00000000000E+00 -0.00000000000E+00 -0.36505688476E+03  0.36505688476E+03  0.00000000000E+00 0. -1.
          6    1    1    2  502    0 -0.55336338454E+02  0.24712484090E+03 -0.10147778517E+03  0.32251284971E+03  0.17200000000E+03 0.  1.
         -6    1    1    2    0  501  0.55336338454E+02 -0.24712484090E+03  0.88588260936E-02  0.30613199347E+03  0.17200000000E+03 0. -1.
</event>
<event>
 4    1  0.8483901E-001  0.1875478E+03  0.7818608E-02  0.1160692E+00
          2   -1    0    0  502    0  0.00000000000E+00  0.00000000000E+00  0.26882917856E+03  0.26882917856E+03  0.00000000000E+00 0.  1.
         -2   -1    0    0    0  501 -0.00000000000E+00 -0.00000000000E+00 -0.15564013254E+03  0.15564013254E+03  0.00000000000E+00 0. -1.
          6    1    1    2  502    0 -0.63793910071E+02  0.38993584102E+02  0.14131033906E+03  0.23482498694E+03  0.17200000000E+03 0.  1.
         -6    1    1    2    0  501  0.63793910071E+02 -0.38993584102E+02 -0.28121293044E+02  0.18964432416E+03  0.17200000000E+03 0. -1.
</event>
<event>
 4    1  0.8483901E-001  0.2136615E+03  0.7818608E-02  0.1138699E+00
          2   -1    0    0  502    0  0.00000000000E+00  0.00000000000E+00  0.65047948086E+03  0.65047948086E+03  0.00000000000E+00 0.  1.
         -2   -1    0    0    0  501 -0.00000000000E+00 -0.00000000000E+00 -0.76432975209E+02  0.76432975209E+02  0.00000000000E+00 0. -1.
          6    1    1    2  502    0  0.15396132258E+02  0.12581812502E+03  0.18307348945E+03  0.28136656520E+03  0.17200000000E+03 0. -1.
         -6    1    1    2    0  501 -0.15396132258E+02 -0.12581812502E+03  0.39097301621E+03  0.44554589087E+03  0.17200000000E+03 0.  1.
</event>
<event>
 4    1  0.8483901E-001  0.2923754E+03  0.7818608E-02  0.1089115E+00
         -2   -1    0    0    0  501 -0.00000000000E+00  0.00000000000E+00  0.28821010409E+03  0.28821010409E+03  0.00000000000E+00 0.  1.
          2   -1    0    0  502    0  0.00000000000E+00 -0.00000000000E+00 -0.30971258896E+03  0.30971258896E+03  0.00000000000E+00 0. -1.
          6    1    1    2  502    0  0.23266597677E+03  0.42022727865E+02  0.50761557717E+02  0.29674922434E+03  0.17200000000E+03 0. -1.
         -6    1    1    2    0  501 -0.23266597677E+03 -0.42022727865E+02 -0.72264042582E+02  0.30117346871E+03  0.17200000000E+03 0.  1.
</event>
<event>
 4    1  0.8483901E-001  0.1737721E+03  0.7818608E-02  0.1173970E+00
         -2   -1    0    0    0  501 -0.00000000000E+00  0.00000000000E+00  0.29377878481E+02  0.29377878481E+02  0.00000000000E+00 0. -1.
          2   -1    0    0  502    0  0.00000000000E+00 -0.00000000000E+00 -0.13363229436E+04  0.13363229436E+04  0.00000000000E+00 0.  1.
          6    1    1    2  502    0  0.18730558820E+02 -0.16184019423E+02 -0.32540629815E+03  0.36889838058E+03  0.17200000000E+03 0. -1.
         -6    1    1    2    0  501 -0.18730558820E+02  0.16184019423E+02 -0.98153876692E+03  0.99680244146E+03  0.17200000000E+03 0.  1.
</event>
<event>
 4    1  0.8483901E-001  0.1760772E+03  0.7818608E-02  0.1171654E+00
          2   -1    0    0  502    0  0.00000000000E+00  0.00000000000E+00  0.17912184137E+04  0.17912184137E+04  0.00000000000E+00 0. -1.
         -2   -1    0    0    0  501 -0.00000000000E+00 -0.00000000000E+00 -0.17325803176E+02  0.17325803176E+02  0.00000000000E+00 0.  1.
          6    1    1    2  502    0 -0.14955497335E+02 -0.34576165414E+02  0.91558115717E+03  0.93235831818E+03  0.17200000000E+03 0.  1.
         -6    1    1    2    0  501  0.14955497335E+02  0.34576165414E+02  0.85831145334E+03  0.87618589869E+03  0.17200000000E+03 0.  1.
</event>
<event>
 4    1  0.8483901E-001  0.1749167E+03  0.7818608E-02  0.1172815E+00
          2   -1    0    0  502    0  0.00000000000E+00  0.00000000000E+00  0.94423914878E+02  0.94423914878E+02  0.00000000000E+00 0. -1.
         -2   -1    0    0    0  501 -0.00000000000E+00 -0.00000000000E+00 -0.33709739877E+03  0.33709739877E+03  0.00000000000E+00 0.  1.
          6    1    1    2  502    0  0.30240668537E+02  0.98667690553E+01 -0.78850610288E+02  0.19186784490E+03  0.17200000000E+03 0. -1.
         -6    1    1    2    0  501 -0.30240668537E+02 -0.98667690553E+01 -0.16382287360E+03  0.23965346874E+03  0.17200000000E+03 0.  1.
</event>
<event>
 4    1  0.8483901E-001  0.1834794E+03  0.7818608E-02  0.1164477E+00
         -1   -1    0    0    0  501 -0.00000000000E+00  0.00000000000E+00  0.55067822626E+03  0.55067822626E+03  0.00000000000E+00 0. -1.
          1   -1    0    0  502    0  0.00000000000E+00 -0.00000000000E+00 -0.64691842641E+02  0.64691842641E+02  0.00000000000E+00 0.  1.
          6    1    1    2  502    0 -0.46791344130E+02 -0.43488776270E+02  0.17082831711E+03  0.25069307424E+03  0.17200000000E+03 0.  1.
         -6    1    1    2    0  501  0.46791344130E+02  0.43488776270E+02  0.31515806652E+03  0.36467699466E+03  0.17200000000E+03 0. -1.
</event>
<event>
 4    1  0.8483901E-001  0.1807099E+03  0.7818608E-02  0.1167118E+00
         -1   -1    0    0    0  501 -0.00000000000E+00  0.00000000000E+00  0.13473464479E+02  0.13473464479E+02  0.00000000000E+00 0. -1.
          1   -1    0    0  502    0  0.00000000000E+00 -0.00000000000E+00 -0.26462973387E+04  0.26462973387E+04  0.00000000000E+00 0.  1.
          6    1    1    2  502    0  0.20383038777E+02  0.51542202743E+02 -0.17020888741E+04  0.17116549308E+04  0.17200000000E+03 0.  1.
         -6    1    1    2    0  501 -0.20383038777E+02 -0.51542202743E+02 -0.93073500018E+03  0.94811587240E+03  0.17200000000E+03 0. -1.
</event>
<event>
 4    1  0.8483901E-001  0.1770229E+03  0.7818608E-02  0.1170716E+00
          3   -1    0    0  502    0  0.00000000000E+00  0.00000000000E+00  0.92340910077E+02  0.92340910077E+02  0.00000000000E+00 0. -1.
         -3   -1    0    0    0  501 -0.00000000000E+00 -0.00000000000E+00 -0.37035300879E+03  0.37035300879E+03  0.00000000000E+00 0.  1.
          6    1    1    2  502    0  0.41673388609E+02 -0.40550934922E+01 -0.20592739587E+03  0.27155700594E+03  0.17200000000E+03 0.  1.
         -6    1    1    2    0  501 -0.41673388609E+02  0.40550934922E+01 -0.72084702839E+02  0.19113691293E+03  0.17200000000E+03 0.  1.
</event>
<event>
 4    1  0.8483901E-001  0.2561963E+03  0.7818608E-02  0.1109450E+00
          2   -1    0    0  502    0  0.00000000000E+00  0.00000000000E+00  0.67821981375E+03  0.67821981375E+03  0.00000000000E+00 0. -1.
         -2   -1    0    0    0  501 -0.00000000000E+00 -0.00000000000E+00 -0.13068137904E+03  0.13068137904E+03  0.00000000000E+00 0.  1.
          6    1    1    2  502    0  0.13941305174E+03  0.12890509456E+03  0.67762047867E+02  0.26500607075E+03  0.17200000000E+03 0.  1.
         -6    1    1    2    0  501 -0.13941305174E+03 -0.12890509456E+03  0.47977638684E+03  0.54389512204E+03  0.17200000000E+03 0. -1.
</event>
<event>
 4    1  0.8483901E-001  0.2092967E+03  0.7818608E-02  0.1142124E+00
          4   -1    0    0  502    0  0.00000000000E+00  0.00000000000E+00  0.53690093270E+02  0.53690093270E+02  0.00000000000E+00 0. -1.
         -4   -1    0    0    0  501 -0.00000000000E+00 -0.00000000000E+00 -0.82594577621E+03  0.82594577621E+03  0.00000000000E+00 0.  1.
          6    1    1    2  502    0  0.22161309614E+02  0.11717499233E+03 -0.33759359513E+03  0.39720843136E+03  0.17200000000E+03 0.  1.
         -6    1    1    2    0  501 -0.22161309614E+02 -0.11717499233E+03 -0.43466208781E+03  0.48242743812E+03  0.17200000000E+03 0. -1.
</event>
<event>
 4    1  0.8483901E-001  0.1857850E+03  0.7818608E-02  0.1162319E+00
          1   -1    0    0  502    0  0.00000000000E+00  0.00000000000E+00  0.45883701230E+03  0.45883701230E+03  0.00000000000E+00 0. -1.
         -1   -1    0    0    0  501 -0.00000000000E+00 -0.00000000000E+00 -0.76465974039E+02  0.76465974039E+02  0.00000000000E+00 0.  1.
          6    1    1    2  502    0  0.44734601133E+02 -0.54137781214E+02  0.15709054654E+03  0.24329719215E+03  0.17200000000E+03 0.  1.
         -6    1    1    2    0  501 -0.44734601133E+02  0.54137781214E+02  0.22528049172E+03  0.29200579419E+03  0.17200000000E+03 0.  1.
</event>
<event>
 4    1  0.8483901E-001  0.1836289E+03  0.7818608E-02  0.1164337E+00
         -1   -1    0    0    0  501 -0.00000000000E+00  0.00000000000E+00  0.20054492473E+02  0.20054492473E+02  0.00000000000E+00 0. -1.
          1   -1    0    0  502    0  0.00000000000E+00 -0.00000000000E+00 -0.17878703390E+04  0.17878703390E+04  0.00000000000E+00 0.  1.
          6    1    1    2  502    0 -0.37612734337E+01  0.64198263839E+02 -0.11045065082E+04  0.11196670000E+04  0.17200000000E+03 0. -1.
         -6    1    1    2    0  501  0.37612734337E+01 -0.64198263839E+02 -0.66330933837E+03  0.68825783150E+03  0.17200000000E+03 0. -1.
</event>
<event>
 4    1  0.8483901E-001  0.2289122E+03  0.7818608E-02  0.1127408E+00
         -2   -1    0    0    0  501 -0.00000000000E+00  0.00000000000E+00  0.18549846533E+03  0.18549846533E+03  0.00000000000E+00 0. -1.
          2   -1    0    0  502    0  0.00000000000E+00 -0.00000000000E+00 -0.30215122971E+03  0.30215122971E+03  0.00000000000E+00 0.  1.
          6    1    1    2  502    0  0.61434170325E+02 -0.13799507479E+03 -0.12052928020E+03  0.25870466818E+03  0.17200000000E+03 0.  1.
         -6    1    1    2    0  501 -0.61434170325E+02  0.13799507479E+03  0.38765158213E+01  0.22894502686E+03  0.17200000000E+03 0. -1.
</event>
<event>
 4    1  0.8483901E-001  0.2287179E+03  0.7818608E-02  0.1127545E+00
          1   -1    0    0  502    0  0.00000000000E+00  0.00000000000E+00  0.67871434298E+03  0.67871434298E+03  0.00000000000E+00 0. -1.
         -1   -1    0    0    0  501 -0.00000000000E+00 -0.00000000000E+00 -0.98524962917E+02  0.98524962917E+02  0.00000000000E+00 0.  1.
          6    1    1    2  502    0  0.10757412116E+03  0.10562056647E+03  0.47142277590E+03  0.52397645867E+03  0.17200000000E+03 0. -1.
         -6    1    1    2    0  501 -0.10757412116E+03 -0.10562056647E+03  0.10876660417E+03  0.25326284723E+03  0.17200000000E+03 0.  1.
</event>
<event>
 4    1  0.8483901E-001  0.2559173E+03  0.7818608E-02  0.1109621E+00
          1   -1    0    0  502    0  0.00000000000E+00  0.00000000000E+00  0.21611904430E+04  0.21611904430E+04  0.00000000000E+00 0.  1.
         -1   -1    0    0    0  501 -0.00000000000E+00 -0.00000000000E+00 -0.35687679831E+02  0.35687679831E+02  0.00000000000E+00 0. -1.
          6    1    1    2  502    0  0.17488096447E+03  0.72981748174E+02  0.63613426099E+03  0.68568249599E+03  0.17200000000E+03 0. -1.
         -6    1    1    2    0  501 -0.17488096447E+03 -0.72981748174E+02  0.14893685022E+04  0.15111956269E+04  0.17200000000E+03 0.  1.
</event>
<event>
 4    1  0.8483901E-001  0.2018573E+03  0.7818608E-02  0.1148181E+00
         -2   -1    0    0    0  501 -0.00000000000E+00  0.00000000000E+00  0.12348462793E+03  0.12348462793E+03  0.00000000000E+00 0.  1.
          2   -1    0    0  502    0  0.00000000000E+00 -0.00000000000E+00 -0.40054224572E+03  0.40054224572E+03  0.00000000000E+00 0. -1.
          6    1    1    2  502    0  0.10143944733E+03 -0.29536879496E+02 -0.24850843296E+03  0.32016063152E+03  0.17200000000E+03 0. -1.
         -6    1    1    2    0  501 -0.10143944733E+03  0.29536879496E+02 -0.28549184837E+02  0.20386624213E+03  0.17200000000E+03 0.  1.
</event>
<event>
 4    1  0.8483901E-001  0.2676364E+03  0.7818608E-02  0.1102640E+00
          2   -1    0    0  502    0  0.00000000000E+00  0.00000000000E+00  0.13932118883E+03  0.13932118883E+03  0.00000000000E+00 0. -1.
         -2   -1    0    0    0  501 -0.00000000000E+00 -0.00000000000E+00 -0.52862802201E+03  0.52862802201E+03  0.00000000000E+00 0.  1.
          6    1    1    2  502    0 -0.98195350740E+02  0.18000815692E+03 -0.24996119468E+03  0.36621013409E+03  0.17200000000E+03 0. -1.
         -6    1    1    2    0  501  0.98195350740E+02 -0.18000815692E+03 -0.13934563851E+03  0.30173907675E+03  0.17200000000E+03 0.  1.
</event>
<event>
 4    1  0.8483901E-001  0.2484393E+03  0.7818608E-02  0.1114295E+00
         -2   -1    0    0    0  501 -0.00000000000E+00  0.00000000000E+00  0.39848550014E+02  0.39848550014E+02  0.00000000000E+00 0.  1.
          2   -1    0    0  502    0  0.00000000000E+00 -0.00000000000E+00 -0.15984515044E+04  0.15984515044E+04  0.00000000000E+00 0. -1.
          6    1    1    2  502    0  0.51555404236E+01 -0.17919679673E+03 -0.63509977813E+03  0.68196319529E+03  0.17200000000E+03 0.  1.
         -6    1    1    2    0  501 -0.51555404236E+01  0.17919679673E+03 -0.92350317624E+03  0.95633685910E+03  0.17200000000E+03 0. -1.
</event>
<event>
 4    1  0.8483901E-001  0.2452449E+03  0.7818608E-02  0.1116347E+00
          1   -1    0    0  502    0  0.00000000000E+00  0.00000000000E+00  0.44411742597E+03  0.44411742597E+03  0.00000000000E+00 0. -1.
         -1   -1    0    0    0  501 -0.00000000000E+00 -0.00000000000E+00 -0.13566619125E+03  0.13566619125E+03  0.00000000000E+00 0.  1.
          6    1    1    2  502    0  0.21226128671E+02 -0.17352379275E+03  0.16642284376E+03  0.29638086665E+03  0.17200000000E+03 0.  1.
         -6    1    1    2    0  501 -0.21226128671E+02  0.17352379275E+03  0.14202839096E+03  0.28340275057E+03  0.17200000000E+03 0. -1.
</event>
<event>
 4    1  0.8483901E-001  0.2402816E+03  0.7818608E-02  0.1119605E+00
         -1   -1    0    0    0  501 -0.00000000000E+00  0.00000000000E+00  0.49292215901E+02  0.49292215901E+02  0.00000000000E+00 0.  1.
          1   -1    0    0  502    0  0.00000000000E+00 -0.00000000000E+00 -0.12173502857E+04  0.12173502857E+04  0.00000000000E+00 0. -1.
          6    1    1    2  502    0  0.15694620005E+03  0.59322255366E+02 -0.46083135362E+03  0.51971220514E+03  0.17200000000E+03 0.  1.
         -6    1    1    2    0  501 -0.15694620005E+03 -0.59322255366E+02 -0.70722671614E+03  0.74693029642E+03  0.17200000000E+03 0. -1.
</event>
<event>
 4    1  0.8483901E-001  0.1856950E+03  0.7818608E-02  0.1162402E+00
         -2   -1    0    0    0  501 -0.00000000000E+00  0.00000000000E+00  0.31841472878E+02  0.31841472878E+02  0.00000000000E+00 0.  1.
          2   -1    0    0  502    0  0.00000000000E+00 -0.00000000000E+00 -0.10951151437E+04  0.10951151437E+04  0.00000000000E+00 0. -1.
          6    1    1    2  502    0  0.53661529446E+02 -0.44934117913E+02 -0.47224107352E+03  0.50743892856E+03  0.17200000000E+03 0. -1.
         -6    1    1    2    0  501 -0.53661529446E+02  0.44934117913E+02 -0.59103259726E+03  0.61951768798E+03  0.17200000000E+03 0. -1.
</event>
<event>
 4    1  0.8483901E-001  0.1877726E+03  0.7818608E-02  0.1160486E+00
          1   -1    0    0  502    0  0.00000000000E+00  0.00000000000E+00  0.95657446349E+03  0.95657446349E+03  0.00000000000E+00 0. -1.
         -1   -1    0    0    0  501 -0.00000000000E+00 -0.00000000000E+00 -0.38652245938E+02  0.38652245938E+02  0.00000000000E+00 0.  1.
          6    1    1    2  502    0 -0.20624432637E+02  0.72451165437E+02  0.56613877017E+03  0.59646596356E+03  0.17200000000E+03 0. -1.
         -6    1    1    2    0  501  0.20624432637E+02 -0.72451165437E+02  0.35178344738E+03  0.39876074587E+03  0.17200000000E+03 0.  1.
</event>
<event>
 4    1  0.8483901E-001  0.2881754E+03  0.7818608E-02  0.1091306E+00
         -1   -1    0    0    0  501 -0.00000000000E+00  0.00000000000E+00  0.32370119627E+02  0.32370119627E+02  0.00000000000E+00 0.  1.
          1   -1    0    0  502    0  0.00000000000E+00 -0.00000000000E+00 -0.44064733239E+04  0.44064733239E+04  0.00000000000E+00 0. -1.
          6    1    1    2  502    0 -0.14858762913E+03  0.17715188777E+03 -0.75248832561E+03  0.80578145613E+03  0.17200000000E+03 0. -1.
         -6    1    1    2    0  501  0.14858762913E+03 -0.17715188777E+03 -0.36216148787E+04  0.36330619874E+04  0.17200000000E+03 0. -1.
</event>
<event>
 4    1  0.8483901E-001  0.1740894E+03  0.7818608E-02  0.1173649E+00
         -2   -1    0    0    0  501 -0.00000000000E+00  0.00000000000E+00  0.14533082218E+02  0.14533082218E+02  0.00000000000E+00 0. -1.
          2   -1    0    0  502    0  0.00000000000E+00 -0.00000000000E+00 -0.20943690346E+04  0.20943690346E+04  0.00000000000E+00 0.  1.
          6    1    1    2  502    0  0.16792090881E+02  0.21003387217E+02 -0.97086843526E+03  0.98635320002E+03  0.17200000000E+03 0.  1.
         -6    1    1    2    0  501 -0.16792090881E+02 -0.21003387217E+02 -0.11089675171E+04  0.11225489168E+04  0.17200000000E+03 0.  1.
</event>
<event>
 4    1  0.8483901E-001  0.1806118E+03  0.7818608E-02  0.1167212E+00
          1   -1    0    0  502    0  0.00000000000E+00  0.00000000000E+00  0.10345674231E+03  0.10345674231E+03  0.00000000000E+00 0. -1.
         -1   -1    0    0    0  501 -0.00000000000E+00 -0.00000000000E+00 -0.31631335259E+03  0.31631335259E+03  0.00000000000E+00 0.  1.
          6    1    1    2  502    0 -0.43670177225E+02  0.33608861733E+02 -0.11826655659E+03  0.21588797644E+03  0.17200000000E+03 0. -1.
         -6    1    1    2    0  501  0.43670177225E+02 -0.33608861733E+02 -0.94590053693E+02  0.20388211845E+03  0.17200000000E+03 0.  1.
</event>
<event>
 4    1  0.8483901E-001  0.1813248E+03  0.7818608E-02  0.1166527E+00
         -1   -1    0    0    0  501 -0.00000000000E+00  0.00000000000E+00  0.74358140451E+02  0.74358140451E+02  0.00000000000E+00 0.  1.
          1   -1    0    0  502    0  0.00000000000E+00 -0.00000000000E+00 -0.45346621865E+03  0.45346621865E+03  0.00000000000E+00 0. -1.
          6    1    1    2  502    0 -0.57256633551E+02 -0.40466880071E+01 -0.14789436647E+03  0.23399025920E+03  0.17200000000E+03 0.  1.
         -6    1    1    2    0  501  0.57256633551E+02  0.40466880071E+01 -0.23121371173E+03  0.29383409990E+03  0.17200000000E+03 0. -1.
</event>
<event>
 4    1  0.8483901E-001  0.1814642E+03  0.7818608E-02  0.1166393E+00
          1   -1    0    0  502    0  0.00000000000E+00  0.00000000000E+00  0.27482795669E+04  0.27482795669E+04  0.00000000000E+00 0.  1.
         -1   -1    0    0    0  501 -0.00000000000E+00 -0.00000000000E+00 -0.21738512347E+02  0.21738512347E+02  0.00000000000E+00 0. -1.
          6    1    1    2  502    0 -0.41910912706E+01  0.57686262783E+02  0.22911466145E+04  0.22983215788E+04  0.17200000000E+03 0.  1.
         -6    1    1    2    0  501  0.41910912706E+01 -0.57686262783E+02  0.43539444001E+03  0.47169650046E+03  0.17200000000E+03 0. -1.
</event>
<event>
 4    1  0.8483901E-001  0.1801062E+03  0.7818608E-02  0.1167700E+00
          1   -1    0    0  502    0  0.00000000000E+00  0.00000000000E+00  0.19659259819E+04  0.19659259819E+04  0.00000000000E+00 0.  1.
         -1   -1    0    0    0  501 -0.00000000000E+00 -0.00000000000E+00 -0.24435067494E+02  0.24435067494E+02  0.00000000000E+00 0. -1.
          6    1    1    2  502    0 -0.61539073026E+01 -0.53069442311E+02  0.15378511932E+04  0.15483618856E+04  0.17200000000E+03 0.  1.
         -6    1    1    2    0  501  0.61539073026E+01  0.53069442311E+02  0.40363972125E+03  0.44199916386E+03  0.17200000000E+03 0. -1.
</event>
<event>
 4    1  0.8483901E-001  0.2376314E+03  0.7818608E-02  0.1121381E+00
          1   -1    0    0  502    0  0.00000000000E+00  0.00000000000E+00  0.14342708844E+04  0.14342708844E+04  0.00000000000E+00 0. -1.
         -1   -1    0    0    0  501 -0.00000000000E+00 -0.00000000000E+00 -0.44475494385E+02  0.44475494385E+02  0.00000000000E+00 0.  1.
          6    1    1    2  502    0  0.11469971137E+03  0.11716945563E+03  0.44441432571E+03  0.50395713907E+03  0.17200000000E+03 0. -1.
         -6    1    1    2    0  501 -0.11469971137E+03 -0.11716945563E+03  0.94538106428E+03  0.97478923969E+03  0.17200000000E+03 0.  1.
</event>
<event>
 4    1  0.8483901E-001  0.1753918E+03  0.7818608E-02  0.1172339E+00
          2   -1    0    0  502    0  0.00000000000E+00  0.00000000000E+00  0.11599772470E+04  0.11599772470E+04  0.00000000000E+00 0. -1.
         -2   -1    0    0    0  501 -0.00000000000E+00 -0.00000000000E+00 -0.26672270113E+02  0.26672270113E+02  0.00000000000E+00 0.  1.
          6    1    1    2  502    0 -0.16282863115E+02 -0.30218277559E+02  0.52178170253E+03  0.55047109009E+03  0.17200000000E+03 0.  1.
         -6    1    1    2    0  501  0.16282863115E+02  0.30218277559E+02  0.61152327436E+03  0.63617842702E+03  0.17200000000E+03 0. -1.
</event>
<event>
 4    1  0.8483901E-001  0.4384867E+03  0.7818608E-02  0.1031212E+00
          1   -1    0    0  502    0  0.00000000000E+00  0.00000000000E+00  0.28217138469E+04  0.28217138469E+04  0.00000000000E+00 0. -1.
         -1   -1    0    0    0  501 -0.00000000000E+00 -0.00000000000E+00 -0.72539602888E+02  0.72539602888E+02  0.00000000000E+00 0.  1.
          6    1    1    2  502    0  0.39752200585E+03 -0.68285126282E+02  0.10181829156E+04  0.11085878645E+04  0.17200000000E+03 0. -1.
         -6    1    1    2    0  501 -0.39752200585E+03  0.68285126282E+02  0.17309913284E+04  0.17856655853E+04  0.17200000000E+03 0.  1.
</event>
<event>
 4    1  0.8483901E-001  0.1730304E+03  0.7818608E-02  0.1174724E+00
          2   -1    0    0  502    0  0.00000000000E+00  0.00000000000E+00  0.31912479557E+03  0.31912479557E+03  0.00000000000E+00 0. -1.
         -2   -1    0    0    0  501 -0.00000000000E+00 -0.00000000000E+00 -0.96232480499E+02  0.96232480499E+02  0.00000000000E+00 0.  1.
          6    1    1    2  502    0  0.15873012925E+02  0.10177229451E+02  0.14434473241E+03  0.22533293215E+03  0.17200000000E+03 0. -1.
         -6    1    1    2    0  501 -0.15873012925E+02 -0.10177229451E+02  0.78547582663E+02  0.19002434392E+03  0.17200000000E+03 0.  1.
</event>
<event>
 4    1  0.8483901E-001  0.2279648E+03  0.7818608E-02  0.1128080E+00
         -1   -1    0    0    0  501 -0.00000000000E+00  0.00000000000E+00  0.25305361526E+03  0.25305361526E+03  0.00000000000E+00 0. -1.
          1   -1    0    0  502    0  0.00000000000E+00 -0.00000000000E+00 -0.58391632750E+03  0.58391632750E+03  0.00000000000E+00 0.  1.
          6    1    1    2  502    0 -0.12490035563E+03 -0.82364254440E+02  0.17152047390E+03  0.28528449347E+03  0.17200000000E+03 0. -1.
         -6    1    1    2    0  501  0.12490035563E+03  0.82364254440E+02 -0.50238318614E+03  0.55168544930E+03  0.17200000000E+03 0.  1.
</event>
<event>
 4    1  0.8483901E-001  0.1732910E+03  0.7818608E-02  0.1174459E+00
          1   -1    0    0  502    0  0.00000000000E+00  0.00000000000E+00  0.15363920473E+03  0.15363920473E+03  0.00000000000E+00 0. -1.
         -1   -1    0    0    0  501 -0.00000000000E+00 -0.00000000000E+00 -0.19898982168E+03  0.19898982168E+03  0.00000000000E+00 0.  1.
          6    1    1    2  502    0  0.20708508405E+02  0.41137234335E+01  0.81943411263E+00  0.17329292113E+03  0.17200000000E+03 0. -1.
         -6    1    1    2    0  501 -0.20708508405E+02 -0.41137234335E+01 -0.46170051066E+02  0.17933610528E+03  0.17200000000E+03 0. -1.
</event>
<event>
 4    1  0.8483901E-001  0.2041804E+03  0.7818608E-02  0.1146259E+00
          3   -1    0    0  502    0  0.00000000000E+00  0.00000000000E+00  0.55677888694E+02  0.55677888694E+02  0.00000000000E+00 0. -1.
         -3   -1    0    0    0  501 -0.00000000000E+00 -0.00000000000E+00 -0.11369394046E+04  0.11369394046E+04  0.00000000000E+00 0.  1.
          6    1    1    2  502    0 -0.39650781120E+02 -0.10263260192E+03 -0.88906119463E+03  0.91220581187E+03  0.17200000000E+03 0.  1.
         -6    1    1    2    0  501  0.39650781120E+02  0.10263260192E+03 -0.19220032131E+03  0.28041148146E+03  0.17200000000E+03 0. -1.
</event>
<event>
 4    1  0.8483901E-001  0.1855660E+03  0.7818608E-02  0.1162522E+00
         -1   -1    0    0    0  501 -0.00000000000E+00  0.00000000000E+00  0.11020901380E+03  0.11020901380E+03  0.00000000000E+00 0. -1.
          1   -1    0    0  502    0  0.00000000000E+00 -0.00000000000E+00 -0.33828207678E+03  0.33828207678E+03  0.00000000000E+00 0.  1.
          6    1    1    2  502    0  0.65738484465E+02 -0.23004005578E+02 -0.17600483644E+03  0.25575854837E+03  0.17200000000E+03 0.  1.
         -6    1    1    2    0  501 -0.65738484465E+02  0.23004005578E+02 -0.52068226543E+02  0.19273254221E+03  0.17200000000E+03 0. -1.
</event>
<event>
 4    1  0.8483901E-001  0.2519442E+03  0.7818608E-02  0.1112082E+00
          2   -1    0    0  502    0  0.00000000000E+00  0.00000000000E+00  0.18756621970E+04  0.18756621970E+04  0.00000000000E+00 0.  1.
         -2   -1    0    0    0  501 -0.00000000000E+00 -0.00000000000E+00 -0.35069807304E+02  0.35069807304E+02  0.00000000000E+00 0. -1.
          6    1    1    2  502    0  0.15741322473E+03  0.95461763839E+02  0.10990665036E+04  0.11275739670E+04  0.17200000000E+03 0.  1.
         -6    1    1    2    0  501 -0.15741322473E+03 -0.95461763839E+02  0.74152588610E+03  0.78315803733E+03  0.17200000000E+03 0. -1.
</event>
<event>
 4    1  0.8483901E-001  0.1902741E+03  0.7818608E-02  0.1158214E+00
         -2   -1    0    0    0  501 -0.00000000000E+00  0.00000000000E+00  0.13754588088E+02  0.13754588088E+02  0.00000000000E+00 0.  1.
          2   -1    0    0  502    0  0.00000000000E+00 -0.00000000000E+00 -0.26520473617E+04  0.26520473617E+04  0.00000000000E+00 0. -1.
          6    1    1    2  502    0  0.13584408504E+02  0.80222720780E+02 -0.14345820191E+04  0.14471453937E+04  0.17200000000E+03 0.  1.
         -6    1    1    2    0  501 -0.13584408504E+02 -0.80222720780E+02 -0.12037107545E+04  0.12186565561E+04  0.17200000000E+03 0.  1.
</event>
<event>
 4    1  0.8483901E-001  0.2070073E+03  0.7818608E-02  0.1143958E+00
         -1   -1    0    0    0  501 -0.00000000000E+00  0.00000000000E+00  0.16492373592E+03  0.16492373592E+03  0.00000000000E+00 0. -1.
          1   -1    0    0  502    0  0.00000000000E+00 -0.00000000000E+00 -0.28727980785E+03  0.28727980785E+03  0.00000000000E+00 0.  1.
          6    1    1    2  502    0 -0.90786076855E+02 -0.70893513516E+02  0.87139554460E+01  0.20719057659E+03  0.17200000000E+03 0. -1.
         -6    1    1    2    0  501  0.90786076855E+02  0.70893513516E+02 -0.13107002737E+03  0.24501296718E+03  0.17200000000E+03 0.  1.
</event>
<event>
 4    1  0.8483901E-001  0.2293295E+03  0.7818608E-02  0.1127113E+00
          1   -1    0    0  502    0  0.00000000000E+00  0.00000000000E+00  0.15517732858E+03  0.15517732858E+03  0.00000000000E+00 0.  1.
         -1   -1    0    0    0  501 -0.00000000000E+00 -0.00000000000E+00 -0.70860328768E+03  0.70860328768E+03  0.00000000000E+00 0. -1.
          6    1    1    2  502    0 -0.29768064652E+02  0.14873431162E+03 -0.58866608318E+03  0.63175928217E+03  0.17200000000E+03 0. -1.
         -6    1    1    2    0  501  0.29768064652E+02 -0.14873431162E+03  0.35240124085E+02  0.23202133408E+03  0.17200000000E+03 0.  1.
</event>
<event>
 4    1  0.8483901E-001  0.1770153E+03  0.7818608E-02  0.1170723E+00
         -2   -1    0    0    0  501 -0.00000000000E+00  0.00000000000E+00  0.22815034134E+03  0.22815034134E+03  0.00000000000E+00 0.  1.
          2   -1    0    0  502    0  0.00000000000E+00 -0.00000000000E+00 -0.63419015501E+03  0.63419015501E+03  0.00000000000E+00 0. -1.
          6    1    1    2  502    0  0.95764948078E+01  0.40727272813E+02  0.17861779306E+03  0.25147313177E+03  0.17200000000E+03 0.  1.
         -6    1    1    2    0  501 -0.95764948078E+01 -0.40727272813E+02 -0.58465760673E+03  0.61086736458E+03  0.17200000000E+03 0. -1.
</event>
<event>
 4    1  0.8483901E-001  0.2212061E+03  0.7818608E-02  0.1132987E+00
         -2   -1    0    0    0  501 -0.00000000000E+00  0.00000000000E+00  0.25341739380E+03  0.25341739380E+03  0.00000000000E+00 0. -1.
          2   -1    0    0  502    0  0.00000000000E+00 -0.00000000000E+00 -0.28507960685E+03  0.28507960685E+03  0.00000000000E+00 0.  1.
          6    1    1    2  502    0 -0.63965529566E+02 -0.12351737135E+03  0.13711618258E+03  0.26025560037E+03  0.17200000000E+03 0. -1.
         -6    1    1    2    0  501  0.63965529566E+02  0.12351737135E+03 -0.16877839563E+03  0.27824140028E+03  0.17200000000E+03 0.  1.
</event>
<event>
 4    1  0.8483901E-001  0.1931821E+03  0.7818608E-02  0.1155622E+00
         -2   -1    0    0    0  501 -0.00000000000E+00  0.00000000000E+00  0.45127605814E+03  0.45127605814E+03  0.00000000000E+00 0. -1.
          2   -1    0    0  502    0  0.00000000000E+00 -0.00000000000E+00 -0.10849269217E+03  0.10849269217E+03  0.00000000000E+00 0.  1.
          6    1    1    2  502    0  0.61890771811E+02  0.62488745525E+02  0.30786554761E+03  0.36345633350E+03  0.17200000000E+03 0. -1.
         -6    1    1    2    0  501 -0.61890771811E+02 -0.62488745525E+02  0.34917818355E+02  0.19631241680E+03  0.17200000000E+03 0.  1.
</event>
<event>
 4    1  0.8483901E-001  0.1764851E+03  0.7818608E-02  0.1171249E+00
         -1   -1    0    0    0  501 -0.00000000000E+00  0.00000000000E+00  0.10498967271E+03  0.10498967271E+03  0.00000000000E+00 0.  1.
          1   -1    0    0  502    0  0.00000000000E+00 -0.00000000000E+00 -0.30582854984E+03  0.30582854984E+03  0.00000000000E+00 0. -1.
          6    1    1    2  502    0 -0.33820403369E+02  0.20473546798E+02 -0.13597126165E+03  0.22278951905E+03  0.17200000000E+03 0. -1.
         -6    1    1    2    0  501  0.33820403369E+02 -0.20473546798E+02 -0.64867615480E+02  0.18802870350E+03  0.17200000000E+03 0.  1.
</event>
<event>
 4    1  0.8483901E-001  0.1913617E+03  0.7818608E-02  0.1157239E+00
          1   -1    0    0  502    0  0.00000000000E+00  0.00000000000E+00  0.27764957950E+03  0.27764957950E+03  0.00000000000E+00 0.  1.
         -1   -1    0    0    0  501 -0.00000000000E+00 -0.00000000000E+00 -0.17478247428E+03  0.17478247428E+03  0.00000000000E+00 0. -1.
          6    1    1    2  502    0  0.83734107710E+02 -0.48902438757E+01 -0.60629624782E+02  0.20073680948E+03  0.17200000000E+03 0. -1.
         -6    1    1    2    0  501 -0.83734107710E+02  0.48902438757E+01  0.16349673001E+03  0.25169524430E+03  0.17200000000E+03 0.  1.
</event>
<event>
 4    1  0.8483901E-001  0.1877286E+03  0.7818608E-02  0.1160526E+00
          4   -1    0    0  502    0  0.00000000000E+00  0.00000000000E+00  0.13433026208E+03  0.13433026208E+03  0.00000000000E+00 0.  1.
         -4   -1    0    0    0  501 -0.00000000000E+00 -0.00000000000E+00 -0.61608373941E+03  0.61608373941E+03  0.00000000000E+00 0. -1.
          6    1    1    2  502    0  0.74363854753E+02  0.11316144507E+02  0.43429929578E+02  0.19268678420E+03  0.17200000000E+03 0.  1.
         -6    1    1    2    0  501 -0.74363854753E+02 -0.11316144507E+02 -0.52518340690E+03  0.55772721729E+03  0.17200000000E+03 0. -1.
</event>
<event>
 4    1  0.8483901E-001  0.1975479E+03  0.7818608E-02  0.1151824E+00
          2   -1    0    0  502    0  0.00000000000E+00  0.00000000000E+00  0.10382881605E+03  0.10382881605E+03  0.00000000000E+00 0. -1.
         -2   -1    0    0    0  501 -0.00000000000E+00 -0.00000000000E+00 -0.40657131485E+03  0.40657131485E+03  0.00000000000E+00 0.  1.
          6    1    1    2  502    0 -0.95563444935E+02 -0.17572690960E+02 -0.81232717653E+02  0.21359757932E+03  0.17200000000E+03 0.  1.
         -6    1    1    2    0  501  0.95563444935E+02  0.17572690960E+02 -0.22150978115E+03  0.29680255157E+03  0.17200000000E+03 0. -1.
</event>
<event>
 4    1  0.8483901E-001  0.1791117E+03  0.7818608E-02  0.1168666E+00
          3   -1    0    0  502    0  0.00000000000E+00  0.00000000000E+00  0.15932311994E+02  0.15932311994E+02  0.00000000000E+00 0.  1.
         -3   -1    0    0    0  501 -0.00000000000E+00 -0.00000000000E+00 -0.20541448632E+04  0.20541448632E+04  0.00000000000E+00 0. -1.
          6    1    1    2  502    0  0.40646563063E+02  0.29066369020E+02 -0.87365687190E+03  0.89182808136E+03  0.17200000000E+03 0.  1.
         -6    1    1    2    0  501 -0.40646563063E+02 -0.29066369020E+02 -0.11645556793E+04  0.11782490938E+04  0.17200000000E+03 0.  1.
</event>
<event>
 4    1  0.8483901E-001  0.2086727E+03  0.7818608E-02  0.1142621E+00
         -1   -1    0    0    0  501 -0.00000000000E+00  0.00000000000E+00  0.34737288364E+02  0.34737288364E+02  0.00000000000E+00 0. -1.
          1   -1    0    0  502    0  0.00000000000E+00 -0.00000000000E+00 -0.12722808972E+04  0.12722808972E+04  0.00000000000E+00 0.  1.
          6    1    1    2  502    0 -0.89420853021E+02 -0.77228406808E+02 -0.53944068374E+03  0.57839481935E+03  0.17200000000E+03 0.  1.
         -6    1    1    2    0  501  0.89420853021E+02  0.77228406808E+02 -0.69810292514E+03  0.72862336626E+03  0.17200000000E+03 0.  1.
</event>
<event>
 4    1  0.8483901E-001  0.2397934E+03  0.7818608E-02  0.1119931E+00
         -1   -1    0    0    0  501 -0.00000000000E+00  0.00000000000E+00  0.48568219086E+03  0.48568219086E+03  0.00000000000E+00 0.  1.
          1   -1    0    0  502    0  0.00000000000E+00 -0.00000000000E+00 -0.13242139821E+03  0.13242139821E+03  0.00000000000E+00 0. -1.
          6    1    1    2  502    0  0.78467035560E+02  0.14751204551E+03  0.27722435976E+03  0.36654361935E+03  0.17200000000E+03 0.  1.
         -6    1    1    2    0  501 -0.78467035560E+02 -0.14751204551E+03  0.76036432880E+02  0.25155996972E+03  0.17200000000E+03 0. -1.
</event>
<event>
 4    1  0.8483901E-001  0.2160541E+03  0.7818608E-02  0.1136860E+00
          2   -1    0    0  502    0  0.00000000000E+00  0.00000000000E+00  0.61297291078E+03  0.61297291078E+03  0.00000000000E+00 0.  1.
         -2   -1    0    0    0  501 -0.00000000000E+00 -0.00000000000E+00 -0.87489247378E+02  0.87489247378E+02  0.00000000000E+00 0. -1.
          6    1    1    2  502    0  0.13039615865E+03  0.96024183906E+01  0.13666848145E+03  0.25565140025E+03  0.17200000000E+03 0. -1.
         -6    1    1    2    0  501 -0.13039615865E+03 -0.96024183906E+01  0.38881518195E+03  0.44481075790E+03  0.17200000000E+03 0.  1.
</event>
<event>
 4    1  0.8483901E-001  0.1833098E+03  0.7818608E-02  0.1164638E+00
         -2   -1    0    0    0  501 -0.00000000000E+00  0.00000000000E+00  0.86429836528E+01  0.86429836528E+01  0.00000000000E+00 0.  1.
          2   -1    0    0  502    0  0.00000000000E+00 -0.00000000000E+00 -0.42281773007E+04  0.42281773007E+04  0.00000000000E+00 0. -1.
          6    1    1    2  502    0 -0.25892167784E+02  0.57862557093E+02 -0.27107920880E+04  0.27169829268E+04  0.17200000000E+03 0. -1.
         -6    1    1    2    0  501  0.25892167784E+02 -0.57862557093E+02 -0.15087422290E+04  0.15198373575E+04  0.17200000000E+03 0.  1.
</event>
<event>
 4    1  0.8483901E-001  0.1782626E+03  0.7818608E-02  0.1169495E+00
          1   -1    0    0  502    0  0.00000000000E+00  0.00000000000E+00  0.41331773791E+03  0.41331773791E+03  0.00000000000E+00 0.  1.
         -1   -1    0    0    0  501 -0.00000000000E+00 -0.00000000000E+00 -0.77415289654E+02  0.77415289654E+02  0.00000000000E+00 0. -1.
          6    1    1    2  502    0  0.45465116308E+02  0.11246011546E+02  0.18827663352E+03  0.25927907803E+03  0.17200000000E+03 0.  1.
         -6    1    1    2    0  501 -0.45465116308E+02 -0.11246011546E+02  0.14762581474E+03  0.23145394953E+03  0.17200000000E+03 0.  1.
</event>
<event>
 4    1  0.8483901E-001  0.1867937E+03  0.7818608E-02  0.1161385E+00
         -1   -1    0    0    0  501 -0.00000000000E+00  0.00000000000E+00  0.83595672959E+02  0.83595672959E+02  0.00000000000E+00 0.  1.
          1   -1    0    0  502    0  0.00000000000E+00 -0.00000000000E+00 -0.44122459556E+03  0.44122459556E+03  0.00000000000E+00 0. -1.
          6    1    1    2  502    0  0.26193073173E+02 -0.67983856084E+02 -0.23980567841E+03  0.30397145452E+03  0.17200000000E+03 0. -1.
         -6    1    1    2    0  501 -0.26193073173E+02  0.67983856084E+02 -0.11782324420E+03  0.22084881400E+03  0.17200000000E+03 0.  1.
</event>
<event>
 4    1  0.8483901E-001  0.2073844E+03  0.7818608E-02  0.1143654E+00
         -1   -1    0    0    0  501 -0.00000000000E+00  0.00000000000E+00  0.10866309066E+03  0.10866309066E+03  0.00000000000E+00 0.  1.
          1   -1    0    0  502    0  0.00000000000E+00 -0.00000000000E+00 -0.42498405518E+03  0.42498405518E+03  0.00000000000E+00 0. -1.
          6    1    1    2  502    0 -0.71345885379E+02 -0.91290968444E+02 -0.22808831449E+03  0.30827350760E+03  0.17200000000E+03 0. -1.
         -6    1    1    2    0  501  0.71345885379E+02  0.91290968444E+02 -0.88232650033E+02  0.22537363824E+03  0.17200000000E+03 0. -1.
</event>
<event>
 4    1  0.8483901E-001  0.2165344E+03  0.7818608E-02  0.1136493E+00
         -2   -1    0    0    0  501 -0.00000000000E+00  0.00000000000E+00  0.37467598005E+03  0.37467598005E+03  0.00000000000E+00 0. -1.
          2   -1    0    0  502    0  0.00000000000E+00 -0.00000000000E+00 -0.22328120168E+03  0.22328120168E+03  0.00000000000E+00 0.  1.
          6    1    1    2  502    0  0.21605449633E+01 -0.13152373658E+03 -0.12251849823E+03  0.24879297347E+03  0.17200000000E+03 0.  1.
         -6    1    1    2    0  501 -0.21605449633E+01  0.13152373658E+03  0.27391327659E+03  0.34916420826E+03  0.17200000000E+03 0. -1.
</event>
<event>
 4    1  0.8483901E-001  0.3265692E+03  0.7818608E-02  0.1072665E+00
          2   -1    0    0  502    0  0.00000000000E+00  0.00000000000E+00  0.27488809576E+03  0.27488809576E+03  0.00000000000E+00 0.  1.
         -2   -1    0    0    0  501 -0.00000000000E+00 -0.00000000000E+00 -0.39402917705E+03  0.39402917705E+03  0.00000000000E+00 0. -1.
          6    1    1    2  502    0 -0.21528739863E+03  0.17525625982E+03 -0.18084292622E+02  0.32706950676E+03  0.17200000000E+03 0. -1.
         -6    1    1    2    0  501  0.21528739863E+03 -0.17525625982E+03 -0.10105678866E+03  0.34184776605E+03  0.17200000000E+03 0.  1.
</event>
<event>
 4    1  0.8483901E-001  0.1794448E+03  0.7818608E-02  0.1168341E+00
         -2   -1    0    0    0  501 -0.00000000000E+00  0.00000000000E+00  0.12530180212E+03  0.12530180212E+03  0.00000000000E+00 0. -1.
          2   -1    0    0  502    0  0.00000000000E+00 -0.00000000000E+00 -0.25715341239E+03  0.25715341239E+03  0.00000000000E+00 0.  1.
          6    1    1    2  502    0  0.49143733796E+02  0.14188462306E+02 -0.70850135227E+02  0.19292527231E+03  0.17200000000E+03 0. -1.
         -6    1    1    2    0  501 -0.49143733796E+02 -0.14188462306E+02 -0.61001475042E+02  0.18952994220E+03  0.17200000000E+03 0. -1.
</event>
<event>
 4    1  0.8483901E-001  0.2393571E+03  0.7818608E-02  0.1120222E+00
         -2   -1    0    0    0  501 -0.00000000000E+00  0.00000000000E+00  0.19685133457E+02  0.19685133457E+02  0.00000000000E+00 0. -1.
          2   -1    0    0  502    0  0.00000000000E+00 -0.00000000000E+00 -0.29413730072E+04  0.29413730072E+04  0.00000000000E+00 0.  1.
          6    1    1    2  502    0 -0.93243630743E+02  0.13788926529E+03 -0.13089438056E+04  0.13306486051E+04  0.17200000000E+03 0. -1.
         -6    1    1    2    0  501  0.93243630743E+02 -0.13788926529E+03 -0.16127440681E+04  0.16304095355E+04  0.17200000000E+03 0. -1.
</event>
<event>
 4    1  0.8483901E-001  0.2131403E+03  0.7818608E-02  0.1139103E+00
          2   -1    0    0  502    0  0.00000000000E+00  0.00000000000E+00  0.11754715826E+04  0.11754715826E+04  0.00000000000E+00 0.  1.
         -2   -1    0    0    0  501 -0.00000000000E+00 -0.00000000000E+00 -0.44966159475E+02  0.44966159475E+02  0.00000000000E+00 0. -1.
          6    1    1    2  502    0 -0.12587282036E+03  0.90911474903E+00  0.79400337497E+03  0.82211322386E+03  0.17200000000E+03 0.  1.
         -6    1    1    2    0  501  0.12587282036E+03 -0.90911474903E+00  0.33650204817E+03  0.39832451822E+03  0.17200000000E+03 0. -1.
</event>
<event>
 4    1  0.8483901E-001  0.2798852E+03  0.7818608E-02  0.1095752E+00
         -1   -1    0    0    0  501 -0.00000000000E+00  0.00000000000E+00  0.14708740445E+03  0.14708740445E+03  0.00000000000E+00 0. -1.
          1   -1    0    0  502    0  0.00000000000E+00 -0.00000000000E+00 -0.56878802948E+03  0.56878802948E+03  0.00000000000E+00 0.  1.
          6    1    1    2  502    0  0.20156566618E+03 -0.90127627597E+02 -0.12053968142E+03  0.30473844824E+03  0.17200000000E+03 0. -1.
         -6    1    1    2    0  501 -0.20156566618E+03  0.90127627597E+02 -0.30116094362E+03  0.41113698569E+03  0.17200000000E+03 0. -1.
</event>
<event>
 4    1  0.8483901E-001  0.1971509E+03  0.7818608E-02  0.1152165E+00
          1   -1    0    0  502    0  0.00000000000E+00  0.00000000000E+00  0.23146466577E+04  0.23146466577E+04  0.00000000000E+00 0. -1.
         -1   -1    0    0    0  501 -0.00000000000E+00 -0.00000000000E+00 -0.16862137024E+02  0.16862137024E+02  0.00000000000E+00 0.  1.
          6    1    1    2  502    0  0.14256736578E+01 -0.96345409528E+02  0.12238618649E+04  0.12396395988E+04  0.17200000000E+03 0.  1.
         -6    1    1    2    0  501 -0.14256736578E+01  0.96345409528E+02  0.10739226557E+04  0.10918691959E+04  0.17200000000E+03 0.  1.
</event>
<event>
 4    1  0.8483901E-001  0.1927771E+03  0.7818608E-02  0.1155980E+00
          1   -1    0    0  502    0  0.00000000000E+00  0.00000000000E+00  0.91368639339E+02  0.91368639339E+02  0.00000000000E+00 0.  1.
         -1   -1    0    0    0  501 -0.00000000000E+00 -0.00000000000E+00 -0.54799117194E+03  0.54799117194E+03  0.00000000000E+00 0. -1.
          6    1    1    2  502    0 -0.87053542774E+02  0.82512546889E+00 -0.39061529575E+03  0.43559535055E+03  0.17200000000E+03 0. -1.
         -6    1    1    2    0  501  0.87053542774E+02 -0.82512546889E+00 -0.66007236847E+02  0.20376446073E+03  0.17200000000E+03 0.  1.
</event>
<event>
 4    1  0.8483901E-001  0.2202246E+03  0.7818608E-02  0.1133716E+00
          4   -1    0    0  502    0  0.00000000000E+00  0.00000000000E+00  0.24048860403E+02  0.24048860403E+02  0.00000000000E+00 0.  1.
         -4   -1    0    0    0  501 -0.00000000000E+00 -0.00000000000E+00 -0.21569306918E+04  0.21569306918E+04  0.00000000000E+00 0. -1.
          6    1    1    2  502    0  0.13499521833E+03  0.26290303414E+02 -0.78837108665E+03  0.81855229478E+03  0.17200000000E+03 0.  1.
         -6    1    1    2    0  501 -0.13499521833E+03 -0.26290303414E+02 -0.13445107447E+04  0.13624272574E+04  0.17200000000E+03 0. -1.
</event>
<event>
 4    1  0.8483901E-001  0.3045253E+03  0.7818608E-02  0.1083000E+00
          1   -1    0    0  502    0  0.00000000000E+00  0.00000000000E+00  0.94384160586E+02  0.94384160586E+02  0.00000000000E+00 0.  1.
         -1   -1    0    0    0  501 -0.00000000000E+00 -0.00000000000E+00 -0.98392009435E+03  0.98392009435E+03  0.00000000000E+00 0. -1.
          6    1    1    2  502    0  0.65309217667E+01  0.25121504820E+03 -0.46500360687E+03  0.55584530922E+03  0.17200000000E+03 0. -1.
         -6    1    1    2    0  501 -0.65309217667E+01 -0.25121504820E+03 -0.42453232690E+03  0.52245894572E+03  0.17200000000E+03 0.  1.
</event>
<event>
 4    1  0.8483901E-001  0.2194911E+03  0.7818608E-02  0.1134263E+00
         -2   -1    0    0    0  501 -0.00000000000E+00  0.00000000000E+00  0.11271353834E+03  0.11271353834E+03  0.00000000000E+00 0. -1.
          2   -1    0    0  502    0  0.00000000000E+00 -0.00000000000E+00 -0.42949356142E+03  0.42949356142E+03  0.00000000000E+00 0.  1.
          6    1    1    2  502    0  0.12420546019E+03 -0.56261413461E+02 -0.13956585371E+03  0.26010569103E+03  0.17200000000E+03 0.  1.
         -6    1    1    2    0  501 -0.12420546019E+03  0.56261413461E+02 -0.17721416937E+03  0.28210140873E+03  0.17200000000E+03 0.  1.
</event>
<event>
 4    1  0.8483901E-001  0.1783137E+03  0.7818608E-02  0.1169445E+00
          3   -1    0    0  502    0  0.00000000000E+00  0.00000000000E+00  0.12076330119E+03  0.12076330119E+03  0.00000000000E+00 0. -1.
         -3   -1    0    0    0  501 -0.00000000000E+00 -0.00000000000E+00 -0.32343734138E+03  0.32343734138E+03  0.00000000000E+00 0.  1.
          6    1    1    2  502    0 -0.34270095171E+02 -0.32207588802E+02 -0.55597694202E+01  0.17840033418E+03  0.17200000000E+03 0.  1.
         -6    1    1    2    0  501  0.34270095171E+02  0.32207588802E+02 -0.19711427077E+03  0.26580030839E+03  0.17200000000E+03 0.  1.
</event>
<event>
 4    1  0.8483901E-001  0.2593711E+03  0.7818608E-02  0.1107522E+00
         -1   -1    0    0    0  501 -0.00000000000E+00  0.00000000000E+00  0.42416966120E+02  0.42416966120E+02  0.00000000000E+00 0. -1.
          1   -1    0    0  502    0  0.00000000000E+00 -0.00000000000E+00 -0.16156267176E+04  0.16156267176E+04  0.00000000000E+00 0.  1.
          6    1    1    2  502    0 -0.17538015277E+03 -0.83253710459E+02 -0.89886489915E+03  0.93553807256E+03  0.17200000000E+03 0. -1.
         -6    1    1    2    0  501  0.17538015277E+03  0.83253710459E+02 -0.67434485237E+03  0.72250561120E+03  0.17200000000E+03 0.  1.
</event>
<event>
 4    1  0.8483901E-001  0.1754310E+03  0.7818608E-02  0.1172300E+00
          2   -1    0    0  502    0  0.00000000000E+00  0.00000000000E+00  0.29944523861E+03  0.29944523861E+03  0.00000000000E+00 0.  1.
         -2   -1    0    0    0  501 -0.00000000000E+00 -0.00000000000E+00 -0.10371391455E+03  0.10371391455E+03  0.00000000000E+00 0. -1.
          6    1    1    2  502    0  0.34065974429E+02 -0.56159440775E+01  0.78704595460E+02  0.19227699495E+03  0.17200000000E+03 0.  1.
         -6    1    1    2    0  501 -0.34065974429E+02  0.56159440775E+01  0.11702672860E+03  0.21088215820E+03  0.17200000000E+03 0.  1.
</event>
<event>
 4    1  0.8483901E-001  0.1854613E+03  0.7818608E-02  0.1162620E+00
         -1   -1    0    0    0  501 -0.00000000000E+00  0.00000000000E+00  0.10464811399E+03  0.10464811399E+03  0.00000000000E+00 0. -1.
          1   -1    0    0  502    0  0.00000000000E+00 -0.00000000000E+00 -0.32912464073E+03  0.32912464073E+03  0.00000000000E+00 0.  1.
          6    1    1    2  502    0 -0.64322523718E+02  0.25971556231E+02 -0.10428074900E+03  0.21276837971E+03  0.17200000000E+03 0. -1.
         -6    1    1    2    0  501  0.64322523718E+02 -0.25971556231E+02 -0.12019577774E+03  0.22100437502E+03  0.17200000000E+03 0.  1.
</event>
<event>
 4    1  0.8483901E-001  0.2360497E+03  0.7818608E-02  0.1122453E+00
         -2   -1    0    0    0  501 -0.00000000000E+00  0.00000000000E+00  0.38786581825E+02  0.38786581825E+02  0.00000000000E+00 0.  1.
          2   -1    0    0  502    0  0.00000000000E+00 -0.00000000000E+00 -0.14613224794E+04  0.14613224794E+04  0.00000000000E+00 0. -1.
          6    1    1    2  502    0 -0.11451022017E+03  0.11411781911E+03 -0.80889456024E+03  0.84263270572E+03  0.17200000000E+03 0. -1.
         -6    1    1    2    0  501  0.11451022017E+03 -0.11411781911E+03 -0.61364133733E+03  0.65747635550E+03  0.17200000000E+03 0.  1.
</event>
<event>
 4    1  0.8483901E-001  0.2690263E+03  0.7818608E-02  0.1101838E+00
         -2   -1    0    0    0  501 -0.00000000000E+00  0.00000000000E+00  0.65196952171E+02  0.65196952171E+02  0.00000000000E+00 0.  1.
          2   -1    0    0  502    0  0.00000000000E+00 -0.00000000000E+00 -0.20895868865E+04  0.20895868865E+04  0.00000000000E+00 0. -1.
          6    1    1    2  502    0 -0.28150753421E+02 -0.20493582411E+03 -0.27455788583E+03  0.38439197390E+03  0.17200000000E+03 0.  1.
         -6    1    1    2    0  501  0.28150753421E+02  0.20493582411E+03 -0.17498320485E+04  0.17703918648E+04  0.17200000000E+03 0. -1.
</event>
<event>
 4    1  0.8483901E-001  0.4702756E+03  0.7818608E-02  0.1021842E+00
         -4   -1    0    0    0  501 -0.00000000000E+00  0.00000000000E+00  0.86520585117E+03  0.86520585117E+03  0.00000000000E+00 0.  1.
          4   -1    0    0  502    0  0.00000000000E+00 -0.00000000000E+00 -0.31563716919E+03  0.31563716919E+03  0.00000000000E+00 0. -1.
          6    1    1    2  502    0 -0.64857388202E+02  0.43286100408E+03  0.53225389747E+03  0.71024878812E+03  0.17200000000E+03 0.  1.
         -6    1    1    2    0  501  0.64857388202E+02 -0.43286100408E+03  0.17314784508E+02  0.47059423224E+03  0.17200000000E+03 0. -1.
</event>
<event>
 4    1  0.8483901E-001  0.1890878E+03  0.7818608E-02  0.1159287E+00
         -1   -1    0    0    0  501 -0.00000000000E+00  0.00000000000E+00  0.29032049264E+03  0.29032049264E+03  0.00000000000E+00 0.  1.
          1   -1    0    0  502    0  0.00000000000E+00 -0.00000000000E+00 -0.16275391697E+03  0.16275391697E+03  0.00000000000E+00 0. -1.
          6    1    1    2  502    0  0.52897186144E+02 -0.58069654414E+02 -0.47959546464E+02  0.19507515260E+03  0.17200000000E+03 0. -1.
         -6    1    1    2    0  501 -0.52897186144E+02  0.58069654414E+02  0.17552612213E+03  0.25799925701E+03  0.17200000000E+03 0.  1.
</event>
<event>
 4    1  0.8483901E-001  0.1900814E+03  0.7818608E-02  0.1158388E+00
         -2   -1    0    0    0  501 -0.00000000000E+00  0.00000000000E+00  0.38293611816E+02  0.38293611816E+02  0.00000000000E+00 0. -1.
          2   -1    0    0  502    0  0.00000000000E+00 -0.00000000000E+00 -0.14475132672E+04  0.14475132672E+04  0.00000000000E+00 0.  1.
          6    1    1    2  502    0 -0.48461988498E+02  0.64794994160E+02 -0.11429704969E+04  0.11586684222E+04  0.17200000000E+03 0.  1.
         -6    1    1    2    0  501  0.48461988498E+02 -0.64794994160E+02 -0.26624915848E+03  0.32713845691E+03  0.17200000000E+03 0. -1.
</event>
<event>
 4    1  0.8483901E-001  0.4165888E+03  0.7818608E-02  0.1038182E+00
          2   -1    0    0  502    0  0.00000000000E+00  0.00000000000E+00  0.21898124345E+03  0.21898124345E+03  0.00000000000E+00 0. -1.
         -2   -1    0    0    0  501 -0.00000000000E+00 -0.00000000000E+00 -0.89796774203E+03  0.89796774203E+03  0.00000000000E+00 0.  1.
          6    1    1    2  502    0 -0.91124251740E+02 -0.36831857505E+03 -0.14811205395E+03  0.44213502746E+03  0.17200000000E+03 0. -1.
         -6    1    1    2    0  501  0.91124251740E+02  0.36831857505E+03 -0.53087444463E+03  0.67481395802E+03  0.17200000000E+03 0.  1.
</event>
<event>
 4    1  0.8483901E-001  0.1941067E+03  0.7818608E-02  0.1154809E+00
         -2   -1    0    0    0  501 -0.00000000000E+00  0.00000000000E+00  0.92496194430E+03  0.92496194430E+03  0.00000000000E+00 0. -1.
          2   -1    0    0  502    0  0.00000000000E+00 -0.00000000000E+00 -0.66445092032E+02  0.66445092032E+02  0.00000000000E+00 0.  1.
          6    1    1    2  502    0 -0.17861893396E+02 -0.88172370859E+02  0.12090365134E+03  0.22868123475E+03  0.17200000000E+03 0.  1.
         -6    1    1    2    0  501  0.17861893396E+02  0.88172370859E+02  0.73761320092E+03  0.76272580158E+03  0.17200000000E+03 0. -1.
</event>
<event>
 4    1  0.8483901E-001  0.2645975E+03  0.7818608E-02  0.1104412E+00
         -1   -1    0    0    0  501 -0.00000000000E+00  0.00000000000E+00  0.93666479504E+02  0.93666479504E+02  0.00000000000E+00 0. -1.
          1   -1    0    0  502    0  0.00000000000E+00 -0.00000000000E+00 -0.81749318271E+03  0.81749318271E+03  0.00000000000E+00 0.  1.
          6    1    1    2  502    0 -0.14659773507E+03 -0.13761159681E+03 -0.22856807479E+03  0.34965012844E+03  0.17200000000E+03 0.  1.
         -6    1    1    2    0  501  0.14659773507E+03  0.13761159681E+03 -0.49525862841E+03  0.56150953377E+03  0.17200000000E+03 0. -1.
</event>
<event>
 4    1  0.8483901E-001  0.2167600E+03  0.7818608E-02  0.1136322E+00
         -1   -1    0    0    0  501 -0.00000000000E+00  0.00000000000E+00  0.55879384797E+02  0.55879384797E+02  0.00000000000E+00 0. -1.
          1   -1    0    0  502    0  0.00000000000E+00 -0.00000000000E+00 -0.91185721114E+03  0.91185721114E+03  0.00000000000E+00 0.  1.
          6    1    1    2  502    0  0.52223291514E+02  0.12113473787E+03 -0.56303600176E+03  0.60331951417E+03  0.17200000000E+03 0.  1.
         -6    1    1    2    0  501 -0.52223291514E+02 -0.12113473787E+03 -0.29294182458E+03  0.36441708177E+03  0.17200000000E+03 0. -1.
</event>
<event>
 4    1  0.8483901E-001  0.2266724E+03  0.7818608E-02  0.1129004E+00
         -2   -1    0    0    0  501 -0.00000000000E+00  0.00000000000E+00  0.35171376080E+02  0.35171376080E+02  0.00000000000E+00 0. -1.
          2   -1    0    0  502    0  0.00000000000E+00 -0.00000000000E+00 -0.16031321469E+04  0.16031321469E+04  0.00000000000E+00 0.  1.
          6    1    1    2  502    0 -0.87752165266E+01  0.14737495086E+03 -0.53995054042E+03  0.58559966416E+03  0.17200000000E+03 0.  1.
         -6    1    1    2    0  501  0.87752165266E+01 -0.14737495086E+03 -0.10280102304E+04  0.10527038588E+04  0.17200000000E+03 0.  1.
</event>
<event>
 4    1  0.8483901E-001  0.1831524E+03  0.7818608E-02  0.1164787E+00
          1   -1    0    0  502    0  0.00000000000E+00  0.00000000000E+00  0.26603337085E+03  0.26603337085E+03  0.00000000000E+00 0. -1.
         -1   -1    0    0    0  501 -0.00000000000E+00 -0.00000000000E+00 -0.17084511011E+03  0.17084511011E+03  0.00000000000E+00 0.  1.
          6    1    1    2  502    0  0.59627159413E+02 -0.20134734652E+02 -0.64205069735E+02  0.19408012948E+03  0.17200000000E+03 0.  1.
         -6    1    1    2    0  501 -0.59627159413E+02  0.20134734652E+02  0.15939333048E+03  0.24279835148E+03  0.17200000000E+03 0. -1.
</event>
<event>
 4    1  0.8483901E-001  0.2198116E+03  0.7818608E-02  0.1134024E+00
         -2   -1    0    0    0  501 -0.00000000000E+00  0.00000000000E+00  0.63257179951E+02  0.63257179951E+02  0.00000000000E+00 0. -1.
          2   -1    0    0  502    0  0.00000000000E+00 -0.00000000000E+00 -0.91777887000E+03  0.91777887000E+03  0.00000000000E+00 0.  1.
          6    1    1    2  502    0  0.62498241995E+02  0.12176653373E+03 -0.62816451008E+03  0.66551316344E+03  0.17200000000E+03 0.  1.
         -6    1    1    2    0  501 -0.62498241995E+02 -0.12176653373E+03 -0.22635717997E+03  0.31552288651E+03  0.17200000000E+03 0. -1.
</event>
<event>
 4    1  0.8483901E-001  0.1988864E+03  0.7818608E-02  0.1150682E+00
          2   -1    0    0  502    0  0.00000000000E+00  0.00000000000E+00  0.27600488788E+04  0.27600488788E+04  0.00000000000E+00 0.  1.
         -2   -1    0    0    0  501 -0.00000000000E+00 -0.00000000000E+00 -0.15114429381E+02  0.15114429381E+02  0.00000000000E+00 0. -1.
          6    1    1    2  502    0 -0.31458469805E+02 -0.94774180177E+02  0.10566688478E+04  0.10752231557E+04  0.17200000000E+03 0. -1.
         -6    1    1    2    0  501  0.31458469805E+02  0.94774180177E+02  0.16882656016E+04  0.16999401525E+04  0.17200000000E+03 0.  1.
</event>
<event>
 4    1  0.8483901E-001  0.1973532E+03  0.7818608E-02  0.1151992E+00
          2   -1    0    0  502    0  0.00000000000E+00  0.00000000000E+00  0.17060295415E+04  0.17060295415E+04  0.00000000000E+00 0.  1.
         -2   -1    0    0    0  501 -0.00000000000E+00 -0.00000000000E+00 -0.39628712906E+02  0.39628712906E+02  0.00000000000E+00 0. -1.
          6    1    1    2  502    0 -0.86720282268E+01  0.96379783022E+02  0.26491672761E+03  0.33034699820E+03  0.17200000000E+03 0. -1.
         -6    1    1    2    0  501  0.86720282268E+01 -0.96379783022E+02  0.14014841010E+04  0.14153112562E+04  0.17200000000E+03 0.  1.
</event>
<event>
 4    1  0.8483901E-001  0.2053090E+03  0.7818608E-02  0.1145336E+00
          1   -1    0    0  502    0  0.00000000000E+00  0.00000000000E+00  0.10649032358E+04  0.10649032358E+04  0.00000000000E+00 0. -1.
         -1   -1    0    0    0  501 -0.00000000000E+00 -0.00000000000E+00 -0.40581344272E+02  0.40581344272E+02  0.00000000000E+00 0.  1.
          6    1    1    2  502    0 -0.25328465202E+02 -0.10920732279E+03  0.59886906043E+03  0.63308445096E+03  0.17200000000E+03 0.  1.
         -6    1    1    2    0  501  0.25328465202E+02  0.10920732279E+03  0.42545283111E+03  0.47240012913E+03  0.17200000000E+03 0. -1.
</event>
<event>
 4    1  0.8483901E-001  0.2497388E+03  0.7818608E-02  0.1113470E+00
          2   -1    0    0  502    0  0.00000000000E+00  0.00000000000E+00  0.87801377438E+03  0.87801377438E+03  0.00000000000E+00 0.  1.
         -2   -1    0    0    0  501 -0.00000000000E+00 -0.00000000000E+00 -0.81176488364E+02  0.81176488364E+02  0.00000000000E+00 0. -1.
          6    1    1    2  502    0 -0.14750532249E+03  0.10501252728E+03  0.56793701051E+03  0.62042074349E+03  0.17200000000E+03 0.  1.
         -6    1    1    2    0  501  0.14750532249E+03 -0.10501252728E+03  0.22890027551E+03  0.33876951925E+03  0.17200000000E+03 0. -1.
</event>
<event>
 4    1  0.8483901E-001  0.2064029E+03  0.7818608E-02  0.1144447E+00
         -2   -1    0    0    0  501 -0.00000000000E+00  0.00000000000E+00  0.18977488387E+02  0.18977488387E+02  0.00000000000E+00 0.  1.
          2   -1    0    0  502    0  0.00000000000E+00 -0.00000000000E+00 -0.22508339165E+04  0.22508339165E+04  0.00000000000E+00 0. -1.
          6    1    1    2  502    0 -0.22751706544E+02  0.11180569681E+03 -0.10575504657E+04  0.10775041260E+04  0.17200000000E+03 0.  1.
         -6    1    1    2    0  501  0.22751706544E+02 -0.11180569681E+03 -0.11743059624E+04  0.11923072789E+04  0.17200000000E+03 0. -1.
</event>
<event>
 4    1  0.8483901E-001  0.1783779E+03  0.7818608E-02  0.1169382E+00
          2   -1    0    0  502    0  0.00000000000E+00  0.00000000000E+00  0.15572284989E+04  0.15572284989E+04  0.00000000000E+00 0.  1.
         -2   -1    0    0    0  501 -0.00000000000E+00 -0.00000000000E+00 -0.66775122657E+02  0.66775122657E+02  0.00000000000E+00 0. -1.
          6    1    1    2  502    0 -0.39008646507E+02 -0.26702096859E+02  0.14216804769E+04  0.14328272942E+04  0.17200000000E+03 0.  1.
         -6    1    1    2    0  501  0.39008646507E+02  0.26702096859E+02  0.68772899359E+02  0.19117632742E+03  0.17200000000E+03 0. -1.
</event>
<event>
 4    1  0.8483901E-001  0.2417159E+03  0.7818608E-02  0.1118655E+00
         -2   -1    0    0    0  501 -0.00000000000E+00  0.00000000000E+00  0.16372158907E+03  0.16372158907E+03  0.00000000000E+00 0. -1.
          2   -1    0    0  502    0  0.00000000000E+00 -0.00000000000E+00 -0.48553047641E+03  0.48553047641E+03  0.00000000000E+00 0.  1.
          6    1    1    2  502    0  0.15864170729E+03 -0.60624885982E+02 -0.32801560647E+03  0.40745650833E+03  0.17200000000E+03 0.  1.
         -6    1    1    2    0  501 -0.15864170729E+03  0.60624885982E+02  0.62067191296E+01  0.24179555715E+03  0.17200000000E+03 0. -1.
</event>
<event>
 4    1  0.8483901E-001  0.1735240E+03  0.7818608E-02  0.1174222E+00
         -1   -1    0    0    0  501 -0.00000000000E+00  0.00000000000E+00  0.33541279341E+02  0.33541279341E+02  0.00000000000E+00 0.  1.
          1   -1    0    0  502    0  0.00000000000E+00 -0.00000000000E+00 -0.10070417883E+04  0.10070417883E+04  0.00000000000E+00 0. -1.
          6    1    1    2  502    0 -0.17169840860E+02  0.15224302712E+02 -0.31532217075E+03  0.35991478740E+03  0.17200000000E+03 0.  1.
         -6    1    1    2    0  501  0.17169840860E+02 -0.15224302712E+02 -0.65817833823E+03  0.68066828025E+03  0.17200000000E+03 0. -1.
</event>
<event>
 4    1  0.8483901E-001  0.3186633E+03  0.7818608E-02  0.1076266E+00
          2   -1    0    0  502    0  0.00000000000E+00  0.00000000000E+00  0.24398790342E+04  0.24398790342E+04  0.00000000000E+00 0. -1.
         -2   -1    0    0    0  501 -0.00000000000E+00 -0.00000000000E+00 -0.57605864565E+02  0.57605864565E+02  0.00000000000E+00 0.  1.
          6    1    1    2  502    0 -0.26598554961E+03 -0.34842097533E+02  0.18489698571E+04  0.18762291483E+04  0.17200000000E+03 0. -1.
         -6    1    1    2    0  501  0.26598554961E+03  0.34842097533E+02  0.53330331255E+03  0.62125575051E+03  0.17200000000E+03 0.  1.
</event>
<event>
 4    1  0.8483901E-001  0.2224968E+03  0.7818608E-02  0.1132035E+00
         -1   -1    0    0    0  501 -0.00000000000E+00  0.00000000000E+00  0.11498927685E+03  0.11498927685E+03  0.00000000000E+00 0.  1.
          1   -1    0    0  502    0  0.00000000000E+00 -0.00000000000E+00 -0.43353339414E+03  0.43353339414E+03  0.00000000000E+00 0. -1.
          6    1    1    2  502    0  0.90063070120E+02  0.10867142444E+03 -0.13639503668E+03  0.26097593974E+03  0.17200000000E+03 0.  1.
         -6    1    1    2    0  501 -0.90063070120E+02 -0.10867142444E+03 -0.18214908061E+03  0.28754673126E+03  0.17200000000E+03 0. -1.
</event>
<event>
 4    1  0.8483901E-001  0.1809576E+03  0.7818608E-02  0.1166879E+00
         -2   -1    0    0    0  501 -0.00000000000E+00  0.00000000000E+00  0.65441825057E+02  0.65441825057E+02  0.00000000000E+00 0.  1.
          2   -1    0    0  502    0  0.00000000000E+00 -0.00000000000E+00 -0.57258328281E+03  0.57258328281E+03  0.00000000000E+00 0. -1.
          6    1    1    2  502    0  0.50218314074E+02  0.25294110335E+02 -0.36685560611E+03  0.40905831714E+03  0.17200000000E+03 0. -1.
         -6    1    1    2    0  501 -0.50218314074E+02 -0.25294110335E+02 -0.14028585165E+03  0.22896679073E+03  0.17200000000E+03 0.  1.
</event>
<event>
 4    1  0.8483901E-001  0.1723856E+03  0.7818608E-02  0.1175383E+00
          1   -1    0    0  502    0  0.00000000000E+00  0.00000000000E+00  0.21938307594E+04  0.21938307594E+04  0.00000000000E+00 0. -1.
         -1   -1    0    0    0  501 -0.00000000000E+00 -0.00000000000E+00 -0.14274894241E+02  0.14274894241E+02  0.00000000000E+00 0.  1.
          6    1    1    2  502    0  0.76887662536E+01  0.85832189918E+01  0.84023224579E+03  0.85773365076E+03  0.17200000000E+03 0.  1.
         -6    1    1    2    0  501 -0.76887662536E+01 -0.85832189918E+01  0.13393236193E+04  0.13503720029E+04  0.17200000000E+03 0. -1.
</event>
<event>
 4    1  0.8483901E-001  0.1807123E+03  0.7818608E-02  0.1167115E+00
          2   -1    0    0  502    0  0.00000000000E+00  0.00000000000E+00  0.10912803844E+04  0.10912803844E+04  0.00000000000E+00 0. -1.
         -2   -1    0    0    0  501 -0.00000000000E+00 -0.00000000000E+00 -0.39996203384E+02  0.39996203384E+02  0.00000000000E+00 0.  1.
          6    1    1    2  502    0  0.54507719344E+01 -0.55165373745E+02  0.80947510747E+03  0.82940151856E+03  0.17200000000E+03 0. -1.
         -6    1    1    2    0  501 -0.54507719344E+01  0.55165373745E+02  0.24180907358E+03  0.30187506926E+03  0.17200000000E+03 0.  1.
</event>
<event>
 4    1  0.8483901E-001  0.2393575E+03  0.7818608E-02  0.1120222E+00
          1   -1    0    0  502    0  0.00000000000E+00  0.00000000000E+00  0.16654308307E+04  0.16654308307E+04  0.00000000000E+00 0. -1.
         -1   -1    0    0    0  501 -0.00000000000E+00 -0.00000000000E+00 -0.34417292186E+02  0.34417292186E+02  0.00000000000E+00 0.  1.
          6    1    1    2  502    0 -0.60859632610E+02 -0.15493258574E+03  0.79685033696E+03  0.83202311297E+03  0.17200000000E+03 0. -1.
         -6    1    1    2    0  501  0.60859632610E+02  0.15493258574E+03  0.83416320152E+03  0.86782500988E+03  0.17200000000E+03 0.  1.
</event>
<event>
 4    1  0.8483901E-001  0.2057875E+03  0.7818608E-02  0.1144946E+00
         -2   -1    0    0    0  501 -0.00000000000E+00  0.00000000000E+00  0.40676817031E+02  0.40676817031E+02  0.00000000000E+00 0.  1.
          2   -1    0    0  502    0  0.00000000000E+00 -0.00000000000E+00 -0.19234118996E+04  0.19234118996E+04  0.00000000000E+00 0. -1.
          6    1    1    2  502    0 -0.47057392283E+02 -0.10271367597E+03 -0.16064980239E+04  0.16196247708E+04  0.17200000000E+03 0. -1.
         -6    1    1    2    0  501  0.47057392283E+02  0.10271367597E+03 -0.27623705871E+03  0.34446394587E+03  0.17200000000E+03 0.  1.
</event>
<event>
 4    1  0.8483901E-001  0.1859647E+03  0.7818608E-02  0.1162152E+00
          2   -1    0    0  502    0  0.00000000000E+00  0.00000000000E+00  0.10428812574E+04  0.10428812574E+04  0.00000000000E+00 0. -1.
         -2   -1    0    0    0  501 -0.00000000000E+00 -0.00000000000E+00 -0.35905345759E+02  0.35905345759E+02  0.00000000000E+00 0.  1.
          6    1    1    2  502    0 -0.44096552716E+02  0.55266227809E+02  0.35436147327E+03  0.40019359770E+03  0.17200000000E+03 0.  1.
         -6    1    1    2    0  501  0.44096552716E+02 -0.55266227809E+02  0.65261443840E+03  0.67859300549E+03  0.17200000000E+03 0. -1.
</event>
<event>
 4    1  0.8483901E-001  0.2283042E+03  0.7818608E-02  0.1127839E+00
          1   -1    0    0  502    0  0.00000000000E+00  0.00000000000E+00  0.26849494969E+03  0.26849494969E+03  0.00000000000E+00 0.  1.
         -1   -1    0    0    0  501 -0.00000000000E+00 -0.00000000000E+00 -0.19767547206E+03  0.19767547206E+03  0.00000000000E+00 0. -1.
          6    1    1    2  502    0 -0.13040171921E+03 -0.74392085196E+02  0.66627797701E+02  0.23782778252E+03  0.17200000000E+03 0.  1.
         -6    1    1    2    0  501  0.13040171921E+03  0.74392085196E+02  0.41916799296E+01  0.22834263924E+03  0.17200000000E+03 0. -1.
</event>
<event>
 4    1  0.8483901E-001  0.2200651E+03  0.7818608E-02  0.1133835E+00
         -1   -1    0    0    0  501 -0.00000000000E+00  0.00000000000E+00  0.25113637313E+03  0.25113637313E+03  0.00000000000E+00 0.  1.
          1   -1    0    0  502    0  0.00000000000E+00 -0.00000000000E+00 -0.21157040959E+03  0.21157040959E+03  0.00000000000E+00 0. -1.
          6    1    1    2  502    0 -0.32036757223E+02 -0.13348517239E+03  0.88623607228E+02  0.23723993934E+03  0.17200000000E+03 0.  1.
         -6    1    1    2    0  501  0.32036757223E+02  0.13348517239E+03 -0.49057643688E+02  0.22546684338E+03  0.17200000000E+03 0. -1.
</event>
<event>
 4    1  0.8483901E-001  0.2695809E+03  0.7818608E-02  0.1101520E+00
         -2   -1    0    0    0  501 -0.00000000000E+00  0.00000000000E+00  0.54539510382E+02  0.54539510382E+02  0.00000000000E+00 0. -1.
          2   -1    0    0  502    0  0.00000000000E+00 -0.00000000000E+00 -0.19291554525E+04  0.19291554525E+04  0.00000000000E+00 0.  1.
          6    1    1    2  502    0 -0.15588768574E+02  0.20699485794E+03 -0.38570931348E+03  0.47058002021E+03  0.17200000000E+03 0. -1.
         -6    1    1    2    0  501  0.15588768574E+02 -0.20699485794E+03 -0.14889066287E+04  0.15131149427E+04  0.17200000000E+03 0.  1.
</event>
<event>
 4    1  0.8483901E-001  0.1757841E+03  0.7818608E-02  0.1171947E+00
          2   -1    0    0  502    0  0.00000000000E+00  0.00000000000E+00  0.16247290058E+04  0.16247290058E+04  0.00000000000E+00 0. -1.
         -2   -1    0    0    0  501 -0.00000000000E+00 -0.00000000000E+00 -0.19171360874E+02  0.19171360874E+02  0.00000000000E+00 0.  1.
          6    1    1    2  502    0  0.23632534344E+02 -0.27523713857E+02  0.72940481999E+03  0.75028757348E+03  0.17200000000E+03 0.  1.
         -6    1    1    2    0  501 -0.23632534344E+02  0.27523713857E+02  0.87615282491E+03  0.89361279317E+03  0.17200000000E+03 0. -1.
</event>
<event>
 4    1  0.8483901E-001  0.1868277E+03  0.7818608E-02  0.1161354E+00
         -2   -1    0    0    0  501 -0.00000000000E+00  0.00000000000E+00  0.57591415250E+02  0.57591415250E+02  0.00000000000E+00 0.  1.
          2   -1    0    0  502    0  0.00000000000E+00 -0.00000000000E+00 -0.71526670144E+03  0.71526670144E+03  0.00000000000E+00 0. -1.
          6    1    1    2  502    0  0.72540479968E+02 -0.76464139945E+01 -0.47982306384E+03  0.51491238233E+03  0.17200000000E+03 0. -1.
         -6    1    1    2    0  501 -0.72540479968E+02  0.76464139945E+01 -0.17785222235E+03  0.25794573436E+03  0.17200000000E+03 0.  1.
</event>
<event>
 4    1  0.8483901E-001  0.2355186E+03  0.7818608E-02  0.1122815E+00
         -2   -1    0    0    0  501 -0.00000000000E+00  0.00000000000E+00  0.69970575222E+02  0.69970575222E+02  0.00000000000E+00 0. -1.
          2   -1    0    0  502    0  0.00000000000E+00 -0.00000000000E+00 -0.10929618616E+04  0.10929618616E+04  0.00000000000E+00 0.  1.
          6    1    1    2  502    0  0.65521290275E+02  0.14694213365E+03 -0.81624120590E+03  0.84954030883E+03  0.17200000000E+03 0.  1.
         -6    1    1    2    0  501 -0.65521290275E+02 -0.14694213365E+03 -0.20675008053E+03  0.31339212804E+03  0.17200000000E+03 0. -1.
</event>
<event>
 4    1  0.8483901E-001  0.3502441E+03  0.7818608E-02  0.1062515E+00
         -1   -1    0    0    0  501 -0.00000000000E+00  0.00000000000E+00  0.33082465660E+03  0.33082465660E+03  0.00000000000E+00 0. -1.
          1   -1    0    0  502    0  0.00000000000E+00 -0.00000000000E+00 -0.80318585965E+03  0.80318585965E+03  0.00000000000E+00 0.  1.
          6    1    1    2  502    0  0.15452151106E+03 -0.26307801388E+03  0.17983828349E+03  0.39371658205E+03  0.17200000000E+03 0. -1.
         -6    1    1    2    0  501 -0.15452151106E+03  0.26307801388E+03 -0.65219948654E+03  0.74029393420E+03  0.17200000000E+03 0.  1.
</event>
<event>
 4    1  0.8483901E-001  0.2541678E+03  0.7818608E-02  0.1110699E+00
         -2   -1    0    0    0  501 -0.00000000000E+00  0.00000000000E+00  0.41366490549E+02  0.41366490549E+02  0.00000000000E+00 0.  1.
          2   -1    0    0  502    0  0.00000000000E+00 -0.00000000000E+00 -0.28723104257E+04  0.28723104257E+04  0.00000000000E+00 0. -1.
          6    1    1    2  502    0 -0.14903434142E+03 -0.11316383717E+03 -0.23995636491E+04  0.24129871518E+04  0.17200000000E+03 0. -1.
         -6    1    1    2    0  501  0.14903434142E+03  0.11316383717E+03 -0.43138028604E+03  0.50068976437E+03  0.17200000000E+03 0.  1.
</event>
<event>
 4    1  0.8483901E-001  0.1842948E+03  0.7818608E-02  0.1163710E+00
          2   -1    0    0  502    0  0.00000000000E+00  0.00000000000E+00  0.13770312791E+04  0.13770312791E+04  0.00000000000E+00 0. -1.
         -2   -1    0    0    0  501 -0.00000000000E+00 -0.00000000000E+00 -0.42543645365E+02  0.42543645365E+02  0.00000000000E+00 0.  1.
          6    1    1    2  502    0  0.65013141144E+02 -0.12404827938E+02  0.20711726754E+03  0.27724024021E+03  0.17200000000E+03 0.  1.
         -6    1    1    2    0  501 -0.65013141144E+02  0.12404827938E+02  0.11273703662E+04  0.11423346843E+04  0.17200000000E+03 0. -1.
</event>
<event>
 4    1  0.8483901E-001  0.1976939E+03  0.7818608E-02  0.1151699E+00
         -1   -1    0    0    0  501 -0.00000000000E+00  0.00000000000E+00  0.23403384926E+02  0.23403384926E+02  0.00000000000E+00 0.  1.
          1   -1    0    0  502    0  0.00000000000E+00 -0.00000000000E+00 -0.29093997155E+04  0.29093997155E+04  0.00000000000E+00 0. -1.
          6    1    1    2  502    0 -0.96697241232E+02  0.12186844783E+02 -0.24001100944E+04  0.24082382235E+04  0.17200000000E+03 0. -1.
         -6    1    1    2    0  501  0.96697241232E+02 -0.12186844783E+02 -0.48588623610E+03  0.52456487690E+03  0.17200000000E+03 0.  1.
</event>
<event>
 4    1  0.8483901E-001  0.2012674E+03  0.7818608E-02  0.1148674E+00
         -1   -1    0    0    0  501 -0.00000000000E+00  0.00000000000E+00  0.22341066957E+02  0.22341066957E+02  0.00000000000E+00 0.  1.
          1   -1    0    0  502    0  0.00000000000E+00 -0.00000000000E+00 -0.18722410652E+04  0.18722410652E+04  0.00000000000E+00 0. -1.
          6    1    1    2  502    0  0.66454540764E+02  0.80674471249E+02 -0.75671351061E+03  0.78302229434E+03  0.17200000000E+03 0.  1.
         -6    1    1    2    0  501 -0.66454540764E+02 -0.80674471249E+02 -0.10931864877E+04  0.11115598379E+04  0.17200000000E+03 0. -1.
</event>
<event>
 4    1  0.8483901E-001  0.1987985E+03  0.7818608E-02  0.1150757E+00
         -2   -1    0    0    0  501 -0.00000000000E+00  0.00000000000E+00  0.28638082939E+02  0.28638082939E+02  0.00000000000E+00 0. -1.
          2   -1    0    0  502    0  0.00000000000E+00 -0.00000000000E+00 -0.13836649102E+04  0.13836649102E+04  0.00000000000E+00 0.  1.
          6    1    1    2  502    0  0.90607897299E+02 -0.41557590552E+02 -0.64121773647E+03  0.67132779620E+03  0.17200000000E+03 0. -1.
         -6    1    1    2    0  501 -0.90607897299E+02  0.41557590552E+02 -0.71380909083E+03  0.74097519698E+03  0.17200000000E+03 0.  1.
</event>
<event>
 4    1  0.8483901E-001  0.2500348E+03  0.7818608E-02  0.1113283E+00
          2   -1    0    0  502    0  0.00000000000E+00  0.00000000000E+00  0.19649861897E+04  0.19649861897E+04  0.00000000000E+00 0.  1.
         -2   -1    0    0    0  501 -0.00000000000E+00 -0.00000000000E+00 -0.51153960600E+02  0.51153960600E+02  0.00000000000E+00 0. -1.
          6    1    1    2  502    0 -0.17782343532E+03  0.36224781632E+02  0.15767278674E+04  0.15964298220E+04  0.17200000000E+03 0.  1.
         -6    1    1    2    0  501  0.17782343532E+03 -0.36224781632E+02  0.33710436174E+03  0.41971032827E+03  0.17200000000E+03 0. -1.
</event>
<event>
 4    1  0.8483901E-001  0.1759520E+03  0.7818608E-02  0.1171779E+00
          1   -1    0    0  502    0  0.00000000000E+00  0.00000000000E+00  0.25010989583E+03  0.25010989583E+03  0.00000000000E+00 0. -1.
         -1   -1    0    0    0  501 -0.00000000000E+00 -0.00000000000E+00 -0.13524928037E+03  0.13524928037E+03  0.00000000000E+00 0.  1.
          6    1    1    2  502    0  0.26403525056E+02 -0.26037908686E+02  0.13258647926E+01  0.17595703095E+03  0.17200000000E+03 0.  1.
         -6    1    1    2    0  501 -0.26403525056E+02  0.26037908686E+02  0.11353475067E+03  0.20940214525E+03  0.17200000000E+03 0. -1.
</event>
<event>
 4    1  0.8483901E-001  0.2066695E+03  0.7818608E-02  0.1144231E+00
          3   -1    0    0  502    0  0.00000000000E+00  0.00000000000E+00  0.67054146316E+02  0.67054146316E+02  0.00000000000E+00 0.  1.
         -3   -1    0    0    0  501 -0.00000000000E+00 -0.00000000000E+00 -0.64414942763E+03  0.64414942763E+03  0.00000000000E+00 0. -1.
          6    1    1    2  502    0  0.11087629431E+03 -0.28891465596E+02 -0.25103661237E+03  0.32516403579E+03  0.17200000000E+03 0.  1.
         -6    1    1    2    0  501 -0.11087629431E+03  0.28891465596E+02 -0.32605866894E+03  0.38603953815E+03  0.17200000000E+03 0. -1.
</event>
<event>
 4    1  0.8483901E-001  0.3163203E+03  0.7818608E-02  0.1077355E+00
          2   -1    0    0  502    0  0.00000000000E+00  0.00000000000E+00  0.18766827786E+04  0.18766827786E+04  0.00000000000E+00 0.  1.
         -2   -1    0    0    0  501 -0.00000000000E+00 -0.00000000000E+00 -0.85243900062E+02  0.85243900062E+02  0.00000000000E+00 0. -1.
          6    1    1    2  502    0  0.51554032350E+02  0.26041648064E+03  0.29537369896E+03  0.43278653361E+03  0.17200000000E+03 0. -1.
         -6    1    1    2    0  501 -0.51554032350E+02 -0.26041648064E+03  0.14960651796E+04  0.15291401451E+04  0.17200000000E+03 0.  1.
</event>
<event>
 4    1  0.8483901E-001  0.2299779E+03  0.7818608E-02  0.1126655E+00
          2   -1    0    0  502    0  0.00000000000E+00  0.00000000000E+00  0.25254740177E+04  0.25254740177E+04  0.00000000000E+00 0.  1.
         -2   -1    0    0    0  501 -0.00000000000E+00 -0.00000000000E+00 -0.23443636863E+02  0.23443636863E+02  0.00000000000E+00 0. -1.
          6    1    1    2  502    0 -0.13404163946E+03  0.73066085983E+02  0.83474099770E+03  0.86584198747E+03  0.17200000000E+03 0. -1.
         -6    1    1    2    0  501  0.13404163946E+03 -0.73066085983E+02  0.16672893831E+04  0.16830756671E+04  0.17200000000E+03 0.  1.
</event>
<event>
 4    1  0.8483901E-001  0.2843559E+03  0.7818608E-02  0.1093333E+00
          3   -1    0    0  502    0  0.00000000000E+00  0.00000000000E+00  0.49092236995E+02  0.49092236995E+02  0.00000000000E+00 0.  1.
         -3   -1    0    0    0  501 -0.00000000000E+00 -0.00000000000E+00 -0.21832085217E+04  0.21832085217E+04  0.00000000000E+00 0. -1.
          6    1    1    2  502    0  0.20858489714E+03  0.88128365065E+02 -0.16201716839E+04  0.16449360332E+04  0.17200000000E+03 0. -1.
         -6    1    1    2    0  501 -0.20858489714E+03 -0.88128365065E+02 -0.51394460079E+03  0.58736472547E+03  0.17200000000E+03 0.  1.
</event>
<event>
 4    1  0.8483901E-001  0.1927209E+03  0.7818608E-02  0.1156030E+00
          1   -1    0    0  502    0  0.00000000000E+00  0.00000000000E+00  0.35764824509E+03  0.35764824509E+03  0.00000000000E+00 0.  1.
         -1   -1    0    0    0  501 -0.00000000000E+00 -0.00000000000E+00 -0.11977934680E+03  0.11977934680E+03  0.00000000000E+00 0. -1.
          6    1    1    2  502    0 -0.45733277491E+01 -0.86812680780E+02  0.20599096620E+03  0.28208799164E+03  0.17200000000E+03 0.  1.
         -6    1    1    2    0  501  0.45733277491E+01  0.86812680780E+02  0.31877932093E+02  0.19533960025E+03  0.17200000000E+03 0. -1.
</event>
<event>
 4    1  0.8483901E-001  0.2166241E+03  0.7818608E-02  0.1136425E+00
         -2   -1    0    0    0  501 -0.00000000000E+00  0.00000000000E+00  0.32669030221E+02  0.32669030221E+02  0.00000000000E+00 0.  1.
          2   -1    0    0  502    0  0.00000000000E+00 -0.00000000000E+00 -0.15000223530E+04  0.15000223530E+04  0.00000000000E+00 0. -1.
          6    1    1    2  502    0 -0.66284860332E+02 -0.11379061029E+03 -0.57585711346E+03  0.61525393198E+03  0.17200000000E+03 0.  1.
         -6    1    1    2    0  501  0.66284860332E+02  0.11379061029E+03 -0.89149620933E+03  0.91743745124E+03  0.17200000000E+03 0. -1.
</event>
<event>
 4    1  0.8483901E-001  0.2719410E+03  0.7818608E-02  0.1100174E+00
          1   -1    0    0  502    0  0.00000000000E+00  0.00000000000E+00  0.13322960564E+04  0.13322960564E+04  0.00000000000E+00 0.  1.
         -1   -1    0    0    0  501 -0.00000000000E+00 -0.00000000000E+00 -0.18388855276E+03  0.18388855276E+03  0.00000000000E+00 0. -1.
          6    1    1    2  502    0  0.18223578371E+03  0.10563154093E+03  0.12076297250E+04  0.12378697249E+04  0.17200000000E+03 0.  1.
         -6    1    1    2    0  501 -0.18223578371E+03 -0.10563154093E+03 -0.59222221280E+02  0.27831488426E+03  0.17200000000E+03 0. -1.
</event>
<event>
 4    1  0.8483901E-001  0.1836708E+03  0.7818608E-02  0.1164297E+00
         -1   -1    0    0    0  501 -0.00000000000E+00  0.00000000000E+00  0.15243546222E+02  0.15243546222E+02  0.00000000000E+00 0.  1.
          1   -1    0    0  502    0  0.00000000000E+00 -0.00000000000E+00 -0.22130943688E+04  0.22130943688E+04  0.00000000000E+00 0. -1.
          6    1    1    2  502    0 -0.59756006643E+02 -0.24087351773E+02 -0.10949686739E+04  0.11102663543E+04  0.17200000000E+03 0.  1.
         -6    1    1    2    0  501  0.59756006643E+02  0.24087351773E+02 -0.11028821487E+04  0.11180715607E+04  0.17200000000E+03 0.  1.
</event>
<event>
 4    1  0.8483901E-001  0.2792011E+03  0.7818608E-02  0.1096126E+00
         -1   -1    0    0    0  501 -0.00000000000E+00  0.00000000000E+00  0.16988539438E+03  0.16988539438E+03  0.00000000000E+00 0.  1.
          1   -1    0    0  502    0  0.00000000000E+00 -0.00000000000E+00 -0.48407009450E+03  0.48407009450E+03  0.00000000000E+00 0. -1.
          6    1    1    2  502    0  0.21647020169E+03 -0.38857421456E+02 -0.82469850654E+02  0.29112630195E+03  0.17200000000E+03 0.  1.
         -6    1    1    2    0  501 -0.21647020169E+03  0.38857421456E+02 -0.23171484947E+03  0.36282918693E+03  0.17200000000E+03 0. -1.
</event>
<event>
 4    1  0.8483901E-001  0.2358579E+03  0.7818608E-02  0.1122583E+00
         -1   -1    0    0    0  501 -0.00000000000E+00  0.00000000000E+00  0.22899526224E+03  0.22899526224E+03  0.00000000000E+00 0. -1.
          1   -1    0    0  502    0  0.00000000000E+00 -0.00000000000E+00 -0.26143324688E+03  0.26143324688E+03  0.00000000000E+00 0.  1.
          6    1    1    2  502    0 -0.15079800577E+03  0.57488341751E+02  0.49024006157E+02  0.24089894388E+03  0.17200000000E+03 0. -1.
         -6    1    1    2    0  501  0.15079800577E+03 -0.57488341751E+02 -0.81461990795E+02  0.24952956523E+03  0.17200000000E+03 0.  1.
</event>
<event>
 4    1  0.8483901E-001  0.1780772E+03  0.7818608E-02  0.1169677E+00
         -1   -1    0    0    0  501 -0.00000000000E+00  0.00000000000E+00  0.47029641994E+02  0.47029641994E+02  0.00000000000E+00 0.  1.
          1   -1    0    0  502    0  0.00000000000E+00 -0.00000000000E+00 -0.71504424790E+03  0.71504424790E+03  0.00000000000E+00 0. -1.
          6    1    1    2  502    0 -0.17903465441E+02  0.42508272823E+02 -0.42497805673E+03  0.46077959594E+03  0.17200000000E+03 0. -1.
         -6    1    1    2    0  501  0.17903465441E+02 -0.42508272823E+02 -0.24303654918E+03  0.30129429395E+03  0.17200000000E+03 0.  1.
</event>
<event>
 4    1  0.8483901E-001  0.1795362E+03  0.7818608E-02  0.1168253E+00
          2   -1    0    0  502    0  0.00000000000E+00  0.00000000000E+00  0.98540433453E+03  0.98540433453E+03  0.00000000000E+00 0. -1.
         -2   -1    0    0    0  501 -0.00000000000E+00 -0.00000000000E+00 -0.38917281100E+02  0.38917281100E+02  0.00000000000E+00 0.  1.
          6    1    1    2  502    0 -0.23091188154E+02  0.46000410165E+02  0.67777596517E+03  0.70115155257E+03  0.17200000000E+03 0. -1.
         -6    1    1    2    0  501  0.23091188154E+02 -0.46000410165E+02  0.26871108826E+03  0.32317006306E+03  0.17200000000E+03 0.  1.
</event>
<event>
 4    1  0.8483901E-001  0.1745191E+03  0.7818608E-02  0.1173215E+00
         -2   -1    0    0    0  501 -0.00000000000E+00  0.00000000000E+00  0.24597764648E+03  0.24597764648E+03  0.00000000000E+00 0.  1.
          2   -1    0    0  502    0  0.00000000000E+00 -0.00000000000E+00 -0.12827849704E+03  0.12827849704E+03  0.00000000000E+00 0. -1.
          6    1    1    2  502    0  0.81012788524E+01  0.28412499687E+02  0.23962350583E+02  0.17615645064E+03  0.17200000000E+03 0. -1.
         -6    1    1    2    0  501 -0.81012788524E+01 -0.28412499687E+02  0.93736798855E+02  0.19809969287E+03  0.17200000000E+03 0.  1.
</event>
<event>
 4    1  0.8483901E-001  0.3631900E+03  0.7818608E-02  0.1057328E+00
         -2   -1    0    0    0  501 -0.00000000000E+00  0.00000000000E+00  0.92633903052E+02  0.92633903052E+02  0.00000000000E+00 0.  1.
          2   -1    0    0  502    0  0.00000000000E+00 -0.00000000000E+00 -0.14293117932E+04  0.14293117932E+04  0.00000000000E+00 0. -1.
          6    1    1    2  502    0  0.18804407584E+03  0.25877088510E+03 -0.71490476194E+03  0.80187016660E+03  0.17200000000E+03 0.  1.
         -6    1    1    2    0  501 -0.18804407584E+03 -0.25877088510E+03 -0.62177312815E+03  0.72007552960E+03  0.17200000000E+03 0. -1.
</event>
<event>
 4    1  0.8483901E-001  0.1730416E+03  0.7818608E-02  0.1174713E+00
          1   -1    0    0  502    0  0.00000000000E+00  0.00000000000E+00  0.16543041396E+04  0.16543041396E+04  0.00000000000E+00 0. -1.
         -1   -1    0    0    0  501 -0.00000000000E+00 -0.00000000000E+00 -0.24412601758E+02  0.24412601758E+02  0.00000000000E+00 0.  1.
          6    1    1    2  502    0  0.13655910016E+02  0.13150032748E+02  0.38813620412E+03  0.42496249269E+03  0.17200000000E+03 0.  1.
         -6    1    1    2    0  501 -0.13655910016E+02 -0.13150032748E+02  0.12417553337E+04  0.12537542486E+04  0.17200000000E+03 0. -1.
</event>
<event>
 4    1  0.8483901E-001  0.1836269E+03  0.7818608E-02  0.1164338E+00
         -2   -1    0    0    0  501 -0.00000000000E+00  0.00000000000E+00  0.41652317254E+02  0.41652317254E+02  0.00000000000E+00 0. -1.
          2   -1    0    0  502    0  0.00000000000E+00 -0.00000000000E+00 -0.11262485612E+04  0.11262485612E+04  0.00000000000E+00 0.  1.
          6    1    1    2  502    0 -0.43301930027E+02 -0.47537166437E+02 -0.85196516114E+03  0.87152938856E+03  0.17200000000E+03 0.  1.
         -6    1    1    2    0  501  0.43301930027E+02  0.47537166437E+02 -0.23263108285E+03  0.29637148993E+03  0.17200000000E+03 0. -1.
</event>
<event>
 4    1  0.8483901E-001  0.2065828E+03  0.7818608E-02  0.1144301E+00
         -1   -1    0    0    0  501 -0.00000000000E+00  0.00000000000E+00  0.58441206039E+02  0.58441206039E+02  0.00000000000E+00 0. -1.
          1   -1    0    0  502    0  0.00000000000E+00 -0.00000000000E+00 -0.74627598972E+03  0.74627598972E+03  0.00000000000E+00 0.  1.
          6    1    1    2  502    0  0.83600940211E+02 -0.78123982476E+02 -0.40288673044E+03  0.45276284234E+03  0.17200000000E+03 0.  1.
         -6    1    1    2    0  501 -0.83600940211E+02  0.78123982476E+02 -0.28494805324E+03  0.35195435341E+03  0.17200000000E+03 0.  1.
</event>
<event>
 4    1  0.8483901E-001  0.1866394E+03  0.7818608E-02  0.1161528E+00
         -3   -1    0    0    0  501 -0.00000000000E+00  0.00000000000E+00  0.54763293487E+02  0.54763293487E+02  0.00000000000E+00 0.  1.
          3   -1    0    0  502    0  0.00000000000E+00 -0.00000000000E+00 -0.65292116243E+03  0.65292116243E+03  0.00000000000E+00 0. -1.
          6    1    1    2  502    0  0.70868159843E+02 -0.15098598061E+02 -0.35589413199E+03  0.40186427675E+03  0.17200000000E+03 0.  1.
         -6    1    1    2    0  501 -0.70868159843E+02  0.15098598061E+02 -0.24226373695E+03  0.30582017916E+03  0.17200000000E+03 0. -1.
</event>
<event>
 4    1  0.8483901E-001  0.1742763E+03  0.7818608E-02  0.1173460E+00
         -1   -1    0    0    0  501 -0.00000000000E+00  0.00000000000E+00  0.13222661193E+04  0.13222661193E+04  0.00000000000E+00 0.  1.
          1   -1    0    0  502    0  0.00000000000E+00 -0.00000000000E+00 -0.35500745210E+02  0.35500745210E+02  0.00000000000E+00 0. -1.
          6    1    1    2  502    0  0.13248334340E+02  0.24752839023E+02  0.24004578604E+03  0.29663816477E+03  0.17200000000E+03 0. -1.
         -6    1    1    2    0  501 -0.13248334340E+02 -0.24752839023E+02  0.10467195880E+04  0.10611286997E+04  0.17200000000E+03 0.  1.
</event>
<event>
 4    1  0.8483901E-001  0.1947064E+03  0.7818608E-02  0.1154284E+00
         -3   -1    0    0    0  501 -0.00000000000E+00  0.00000000000E+00  0.26361106960E+03  0.26361106960E+03  0.00000000000E+00 0. -1.
          3   -1    0    0  502    0  0.00000000000E+00 -0.00000000000E+00 -0.14384160395E+03  0.14384160395E+03  0.00000000000E+00 0.  1.
          6    1    1    2  502    0  0.45231364974E+02 -0.79250891897E+02  0.62780103524E+02  0.20457742212E+03  0.17200000000E+03 0. -1.
         -6    1    1    2    0  501 -0.45231364974E+02  0.79250891897E+02  0.56989362126E+02  0.20287525142E+03  0.17200000000E+03 0. -1.
</event>
<event>
 4    1  0.8483901E-001  0.1764216E+03  0.7818608E-02  0.1171312E+00
          1   -1    0    0  502    0  0.00000000000E+00  0.00000000000E+00  0.92141639291E+03  0.92141639291E+03  0.00000000000E+00 0. -1.
         -1   -1    0    0    0  501 -0.00000000000E+00 -0.00000000000E+00 -0.37083620813E+02  0.37083620813E+02  0.00000000000E+00 0.  1.
          6    1    1    2  502    0  0.17679628966E+02  0.35043190964E+02  0.58522923659E+03  0.61124287633E+03  0.17200000000E+03 0. -1.
         -6    1    1    2    0  501 -0.17679628966E+02 -0.35043190964E+02  0.29910353551E+03  0.34725713739E+03  0.17200000000E+03 0.  1.
</event>
<event>
 4    1  0.8483901E-001  0.1819545E+03  0.7818608E-02  0.1165925E+00
         -2   -1    0    0    0  501 -0.00000000000E+00  0.00000000000E+00  0.51223178671E+02  0.51223178671E+02  0.00000000000E+00 0. -1.
          2   -1    0    0  502    0  0.00000000000E+00 -0.00000000000E+00 -0.78066035703E+03  0.78066035703E+03  0.00000000000E+00 0.  1.
          6    1    1    2  502    0 -0.34625889107E+02 -0.48213053538E+02 -0.53725341215E+03  0.56722894813E+03  0.17200000000E+03 0.  1.
         -6    1    1    2    0  501  0.34625889107E+02  0.48213053538E+02 -0.19218376620E+03  0.26465458757E+03  0.17200000000E+03 0.  1.
</event>
<event>
 4    1  0.8483901E-001  0.1760185E+03  0.7818608E-02  0.1171713E+00
         -2   -1    0    0    0  501 -0.00000000000E+00  0.00000000000E+00  0.33331465108E+02  0.33331465108E+02  0.00000000000E+00 0. -1.
          2   -1    0    0  502    0  0.00000000000E+00 -0.00000000000E+00 -0.95473580461E+03  0.95473580461E+03  0.00000000000E+00 0.  1.
          6    1    1    2  502    0 -0.33872227305E+02  0.15848944808E+02 -0.38042614599E+03  0.41917367450E+03  0.17200000000E+03 0. -1.
         -6    1    1    2    0  501  0.33872227305E+02 -0.15848944808E+02 -0.54097819351E+03  0.56889359522E+03  0.17200000000E+03 0.  1.
</event>
<event>
 4    1  0.8483901E-001  0.2319147E+03  0.7818608E-02  0.1125299E+00
          2   -1    0    0  502    0  0.00000000000E+00  0.00000000000E+00  0.70930237599E+03  0.70930237599E+03  0.00000000000E+00 0. -1.
         -2   -1    0    0    0  501 -0.00000000000E+00 -0.00000000000E+00 -0.97047979833E+02  0.97047979833E+02  0.00000000000E+00 0.  1.
          6    1    1    2  502    0 -0.46539193069E+02  0.14844035621E+03  0.11759701965E+03  0.26002595039E+03  0.17200000000E+03 0. -1.
         -6    1    1    2    0  501  0.46539193069E+02 -0.14844035621E+03  0.49465737650E+03  0.54632440543E+03  0.17200000000E+03 0. -1.
</event>
<event>
 4    1  0.8483901E-001  0.1754261E+03  0.7818608E-02  0.1172305E+00
          1   -1    0    0  502    0  0.00000000000E+00  0.00000000000E+00  0.66140831128E+03  0.66140831128E+03  0.00000000000E+00 0.  1.
         -1   -1    0    0    0  501 -0.00000000000E+00 -0.00000000000E+00 -0.46589256533E+02  0.46589256533E+02  0.00000000000E+00 0. -1.
          6    1    1    2  502    0  0.18021215193E+02  0.29420343935E+02  0.29462335335E+03  0.34289537934E+03  0.17200000000E+03 0. -1.
         -6    1    1    2    0  501 -0.18021215193E+02 -0.29420343935E+02  0.32019570140E+03  0.36510218847E+03  0.17200000000E+03 0. -1.
</event>
<event>
 4    1  0.8483901E-001  0.2011887E+03  0.7818608E-02  0.1148740E+00
          2   -1    0    0  502    0  0.00000000000E+00  0.00000000000E+00  0.88608627230E+03  0.88608627230E+03  0.00000000000E+00 0.  1.
         -2   -1    0    0    0  501 -0.00000000000E+00 -0.00000000000E+00 -0.46575798809E+02  0.46575798809E+02  0.00000000000E+00 0. -1.
          6    1    1    2  502    0 -0.38433183779E+02 -0.97034974325E+02  0.35510212439E+03  0.40813528958E+03  0.17200000000E+03 0. -1.
         -6    1    1    2    0  501  0.38433183779E+02  0.97034974325E+02  0.48440834910E+03  0.52452678152E+03  0.17200000000E+03 0.  1.
</event>
<event>
 4    1  0.8483901E-001  0.1750562E+03  0.7818608E-02  0.1172675E+00
         -2   -1    0    0    0  501 -0.00000000000E+00  0.00000000000E+00  0.34990006065E+02  0.34990006065E+02  0.00000000000E+00 0. -1.
          2   -1    0    0  502    0  0.00000000000E+00 -0.00000000000E+00 -0.11716992348E+04  0.11716992348E+04  0.00000000000E+00 0.  1.
          6    1    1    2  502    0  0.27286363972E+02  0.17780366450E+02 -0.26516098699E+03  0.31773422244E+03  0.17200000000E+03 0. -1.
         -6    1    1    2    0  501 -0.27286363972E+02 -0.17780366450E+02 -0.87154824176E+03  0.88895501844E+03  0.17200000000E+03 0.  1.
</event>
<event>
 4    1  0.8483901E-001  0.1897573E+03  0.7818608E-02  0.1158680E+00
         -2   -1    0    0    0  501 -0.00000000000E+00  0.00000000000E+00  0.10110018678E+03  0.10110018678E+03  0.00000000000E+00 0.  1.
          2   -1    0    0  502    0  0.00000000000E+00 -0.00000000000E+00 -0.35638878240E+03  0.35638878240E+03  0.00000000000E+00 0. -1.
          6    1    1    2  502    0  0.31449138137E+00 -0.80148194409E+02 -0.13344123991E+03  0.23197930184E+03  0.17200000000E+03 0.  1.
         -6    1    1    2    0  501 -0.31449138137E+00  0.80148194409E+02 -0.12184735570E+03  0.22550966734E+03  0.17200000000E+03 0.  1.
</event>
<event>
 4    1  0.8483901E-001  0.1862780E+03  0.7818608E-02  0.1161862E+00
          2   -1    0    0  502    0  0.00000000000E+00  0.00000000000E+00  0.12618859553E+04  0.12618859553E+04  0.00000000000E+00 0.  1.
         -2   -1    0    0    0  501 -0.00000000000E+00 -0.00000000000E+00 -0.29070728479E+02  0.29070728479E+02  0.00000000000E+00 0. -1.
          6    1    1    2  502    0  0.65685714736E+02 -0.28299581030E+02  0.76653687160E+03  0.78884615415E+03  0.17200000000E+03 0.  1.
         -6    1    1    2    0  501 -0.65685714736E+02  0.28299581030E+02  0.46627835518E+03  0.50211052958E+03  0.17200000000E+03 0. -1.
</event>
<event>
 4    1  0.8483901E-001  0.1792436E+03  0.7818608E-02  0.1168537E+00
         -1   -1    0    0    0  501 -0.00000000000E+00  0.00000000000E+00  0.16512734806E+02  0.16512734806E+02  0.00000000000E+00 0. -1.
          1   -1    0    0  502    0  0.00000000000E+00 -0.00000000000E+00 -0.20144551354E+04  0.20144551354E+04  0.00000000000E+00 0.  1.
          6    1    1    2  502    0  0.31047674860E+02  0.39753005685E+02 -0.11866242128E+04  0.12000855311E+04  0.17200000000E+03 0.  1.
         -6    1    1    2    0  501 -0.31047674860E+02 -0.39753005685E+02 -0.81131818777E+03  0.83088233907E+03  0.17200000000E+03 0. -1.
</event>
<event>
 4    1  0.8483901E-001  0.1858644E+03  0.7818608E-02  0.1162245E+00
         -1   -1    0    0    0  501 -0.00000000000E+00  0.00000000000E+00  0.85046433370E+02  0.85046433370E+02  0.00000000000E+00 0.  1.
          1   -1    0    0  502    0  0.00000000000E+00 -0.00000000000E+00 -0.42423139399E+03  0.42423139399E+03  0.00000000000E+00 0. -1.
          6    1    1    2  502    0 -0.12825147097E+02  0.69261121430E+02 -0.22209459578E+03  0.28960593367E+03  0.17200000000E+03 0. -1.
         -6    1    1    2    0  501  0.12825147097E+02 -0.69261121430E+02 -0.11709036483E+03  0.21967189369E+03  0.17200000000E+03 0. -1.
</event>
<event>
 4    1  0.8483901E-001  0.2009635E+03  0.7818608E-02  0.1148929E+00
         -1   -1    0    0    0  501 -0.00000000000E+00  0.00000000000E+00  0.17821154430E+03  0.17821154430E+03  0.00000000000E+00 0.  1.
          1   -1    0    0  502    0  0.00000000000E+00 -0.00000000000E+00 -0.24168855678E+03  0.24168855678E+03  0.00000000000E+00 0. -1.
          6    1    1    2  502    0 -0.93614089450E+02  0.45152312405E+02 -0.84161453396E+02  0.21787491663E+03  0.17200000000E+03 0. -1.
         -6    1    1    2    0  501  0.93614089450E+02 -0.45152312405E+02  0.20684440917E+02  0.20202518446E+03  0.17200000000E+03 0.  1.
</event>
<event>
 4    1  0.8483901E-001  0.1856412E+03  0.7818608E-02  0.1162453E+00
         -1   -1    0    0    0  501 -0.00000000000E+00  0.00000000000E+00  0.10029167010E+03  0.10029167010E+03  0.00000000000E+00 0. -1.
          1   -1    0    0  502    0  0.00000000000E+00 -0.00000000000E+00 -0.63046770471E+03  0.63046770471E+03  0.00000000000E+00 0.  1.
          6    1    1    2  502    0 -0.69705356397E+02  0.44497619197E+01 -0.51154183299E+03  0.54418533974E+03  0.17200000000E+03 0.  1.
         -6    1    1    2    0  501  0.69705356397E+02 -0.44497619197E+01 -0.18634201631E+02  0.18657403507E+03  0.17200000000E+03 0. -1.
</event>
<event>
 4    1  0.8483901E-001  0.1808889E+03  0.7818608E-02  0.1166946E+00
         -1   -1    0    0    0  501 -0.00000000000E+00  0.00000000000E+00  0.78596263611E+02  0.78596263611E+02  0.00000000000E+00 0. -1.
          1   -1    0    0  502    0  0.00000000000E+00 -0.00000000000E+00 -0.52020038859E+03  0.52020038859E+03  0.00000000000E+00 0.  1.
          6    1    1    2  502    0 -0.39893616205E+02 -0.39310008359E+02 -0.35459770227E+03  0.39807073219E+03  0.17200000000E+03 0.  1.
         -6    1    1    2    0  501  0.39893616205E+02  0.39310008359E+02 -0.87006422708E+02  0.20072592001E+03  0.17200000000E+03 0. -1.
</event>
<event>
 4    1  0.8483901E-001  0.1846082E+03  0.7818608E-02  0.1163416E+00
         -2   -1    0    0    0  501 -0.00000000000E+00  0.00000000000E+00  0.37236896459E+02  0.37236896459E+02  0.00000000000E+00 0. -1.
          2   -1    0    0  502    0  0.00000000000E+00 -0.00000000000E+00 -0.93263084206E+03  0.93263084206E+03  0.00000000000E+00 0.  1.
          6    1    1    2  502    0  0.79260851597E+01 -0.66583576876E+02 -0.38145152179E+03  0.42377524587E+03  0.17200000000E+03 0. -1.
         -6    1    1    2    0  501 -0.79260851597E+01  0.66583576876E+02 -0.51394242381E+03  0.54609249265E+03  0.17200000000E+03 0.  1.
</event>
<event>
 4    1  0.8483901E-001  0.1742085E+03  0.7818608E-02  0.1173529E+00
         -2   -1    0    0    0  501 -0.00000000000E+00  0.00000000000E+00  0.37960799897E+03  0.37960799897E+03  0.00000000000E+00 0. -1.
          2   -1    0    0  502    0  0.00000000000E+00 -0.00000000000E+00 -0.85108275619E+02  0.85108275619E+02  0.00000000000E+00 0.  1.
          6    1    1    2  502    0  0.27364702798E+02  0.39700851968E+01  0.20446922185E+03  0.26861915646E+03  0.17200000000E+03 0. -1.
         -6    1    1    2    0  501 -0.27364702798E+02 -0.39700851968E+01  0.90030501499E+02  0.19609711812E+03  0.17200000000E+03 0.  1.
</event>
<event>
 4    1  0.8483901E-001  0.2190602E+03  0.7818608E-02  0.1134586E+00
         -3   -1    0    0    0  501 -0.00000000000E+00  0.00000000000E+00  0.68074478848E+03  0.68074478848E+03  0.00000000000E+00 0.  1.
          3   -1    0    0  502    0  0.00000000000E+00 -0.00000000000E+00 -0.75090721315E+02  0.75090721315E+02  0.00000000000E+00 0. -1.
          6    1    1    2  502    0 -0.95870672979E+02  0.95980108109E+02  0.39634639117E+03  0.45285519637E+03  0.17200000000E+03 0.  1.
         -6    1    1    2    0  501  0.95870672979E+02 -0.95980108109E+02  0.20930767600E+03  0.30298031342E+03  0.17200000000E+03 0.  1.
</event>
<event>
 4    1  0.8483901E-001  0.1901603E+03  0.7818608E-02  0.1158317E+00
         -2   -1    0    0    0  501 -0.00000000000E+00  0.00000000000E+00  0.72628949964E+02  0.72628949964E+02  0.00000000000E+00 0.  1.
          2   -1    0    0  502    0  0.00000000000E+00 -0.00000000000E+00 -0.65022856315E+03  0.65022856315E+03  0.00000000000E+00 0. -1.
          6    1    1    2  502    0 -0.71783612685E+02 -0.37736691527E+02 -0.11385535919E+03  0.22163931906E+03  0.17200000000E+03 0.  1.
         -6    1    1    2    0  501  0.71783612685E+02  0.37736691527E+02 -0.46374425400E+03  0.50121819406E+03  0.17200000000E+03 0. -1.
</event>
<event>
 4    1  0.8483901E-001  0.2542688E+03  0.7818608E-02  0.1110636E+00
          2   -1    0    0  502    0  0.00000000000E+00  0.00000000000E+00  0.53915674100E+03  0.53915674100E+03  0.00000000000E+00 0.  1.
         -2   -1    0    0    0  501 -0.00000000000E+00 -0.00000000000E+00 -0.12351371057E+03  0.12351371057E+03  0.00000000000E+00 0. -1.
          6    1    1    2  502    0 -0.12201250107E+03  0.14206186322E+03  0.15125968444E+03  0.29585826934E+03  0.17200000000E+03 0. -1.
         -6    1    1    2    0  501  0.12201250107E+03 -0.14206186322E+03  0.26438334600E+03  0.36681218224E+03  0.17200000000E+03 0.  1.
</event>
<event>
 4    1  0.8483901E-001  0.2892042E+03  0.7818608E-02  0.1090765E+00
         -2   -1    0    0    0  501 -0.00000000000E+00  0.00000000000E+00  0.11956679409E+03  0.11956679409E+03  0.00000000000E+00 0.  1.
          2   -1    0    0  502    0  0.00000000000E+00 -0.00000000000E+00 -0.17103148590E+04  0.17103148590E+04  0.00000000000E+00 0. -1.
          6    1    1    2  502    0  0.22917406975E+02 -0.23136519389E+03 -0.14987491972E+04  0.15263971359E+04  0.17200000000E+03 0. -1.
         -6    1    1    2    0  501 -0.22917406975E+02  0.23136519389E+03 -0.91998867687E+02  0.30348451713E+03  0.17200000000E+03 0.  1.
</event>
<event>
 4    1  0.8483901E-001  0.2433344E+03  0.7818608E-02  0.1117591E+00
         -1   -1    0    0    0  501 -0.00000000000E+00  0.00000000000E+00  0.22012834132E+03  0.22012834132E+03  0.00000000000E+00 0.  1.
          1   -1    0    0  502    0  0.00000000000E+00 -0.00000000000E+00 -0.33825011725E+03  0.33825011725E+03  0.00000000000E+00 0. -1.
          6    1    1    2  502    0  0.17111740331E+03 -0.18614025674E+02  0.67276212390E+02  0.25246333678E+03  0.17200000000E+03 0.  1.
         -6    1    1    2    0  501 -0.17111740331E+03  0.18614025674E+02 -0.18539798832E+03  0.30591512179E+03  0.17200000000E+03 0. -1.
</event>
<event>
 4    1  0.8483901E-001  0.2031386E+03  0.7818608E-02  0.1147118E+00
         -2   -1    0    0    0  501 -0.00000000000E+00  0.00000000000E+00  0.20951379280E+02  0.20951379280E+02  0.00000000000E+00 0. -1.
          2   -1    0    0  502    0  0.00000000000E+00 -0.00000000000E+00 -0.21513074078E+04  0.21513074078E+04  0.00000000000E+00 0.  1.
          6    1    1    2  502    0  0.10707997696E+03  0.14667970909E+02 -0.74949667037E+03  0.77653752629E+03  0.17200000000E+03 0. -1.
         -6    1    1    2    0  501 -0.10707997696E+03 -0.14667970909E+02 -0.13808593581E+04  0.13957212608E+04  0.17200000000E+03 0.  1.
</event>
<event>
 4    1  0.8483901E-001  0.2029583E+03  0.7818608E-02  0.1147267E+00
         -1   -1    0    0    0  501 -0.00000000000E+00  0.00000000000E+00  0.28282556751E+03  0.28282556751E+03  0.00000000000E+00 0. -1.
          1   -1    0    0  502    0  0.00000000000E+00 -0.00000000000E+00 -0.15206835512E+03  0.15206835512E+03  0.00000000000E+00 0.  1.
          6    1    1    2  502    0 -0.16764855245E+02 -0.10642834300E+03  0.11007002215E+03  0.23088408854E+03  0.17200000000E+03 0. -1.
         -6    1    1    2    0  501  0.16764855245E+02  0.10642834300E+03  0.20687190244E+02  0.20400983409E+03  0.17200000000E+03 0.  1.
</event>
<event>
 4    1  0.8483901E-001  0.1921498E+03  0.7818608E-02  0.1156537E+00
          1   -1    0    0  502    0  0.00000000000E+00  0.00000000000E+00  0.56059538330E+02  0.56059538330E+02  0.00000000000E+00 0.  1.
         -1   -1    0    0    0  501 -0.00000000000E+00 -0.00000000000E+00 -0.66273380523E+03  0.66273380523E+03  0.00000000000E+00 0. -1.
          6    1    1    2  502    0 -0.19346172685E+02 -0.83446105240E+02 -0.27499656593E+03  0.33547673265E+03  0.17200000000E+03 0.  1.
         -6    1    1    2    0  501  0.19346172685E+02  0.83446105240E+02 -0.33167770098E+03  0.38331661091E+03  0.17200000000E+03 0. -1.
</event>
<event>
 4    1  0.8483901E-001  0.1802001E+03  0.7818608E-02  0.1167610E+00
          4   -1    0    0  502    0  0.00000000000E+00  0.00000000000E+00  0.33617236170E+02  0.33617236170E+02  0.00000000000E+00 0. -1.
         -4   -1    0    0    0  501 -0.00000000000E+00 -0.00000000000E+00 -0.13091603136E+04  0.13091603136E+04  0.00000000000E+00 0.  1.
          6    1    1    2  502    0 -0.16945775295E+02  0.50999255199E+02 -0.29400233293E+03  0.34483250296E+03  0.17200000000E+03 0. -1.
         -6    1    1    2    0  501  0.16945775295E+02 -0.50999255199E+02 -0.98154074449E+03  0.99794504679E+03  0.17200000000E+03 0.  1.
</event>
<event>
 4    1  0.8483901E-001  0.1722656E+03  0.7818608E-02  0.1175506E+00
         -2   -1    0    0    0  501 -0.00000000000E+00  0.00000000000E+00  0.24135064643E+02  0.24135064643E+02  0.00000000000E+00 0.  1.
          2   -1    0    0  502    0  0.00000000000E+00 -0.00000000000E+00 -0.12299348000E+04  0.12299348000E+04  0.00000000000E+00 0. -1.
          6    1    1    2  502    0 -0.64538043051E+01 -0.70549700334E+01 -0.59190215041E+03  0.61646052579E+03  0.17200000000E+03 0. -1.
         -6    1    1    2    0  501  0.64538043051E+01  0.70549700334E+01 -0.61389758491E+03  0.63760933882E+03  0.17200000000E+03 0. -1.
</event>
<event>
 4    1  0.8483901E-001  0.1799305E+03  0.7818608E-02  0.1167870E+00
          2   -1    0    0  502    0  0.00000000000E+00  0.00000000000E+00  0.44789322832E+02  0.44789322832E+02  0.00000000000E+00 0.  1.
         -2   -1    0    0    0  501 -0.00000000000E+00 -0.00000000000E+00 -0.13434358040E+04  0.13434358040E+04  0.00000000000E+00 0. -1.
          6    1    1    2  502    0  0.49683565308E+02 -0.17959072215E+02 -0.17755359161E+03  0.25278501307E+03  0.17200000000E+03 0.  1.
         -6    1    1    2    0  501 -0.49683565308E+02  0.17959072215E+02 -0.11210928896E+04  0.11354401138E+04  0.17200000000E+03 0. -1.
</event>
<event>
 4    1  0.8483901E-001  0.3313117E+03  0.7818608E-02  0.1070558E+00
         -2   -1    0    0    0  501 -0.00000000000E+00  0.00000000000E+00  0.28398265856E+03  0.28398265856E+03  0.00000000000E+00 0.  1.
          2   -1    0    0  502    0  0.00000000000E+00 -0.00000000000E+00 -0.14200971425E+04  0.14200971425E+04  0.00000000000E+00 0. -1.
          6    1    1    2  502    0  0.40069925497E+02  0.28031740887E+03  0.15883582394E+03  0.36741838225E+03  0.17200000000E+03 0.  1.
         -6    1    1    2    0  501 -0.40069925497E+02 -0.28031740887E+03 -0.12949503079E+04  0.13366614189E+04  0.17200000000E+03 0. -1.
</event>
<event>
 4    1  0.8483901E-001  0.1858965E+03  0.7818608E-02  0.1162215E+00
         -2   -1    0    0    0  501 -0.00000000000E+00  0.00000000000E+00  0.68381979167E+02  0.68381979167E+02  0.00000000000E+00 0. -1.
          2   -1    0    0  502    0  0.00000000000E+00 -0.00000000000E+00 -0.57251819672E+03  0.57251819672E+03  0.00000000000E+00 0.  1.
          6    1    1    2  502    0 -0.12763920772E+02 -0.69358469264E+02 -0.14231537207E+03  0.23411787642E+03  0.17200000000E+03 0. -1.
         -6    1    1    2    0  501  0.12763920772E+02  0.69358469264E+02 -0.36182084549E+03  0.40678229947E+03  0.17200000000E+03 0. -1.
</event>
<event>
 4    1  0.8483901E-001  0.1957571E+03  0.7818608E-02  0.1153369E+00
          2   -1    0    0  502    0  0.00000000000E+00  0.00000000000E+00  0.39739773846E+02  0.39739773846E+02  0.00000000000E+00 0. -1.
         -2   -1    0    0    0  501 -0.00000000000E+00 -0.00000000000E+00 -0.96607760357E+03  0.96607760357E+03  0.00000000000E+00 0.  1.
          6    1    1    2  502    0  0.76531950168E+02 -0.53662743982E+02 -0.44156064372E+03  0.48300790011E+03  0.17200000000E+03 0. -1.
         -6    1    1    2    0  501 -0.76531950168E+02  0.53662743982E+02 -0.48477718601E+03  0.52280947731E+03  0.17200000000E+03 0. -1.
</event>
<event>
 4    1  0.8483901E-001  0.1749732E+03  0.7818608E-02  0.1172759E+00
         -2   -1    0    0    0  501 -0.00000000000E+00  0.00000000000E+00  0.31817521476E+02  0.31817521476E+02  0.00000000000E+00 0.  1.
          2   -1    0    0  502    0  0.00000000000E+00 -0.00000000000E+00 -0.97479799760E+03  0.97479799760E+03  0.00000000000E+00 0. -1.
          6    1    1    2  502    0  0.15434978073E+02  0.28166960218E+02 -0.41432989023E+03  0.44976090774E+03  0.17200000000E+03 0. -1.
         -6    1    1    2    0  501 -0.15434978073E+02 -0.28166960218E+02 -0.52865058589E+03  0.55685461133E+03  0.17200000000E+03 0.  1.
</event>
<event>
 4    1  0.8483901E-001  0.1841356E+03  0.7818608E-02  0.1163860E+00
         -3   -1    0    0    0  501 -0.00000000000E+00  0.00000000000E+00  0.50205540643E+03  0.50205540643E+03  0.00000000000E+00 0. -1.
          3   -1    0    0  502    0  0.00000000000E+00 -0.00000000000E+00 -0.70844894277E+02  0.70844894277E+02  0.00000000000E+00 0.  1.
          6    1    1    2  502    0 -0.46141158678E+02  0.46828581166E+02  0.27752835854E+03  0.33305842180E+03  0.17200000000E+03 0. -1.
         -6    1    1    2    0  501  0.46141158678E+02 -0.46828581166E+02  0.15368215361E+03  0.23984187890E+03  0.17200000000E+03 0. -1.
</event>
<event>
 4    1  0.8483901E-001  0.1860638E+03  0.7818608E-02  0.1162060E+00
         -1   -1    0    0    0  501 -0.00000000000E+00  0.00000000000E+00  0.35655874398E+03  0.35655874398E+03  0.00000000000E+00 0. -1.
          1   -1    0    0  502    0  0.00000000000E+00 -0.00000000000E+00 -0.12094197889E+03  0.12094197889E+03  0.00000000000E+00 0.  1.
          6    1    1    2  502    0 -0.64180505224E+02 -0.30275290529E+02  0.11790069647E+02  0.18643694969E+03  0.17200000000E+03 0.  1.
         -6    1    1    2    0  501  0.64180505224E+02  0.30275290529E+02  0.22382669544E+03  0.29106377318E+03  0.17200000000E+03 0. -1.
</event>
<event>
 4    1  0.8483901E-001  0.2132731E+03  0.7818608E-02  0.1139000E+00
         -2   -1    0    0    0  501 -0.00000000000E+00  0.00000000000E+00  0.35683689680E+03  0.35683689680E+03  0.00000000000E+00 0. -1.
          2   -1    0    0  502    0  0.00000000000E+00 -0.00000000000E+00 -0.14910025851E+03  0.14910025851E+03  0.00000000000E+00 0.  1.
          6    1    1    2  502    0  0.56863794345E+02  0.11255195085E+03  0.75133376644E+01  0.21340544274E+03  0.17200000000E+03 0.  1.
         -6    1    1    2    0  501 -0.56863794345E+02 -0.11255195085E+03  0.20022330063E+03  0.29253171257E+03  0.17200000000E+03 0. -1.
</event>
<event>
 4    1  0.8483901E-001  0.1871072E+03  0.7818608E-02  0.1161097E+00
          2   -1    0    0  502    0  0.00000000000E+00  0.00000000000E+00  0.35341915448E+03  0.35341915448E+03  0.00000000000E+00 0.  1.
         -2   -1    0    0    0  501 -0.00000000000E+00 -0.00000000000E+00 -0.99522812263E+02  0.99522812263E+02  0.00000000000E+00 0. -1.
          6    1    1    2  502    0 -0.32542754458E+02  0.66076286337E+02  0.11147632650E+03  0.21779825035E+03  0.17200000000E+03 0. -1.
         -6    1    1    2    0  501  0.32542754458E+02 -0.66076286337E+02  0.14242001572E+03  0.23514371640E+03  0.17200000000E+03 0. -1.
</event>
<event>
 4    1  0.8483901E-001  0.2328483E+03  0.7818608E-02  0.1124651E+00
         -2   -1    0    0    0  501 -0.00000000000E+00  0.00000000000E+00  0.17344295238E+03  0.17344295238E+03  0.00000000000E+00 0.  1.
          2   -1    0    0  502    0  0.00000000000E+00 -0.00000000000E+00 -0.34757434377E+03  0.34757434377E+03  0.00000000000E+00 0. -1.
          6    1    1    2  502    0 -0.12155340318E+03 -0.99293077916E+02 -0.16970188390E+03  0.28812683760E+03  0.17200000000E+03 0. -1.
         -6    1    1    2    0  501  0.12155340318E+03  0.99293077916E+02 -0.44295074974E+01  0.23289045855E+03  0.17200000000E+03 0.  1.
</event>
<event>
 4    1  0.8483901E-001  0.1866182E+03  0.7818608E-02  0.1161547E+00
          1   -1    0    0  502    0  0.00000000000E+00  0.00000000000E+00  0.14923544221E+03  0.14923544221E+03  0.00000000000E+00 0.  1.
         -1   -1    0    0    0  501 -0.00000000000E+00 -0.00000000000E+00 -0.23475365757E+03  0.23475365757E+03  0.00000000000E+00 0. -1.
          6    1    1    2  502    0  0.59892457937E+02  0.40684553254E+02 -0.27992886050E+02  0.18870596456E+03  0.17200000000E+03 0.  1.
         -6    1    1    2    0  501 -0.59892457937E+02 -0.40684553254E+02 -0.57525329305E+02  0.19528313522E+03  0.17200000000E+03 0. -1.
</event>
<event>
 4    1  0.8483901E-001  0.2155492E+03  0.7818608E-02  0.1137245E+00
          2   -1    0    0  502    0  0.00000000000E+00  0.00000000000E+00  0.33312732989E+04  0.33312732989E+04  0.00000000000E+00 0.  1.
         -2   -1    0    0    0  501 -0.00000000000E+00 -0.00000000000E+00 -0.13959368758E+02  0.13959368758E+02  0.00000000000E+00 0. -1.
          6    1    1    2  502    0  0.12987343821E+03  0.32146790550E+01  0.17083390782E+04  0.17218838086E+04  0.17200000000E+03 0.  1.
         -6    1    1    2    0  501 -0.12987343821E+03 -0.32146790550E+01  0.16089748519E+04  0.16233488591E+04  0.17200000000E+03 0.  1.
</event>
<event>
 4    1  0.8483901E-001  0.1807726E+03  0.7818608E-02  0.1167057E+00
          1   -1    0    0  502    0  0.00000000000E+00  0.00000000000E+00  0.41671580459E+03  0.41671580459E+03  0.00000000000E+00 0.  1.
         -1   -1    0    0    0  501 -0.00000000000E+00 -0.00000000000E+00 -0.79740789485E+02  0.79740789485E+02  0.00000000000E+00 0. -1.
          6    1    1    2  502    0  0.19712592082E+02 -0.52020569099E+02  0.13653697360E+03  0.22654154378E+03  0.17200000000E+03 0.  1.
         -6    1    1    2    0  501 -0.19712592082E+02  0.52020569099E+02  0.20043804150E+03  0.26991505029E+03  0.17200000000E+03 0.  1.
</event>
<event>
 4    1  0.8483901E-001  0.4584170E+03  0.7818608E-02  0.1025241E+00
         -1   -1    0    0    0  501 -0.00000000000E+00  0.00000000000E+00  0.49282839266E+03  0.49282839266E+03  0.00000000000E+00 0.  1.
          1   -1    0    0  502    0  0.00000000000E+00 -0.00000000000E+00 -0.48589336456E+03  0.48589336456E+03  0.00000000000E+00 0. -1.
          6    1    1    2  502    0  0.18343837983E+03 -0.38329164189E+03  0.17469074818E+03  0.49057413246E+03  0.17200000000E+03 0.  1.
         -6    1    1    2    0  501 -0.18343837983E+03  0.38329164189E+03 -0.16775572008E+03  0.48814762476E+03  0.17200000000E+03 0. -1.
</event>
<event>
 4    1  0.8483901E-001  0.2878408E+03  0.7818608E-02  0.1091482E+00
          4   -1    0    0  502    0  0.00000000000E+00  0.00000000000E+00  0.49981898360E+03  0.49981898360E+03  0.00000000000E+00 0.  1.
         -4   -1    0    0    0  501 -0.00000000000E+00 -0.00000000000E+00 -0.16590391568E+03  0.16590391568E+03  0.00000000000E+00 0. -1.
          6    1    1    2  502    0 -0.12663942236E+03  0.19295284240E+03  0.17659988542E+03  0.33769788601E+03  0.17200000000E+03 0.  1.
         -6    1    1    2    0  501  0.12663942236E+03 -0.19295284240E+03  0.15731518249E+03  0.32802501327E+03  0.17200000000E+03 0. -1.
</event>
<event>
 4    1  0.8483901E-001  0.1805584E+03  0.7818608E-02  0.1167264E+00
         -2   -1    0    0    0  501 -0.00000000000E+00  0.00000000000E+00  0.29823096894E+02  0.29823096894E+02  0.00000000000E+00 0.  1.
          2   -1    0    0  502    0  0.00000000000E+00 -0.00000000000E+00 -0.13408202044E+04  0.13408202044E+04  0.00000000000E+00 0. -1.
          6    1    1    2  502    0  0.45792313037E+02  0.30338121091E+02 -0.36096171735E+03  0.40360215426E+03  0.17200000000E+03 0. -1.
         -6    1    1    2    0  501 -0.45792313037E+02 -0.30338121091E+02 -0.95003539014E+03  0.96704114702E+03  0.17200000000E+03 0. -1.
</event>
<event>
 4    1  0.8483901E-001  0.4057589E+03  0.7818608E-02  0.1041804E+00
          2   -1    0    0  502    0  0.00000000000E+00  0.00000000000E+00  0.28377762985E+03  0.28377762985E+03  0.00000000000E+00 0.  1.
         -2   -1    0    0    0  501 -0.00000000000E+00 -0.00000000000E+00 -0.88696610401E+03  0.88696610401E+03  0.00000000000E+00 0. -1.
          6    1    1    2  502    0  0.23043996035E+02 -0.36677688237E+03  0.42676937796E+02  0.40799709339E+03  0.17200000000E+03 0.  1.
         -6    1    1    2    0  501 -0.23043996035E+02  0.36677688237E+03 -0.64586541195E+03  0.76274664047E+03  0.17200000000E+03 0. -1.
</event>
<event>
 4    1  0.8483901E-001  0.1842828E+03  0.7818608E-02  0.1163721E+00
         -2   -1    0    0    0  501 -0.00000000000E+00  0.00000000000E+00  0.14796059526E+03  0.14796059526E+03  0.00000000000E+00 0. -1.
          2   -1    0    0  502    0  0.00000000000E+00 -0.00000000000E+00 -0.22986391417E+03  0.22986391417E+03  0.00000000000E+00 0.  1.
          6    1    1    2  502    0  0.41030050836E+02 -0.51890998510E+02 -0.33660651047E+02  0.18733173844E+03  0.17200000000E+03 0. -1.
         -6    1    1    2    0  501 -0.41030050836E+02  0.51890998510E+02 -0.48242667857E+02  0.19049277099E+03  0.17200000000E+03 0.  1.
</event>
<event>
 4    1  0.8483901E-001  0.1990534E+03  0.7818608E-02  0.1150540E+00
          3   -1    0    0  502    0  0.00000000000E+00  0.00000000000E+00  0.38494646040E+03  0.38494646040E+03  0.00000000000E+00 0.  1.
         -3   -1    0    0    0  501 -0.00000000000E+00 -0.00000000000E+00 -0.15735909971E+03  0.15735909971E+03  0.00000000000E+00 0. -1.
          6    1    1    2  502    0  0.89312110378E+02  0.45404677200E+02  0.27326655741E+03  0.33807817021E+03  0.17200000000E+03 0.  1.
         -6    1    1    2    0  501 -0.89312110378E+02 -0.45404677200E+02 -0.45679196731E+02  0.20422738990E+03  0.17200000000E+03 0. -1.
</event>
<event>
 4    1  0.8483901E-001  0.1976057E+03  0.7818608E-02  0.1151775E+00
          1   -1    0    0  502    0  0.00000000000E+00  0.00000000000E+00  0.79337476836E+03  0.79337476836E+03  0.00000000000E+00 0. -1.
         -1   -1    0    0    0  501 -0.00000000000E+00 -0.00000000000E+00 -0.49560212780E+02  0.49560212780E+02  0.00000000000E+00 0.  1.
          6    1    1    2  502    0 -0.84999632953E+02 -0.47318839081E+02  0.33686496346E+03  0.39054578956E+03  0.17200000000E+03 0. -1.
         -6    1    1    2    0  501  0.84999632953E+02  0.47318839081E+02  0.40694959213E+03  0.45238919159E+03  0.17200000000E+03 0. -1.
</event>
<event>
 4    1  0.8483901E-001  0.1891848E+03  0.7818608E-02  0.1159199E+00
         -4   -1    0    0    0  501 -0.00000000000E+00  0.00000000000E+00  0.34770610516E+03  0.34770610516E+03  0.00000000000E+00 0. -1.
          4   -1    0    0  502    0  0.00000000000E+00 -0.00000000000E+00 -0.10641399142E+03  0.10641399142E+03  0.00000000000E+00 0.  1.
          6    1    1    2  502    0  0.26528928405E+02  0.74182891890E+02  0.16170535817E+03  0.24887649217E+03  0.17200000000E+03 0. -1.
         -6    1    1    2    0  501 -0.26528928405E+02 -0.74182891890E+02  0.79586755570E+02  0.20524360442E+03  0.17200000000E+03 0.  1.
</event>
<event>
 4    1  0.8483901E-001  0.2293499E+03  0.7818608E-02  0.1127098E+00
          2   -1    0    0  502    0  0.00000000000E+00  0.00000000000E+00  0.16219232180E+04  0.16219232180E+04  0.00000000000E+00 0. -1.
         -2   -1    0    0    0  501 -0.00000000000E+00 -0.00000000000E+00 -0.34902633052E+02  0.34902633052E+02  0.00000000000E+00 0.  1.
          6    1    1    2  502    0  0.12009685655E+03 -0.92704428989E+02  0.57308175158E+03  0.61727146387E+03  0.17200000000E+03 0.  1.
         -6    1    1    2    0  501 -0.12009685655E+03  0.92704428989E+02  0.10139388334E+04  0.10395543872E+04  0.17200000000E+03 0. -1.
</event>
<event>
 4    1  0.8483901E-001  0.6922827E+03  0.7818608E-02  0.9730522E-01
         -1   -1    0    0    0  501 -0.00000000000E+00  0.00000000000E+00  0.79089444984E+03  0.79089444984E+03  0.00000000000E+00 0. -1.
          1   -1    0    0  502    0  0.00000000000E+00 -0.00000000000E+00 -0.63079780686E+03  0.63079780686E+03  0.00000000000E+00 0.  1.
          6    1    1    2  502    0  0.65759076255E+03  0.13132283704E+03 -0.60988655804E+02  0.69496396644E+03  0.17200000000E+03 0.  1.
         -6    1    1    2    0  501 -0.65759076255E+03 -0.13132283704E+03  0.22108529878E+03  0.72672829025E+03  0.17200000000E+03 0. -1.
</event>
<event>
 4    1  0.8483901E-001  0.1763962E+03  0.7818608E-02  0.1171337E+00
          1   -1    0    0  502    0  0.00000000000E+00  0.00000000000E+00  0.37910370974E+02  0.37910370974E+02  0.00000000000E+00 0.  1.
         -1   -1    0    0    0  501 -0.00000000000E+00 -0.00000000000E+00 -0.89804902541E+03  0.89804902541E+03  0.00000000000E+00 0. -1.
          6    1    1    2  502    0 -0.24435556187E+02 -0.30570021403E+02 -0.29278745700E+03  0.34181883738E+03  0.17200000000E+03 0.  1.
         -6    1    1    2    0  501  0.24435556187E+02  0.30570021403E+02 -0.56735119744E+03  0.59414055900E+03  0.17200000000E+03 0. -1.
</event>
<event>
 4    1  0.8483901E-001  0.1928968E+03  0.7818608E-02  0.1155874E+00
          2   -1    0    0  502    0  0.00000000000E+00  0.00000000000E+00  0.72527352537E+02  0.72527352537E+02  0.00000000000E+00 0. -1.
         -2   -1    0    0    0  501 -0.00000000000E+00 -0.00000000000E+00 -0.60067458069E+03  0.60067458069E+03  0.00000000000E+00 0.  1.
          6    1    1    2  502    0  0.62368645319E+02 -0.61117445732E+02 -0.13550298015E+03  0.23573342513E+03  0.17200000000E+03 0. -1.
         -6    1    1    2    0  501 -0.62368645319E+02  0.61117445732E+02 -0.39264424800E+03  0.43746850810E+03  0.17200000000E+03 0.  1.
</event>
<event>
 4    1  0.8483901E-001  0.1968794E+03  0.7818608E-02  0.1152399E+00
         -2   -1    0    0    0  501 -0.00000000000E+00  0.00000000000E+00  0.19465963641E+02  0.19465963641E+02  0.00000000000E+00 0. -1.
          2   -1    0    0  502    0  0.00000000000E+00 -0.00000000000E+00 -0.22435060857E+04  0.22435060857E+04  0.00000000000E+00 0.  1.
          6    1    1    2  502    0  0.21054472350E+01 -0.95776147849E+02 -0.14914317184E+04  0.15043703248E+04  0.17200000000E+03 0.  1.
         -6    1    1    2    0  501 -0.21054472350E+01  0.95776147849E+02 -0.73260840359E+03  0.75860172450E+03  0.17200000000E+03 0.  1.
</event>
<event>
 4    1  0.8483901E-001  0.2959399E+03  0.7818608E-02  0.1087288E+00
          1   -1    0    0  502    0  0.00000000000E+00  0.00000000000E+00  0.33111327707E+03  0.33111327707E+03  0.00000000000E+00 0.  1.
         -1   -1    0    0    0  501 -0.00000000000E+00 -0.00000000000E+00 -0.30946493591E+03  0.30946493591E+03  0.00000000000E+00 0. -1.
          6    1    1    2  502    0  0.69906982119E+02 -0.23045479883E+03 -0.11126010834E+03  0.31616326820E+03  0.17200000000E+03 0. -1.
         -6    1    1    2    0  501 -0.69906982119E+02  0.23045479883E+03  0.13290844950E+03  0.32441494479E+03  0.17200000000E+03 0.  1.
</event>
<event>
 4    1  0.8483901E-001  0.2607175E+03  0.7818608E-02  0.1106713E+00
         -2   -1    0    0    0  501 -0.00000000000E+00  0.00000000000E+00  0.52115023959E+03  0.52115023959E+03  0.00000000000E+00 0.  1.
          2   -1    0    0  502    0  0.00000000000E+00 -0.00000000000E+00 -0.13660285247E+03  0.13660285247E+03  0.00000000000E+00 0. -1.
          6    1    1    2  502    0 -0.15523843066E+03  0.11954344403E+03  0.12236239909E+03  0.28800375358E+03  0.17200000000E+03 0. -1.
         -6    1    1    2    0  501  0.15523843066E+03 -0.11954344403E+03  0.26218498803E+03  0.36974933849E+03  0.17200000000E+03 0.  1.
</event>
<event>
 4    1  0.8483901E-001  0.2733324E+03  0.7818608E-02  0.1099387E+00
         -2   -1    0    0    0  501 -0.00000000000E+00  0.00000000000E+00  0.11736329477E+03  0.11736329477E+03  0.00000000000E+00 0. -1.
          2   -1    0    0  502    0  0.00000000000E+00 -0.00000000000E+00 -0.12845182587E+04  0.12845182587E+04  0.00000000000E+00 0.  1.
          6    1    1    2  502    0  0.18429067806E+03 -0.10565757650E+03 -0.10814057617E+04  0.11154142723E+04  0.17200000000E+03 0.  1.
         -6    1    1    2    0  501 -0.18429067806E+03  0.10565757650E+03 -0.85749202264E+02  0.28646728117E+03  0.17200000000E+03 0. -1.
</event>
<event>
 4    1  0.8483901E-001  0.1868777E+03  0.7818608E-02  0.1161308E+00
          2   -1    0    0  502    0  0.00000000000E+00  0.00000000000E+00  0.62430606077E+03  0.62430606077E+03  0.00000000000E+00 0.  1.
         -2   -1    0    0    0  501 -0.00000000000E+00 -0.00000000000E+00 -0.67240126735E+02  0.67240126735E+02  0.00000000000E+00 0. -1.
          6    1    1    2  502    0 -0.11352925555E+02  0.72182894847E+02  0.13678019045E+03  0.23158600935E+03  0.17200000000E+03 0. -1.
         -6    1    1    2    0  501  0.11352925555E+02 -0.72182894847E+02  0.42028574359E+03  0.45996017816E+03  0.17200000000E+03 0.  1.
</event>
<event>
 4    1  0.8483901E-001  0.2691190E+03  0.7818608E-02  0.1101785E+00
         -2   -1    0    0    0  501 -0.00000000000E+00  0.00000000000E+00  0.61970978328E+03  0.61970978328E+03  0.00000000000E+00 0. -1.
          2   -1    0    0  502    0  0.00000000000E+00 -0.00000000000E+00 -0.13153908757E+03  0.13153908757E+03  0.00000000000E+00 0.  1.
          6    1    1    2  502    0 -0.15077389257E+03 -0.14180353795E+03  0.11864442031E+03  0.29411138796E+03  0.17200000000E+03 0.  1.
         -6    1    1    2    0  501  0.15077389257E+03  0.14180353795E+03  0.36952627540E+03  0.45713748289E+03  0.17200000000E+03 0.  1.
</event>
<event>
 4    1  0.8483901E-001  0.1923655E+03  0.7818608E-02  0.1156345E+00
          2   -1    0    0  502    0  0.00000000000E+00  0.00000000000E+00  0.13425172618E+03  0.13425172618E+03  0.00000000000E+00 0.  1.
         -2   -1    0    0    0  501 -0.00000000000E+00 -0.00000000000E+00 -0.45743965104E+03  0.45743965104E+03  0.00000000000E+00 0. -1.
          6    1    1    2  502    0  0.83354085175E+02  0.21738835431E+02  0.24915462577E+02  0.19397231956E+03  0.17200000000E+03 0.  1.
         -6    1    1    2    0  501 -0.83354085175E+02 -0.21738835431E+02 -0.34810338744E+03  0.39771905766E+03  0.17200000000E+03 0. -1.
</event>
<event>
 4    1  0.8483901E-001  0.1803875E+03  0.7818608E-02  0.1167429E+00
          1   -1    0    0  502    0  0.00000000000E+00  0.00000000000E+00  0.12794929698E+04  0.12794929698E+04  0.00000000000E+00 0. -1.
         -1   -1    0    0    0  501 -0.00000000000E+00 -0.00000000000E+00 -0.25440899698E+02  0.25440899698E+02  0.00000000000E+00 0.  1.
          6    1    1    2  502    0 -0.28805855832E+02  0.46107145824E+02  0.61460018213E+03  0.64052558895E+03  0.17200000000E+03 0.  1.
         -6    1    1    2    0  501  0.28805855832E+02 -0.46107145824E+02  0.63945188795E+03  0.66440828052E+03  0.17200000000E+03 0. -1.
</event>
<event>
 4    1  0.8483901E-001  0.1869693E+03  0.7818608E-02  0.1161224E+00
          2   -1    0    0  502    0  0.00000000000E+00  0.00000000000E+00  0.14170620614E+04  0.14170620614E+04  0.00000000000E+00 0.  1.
         -2   -1    0    0    0  501 -0.00000000000E+00 -0.00000000000E+00 -0.25342265679E+02  0.25342265679E+02  0.00000000000E+00 0. -1.
          6    1    1    2  502    0  0.40441330319E+02  0.61139260434E+02  0.81341083324E+03  0.83462248592E+03  0.17200000000E+03 0. -1.
         -6    1    1    2    0  501 -0.40441330319E+02 -0.61139260434E+02  0.57830896252E+03  0.60778184120E+03  0.17200000000E+03 0. -1.
</event>
<event>
 4    1  0.8483901E-001  0.2768385E+03  0.7818608E-02  0.1097428E+00
          1   -1    0    0  502    0  0.00000000000E+00  0.00000000000E+00  0.50287017462E+03  0.50287017462E+03  0.00000000000E+00 0.  1.
         -1   -1    0    0    0  501 -0.00000000000E+00 -0.00000000000E+00 -0.16227278992E+03  0.16227278992E+03  0.00000000000E+00 0. -1.
          6    1    1    2  502    0 -0.88803004752E+02 -0.19791299602E+03  0.25231300757E+03  0.37456826005E+03  0.17200000000E+03 0.  1.
         -6    1    1    2    0  501  0.88803004752E+02  0.19791299602E+03  0.88284377131E+02  0.29057470449E+03  0.17200000000E+03 0. -1.
</event>
<event>
 4    1  0.8483901E-001  0.2383624E+03  0.7818608E-02  0.1120889E+00
         -1   -1    0    0    0  501 -0.00000000000E+00  0.00000000000E+00  0.24762968261E+03  0.24762968261E+03  0.00000000000E+00 0. -1.
          1   -1    0    0  502    0  0.00000000000E+00 -0.00000000000E+00 -0.30040360764E+03  0.30040360764E+03  0.00000000000E+00 0.  1.
          6    1    1    2  502    0  0.12884342110E+03 -0.10311162250E+03  0.10679220346E+03  0.26119189990E+03  0.17200000000E+03 0. -1.
         -6    1    1    2    0  501 -0.12884342110E+03  0.10311162250E+03 -0.15956612849E+03  0.28684139035E+03  0.17200000000E+03 0.  1.
</event>
<event>
 4    1  0.8483901E-001  0.1899737E+03  0.7818608E-02  0.1158485E+00
          1   -1    0    0  502    0  0.00000000000E+00  0.00000000000E+00  0.28859286743E+03  0.28859286743E+03  0.00000000000E+00 0.  1.
         -1   -1    0    0    0  501 -0.00000000000E+00 -0.00000000000E+00 -0.14529291406E+03  0.14529291406E+03  0.00000000000E+00 0. -1.
          6    1    1    2  502    0 -0.25377460386E+02 -0.76563761216E+02  0.15261630473E+03  0.24368373252E+03  0.17200000000E+03 0.  1.
         -6    1    1    2    0  501  0.25377460386E+02  0.76563761216E+02 -0.93163513611E+01  0.19020204896E+03  0.17200000000E+03 0. -1.
</event>
<event>
 4    1  0.8483901E-001  0.3804914E+03  0.7818608E-02  0.1050752E+00
          1   -1    0    0  502    0  0.00000000000E+00  0.00000000000E+00  0.28354814446E+04  0.28354814446E+04  0.00000000000E+00 0. -1.
         -1   -1    0    0    0  501 -0.00000000000E+00 -0.00000000000E+00 -0.65680125330E+02  0.65680125330E+02  0.00000000000E+00 0.  1.
          6    1    1    2  502    0 -0.11573599050E+03  0.31905310284E+03  0.70046629510E+03  0.79713658334E+03  0.17200000000E+03 0.  1.
         -6    1    1    2    0  501  0.11573599050E+03 -0.31905310284E+03  0.20693350241E+04  0.21040249865E+04  0.17200000000E+03 0. -1.
</event>
<event>
 4    1  0.8483901E-001  0.1722519E+03  0.7818608E-02  0.1175520E+00
          2   -1    0    0  502    0  0.00000000000E+00  0.00000000000E+00  0.67195452124E+03  0.67195452124E+03  0.00000000000E+00 0. -1.
         -2   -1    0    0    0  501 -0.00000000000E+00 -0.00000000000E+00 -0.44159188658E+02  0.44159188658E+02  0.00000000000E+00 0.  1.
          6    1    1    2  502    0 -0.68728399732E+01 -0.62824838260E+01  0.31702314174E+03  0.36079686519E+03  0.17200000000E+03 0. -1.
         -6    1    1    2    0  501  0.68728399732E+01  0.62824838260E+01  0.31077219083E+03  0.35531684470E+03  0.17200000000E+03 0. -1.
</event>
<event>
 4    1  0.8483901E-001  0.2918925E+03  0.7818608E-02  0.1089365E+00
          2   -1    0    0  502    0  0.00000000000E+00  0.00000000000E+00  0.16522182520E+04  0.16522182520E+04  0.00000000000E+00 0. -1.
         -2   -1    0    0    0  501 -0.00000000000E+00 -0.00000000000E+00 -0.82937161345E+02  0.82937161345E+02  0.00000000000E+00 0.  1.
          6    1    1    2  502    0 -0.21718041552E+03  0.91923217938E+02  0.25107614418E+03  0.38502005280E+03  0.17200000000E+03 0.  1.
         -6    1    1    2    0  501  0.21718041552E+03 -0.91923217938E+02  0.13182049465E+04  0.13501353605E+04  0.17200000000E+03 0. -1.
</event>
<event>
 4    1  0.8483901E-001  0.1876800E+03  0.7818608E-02  0.1160571E+00
          1   -1    0    0  502    0  0.00000000000E+00  0.00000000000E+00  0.64439805415E+03  0.64439805415E+03  0.00000000000E+00 0.  1.
         -1   -1    0    0    0  501 -0.00000000000E+00 -0.00000000000E+00 -0.10789792047E+03  0.10789792047E+03  0.00000000000E+00 0. -1.
          6    1    1    2  502    0  0.74981258613E+02  0.41952620698E+01  0.40356754875E+01  0.18772340303E+03  0.17200000000E+03 0. -1.
         -6    1    1    2    0  501 -0.74981258613E+02 -0.41952620698E+01  0.53246445819E+03  0.56457257160E+03  0.17200000000E+03 0.  1.
</event>
<event>
 4    1  0.8483901E-001  0.1741479E+03  0.7818608E-02  0.1173590E+00
         -2   -1    0    0    0  501 -0.00000000000E+00  0.00000000000E+00  0.51722429803E+02  0.51722429803E+02  0.00000000000E+00 0.  1.
          2   -1    0    0  502    0  0.00000000000E+00 -0.00000000000E+00 -0.59469600372E+03  0.59469600372E+03  0.00000000000E+00 0. -1.
          6    1    1    2  502    0 -0.10047513609E+02  0.25348624337E+02 -0.30977332064E+03  0.35536884425E+03  0.17200000000E+03 0. -1.
         -6    1    1    2    0  501  0.10047513609E+02 -0.25348624337E+02 -0.23320025328E+03  0.29104958927E+03  0.17200000000E+03 0.  1.
</event>
<event>
 4    1  0.8483901E-001  0.3044552E+03  0.7818608E-02  0.1083034E+00
         -2   -1    0    0    0  501 -0.00000000000E+00  0.00000000000E+00  0.17929849802E+03  0.17929849802E+03  0.00000000000E+00 0.  1.
          2   -1    0    0  502    0  0.00000000000E+00 -0.00000000000E+00 -0.55109030161E+03  0.55109030161E+03  0.00000000000E+00 0. -1.
          6    1    1    2  502    0 -0.13435430907E+03  0.21226840001E+03 -0.95033686445E+02  0.31894255841E+03  0.17200000000E+03 0.  1.
         -6    1    1    2    0  501  0.13435430907E+03 -0.21226840001E+03 -0.27675811714E+03  0.41144624122E+03  0.17200000000E+03 0. -1.
</event>
<event>
 4    1  0.8483901E-001  0.1742508E+03  0.7818608E-02  0.1173486E+00
          2   -1    0    0  502    0  0.00000000000E+00  0.00000000000E+00  0.16034447780E+04  0.16034447780E+04  0.00000000000E+00 0. -1.
         -2   -1    0    0    0  501 -0.00000000000E+00 -0.00000000000E+00 -0.21785668942E+02  0.21785668942E+02  0.00000000000E+00 0.  1.
          6    1    1    2  502    0 -0.27093141342E+02 -0.67308898097E+01  0.49694799606E+03  0.52661243241E+03  0.17200000000E+03 0.  1.
         -6    1    1    2    0  501  0.27093141342E+02  0.67308898097E+01  0.10847111130E+04  0.10986180146E+04  0.17200000000E+03 0. -1.
</event>
<event>
 4    1  0.8483901E-001  0.2668097E+03  0.7818608E-02  0.1103119E+00
         -2   -1    0    0    0  501 -0.00000000000E+00  0.00000000000E+00  0.17643204164E+03  0.17643204164E+03  0.00000000000E+00 0.  1.
          2   -1    0    0  502    0  0.00000000000E+00 -0.00000000000E+00 -0.42580629222E+03  0.42580629222E+03  0.00000000000E+00 0. -1.
          6    1    1    2  502    0 -0.93662583844E+01  0.20375405051E+03 -0.55741709334E+02  0.27257031763E+03  0.17200000000E+03 0.  1.
         -6    1    1    2    0  501  0.93662583844E+01 -0.20375405051E+03 -0.19363254124E+03  0.32966801623E+03  0.17200000000E+03 0. -1.
</event>
<event>
 4    1  0.8483901E-001  0.1874956E+03  0.7818608E-02  0.1160740E+00
          2   -1    0    0  502    0  0.00000000000E+00  0.00000000000E+00  0.36909583766E+03  0.36909583766E+03  0.00000000000E+00 0. -1.
         -2   -1    0    0    0  501 -0.00000000000E+00 -0.00000000000E+00 -0.95691331276E+02  0.95691331276E+02  0.00000000000E+00 0.  1.
          6    1    1    2  502    0 -0.74628173955E+02 -0.11177117193E+01  0.12083468881E+03  0.22305971318E+03  0.17200000000E+03 0. -1.
         -6    1    1    2    0  501  0.74628173955E+02  0.11177117193E+01  0.15256981758E+03  0.24172745575E+03  0.17200000000E+03 0.  1.
</event>
<event>
 4    1  0.8483901E-001  0.1821096E+03  0.7818608E-02  0.1165777E+00
         -2   -1    0    0    0  501 -0.00000000000E+00  0.00000000000E+00  0.83958343319E+02  0.83958343319E+02  0.00000000000E+00 0.  1.
          2   -1    0    0  502    0  0.00000000000E+00 -0.00000000000E+00 -0.39764476449E+03  0.39764476449E+03  0.00000000000E+00 0. -1.
          6    1    1    2  502    0  0.32497527661E+02  0.50237736319E+02 -0.13722139199E+03  0.22802111717E+03  0.17200000000E+03 0.  1.
         -6    1    1    2    0  501 -0.32497527661E+02 -0.50237736319E+02 -0.17646502919E+03  0.25358199065E+03  0.17200000000E+03 0.  1.
</event>
<event>
 4    1  0.8483901E-001  0.1938163E+03  0.7818608E-02  0.1155064E+00
         -1   -1    0    0    0  501 -0.00000000000E+00  0.00000000000E+00  0.24859702410E+02  0.24859702410E+02  0.00000000000E+00 0.  1.
          1   -1    0    0  502    0  0.00000000000E+00 -0.00000000000E+00 -0.16270107056E+04  0.16270107056E+04  0.00000000000E+00 0. -1.
          6    1    1    2  502    0 -0.88343321355E+02 -0.13273901464E+02 -0.58059528940E+03  0.61209119334E+03  0.17200000000E+03 0.  1.
         -6    1    1    2    0  501  0.88343321355E+02  0.13273901464E+02 -0.10215557138E+04  0.10397792147E+04  0.17200000000E+03 0. -1.
</event>
<event>
 4    1  0.8483901E-001  0.2740543E+03  0.7818608E-02  0.1098981E+00
         -1   -1    0    0    0  501 -0.00000000000E+00  0.00000000000E+00  0.15444722997E+03  0.15444722997E+03  0.00000000000E+00 0.  1.
          1   -1    0    0  502    0  0.00000000000E+00 -0.00000000000E+00 -0.69538463860E+03  0.69538463860E+03  0.00000000000E+00 0. -1.
          6    1    1    2  502    0 -0.13003735997E+03 -0.16915087511E+03 -0.50347340142E+03  0.57322874969E+03  0.17200000000E+03 0. -1.
         -6    1    1    2    0  501  0.13003735997E+03  0.16915087511E+03 -0.37464007207E+02  0.27660311888E+03  0.17200000000E+03 0.  1.
</event>
<event>
 4    1  0.8483901E-001  0.2144391E+03  0.7818608E-02  0.1138098E+00
         -2   -1    0    0    0  501 -0.00000000000E+00  0.00000000000E+00  0.51320225057E+02  0.51320225057E+02  0.00000000000E+00 0. -1.
          2   -1    0    0  502    0  0.00000000000E+00 -0.00000000000E+00 -0.93711282721E+03  0.93711282721E+03  0.00000000000E+00 0.  1.
          6    1    1    2  502    0 -0.38495081294E+02  0.12214023778E+03 -0.54638376971E+03  0.58695769249E+03  0.17200000000E+03 0. -1.
         -6    1    1    2    0  501  0.38495081294E+02 -0.12214023778E+03 -0.33940883245E+03  0.40147535978E+03  0.17200000000E+03 0. -1.
</event>
<event>
 4    1  0.8483901E-001  0.2029550E+03  0.7818608E-02  0.1147270E+00
          2   -1    0    0  502    0  0.00000000000E+00  0.00000000000E+00  0.53861600953E+02  0.53861600953E+02  0.00000000000E+00 0.  1.
         -2   -1    0    0    0  501 -0.00000000000E+00 -0.00000000000E+00 -0.85713583643E+03  0.85713583643E+03  0.00000000000E+00 0. -1.
          6    1    1    2  502    0  0.19356852590E+02  0.10598126714E+03 -0.55117889087E+03  0.58735754568E+03  0.17200000000E+03 0. -1.
         -6    1    1    2    0  501 -0.19356852590E+02 -0.10598126714E+03 -0.25209534460E+03  0.32363989170E+03  0.17200000000E+03 0.  1.
</event>
<event>
 4    1  0.8483901E-001  0.1831120E+03  0.7818608E-02  0.1164825E+00
         -1   -1    0    0    0  501 -0.00000000000E+00  0.00000000000E+00  0.12258782906E+03  0.12258782906E+03  0.00000000000E+00 0. -1.
          1   -1    0    0  502    0  0.00000000000E+00 -0.00000000000E+00 -0.29202056818E+03  0.29202056818E+03  0.00000000000E+00 0.  1.
          6    1    1    2  502    0  0.17173779738E+01 -0.62793713244E+02 -0.13689771582E+03  0.22862848555E+03  0.17200000000E+03 0.  1.
         -6    1    1    2    0  501 -0.17173779738E+01  0.62793713244E+02 -0.32535023291E+02  0.18597991169E+03  0.17200000000E+03 0. -1.
</event>
<event>
 4    1  0.8483901E-001  0.1978520E+03  0.7818608E-02  0.1151564E+00
          2   -1    0    0  502    0  0.00000000000E+00  0.00000000000E+00  0.99640981720E+02  0.99640981720E+02  0.00000000000E+00 0.  1.
         -2   -1    0    0    0  501 -0.00000000000E+00 -0.00000000000E+00 -0.46183762466E+03  0.46183762466E+03  0.00000000000E+00 0. -1.
          6    1    1    2  502    0  0.25576787212E+01  0.97749070959E+02 -0.28959037758E+03  0.35072497684E+03  0.17200000000E+03 0. -1.
         -6    1    1    2    0  501 -0.25576787212E+01 -0.97749070959E+02 -0.72606265359E+02  0.21075362954E+03  0.17200000000E+03 0.  1.
</event>
<event>
 4    1  0.8483901E-001  0.3503460E+03  0.7818608E-02  0.1062473E+00
         -2   -1    0    0    0  501 -0.00000000000E+00  0.00000000000E+00  0.41684916349E+02  0.41684916349E+02  0.00000000000E+00 0.  1.
          2   -1    0    0  502    0  0.00000000000E+00 -0.00000000000E+00 -0.30985744320E+04  0.30985744320E+04  0.00000000000E+00 0. -1.
          6    1    1    2  502    0 -0.32638918040E+02  0.30346828000E+03 -0.18785382274E+04  0.19109286140E+04  0.17200000000E+03 0. -1.
         -6    1    1    2    0  501  0.32638918040E+02 -0.30346828000E+03 -0.11783512882E+04  0.12293307343E+04  0.17200000000E+03 0.  1.
</event>
<event>
 4    1  0.8483901E-001  0.1828881E+03  0.7818608E-02  0.1165037E+00
         -3   -1    0    0    0  501 -0.00000000000E+00  0.00000000000E+00  0.45355312854E+02  0.45355312854E+02  0.00000000000E+00 0.  1.
          3   -1    0    0  502    0  0.00000000000E+00 -0.00000000000E+00 -0.83120659596E+03  0.83120659596E+03  0.00000000000E+00 0. -1.
          6    1    1    2  502    0  0.30977819948E+02  0.53892720044E+02 -0.24574203601E+03  0.30632857990E+03  0.17200000000E+03 0.  1.
         -6    1    1    2    0  501 -0.30977819948E+02 -0.53892720044E+02 -0.54010924709E+03  0.57023332891E+03  0.17200000000E+03 0. -1.
</event>
<event>
 4    1  0.8483901E-001  0.2736092E+03  0.7818608E-02  0.1099232E+00
         -2   -1    0    0    0  501 -0.00000000000E+00  0.00000000000E+00  0.11212371594E+03  0.11212371594E+03  0.00000000000E+00 0. -1.
          2   -1    0    0  502    0  0.00000000000E+00 -0.00000000000E+00 -0.73811551463E+03  0.73811551463E+03  0.00000000000E+00 0.  1.
          6    1    1    2  502    0 -0.14694958640E+03 -0.15389542231E+03 -0.18166519051E+03  0.32842689201E+03  0.17200000000E+03 0. -1.
         -6    1    1    2    0  501  0.14694958640E+03  0.15389542231E+03 -0.44432660818E+03  0.52181233857E+03  0.17200000000E+03 0.  1.
</event>
<event>
 4    1  0.8483901E-001  0.1888824E+03  0.7818608E-02  0.1159473E+00
         -3   -1    0    0    0  501 -0.00000000000E+00  0.00000000000E+00  0.72264610849E+02  0.72264610849E+02  0.00000000000E+00 0.  1.
          3   -1    0    0  502    0  0.00000000000E+00 -0.00000000000E+00 -0.49370984299E+03  0.49370984299E+03  0.00000000000E+00 0. -1.
          6    1    1    2  502    0  0.25008461663E+01  0.78014770823E+02 -0.20908760787E+03  0.28176974015E+03  0.17200000000E+03 0. -1.
         -6    1    1    2    0  501 -0.25008461663E+01 -0.78014770823E+02 -0.21235762427E+03  0.28420471369E+03  0.17200000000E+03 0.  1.
</event>
<event>
 4    1  0.8483901E-001  0.1769201E+03  0.7818608E-02  0.1170818E+00
          1   -1    0    0  502    0  0.00000000000E+00  0.00000000000E+00  0.44601327533E+03  0.44601327533E+03  0.00000000000E+00 0. -1.
         -1   -1    0    0    0  501 -0.00000000000E+00 -0.00000000000E+00 -0.90135880280E+02  0.90135880280E+02  0.00000000000E+00 0.  1.
          6    1    1    2  502    0 -0.31208696685E+02 -0.27253238113E+02  0.30407908936E+03  0.35180223752E+03  0.17200000000E+03 0. -1.
         -6    1    1    2    0  501  0.31208696685E+02  0.27253238113E+02  0.51798305685E+02  0.18434691809E+03  0.17200000000E+03 0.  1.
</event>
<event>
 4    1  0.8483901E-001  0.1881984E+03  0.7818608E-02  0.1160096E+00
          2   -1    0    0  502    0  0.00000000000E+00  0.00000000000E+00  0.14961759044E+04  0.14961759044E+04  0.00000000000E+00 0. -1.
         -2   -1    0    0    0  501 -0.00000000000E+00 -0.00000000000E+00 -0.24897453693E+02  0.24897453693E+02  0.00000000000E+00 0.  1.
          6    1    1    2  502    0 -0.26103744372E+02 -0.71785899866E+02  0.56696236254E+03  0.59738173845E+03  0.17200000000E+03 0.  1.
         -6    1    1    2    0  501  0.26103744372E+02  0.71785899866E+02  0.90431608815E+03  0.92369161963E+03  0.17200000000E+03 0.  1.
</event>
<event>
 4    1  0.8483901E-001  0.1824823E+03  0.7818608E-02  0.1165422E+00
         -2   -1    0    0    0  501 -0.00000000000E+00  0.00000000000E+00  0.96223826492E+02  0.96223826492E+02  0.00000000000E+00 0. -1.
          2   -1    0    0  502    0  0.00000000000E+00 -0.00000000000E+00 -0.40239358465E+03  0.40239358465E+03  0.00000000000E+00 0.  1.
          6    1    1    2  502    0 -0.58676420287E+02  0.16519072998E+02 -0.59808390096E+02  0.19203344916E+03  0.17200000000E+03 0. -1.
         -6    1    1    2    0  501  0.58676420287E+02 -0.16519072998E+02 -0.24636136806E+03  0.30658396198E+03  0.17200000000E+03 0.  1.
</event>
<event>
 4    1  0.8483901E-001  0.1805554E+03  0.7818608E-02  0.1167267E+00
         -1   -1    0    0    0  501 -0.00000000000E+00  0.00000000000E+00  0.60344993312E+02  0.60344993312E+02  0.00000000000E+00 0. -1.
          1   -1    0    0  502    0  0.00000000000E+00 -0.00000000000E+00 -0.79461610987E+03  0.79461610987E+03  0.00000000000E+00 0.  1.
          6    1    1    2  502    0  0.43103206669E+02 -0.34034587561E+02 -0.60900637567E+03  0.63520784409E+03  0.17200000000E+03 0.  1.
         -6    1    1    2    0  501 -0.43103206669E+02  0.34034587561E+02 -0.12526474089E+03  0.21975325910E+03  0.17200000000E+03 0. -1.
</event>
<event>
 4    1  0.8483901E-001  0.1915057E+03  0.7818608E-02  0.1157110E+00
          2   -1    0    0  502    0  0.00000000000E+00  0.00000000000E+00  0.36104657008E+04  0.36104657008E+04  0.00000000000E+00 0. -1.
         -2   -1    0    0    0  501 -0.00000000000E+00 -0.00000000000E+00 -0.10706619412E+02  0.10706619412E+02  0.00000000000E+00 0.  1.
          6    1    1    2  502    0  0.70497762421E+02  0.46049049659E+02  0.22098013852E+04  0.22180839956E+04  0.17200000000E+03 0. -1.
         -6    1    1    2    0  501 -0.70497762421E+02 -0.46049049659E+02  0.13899576961E+04  0.14030883245E+04  0.17200000000E+03 0. -1.
</event>
<event>
 4    1  0.8483901E-001  0.1821340E+03  0.7818608E-02  0.1165754E+00
         -1   -1    0    0    0  501 -0.00000000000E+00  0.00000000000E+00  0.31862180754E+02  0.31862180754E+02  0.00000000000E+00 0.  1.
          1   -1    0    0  502    0  0.00000000000E+00 -0.00000000000E+00 -0.20387302376E+04  0.20387302376E+04  0.00000000000E+00 0. -1.
          6    1    1    2  502    0 -0.55004890079E+01 -0.59653598093E+02 -0.27922807263E+03  0.33337834916E+03  0.17200000000E+03 0.  1.
         -6    1    1    2    0  501  0.55004890079E+01  0.59653598093E+02 -0.17276399842E+04  0.17372140692E+04  0.17200000000E+03 0. -1.
</event>
<event>
 4    1  0.8483901E-001  0.1815236E+03  0.7818608E-02  0.1166337E+00
         -2   -1    0    0    0  501 -0.00000000000E+00  0.00000000000E+00  0.43491527754E+02  0.43491527754E+02  0.00000000000E+00 0.  1.
          2   -1    0    0  502    0  0.00000000000E+00 -0.00000000000E+00 -0.79164177837E+03  0.79164177837E+03  0.00000000000E+00 0. -1.
          6    1    1    2  502    0 -0.53632110193E+02  0.22145101743E+02 -0.28753275951E+03  0.34003808105E+03  0.17200000000E+03 0. -1.
         -6    1    1    2    0  501  0.53632110193E+02 -0.22145101743E+02 -0.46061749111E+03  0.49509522507E+03  0.17200000000E+03 0.  1.
</event>
<event>
 4    1  0.8483901E-001  0.1767941E+03  0.7818608E-02  0.1170942E+00
         -1   -1    0    0    0  501 -0.00000000000E+00  0.00000000000E+00  0.44423968524E+02  0.44423968524E+02  0.00000000000E+00 0. -1.
          1   -1    0    0  502    0  0.00000000000E+00 -0.00000000000E+00 -0.73977013059E+03  0.73977013059E+03  0.00000000000E+00 0.  1.
          6    1    1    2  502    0  0.20189490603E+02 -0.35560290075E+02 -0.43438826272E+03  0.46898753987E+03  0.17200000000E+03 0.  1.
         -6    1    1    2    0  501 -0.20189490603E+02  0.35560290075E+02 -0.26095789934E+03  0.31520655924E+03  0.17200000000E+03 0. -1.
</event>
<event>
 4    1  0.8483901E-001  0.1874679E+03  0.7818608E-02  0.1160765E+00
         -2   -1    0    0    0  501 -0.00000000000E+00  0.00000000000E+00  0.13921072680E+02  0.13921072680E+02  0.00000000000E+00 0.  1.
          2   -1    0    0  502    0  0.00000000000E+00 -0.00000000000E+00 -0.25882966618E+04  0.25882966618E+04  0.00000000000E+00 0. -1.
          6    1    1    2  502    0  0.59694412279E+02  0.44685649208E+02 -0.14914028121E+04  0.15031389084E+04  0.17200000000E+03 0. -1.
         -6    1    1    2    0  501 -0.59694412279E+02 -0.44685649208E+02 -0.10829727770E+04  0.10990788261E+04  0.17200000000E+03 0.  1.
</event>
<event>
 4    1  0.8483901E-001  0.1829831E+03  0.7818608E-02  0.1164947E+00
          2   -1    0    0  502    0  0.00000000000E+00  0.00000000000E+00  0.24569850493E+03  0.24569850493E+03  0.00000000000E+00 0. -1.
         -2   -1    0    0    0  501 -0.00000000000E+00 -0.00000000000E+00 -0.13871713124E+03  0.13871713124E+03  0.00000000000E+00 0.  1.
          6    1    1    2  502    0 -0.58483180699E+02 -0.21875214076E+02  0.78988462942E+02  0.19930374982E+03  0.17200000000E+03 0. -1.
         -6    1    1    2    0  501  0.58483180699E+02  0.21875214076E+02  0.27992910744E+02  0.18511188635E+03  0.17200000000E+03 0.  1.
</event>
<event>
 4    1  0.8483901E-001  0.3209317E+03  0.7818608E-02  0.1075221E+00
          2   -1    0    0  502    0  0.00000000000E+00  0.00000000000E+00  0.21531927929E+04  0.21531927929E+04  0.00000000000E+00 0.  1.
         -2   -1    0    0    0  501 -0.00000000000E+00 -0.00000000000E+00 -0.53490823490E+02  0.53490823490E+02  0.00000000000E+00 0. -1.
          6    1    1    2  502    0  0.32935326968E+02  0.26893941651E+03  0.69106688611E+03  0.76195182695E+03  0.17200000000E+03 0. -1.
         -6    1    1    2    0  501 -0.32935326968E+02 -0.26893941651E+03  0.14086350833E+04  0.14447317895E+04  0.17200000000E+03 0.  1.
</event>
<event>
 4    1  0.8483901E-001  0.2366440E+03  0.7818608E-02  0.1122049E+00
          1   -1    0    0  502    0  0.00000000000E+00  0.00000000000E+00  0.15026247280E+03  0.15026247280E+03  0.00000000000E+00 0. -1.
         -1   -1    0    0    0  501 -0.00000000000E+00 -0.00000000000E+00 -0.43268796337E+03  0.43268796337E+03  0.00000000000E+00 0.  1.
          6    1    1    2  502    0 -0.61208816307E+02  0.15056508650E+03 -0.32668820550E+02  0.23888829252E+03  0.17200000000E+03 0. -1.
         -6    1    1    2    0  501  0.61208816307E+02 -0.15056508650E+03 -0.24975667002E+03  0.34406214364E+03  0.17200000000E+03 0.  1.
</event>
<event>
 4    1  0.8483901E-001  0.3146360E+03  0.7818608E-02  0.1078145E+00
          2   -1    0    0  502    0  0.00000000000E+00  0.00000000000E+00  0.15506010217E+04  0.15506010217E+04  0.00000000000E+00 0. -1.
         -2   -1    0    0    0  501 -0.00000000000E+00 -0.00000000000E+00 -0.64089382103E+02  0.64089382103E+02  0.00000000000E+00 0.  1.
          6    1    1    2  502    0  0.15242899089E+03  0.21488881678E+03  0.79326239556E+03  0.85338211198E+03  0.17200000000E+03 0. -1.
         -6    1    1    2    0  501 -0.15242899089E+03 -0.21488881678E+03  0.69324924407E+03  0.76130829185E+03  0.17200000000E+03 0. -1.
</event>
<event>
 4    1  0.8483901E-001  0.1936656E+03  0.7818608E-02  0.1155196E+00
          2   -1    0    0  502    0  0.00000000000E+00  0.00000000000E+00  0.69215065073E+03  0.69215065073E+03  0.00000000000E+00 0. -1.
         -2   -1    0    0    0  501 -0.00000000000E+00 -0.00000000000E+00 -0.96856106102E+02  0.96856106102E+02  0.00000000000E+00 0.  1.
          6    1    1    2  502    0 -0.15812029321E+02  0.87591911572E+02  0.35805974875E+02  0.19694778770E+03  0.17200000000E+03 0.  1.
         -6    1    1    2    0  501  0.15812029321E+02 -0.87591911572E+02  0.55948856975E+03  0.59205896913E+03  0.17200000000E+03 0. -1.
</event>
<event>
 4    1  0.8483901E-001  0.1919222E+03  0.7818608E-02  0.1156739E+00
          3   -1    0    0  502    0  0.00000000000E+00  0.00000000000E+00  0.47781833284E+02  0.47781833284E+02  0.00000000000E+00 0.  1.
         -3   -1    0    0    0  501 -0.00000000000E+00 -0.00000000000E+00 -0.77926975233E+03  0.77926975233E+03  0.00000000000E+00 0. -1.
          6    1    1    2  502    0 -0.33828228997E+02  0.78139565063E+02 -0.32284079283E+03  0.37557997580E+03  0.17200000000E+03 0.  1.
         -6    1    1    2    0  501  0.33828228997E+02 -0.78139565063E+02 -0.40864712621E+03  0.45147160981E+03  0.17200000000E+03 0. -1.
</event>
<event>
 4    1  0.8483901E-001  0.3297798E+03  0.7818608E-02  0.1071234E+00
         -2   -1    0    0    0  501 -0.00000000000E+00  0.00000000000E+00  0.66525476403E+03  0.66525476403E+03  0.00000000000E+00 0. -1.
          2   -1    0    0  502    0  0.00000000000E+00 -0.00000000000E+00 -0.21351693550E+03  0.21351693550E+03  0.00000000000E+00 0.  1.
          6    1    1    2  502    0  0.25336866971E+03  0.12237263365E+03  0.43857624612E+03  0.54872932118E+03  0.17200000000E+03 0. -1.
         -6    1    1    2    0  501 -0.25336866971E+03 -0.12237263365E+03  0.13161582407E+02  0.33004237835E+03  0.17200000000E+03 0.  1.
</event>
<event>
 4    1  0.8483901E-001  0.2571568E+03  0.7818608E-02  0.1108864E+00
         -1   -1    0    0    0  501 -0.00000000000E+00  0.00000000000E+00  0.35418168757E+03  0.35418168757E+03  0.00000000000E+00 0.  1.
          1   -1    0    0  502    0  0.00000000000E+00 -0.00000000000E+00 -0.19230037662E+03  0.19230037662E+03  0.00000000000E+00 0. -1.
          6    1    1    2  502    0  0.18832476277E+03 -0.32854166864E+02  0.34356520912E+02  0.25944167569E+03  0.17200000000E+03 0. -1.
         -6    1    1    2    0  501 -0.18832476277E+03  0.32854166864E+02  0.12752479004E+03  0.28704038850E+03  0.17200000000E+03 0.  1.
</event>
<event>
 4    1  0.8483901E-001  0.1798583E+03  0.7818608E-02  0.1167940E+00
         -1   -1    0    0    0  501 -0.00000000000E+00  0.00000000000E+00  0.16270591676E+03  0.16270591676E+03  0.00000000000E+00 0. -1.
          1   -1    0    0  502    0  0.00000000000E+00 -0.00000000000E+00 -0.32033170251E+03  0.32033170251E+03  0.00000000000E+00 0.  1.
          6    1    1    2  502    0  0.43893782041E+02 -0.28954075905E+02 -0.22756465313E+03  0.29005977654E+03  0.17200000000E+03 0.  1.
         -6    1    1    2    0  501 -0.43893782041E+02  0.28954075905E+02  0.69938867387E+02  0.19297784273E+03  0.17200000000E+03 0. -1.
</event>
<event>
 4    1  0.8483901E-001  0.2050960E+03  0.7818608E-02  0.1145509E+00
         -2   -1    0    0    0  501 -0.00000000000E+00  0.00000000000E+00  0.98119636843E+02  0.98119636843E+02  0.00000000000E+00 0. -1.
          2   -1    0    0  502    0  0.00000000000E+00 -0.00000000000E+00 -0.69869793490E+03  0.69869793490E+03  0.00000000000E+00 0.  1.
          6    1    1    2  502    0  0.92107283958E+02 -0.63218861345E+02 -0.54795173285E+03  0.58507732627E+03  0.17200000000E+03 0.  1.
         -6    1    1    2    0  501 -0.92107283958E+02  0.63218861345E+02 -0.52626565214E+02  0.21174024548E+03  0.17200000000E+03 0. -1.
</event>
<event>
 4    1  0.8483901E-001  0.3146904E+03  0.7818608E-02  0.1078119E+00
         -2   -1    0    0    0  501 -0.00000000000E+00  0.00000000000E+00  0.40152542180E+02  0.40152542180E+02  0.00000000000E+00 0.  1.
          2   -1    0    0  502    0  0.00000000000E+00 -0.00000000000E+00 -0.29144577507E+04  0.29144577507E+04  0.00000000000E+00 0. -1.
          6    1    1    2  502    0  0.22871568864E+03 -0.13090130686E+03 -0.20164279153E+04  0.20408359944E+04  0.17200000000E+03 0. -1.
         -6    1    1    2    0  501 -0.22871568864E+03  0.13090130686E+03 -0.85787729317E+03  0.91377429844E+03  0.17200000000E+03 0.  1.
</event>
<event>
 4    1  0.8483901E-001  0.1984365E+03  0.7818608E-02  0.1151065E+00
         -2   -1    0    0    0  501 -0.00000000000E+00  0.00000000000E+00  0.19613315883E+03  0.19613315883E+03  0.00000000000E+00 0. -1.
          2   -1    0    0  502    0  0.00000000000E+00 -0.00000000000E+00 -0.20809866023E+03  0.20809866023E+03  0.00000000000E+00 0.  1.
          6    1    1    2  502    0 -0.90778806641E+02  0.39398451772E+02 -0.43920580514E+02  0.20323889177E+03  0.17200000000E+03 0. -1.
         -6    1    1    2    0  501  0.90778806641E+02 -0.39398451772E+02  0.31955079116E+02  0.20099292728E+03  0.17200000000E+03 0. -1.
</event>
<event>
 4    1  0.8483901E-001  0.1991049E+03  0.7818608E-02  0.1150496E+00
         -2   -1    0    0    0  501 -0.00000000000E+00  0.00000000000E+00  0.13740190682E+03  0.13740190682E+03  0.00000000000E+00 0.  1.
          2   -1    0    0  502    0  0.00000000000E+00 -0.00000000000E+00 -0.30331813098E+03  0.30331813098E+03  0.00000000000E+00 0. -1.
          6    1    1    2  502    0  0.30259934587E+02  0.95619630833E+02 -0.13163602784E+03  0.23868561177E+03  0.17200000000E+03 0. -1.
         -6    1    1    2    0  501 -0.30259934587E+02 -0.95619630833E+02 -0.34280196323E+02  0.20203442603E+03  0.17200000000E+03 0.  1.
</event>
<event>
 4    1  0.8483901E-001  0.2026526E+03  0.7818608E-02  0.1147520E+00
         -2   -1    0    0    0  501 -0.00000000000E+00  0.00000000000E+00  0.60929367797E+02  0.60929367797E+02  0.00000000000E+00 0. -1.
          2   -1    0    0  502    0  0.00000000000E+00 -0.00000000000E+00 -0.68328123009E+03  0.68328123009E+03  0.00000000000E+00 0.  1.
          6    1    1    2  502    0 -0.95563137203E+02  0.48495066819E+02 -0.35447899763E+03  0.40831782285E+03  0.17200000000E+03 0. -1.
         -6    1    1    2    0  501  0.95563137203E+02 -0.48495066819E+02 -0.26787286466E+03  0.33589277503E+03  0.17200000000E+03 0. -1.
</event>
<event>
 4    1  0.8483901E-001  0.1755611E+03  0.7818608E-02  0.1172170E+00
          2   -1    0    0  502    0  0.00000000000E+00  0.00000000000E+00  0.13774778920E+03  0.13774778920E+03  0.00000000000E+00 0. -1.
         -2   -1    0    0    0  501 -0.00000000000E+00 -0.00000000000E+00 -0.28159660516E+03  0.28159660516E+03  0.00000000000E+00 0.  1.
          6    1    1    2  502    0  0.23912347318E+02 -0.25804766723E+02  0.23103073923E+02  0.17707466890E+03  0.17200000000E+03 0. -1.
         -6    1    1    2    0  501 -0.23912347318E+02  0.25804766723E+02 -0.16695188988E+03  0.24226972546E+03  0.17200000000E+03 0.  1.
</event>
<event>
 4    1  0.8483901E-001  0.1775977E+03  0.7818608E-02  0.1170148E+00
          2   -1    0    0  502    0  0.00000000000E+00  0.00000000000E+00  0.19803703966E+03  0.19803703966E+03  0.00000000000E+00 0. -1.
         -2   -1    0    0    0  501 -0.00000000000E+00 -0.00000000000E+00 -0.16789440802E+03  0.16789440802E+03  0.00000000000E+00 0.  1.
          6    1    1    2  502    0 -0.41474377564E+02 -0.15389379844E+02  0.56544502991E+02  0.18638196754E+03  0.17200000000E+03 0.  1.
         -6    1    1    2    0  501  0.41474377564E+02  0.15389379844E+02 -0.26401871356E+02  0.17954948014E+03  0.17200000000E+03 0.  1.
</event>
<event>
 4    1  0.8483901E-001  0.1756545E+03  0.7818608E-02  0.1172076E+00
          2   -1    0    0  502    0  0.00000000000E+00  0.00000000000E+00  0.87138039022E+03  0.87138039022E+03  0.00000000000E+00 0. -1.
         -2   -1    0    0    0  501 -0.00000000000E+00 -0.00000000000E+00 -0.62842571691E+02  0.62842571691E+02  0.00000000000E+00 0.  1.
          6    1    1    2  502    0  0.31591744479E+02  0.16506443818E+02  0.71289783453E+03  0.73421919308E+03  0.17200000000E+03 0. -1.
         -6    1    1    2    0  501 -0.31591744479E+02 -0.16506443818E+02  0.95639983994E+02  0.20000376883E+03  0.17200000000E+03 0.  1.
</event>
<event>
 4    1  0.8483901E-001  0.1736145E+03  0.7818608E-02  0.1174130E+00
          2   -1    0    0  502    0  0.00000000000E+00  0.00000000000E+00  0.49055352381E+03  0.49055352381E+03  0.00000000000E+00 0.  1.
         -2   -1    0    0    0  501 -0.00000000000E+00 -0.00000000000E+00 -0.65564361260E+02  0.65564361260E+02  0.00000000000E+00 0. -1.
          6    1    1    2  502    0  0.23327138919E+02 -0.37212927879E+01  0.14279597321E+03  0.22479478062E+03  0.17200000000E+03 0. -1.
         -6    1    1    2    0  501 -0.23327138919E+02  0.37212927879E+01  0.28219318934E+03  0.33132310445E+03  0.17200000000E+03 0.  1.
</event>
<event>
 4    1  0.8483901E-001  0.2489105E+03  0.7818608E-02  0.1113995E+00
          3   -1    0    0  502    0  0.00000000000E+00  0.00000000000E+00  0.78800606643E+02  0.78800606643E+02  0.00000000000E+00 0. -1.
         -3   -1    0    0    0  501 -0.00000000000E+00 -0.00000000000E+00 -0.83107475021E+03  0.83107475021E+03  0.00000000000E+00 0.  1.
          6    1    1    2  502    0  0.13495121321E+03 -0.11899834696E+03 -0.48180033628E+03  0.54229881114E+03  0.17200000000E+03 0.  1.
         -6    1    1    2    0  501 -0.13495121321E+03  0.11899834696E+03 -0.27047380729E+03  0.36757654571E+03  0.17200000000E+03 0. -1.
</event>
<event>
 4    1  0.8483901E-001  0.1766232E+03  0.7818608E-02  0.1171112E+00
         -4   -1    0    0    0  501 -0.00000000000E+00  0.00000000000E+00  0.42722401046E+02  0.42722401046E+02  0.00000000000E+00 0. -1.
          4   -1    0    0  502    0  0.00000000000E+00 -0.00000000000E+00 -0.97103998460E+03  0.97103998460E+03  0.00000000000E+00 0.  1.
          6    1    1    2  502    0 -0.10806360525E+00 -0.40146466249E+02 -0.21172062670E+03  0.27571973850E+03  0.17200000000E+03 0. -1.
         -6    1    1    2    0  501  0.10806360525E+00  0.40146466249E+02 -0.71659695686E+03  0.73804264715E+03  0.17200000000E+03 0.  1.
</event>
<event>
 4    1  0.8483901E-001  0.1769870E+03  0.7818608E-02  0.1170751E+00
         -2   -1    0    0    0  501 -0.00000000000E+00  0.00000000000E+00  0.15929348759E+02  0.15929348759E+02  0.00000000000E+00 0. -1.
          2   -1    0    0  502    0  0.00000000000E+00 -0.00000000000E+00 -0.20113109421E+04  0.20113109421E+04  0.00000000000E+00 0.  1.
          6    1    1    2  502    0 -0.33323296061E+02 -0.25098941809E+02 -0.11490573726E+04  0.11626079496E+04  0.17200000000E+03 0.  1.
         -6    1    1    2    0  501  0.33323296061E+02  0.25098941809E+02 -0.84632422066E+03  0.86463234118E+03  0.17200000000E+03 0. -1.
</event>
<event>
 4    1  0.8483901E-001  0.1828646E+03  0.7818608E-02  0.1165059E+00
          3   -1    0    0  502    0  0.00000000000E+00  0.00000000000E+00  0.44767190949E+02  0.44767190949E+02  0.00000000000E+00 0.  1.
         -3   -1    0    0    0  501 -0.00000000000E+00 -0.00000000000E+00 -0.89614199252E+03  0.89614199252E+03  0.00000000000E+00 0. -1.
          6    1    1    2  502    0 -0.61802293216E+02  0.59941462407E+01 -0.23373986209E+03  0.29677226347E+03  0.17200000000E+03 0.  1.
         -6    1    1    2    0  501  0.61802293216E+02 -0.59941462407E+01 -0.61763493948E+03  0.64413692000E+03  0.17200000000E+03 0. -1.
</event>
<event>
 4    1  0.8483901E-001  0.2306396E+03  0.7818608E-02  0.1126190E+00
          2   -1    0    0  502    0  0.00000000000E+00  0.00000000000E+00  0.13028222775E+04  0.13028222775E+04  0.00000000000E+00 0. -1.
         -2   -1    0    0    0  501 -0.00000000000E+00 -0.00000000000E+00 -0.54614526751E+02  0.54614526751E+02  0.00000000000E+00 0.  1.
          6    1    1    2  502    0 -0.12690210878E+03  0.86640016075E+02  0.96508205051E+03  0.99225903968E+03  0.17200000000E+03 0. -1.
         -6    1    1    2    0  501  0.12690210878E+03 -0.86640016075E+02  0.28312570019E+03  0.36517776453E+03  0.17200000000E+03 0.  1.
</event>
<event>
 4    1  0.8483901E-001  0.2435219E+03  0.7818608E-02  0.1117469E+00
         -2   -1    0    0    0  501 -0.00000000000E+00  0.00000000000E+00  0.74266030329E+02  0.74266030329E+02  0.00000000000E+00 0. -1.
          2   -1    0    0  502    0  0.00000000000E+00 -0.00000000000E+00 -0.80338304626E+03  0.80338304626E+03  0.00000000000E+00 0.  1.
          6    1    1    2  502    0 -0.43681624760E+02  0.16676578310E+03 -0.33041692571E+03  0.41046102806E+03  0.17200000000E+03 0. -1.
         -6    1    1    2    0  501  0.43681624760E+02 -0.16676578310E+03 -0.39870009022E+03  0.46718804854E+03  0.17200000000E+03 0.  1.
</event>
<event>
 4    1  0.8483901E-001  0.1741393E+03  0.7818608E-02  0.1173599E+00
         -1   -1    0    0    0  501 -0.00000000000E+00  0.00000000000E+00  0.50228854934E+02  0.50228854934E+02  0.00000000000E+00 0. -1.
          1   -1    0    0  502    0  0.00000000000E+00 -0.00000000000E+00 -0.63645482309E+03  0.63645482309E+03  0.00000000000E+00 0.  1.
          6    1    1    2  502    0 -0.26984752388E+02 -0.35075652816E+01 -0.21525444394E+03  0.27687353703E+03  0.17200000000E+03 0. -1.
         -6    1    1    2    0  501  0.26984752388E+02  0.35075652816E+01 -0.37097152422E+03  0.40981014099E+03  0.17200000000E+03 0.  1.
</event>
<event>
 4    1  0.8483901E-001  0.2022585E+03  0.7818608E-02  0.1147847E+00
         -2   -1    0    0    0  501 -0.00000000000E+00  0.00000000000E+00  0.13459885784E+03  0.13459885784E+03  0.00000000000E+00 0. -1.
          2   -1    0    0  502    0  0.00000000000E+00 -0.00000000000E+00 -0.31206605236E+03  0.31206605236E+03  0.00000000000E+00 0.  1.
          6    1    1    2  502    0 -0.62866284140E+02 -0.85862234299E+02 -0.52670519623E+02  0.20900401096E+03  0.17200000000E+03 0. -1.
         -6    1    1    2    0  501  0.62866284140E+02  0.85862234299E+02 -0.12479667490E+03  0.23766089924E+03  0.17200000000E+03 0. -1.
</event>
<event>
 4    1  0.8483901E-001  0.2158687E+03  0.7818608E-02  0.1137001E+00
          1   -1    0    0  502    0  0.00000000000E+00  0.00000000000E+00  0.16291639561E+04  0.16291639561E+04  0.00000000000E+00 0.  1.
         -1   -1    0    0    0  501 -0.00000000000E+00 -0.00000000000E+00 -0.51888589845E+02  0.51888589845E+02  0.00000000000E+00 0. -1.
          6    1    1    2  502    0  0.79636775831E+02 -0.10331166768E+03  0.13517007402E+04  0.13688295028E+04  0.17200000000E+03 0. -1.
         -6    1    1    2    0  501 -0.79636775831E+02  0.10331166768E+03  0.22557462610E+03  0.31222304317E+03  0.17200000000E+03 0. -1.
</event>
<event>
 4    1  0.8483901E-001  0.1906739E+03  0.7818608E-02  0.1157855E+00
         -1   -1    0    0    0  501 -0.00000000000E+00  0.00000000000E+00  0.36561862801E+02  0.36561862801E+02  0.00000000000E+00 0.  1.
          1   -1    0    0  502    0  0.00000000000E+00 -0.00000000000E+00 -0.12880115752E+04  0.12880115752E+04  0.00000000000E+00 0. -1.
          6    1    1    2  502    0 -0.29907234213E+01 -0.82241163495E+02 -0.30950864042E+03  0.36352737434E+03  0.17200000000E+03 0.  1.
         -6    1    1    2    0  501  0.29907234213E+01  0.82241163495E+02 -0.94194107200E+03  0.96104606368E+03  0.17200000000E+03 0. -1.
</event>
<event>
 4    1  0.8483901E-001  0.3386183E+03  0.7818608E-02  0.1067386E+00
         -2   -1    0    0    0  501 -0.00000000000E+00  0.00000000000E+00  0.18093052442E+03  0.18093052442E+03  0.00000000000E+00 0.  1.
          2   -1    0    0  502    0  0.00000000000E+00 -0.00000000000E+00 -0.67257730737E+03  0.67257730737E+03  0.00000000000E+00 0. -1.
          6    1    1    2  502    0 -0.28987646674E+03 -0.32403383777E+02 -0.34837640677E+03  0.48582760939E+03  0.17200000000E+03 0. -1.
         -6    1    1    2    0  501  0.28987646674E+03  0.32403383777E+02 -0.14327037619E+03  0.36768022240E+03  0.17200000000E+03 0.  1.
</event>
<event>
 4    1  0.8483901E-001  0.2833800E+03  0.7818608E-02  0.1093857E+00
         -1   -1    0    0    0  501 -0.00000000000E+00  0.00000000000E+00  0.27131128734E+02  0.27131128734E+02  0.00000000000E+00 0. -1.
          1   -1    0    0  502    0  0.00000000000E+00 -0.00000000000E+00 -0.37512088213E+04  0.37512088213E+04  0.00000000000E+00 0.  1.
          6    1    1    2  502    0 -0.22494149146E+03 -0.11024148021E+02 -0.99433649900E+03  0.10339290496E+04  0.17200000000E+03 0. -1.
         -6    1    1    2    0  501  0.22494149146E+03  0.11024148021E+02 -0.27297411936E+04  0.27444109004E+04  0.17200000000E+03 0.  1.
</event>
<event>
 4    1  0.8483901E-001  0.1759401E+03  0.7818608E-02  0.1171791E+00
         -2   -1    0    0    0  501 -0.00000000000E+00  0.00000000000E+00  0.37987978288E+02  0.37987978288E+02  0.00000000000E+00 0. -1.
          2   -1    0    0  502    0  0.00000000000E+00 -0.00000000000E+00 -0.81526280624E+03  0.81526280624E+03  0.00000000000E+00 0.  1.
          6    1    1    2  502    0 -0.33591852056E+02 -0.15572533491E+02 -0.37916443400E+03  0.41799591425E+03  0.17200000000E+03 0. -1.
         -6    1    1    2    0  501  0.33591852056E+02  0.15572533491E+02 -0.39811039396E+03  0.43525487028E+03  0.17200000000E+03 0.  1.
</event>
<event>
 4    1  0.8483901E-001  0.1726129E+03  0.7818608E-02  0.1175150E+00
         -2   -1    0    0    0  501 -0.00000000000E+00  0.00000000000E+00  0.79421064571E+02  0.79421064571E+02  0.00000000000E+00 0.  1.
          2   -1    0    0  502    0  0.00000000000E+00 -0.00000000000E+00 -0.39037340800E+03  0.39037340800E+03  0.00000000000E+00 0. -1.
          6    1    1    2  502    0 -0.98134065900E+00  0.14500234129E+02 -0.20185508281E+03  0.26559498164E+03  0.17200000000E+03 0. -1.
         -6    1    1    2    0  501  0.98134065900E+00 -0.14500234129E+02 -0.10909726062E+03  0.20419949092E+03  0.17200000000E+03 0.  1.
</event>
<event>
 4    1  0.8483901E-001  0.2536230E+03  0.7818608E-02  0.1111036E+00
         -2   -1    0    0    0  501 -0.00000000000E+00  0.00000000000E+00  0.18730308703E+03  0.18730308703E+03  0.00000000000E+00 0.  1.
          2   -1    0    0  502    0  0.00000000000E+00 -0.00000000000E+00 -0.36744553862E+03  0.36744553862E+03  0.00000000000E+00 0. -1.
          6    1    1    2  502    0 -0.83301369528E+02  0.16673788512E+03 -0.16098937026E+03  0.30040342514E+03  0.17200000000E+03 0. -1.
         -6    1    1    2    0  501  0.83301369528E+02 -0.16673788512E+03 -0.19153081322E+02  0.25434520051E+03  0.17200000000E+03 0.  1.
</event>
<event>
 4    1  0.8483901E-001  0.2193746E+03  0.7818608E-02  0.1134350E+00
          2   -1    0    0  502    0  0.00000000000E+00  0.00000000000E+00  0.24834375955E+04  0.24834375955E+04  0.00000000000E+00 0.  1.
         -2   -1    0    0    0  501 -0.00000000000E+00 -0.00000000000E+00 -0.37551337520E+02  0.37551337520E+02  0.00000000000E+00 0. -1.
          6    1    1    2  502    0 -0.11563325947E+03 -0.71903971432E+02  0.20998226273E+04  0.21112508847E+04  0.17200000000E+03 0.  1.
         -6    1    1    2    0  501  0.11563325947E+03  0.71903971432E+02  0.34606363068E+03  0.40973804837E+03  0.17200000000E+03 0. -1.
</event>
<event>
 4    1  0.8483901E-001  0.2640117E+03  0.7818608E-02  0.1104757E+00
          1   -1    0    0  502    0  0.00000000000E+00  0.00000000000E+00  0.24709715222E+04  0.24709715222E+04  0.00000000000E+00 0.  1.
         -1   -1    0    0    0  501 -0.00000000000E+00 -0.00000000000E+00 -0.29552607395E+02  0.29552607395E+02  0.00000000000E+00 0. -1.
          6    1    1    2  502    0 -0.10369100514E+03 -0.17136610599E+03  0.14873556543E+04  0.15106055107E+04  0.17200000000E+03 0. -1.
         -6    1    1    2    0  501  0.10369100514E+03  0.17136610599E+03  0.95406326058E+03  0.98991861889E+03  0.17200000000E+03 0. -1.
</event>
<event>
 4    1  0.8483901E-001  0.1778862E+03  0.7818608E-02  0.1169865E+00
         -2   -1    0    0    0  501 -0.00000000000E+00  0.00000000000E+00  0.72203914455E+02  0.72203914455E+02  0.00000000000E+00 0.  1.
          2   -1    0    0  502    0  0.00000000000E+00 -0.00000000000E+00 -0.12921128079E+04  0.12921128079E+04  0.00000000000E+00 0. -1.
          6    1    1    2  502    0  0.25541018117E+02  0.37512091663E+02 -0.11644889377E+04  0.11779974476E+04  0.17200000000E+03 0. -1.
         -6    1    1    2    0  501 -0.25541018117E+02 -0.37512091663E+02 -0.55419955719E+02  0.18631927469E+03  0.17200000000E+03 0.  1.
</event>
<event>
 4    1  0.8483901E-001  0.1821419E+03  0.7818608E-02  0.1165746E+00
         -1   -1    0    0    0  501 -0.00000000000E+00  0.00000000000E+00  0.19946849683E+02  0.19946849683E+02  0.00000000000E+00 0.  1.
          1   -1    0    0  502    0  0.00000000000E+00 -0.00000000000E+00 -0.17963226450E+04  0.17963226450E+04  0.00000000000E+00 0. -1.
          6    1    1    2  502    0 -0.26587792220E+02 -0.53710049139E+02 -0.11354044661E+04  0.11499212937E+04  0.17200000000E+03 0. -1.
         -6    1    1    2    0  501  0.26587792220E+02  0.53710049139E+02 -0.64097132929E+03  0.66634820105E+03  0.17200000000E+03 0.  1.
</event>
<event>
 4    1  0.8483901E-001  0.2105798E+03  0.7818608E-02  0.1141108E+00
          2   -1    0    0  502    0  0.00000000000E+00  0.00000000000E+00  0.19696564521E+04  0.19696564521E+04  0.00000000000E+00 0. -1.
         -2   -1    0    0    0  501 -0.00000000000E+00 -0.00000000000E+00 -0.98995838226E+02  0.98995838226E+02  0.00000000000E+00 0.  1.
          6    1    1    2  502    0 -0.10339650977E+03 -0.63788677650E+02  0.26192640822E+02  0.21220246950E+03  0.17200000000E+03 0.  1.
         -6    1    1    2    0  501  0.10339650977E+03  0.63788677650E+02  0.18444679731E+04  0.18564498209E+04  0.17200000000E+03 0. -1.
</event>
<event>
 4    1  0.8483901E-001  0.3377807E+03  0.7818608E-02  0.1067745E+00
          2   -1    0    0  502    0  0.00000000000E+00  0.00000000000E+00  0.78024847638E+03  0.78024847638E+03  0.00000000000E+00 0. -1.
         -2   -1    0    0    0  501 -0.00000000000E+00 -0.00000000000E+00 -0.14645439258E+03  0.14645439258E+03  0.00000000000E+00 0.  1.
          6    1    1    2  502    0  0.13647377563E+03  0.25668404864E+03  0.29876310273E+03  0.45094920314E+03  0.17200000000E+03 0.  1.
         -6    1    1    2    0  501 -0.13647377563E+03 -0.25668404864E+03  0.33503098107E+03  0.47575366582E+03  0.17200000000E+03 0. -1.
</event>
<event>
 4    1  0.8483901E-001  0.1819689E+03  0.7818608E-02  0.1165911E+00
         -1   -1    0    0    0  501 -0.00000000000E+00  0.00000000000E+00  0.23375016428E+02  0.23375016428E+02  0.00000000000E+00 0.  1.
          1   -1    0    0  502    0  0.00000000000E+00 -0.00000000000E+00 -0.21191351111E+04  0.21191351111E+04  0.00000000000E+00 0. -1.
          6    1    1    2  502    0 -0.58609495710E+02 -0.96752528775E+01 -0.43106862916E+03  0.46790260370E+03  0.17200000000E+03 0.  1.
         -6    1    1    2    0  501  0.58609495710E+02  0.96752528775E+01 -0.16646914655E+04  0.16746075238E+04  0.17200000000E+03 0. -1.
</event>
<event>
 4    1  0.8483901E-001  0.2396607E+03  0.7818608E-02  0.1120019E+00
          1   -1    0    0  502    0  0.00000000000E+00  0.00000000000E+00  0.10963747289E+04  0.10963747289E+04  0.00000000000E+00 0.  1.
         -1   -1    0    0    0  501 -0.00000000000E+00 -0.00000000000E+00 -0.59425086956E+02  0.59425086956E+02  0.00000000000E+00 0. -1.
          6    1    1    2  502    0 -0.16327032604E+03  0.34583674274E+02  0.71733796597E+03  0.75631407980E+03  0.17200000000E+03 0. -1.
         -6    1    1    2    0  501  0.16327032604E+03 -0.34583674274E+02  0.31961167600E+03  0.39948573607E+03  0.17200000000E+03 0.  1.
</event>
<event>
 4    1  0.8483901E-001  0.2184594E+03  0.7818608E-02  0.1135037E+00
         -2   -1    0    0    0  501 -0.00000000000E+00  0.00000000000E+00  0.65788492309E+02  0.65788492309E+02  0.00000000000E+00 0. -1.
          2   -1    0    0  502    0  0.00000000000E+00 -0.00000000000E+00 -0.81858973932E+03  0.81858973932E+03  0.00000000000E+00 0.  1.
          6    1    1    2  502    0 -0.39708244464E+02  0.12870020657E+03 -0.22722245755E+03  0.31520554098E+03  0.17200000000E+03 0. -1.
         -6    1    1    2    0  501  0.39708244464E+02 -0.12870020657E+03 -0.52557878946E+03  0.56917269065E+03  0.17200000000E+03 0.  1.
</event>
<event>
 4    1  0.8483901E-001  0.2049460E+03  0.7818608E-02  0.1145632E+00
         -2   -1    0    0    0  501 -0.00000000000E+00  0.00000000000E+00  0.27496894424E+02  0.27496894424E+02  0.00000000000E+00 0.  1.
          2   -1    0    0  502    0  0.00000000000E+00 -0.00000000000E+00 -0.15284292424E+04  0.15284292424E+04  0.00000000000E+00 0. -1.
          6    1    1    2  502    0 -0.42583134632E+02  0.10298324037E+03 -0.73180324740E+03  0.75995977792E+03  0.17200000000E+03 0.  1.
         -6    1    1    2    0  501  0.42583134632E+02 -0.10298324037E+03 -0.76912910055E+03  0.79596635887E+03  0.17200000000E+03 0. -1.
</event>
<event>
 4    1  0.8483901E-001  0.2241340E+03  0.7818608E-02  0.1130838E+00
          2   -1    0    0  502    0  0.00000000000E+00  0.00000000000E+00  0.11501417219E+04  0.11501417219E+04  0.00000000000E+00 0. -1.
         -2   -1    0    0    0  501 -0.00000000000E+00 -0.00000000000E+00 -0.58025824907E+02  0.58025824907E+02  0.00000000000E+00 0.  1.
          6    1    1    2  502    0  0.14362633270E+03 -0.48511099350E+01  0.84644233189E+03  0.87561445736E+03  0.17200000000E+03 0. -1.
         -6    1    1    2    0  501 -0.14362633270E+03  0.48511099350E+01  0.24567356510E+03  0.33255308945E+03  0.17200000000E+03 0.  1.
</event>
<event>
 4    1  0.8483901E-001  0.6595268E+03  0.7818608E-02  0.9789065E-01
         -2   -1    0    0    0  501 -0.00000000000E+00  0.00000000000E+00  0.96812922821E+03  0.96812922821E+03  0.00000000000E+00 0. -1.
          2   -1    0    0  502    0  0.00000000000E+00 -0.00000000000E+00 -0.14591388905E+04  0.14591388905E+04  0.00000000000E+00 0.  1.
          6    1    1    2  502    0  0.55428059365E+03 -0.31331237644E+03  0.76413519796E+03  0.10093949784E+04  0.17200000000E+03 0. -1.
         -6    1    1    2    0  501 -0.55428059365E+03  0.31331237644E+03 -0.12551448602E+04  0.14178731402E+04  0.17200000000E+03 0.  1.
</event>
<event>
 4    1  0.8483901E-001  0.1821339E+03  0.7818608E-02  0.1165754E+00
          2   -1    0    0  502    0  0.00000000000E+00  0.00000000000E+00  0.32463522543E+03  0.32463522543E+03  0.00000000000E+00 0. -1.
         -2   -1    0    0    0  501 -0.00000000000E+00 -0.00000000000E+00 -0.10231735692E+03  0.10231735692E+03  0.00000000000E+00 0.  1.
          6    1    1    2  502    0 -0.46866965173E+02  0.37312738731E+02  0.11884565436E+03  0.21747883220E+03  0.17200000000E+03 0. -1.
         -6    1    1    2    0  501  0.46866965173E+02 -0.37312738731E+02  0.10347221415E+03  0.20947375014E+03  0.17200000000E+03 0.  1.
</event>
<event>
 4    1  0.8483901E-001  0.1863908E+03  0.7818608E-02  0.1161757E+00
         -2   -1    0    0    0  501 -0.00000000000E+00  0.00000000000E+00  0.31532450850E+02  0.31532450850E+02  0.00000000000E+00 0. -1.
          2   -1    0    0  502    0  0.00000000000E+00 -0.00000000000E+00 -0.12664681336E+04  0.12664681336E+04  0.00000000000E+00 0.  1.
          6    1    1    2  502    0  0.58468713747E+02  0.41700782192E+02 -0.85150808208E+03  0.87166940956E+03  0.17200000000E+03 0.  1.
         -6    1    1    2    0  501 -0.58468713747E+02 -0.41700782192E+02 -0.38342760065E+03  0.42633117487E+03  0.17200000000E+03 0. -1.
</event>
<event>
 4    1  0.8483901E-001  0.1977562E+03  0.7818608E-02  0.1151646E+00
         -1   -1    0    0    0  501 -0.00000000000E+00  0.00000000000E+00  0.34088860939E+03  0.34088860939E+03  0.00000000000E+00 0. -1.
          1   -1    0    0  502    0  0.00000000000E+00 -0.00000000000E+00 -0.11524605546E+03  0.11524605546E+03  0.00000000000E+00 0.  1.
          6    1    1    2  502    0  0.97176761763E+02  0.89548786384E+01  0.97445769656E+02  0.22046131384E+03  0.17200000000E+03 0. -1.
         -6    1    1    2    0  501 -0.97176761763E+02 -0.89548786384E+01  0.12819678427E+03  0.23567335101E+03  0.17200000000E+03 0. -1.
</event>
<event>
 4    1  0.8483901E-001  0.1816066E+03  0.7818608E-02  0.1166257E+00
          2   -1    0    0  502    0  0.00000000000E+00  0.00000000000E+00  0.13454341336E+04  0.13454341336E+04  0.00000000000E+00 0. -1.
         -2   -1    0    0    0  501 -0.00000000000E+00 -0.00000000000E+00 -0.44675970580E+02  0.44675970580E+02  0.00000000000E+00 0.  1.
          6    1    1    2  502    0 -0.55756134779E+02 -0.16977297276E+02  0.18344381466E+03  0.25813292763E+03  0.17200000000E+03 0.  1.
         -6    1    1    2    0  501  0.55756134779E+02  0.16977297276E+02  0.11173143483E+04  0.11319771765E+04  0.17200000000E+03 0. -1.
</event>
<event>
 4    1  0.8483901E-001  0.1930409E+03  0.7818608E-02  0.1155747E+00
          2   -1    0    0  502    0  0.00000000000E+00  0.00000000000E+00  0.80452295391E+03  0.80452295391E+03  0.00000000000E+00 0.  1.
         -2   -1    0    0    0  501 -0.00000000000E+00 -0.00000000000E+00 -0.46606843409E+02  0.46606843409E+02  0.00000000000E+00 0. -1.
          6    1    1    2  502    0 -0.49631364846E+02 -0.72232478895E+02  0.41239456345E+03  0.45533952096E+03  0.17200000000E+03 0.  1.
         -6    1    1    2    0  501  0.49631364846E+02  0.72232478895E+02  0.34552154705E+03  0.39579027636E+03  0.17200000000E+03 0.  1.
</event>
<event>
 4    1  0.8483901E-001  0.1956912E+03  0.7818608E-02  0.1153426E+00
          1   -1    0    0  502    0  0.00000000000E+00  0.00000000000E+00  0.28463856466E+03  0.28463856466E+03  0.00000000000E+00 0.  1.
         -1   -1    0    0    0  501 -0.00000000000E+00 -0.00000000000E+00 -0.20450798129E+03  0.20450798129E+03  0.00000000000E+00 0. -1.
          6    1    1    2  502    0 -0.27994487205E+02  0.89035640665E+02  0.18312130181E+03  0.26800829800E+03  0.17200000000E+03 0.  1.
         -6    1    1    2    0  501  0.27994487205E+02 -0.89035640665E+02 -0.10299071844E+03  0.22113824795E+03  0.17200000000E+03 0. -1.
</event>
<event>
 4    1  0.8483901E-001  0.2325914E+03  0.7818608E-02  0.1124829E+00
          1   -1    0    0  502    0  0.00000000000E+00  0.00000000000E+00  0.40592509498E+03  0.40592509498E+03  0.00000000000E+00 0. -1.
         -1   -1    0    0    0  501 -0.00000000000E+00 -0.00000000000E+00 -0.13336083955E+03  0.13336083955E+03  0.00000000000E+00 0.  1.
          6    1    1    2  502    0 -0.12581309469E+03  0.93197792414E+02  0.14321125918E+03  0.27314506780E+03  0.17200000000E+03 0. -1.
         -6    1    1    2    0  501  0.12581309469E+03 -0.93197792414E+02  0.12935299624E+03  0.26614086673E+03  0.17200000000E+03 0.  1.
</event>
<event>
 4    1  0.8483901E-001  0.5149864E+03  0.7818608E-02  0.1009940E+00
          3   -1    0    0  502    0  0.00000000000E+00  0.00000000000E+00  0.71426867462E+03  0.71426867462E+03  0.00000000000E+00 0.  1.
         -3   -1    0    0    0  501 -0.00000000000E+00 -0.00000000000E+00 -0.50455702297E+03  0.50455702297E+03  0.00000000000E+00 0. -1.
          6    1    1    2  502    0 -0.42471728726E+03  0.23503656765E+03  0.41803630209E+03  0.66329881056E+03  0.17200000000E+03 0.  1.
         -6    1    1    2    0  501  0.42471728726E+03 -0.23503656765E+03 -0.20832465043E+03  0.55552688702E+03  0.17200000000E+03 0. -1.
</event>
<event>
 4    1  0.8483901E-001  0.1753544E+03  0.7818608E-02  0.1172376E+00
         -2   -1    0    0    0  501 -0.00000000000E+00  0.00000000000E+00  0.14137776135E+03  0.14137776135E+03  0.00000000000E+00 0.  1.
          2   -1    0    0  502    0  0.00000000000E+00 -0.00000000000E+00 -0.26437719192E+03  0.26437719192E+03  0.00000000000E+00 0. -1.
          6    1    1    2  502    0 -0.28180492347E+02  0.19261856042E+02 -0.14693143406E+03  0.22877501079E+03  0.17200000000E+03 0. -1.
         -6    1    1    2    0  501  0.28180492347E+02 -0.19261856042E+02  0.23932003488E+02  0.17697994247E+03  0.17200000000E+03 0.  1.
</event>
<event>
 4    1  0.8483901E-001  0.1916918E+03  0.7818608E-02  0.1156944E+00
         -2   -1    0    0    0  501 -0.00000000000E+00  0.00000000000E+00  0.16045298187E+03  0.16045298187E+03  0.00000000000E+00 0.  1.
          2   -1    0    0  502    0  0.00000000000E+00 -0.00000000000E+00 -0.46956289934E+03  0.46956289934E+03  0.00000000000E+00 0. -1.
          6    1    1    2  502    0 -0.60021613065E+02  0.59658756031E+02  0.70909207125E+02  0.20438658679E+03  0.17200000000E+03 0. -1.
         -6    1    1    2    0  501  0.60021613065E+02 -0.59658756031E+02 -0.38001912459E+03  0.42562929441E+03  0.17200000000E+03 0. -1.
</event>
<event>
 4    1  0.8483901E-001  0.4201708E+03  0.7818608E-02  0.1037011E+00
         -2   -1    0    0    0  501 -0.00000000000E+00  0.00000000000E+00  0.20991844489E+03  0.20991844489E+03  0.00000000000E+00 0. -1.
          2   -1    0    0  502    0  0.00000000000E+00 -0.00000000000E+00 -0.96633720851E+03  0.96633720851E+03  0.00000000000E+00 0.  1.
          6    1    1    2  502    0  0.11371311597E+03  0.36609948727E+03 -0.16640736394E+03  0.45192357550E+03  0.17200000000E+03 0. -1.
         -6    1    1    2    0  501 -0.11371311597E+03 -0.36609948727E+03 -0.59001139968E+03  0.72433207790E+03  0.17200000000E+03 0.  1.
</event>
<event>
 4    1  0.8483901E-001  0.1739346E+03  0.7818608E-02  0.1173806E+00
         -1   -1    0    0    0  501 -0.00000000000E+00  0.00000000000E+00  0.12424724507E+04  0.12424724507E+04  0.00000000000E+00 0.  1.
          1   -1    0    0  502    0  0.00000000000E+00 -0.00000000000E+00 -0.26624836923E+02  0.26624836923E+02  0.00000000000E+00 0. -1.
          6    1    1    2  502    0 -0.24645893439E+02 -0.78637724984E+01  0.79343459962E+03  0.81227564463E+03  0.17200000000E+03 0.  1.
         -6    1    1    2    0  501  0.24645893439E+02  0.78637724984E+01  0.42241301418E+03  0.45682164301E+03  0.17200000000E+03 0. -1.
</event>
<event>
 4    1  0.8483901E-001  0.2129658E+03  0.7818608E-02  0.1139239E+00
          2   -1    0    0  502    0  0.00000000000E+00  0.00000000000E+00  0.95689229723E+03  0.95689229723E+03  0.00000000000E+00 0. -1.
         -2   -1    0    0    0  501 -0.00000000000E+00 -0.00000000000E+00 -0.12929849089E+03  0.12929849089E+03  0.00000000000E+00 0.  1.
          6    1    1    2  502    0  0.79400176763E+02  0.97293589184E+02 -0.18441763894E+02  0.21376278727E+03  0.17200000000E+03 0.  1.
         -6    1    1    2    0  501 -0.79400176763E+02 -0.97293589184E+02  0.84603557023E+03  0.87242800085E+03  0.17200000000E+03 0. -1.
</event>
<event>
 4    1  0.8483901E-001  0.3194788E+03  0.7818608E-02  0.1075889E+00
         -2   -1    0    0    0  501 -0.00000000000E+00  0.00000000000E+00  0.13833111543E+03  0.13833111543E+03  0.00000000000E+00 0. -1.
          2   -1    0    0  502    0  0.00000000000E+00 -0.00000000000E+00 -0.74125081757E+03  0.74125081757E+03  0.00000000000E+00 0.  1.
          6    1    1    2  502    0 -0.18086553627E+03 -0.19942501079E+03 -0.27164125669E+03  0.41935146294E+03  0.17200000000E+03 0. -1.
         -6    1    1    2    0  501  0.18086553627E+03  0.19942501079E+03 -0.33127844546E+03  0.46023047005E+03  0.17200000000E+03 0. -1.
</event>
<event>
 4    1  0.8483901E-001  0.2110335E+03  0.7818608E-02  0.1140750E+00
          1   -1    0    0  502    0  0.00000000000E+00  0.00000000000E+00  0.38734662356E+02  0.38734662356E+02  0.00000000000E+00 0.  1.
         -1   -1    0    0    0  501 -0.00000000000E+00 -0.00000000000E+00 -0.13252424526E+04  0.13252424526E+04  0.00000000000E+00 0. -1.
          6    1    1    2  502    0 -0.83998136736E+02  0.88856271558E+02 -0.39507755978E+03  0.44790780548E+03  0.17200000000E+03 0.  1.
         -6    1    1    2    0  501  0.83998136736E+02 -0.88856271558E+02 -0.89143023042E+03  0.91606930943E+03  0.17200000000E+03 0.  1.
</event>
<event>
 4    1  0.8483901E-001  0.2326169E+03  0.7818608E-02  0.1124811E+00
          1   -1    0    0  502    0  0.00000000000E+00  0.00000000000E+00  0.24994199264E+04  0.24994199264E+04  0.00000000000E+00 0. -1.
         -1   -1    0    0    0  501 -0.00000000000E+00 -0.00000000000E+00 -0.28380648769E+02  0.28380648769E+02  0.00000000000E+00 0.  1.
          6    1    1    2  502    0 -0.14727604447E+03  0.53257753596E+02  0.18510558486E+04  0.18656147448E+04  0.17200000000E+03 0. -1.
         -6    1    1    2    0  501  0.14727604447E+03 -0.53257753596E+02  0.61998342903E+03  0.66218583031E+03  0.17200000000E+03 0.  1.
</event>
<event>
 4    1  0.8483901E-001  0.1804998E+03  0.7818608E-02  0.1167320E+00
          2   -1    0    0  502    0  0.00000000000E+00  0.00000000000E+00  0.70930965400E+03  0.70930965400E+03  0.00000000000E+00 0. -1.
         -2   -1    0    0    0  501 -0.00000000000E+00 -0.00000000000E+00 -0.60432918280E+02  0.60432918280E+02  0.00000000000E+00 0.  1.
          6    1    1    2  502    0  0.23429583556E+02  0.49469531653E+02  0.13591164680E+03  0.22594724093E+03  0.17200000000E+03 0.  1.
         -6    1    1    2    0  501 -0.23429583556E+02 -0.49469531653E+02  0.51296508893E+03  0.54379533136E+03  0.17200000000E+03 0. -1.
</event>
<event>
 4    1  0.8483901E-001  0.1754222E+03  0.7818608E-02  0.1172308E+00
         -1   -1    0    0    0  501 -0.00000000000E+00  0.00000000000E+00  0.17835895033E+02  0.17835895033E+02  0.00000000000E+00 0. -1.
          1   -1    0    0  502    0  0.00000000000E+00 -0.00000000000E+00 -0.22078227911E+04  0.22078227911E+04  0.00000000000E+00 0.  1.
          6    1    1    2  502    0  0.33127634255E+02  0.95660721246E+01 -0.16152148503E+04  0.16247128862E+04  0.17200000000E+03 0.  1.
         -6    1    1    2    0  501 -0.33127634255E+02 -0.95660721246E+01 -0.57477204576E+03  0.60094579994E+03  0.17200000000E+03 0. -1.
</event>
<event>
 4    1  0.8483901E-001  0.2566960E+03  0.7818608E-02  0.1109145E+00
          2   -1    0    0  502    0  0.00000000000E+00  0.00000000000E+00  0.14297286113E+04  0.14297286113E+04  0.00000000000E+00 0.  1.
         -2   -1    0    0    0  501 -0.00000000000E+00 -0.00000000000E+00 -0.52196088064E+02  0.52196088064E+02  0.00000000000E+00 0. -1.
          6    1    1    2  502    0  0.18960368424E+03 -0.18954738939E+02  0.43528721363E+03  0.50533928955E+03  0.17200000000E+03 0. -1.
         -6    1    1    2    0  501 -0.18960368424E+03  0.18954738939E+02  0.94224530959E+03  0.97658540980E+03  0.17200000000E+03 0. -1.
</event>
<event>
 4    1  0.8483901E-001  0.1960331E+03  0.7818608E-02  0.1153130E+00
          2   -1    0    0  502    0  0.00000000000E+00  0.00000000000E+00  0.23627749911E+04  0.23627749911E+04  0.00000000000E+00 0.  1.
         -2   -1    0    0    0  501 -0.00000000000E+00 -0.00000000000E+00 -0.22803856483E+02  0.22803856483E+02  0.00000000000E+00 0. -1.
          6    1    1    2  502    0  0.67195022560E+02 -0.65801303112E+02  0.53123344717E+03  0.56624902467E+03  0.17200000000E+03 0. -1.
         -6    1    1    2    0  501 -0.67195022560E+02  0.65801303112E+02  0.18087376874E+04  0.18193298229E+04  0.17200000000E+03 0.  1.
</event>
<event>
 4    1  0.8483901E-001  0.1749016E+03  0.7818608E-02  0.1172831E+00
          4   -1    0    0  502    0  0.00000000000E+00  0.00000000000E+00  0.54248149195E+03  0.54248149195E+03  0.00000000000E+00 0. -1.
         -4   -1    0    0    0  501 -0.00000000000E+00 -0.00000000000E+00 -0.57141448848E+02  0.57141448848E+02  0.00000000000E+00 0.  1.
          6    1    1    2  502    0  0.23740349756E+02  0.21046550496E+02  0.20828999055E+03  0.27198397317E+03  0.17200000000E+03 0.  1.
         -6    1    1    2    0  501 -0.23740349756E+02 -0.21046550496E+02  0.27705005255E+03  0.32763896763E+03  0.17200000000E+03 0. -1.
</event>
<event>
 4    1  0.8483901E-001  0.2467610E+03  0.7818608E-02  0.1115369E+00
          2   -1    0    0  502    0  0.00000000000E+00  0.00000000000E+00  0.37476264852E+03  0.37476264852E+03  0.00000000000E+00 0.  1.
         -2   -1    0    0    0  501 -0.00000000000E+00 -0.00000000000E+00 -0.16887220691E+03  0.16887220691E+03  0.00000000000E+00 0. -1.
          6    1    1    2  502    0 -0.16266829750E+03 -0.69613356082E+02  0.15583400355E+03  0.29184795874E+03  0.17200000000E+03 0.  1.
         -6    1    1    2    0  501  0.16266829750E+03  0.69613356082E+02  0.50056438055E+02  0.25178689669E+03  0.17200000000E+03 0. -1.
</event>
<event>
 4    1  0.8483901E-001  0.2014399E+03  0.7818608E-02  0.1148530E+00
          2   -1    0    0  502    0  0.00000000000E+00  0.00000000000E+00  0.11572320587E+04  0.11572320587E+04  0.00000000000E+00 0. -1.
         -2   -1    0    0    0  501 -0.00000000000E+00 -0.00000000000E+00 -0.36948316818E+02  0.36948316818E+02  0.00000000000E+00 0.  1.
          6    1    1    2  502    0 -0.48272347624E+02 -0.93079508098E+02  0.42532726348E+03  0.47061799310E+03  0.17200000000E+03 0.  1.
         -6    1    1    2    0  501  0.48272347624E+02  0.93079508098E+02  0.69495647840E+03  0.72356238241E+03  0.17200000000E+03 0. -1.
</event>
<event>
 4    1  0.8483901E-001  0.4556869E+03  0.7818608E-02  0.1026040E+00
         -2   -1    0    0    0  501 -0.00000000000E+00  0.00000000000E+00  0.31099862310E+03  0.31099862310E+03  0.00000000000E+00 0.  1.
          2   -1    0    0  502    0  0.00000000000E+00 -0.00000000000E+00 -0.78050937179E+03  0.78050937179E+03  0.00000000000E+00 0. -1.
          6    1    1    2  502    0  0.34175910160E+02 -0.42059308619E+03 -0.27263769271E+02  0.45650175257E+03  0.17200000000E+03 0. -1.
         -6    1    1    2    0  501 -0.34175910160E+02  0.42059308619E+03 -0.44224697942E+03  0.63500624232E+03  0.17200000000E+03 0.  1.
</event>
<event>
 4    1  0.8483901E-001  0.1846336E+03  0.7818608E-02  0.1163392E+00
         -1   -1    0    0    0  501 -0.00000000000E+00  0.00000000000E+00  0.19126973291E+03  0.19126973291E+03  0.00000000000E+00 0.  1.
          1   -1    0    0  502    0  0.00000000000E+00 -0.00000000000E+00 -0.25230681634E+03  0.25230681634E+03  0.00000000000E+00 0. -1.
          6    1    1    2  502    0  0.59944401808E+02  0.30203289568E+02  0.89658609233E+02  0.20525164121E+03  0.17200000000E+03 0.  1.
         -6    1    1    2    0  501 -0.59944401808E+02 -0.30203289568E+02 -0.15069569266E+03  0.23832490805E+03  0.17200000000E+03 0. -1.
</event>
<event>
 4    1  0.8483901E-001  0.1745728E+03  0.7818608E-02  0.1173161E+00
         -1   -1    0    0    0  501 -0.00000000000E+00  0.00000000000E+00  0.38192331636E+03  0.38192331636E+03  0.00000000000E+00 0. -1.
          1   -1    0    0  502    0  0.00000000000E+00 -0.00000000000E+00 -0.91282286781E+02  0.91282286781E+02  0.00000000000E+00 0.  1.
          6    1    1    2  502    0 -0.34084239564E+01  0.29665553475E+02  0.22925314550E+03  0.28815389488E+03  0.17200000000E+03 0. -1.
         -6    1    1    2    0  501  0.34084239564E+01 -0.29665553475E+02  0.61387884084E+02  0.18505170826E+03  0.17200000000E+03 0.  1.
</event>
<event>
 4    1  0.8483901E-001  0.1732928E+03  0.7818608E-02  0.1174457E+00
         -1   -1    0    0    0  501 -0.00000000000E+00  0.00000000000E+00  0.11818451417E+03  0.11818451417E+03  0.00000000000E+00 0.  1.
          1   -1    0    0  502    0  0.00000000000E+00 -0.00000000000E+00 -0.25473319216E+03  0.25473319216E+03  0.00000000000E+00 0. -1.
          6    1    1    2  502    0  0.20917187900E+02 -0.29747428548E+01 -0.58959022593E+02  0.18304792867E+03  0.17200000000E+03 0.  1.
         -6    1    1    2    0  501 -0.20917187900E+02  0.29747428548E+01 -0.77589655395E+02  0.18986977766E+03  0.17200000000E+03 0. -1.
</event>
<event>
 4    1  0.8483901E-001  0.2352994E+03  0.7818608E-02  0.1122964E+00
         -2   -1    0    0    0  501 -0.00000000000E+00  0.00000000000E+00  0.31115960212E+02  0.31115960212E+02  0.00000000000E+00 0. -1.
          2   -1    0    0  502    0  0.00000000000E+00 -0.00000000000E+00 -0.19200174016E+04  0.19200174016E+04  0.00000000000E+00 0.  1.
          6    1    1    2  502    0 -0.16015097904E+03  0.11553627331E+02 -0.68038073701E+03  0.71991927998E+03  0.17200000000E+03 0.  1.
         -6    1    1    2    0  501  0.16015097904E+03 -0.11553627331E+02 -0.12085207044E+04  0.12312140819E+04  0.17200000000E+03 0.  1.
</event>
<event>
 4    1  0.8483901E-001  0.2582517E+03  0.7818608E-02  0.1108198E+00
         -2   -1    0    0    0  501 -0.00000000000E+00  0.00000000000E+00  0.68695255041E+02  0.68695255041E+02  0.00000000000E+00 0. -1.
          2   -1    0    0  502    0  0.00000000000E+00 -0.00000000000E+00 -0.10962450593E+04  0.10962450593E+04  0.00000000000E+00 0.  1.
          6    1    1    2  502    0  0.72076223266E+02 -0.17864754039E+03 -0.71075910343E+03  0.75622247306E+03  0.17200000000E+03 0. -1.
         -6    1    1    2    0  501 -0.72076223266E+02  0.17864754039E+03 -0.31679070082E+03  0.40871784127E+03  0.17200000000E+03 0. -1.
</event>
<event>
 4    1  0.8483901E-001  0.1905216E+03  0.7818608E-02  0.1157992E+00
          2   -1    0    0  502    0  0.00000000000E+00  0.00000000000E+00  0.11887909011E+04  0.11887909011E+04  0.00000000000E+00 0. -1.
         -2   -1    0    0    0  501 -0.00000000000E+00 -0.00000000000E+00 -0.32744506407E+02  0.32744506407E+02  0.00000000000E+00 0.  1.
          6    1    1    2  502    0 -0.67716230806E+02  0.46141063860E+02  0.73671603675E+03  0.76095269530E+03  0.17200000000E+03 0. -1.
         -6    1    1    2    0  501  0.67716230806E+02 -0.46141063860E+02  0.41933035798E+03  0.46058271223E+03  0.17200000000E+03 0.  1.
</event>
<event>
 4    1  0.8483901E-001  0.1795922E+03  0.7818608E-02  0.1168198E+00
         -1   -1    0    0    0  501 -0.00000000000E+00  0.00000000000E+00  0.37401752669E+02  0.37401752669E+02  0.00000000000E+00 0.  1.
          1   -1    0    0  502    0  0.00000000000E+00 -0.00000000000E+00 -0.88752262485E+03  0.88752262485E+03  0.00000000000E+00 0. -1.
          6    1    1    2  502    0 -0.50219339028E+02 -0.12140453036E+02 -0.34717479332E+03  0.39087556809E+03  0.17200000000E+03 0.  1.
         -6    1    1    2    0  501  0.50219339028E+02  0.12140453036E+02 -0.50294607886E+03  0.53404880943E+03  0.17200000000E+03 0. -1.
</event>
<event>
 4    1  0.8483901E-001  0.2323729E+03  0.7818608E-02  0.1124981E+00
          2   -1    0    0  502    0  0.00000000000E+00  0.00000000000E+00  0.43323951483E+03  0.43323951483E+03  0.00000000000E+00 0. -1.
         -2   -1    0    0    0  501 -0.00000000000E+00 -0.00000000000E+00 -0.23591640956E+03  0.23591640956E+03  0.00000000000E+00 0.  1.
          6    1    1    2  502    0 -0.15159650401E+03 -0.37837167974E+02 -0.13112680156E+03  0.26681714599E+03  0.17200000000E+03 0.  1.
         -6    1    1    2    0  501  0.15159650401E+03  0.37837167974E+02  0.32844990683E+03  0.40233877840E+03  0.17200000000E+03 0.  1.
</event>
<event>
 4    1  0.8483901E-001  0.2754512E+03  0.7818608E-02  0.1098200E+00
         -1   -1    0    0    0  501 -0.00000000000E+00  0.00000000000E+00  0.52995557200E+02  0.52995557200E+02  0.00000000000E+00 0.  1.
          1   -1    0    0  502    0  0.00000000000E+00 -0.00000000000E+00 -0.15578327534E+04  0.15578327534E+04  0.00000000000E+00 0. -1.
          6    1    1    2  502    0 -0.13276506634E+03 -0.16930093497E+03 -0.52323433465E+03  0.59131001884E+03  0.17200000000E+03 0.  1.
         -6    1    1    2    0  501  0.13276506634E+03  0.16930093497E+03 -0.98160286151E+03  0.10195182917E+04  0.17200000000E+03 0. -1.
</event>
<event>
 4    1  0.8483901E-001  0.1872653E+03  0.7818608E-02  0.1160951E+00
          2   -1    0    0  502    0  0.00000000000E+00  0.00000000000E+00  0.28301179120E+03  0.28301179120E+03  0.00000000000E+00 0. -1.
         -2   -1    0    0    0  501 -0.00000000000E+00 -0.00000000000E+00 -0.14825325238E+03  0.14825325238E+03  0.00000000000E+00 0.  1.
          6    1    1    2  502    0 -0.31850111636E+02 -0.66857098133E+02 -0.19996632689E+02  0.18832994053E+03  0.17200000000E+03 0.  1.
         -6    1    1    2    0  501  0.31850111636E+02  0.66857098133E+02  0.15475517151E+03  0.24293510304E+03  0.17200000000E+03 0. -1.
</event>
<event>
 4    1  0.8483901E-001  0.1778553E+03  0.7818608E-02  0.1169895E+00
         -2   -1    0    0    0  501 -0.00000000000E+00  0.00000000000E+00  0.32700930765E+02  0.32700930765E+02  0.00000000000E+00 0.  1.
          2   -1    0    0  502    0  0.00000000000E+00 -0.00000000000E+00 -0.10653275370E+04  0.10653275370E+04  0.00000000000E+00 0. -1.
          6    1    1    2  502    0  0.37171921453E+02 -0.25821928756E+02 -0.34979798590E+03  0.39241706727E+03  0.17200000000E+03 0.  1.
         -6    1    1    2    0  501 -0.37171921453E+02  0.25821928756E+02 -0.68282862030E+03  0.70561140046E+03  0.17200000000E+03 0. -1.
</event>
<event>
 4    1  0.8483901E-001  0.2416654E+03  0.7818608E-02  0.1118688E+00
          1   -1    0    0  502    0  0.00000000000E+00  0.00000000000E+00  0.11208536119E+04  0.11208536119E+04  0.00000000000E+00 0. -1.
         -1   -1    0    0    0  501 -0.00000000000E+00 -0.00000000000E+00 -0.53399505836E+02  0.53399505836E+02  0.00000000000E+00 0.  1.
          6    1    1    2  502    0  0.11944077591E+03  0.12063202303E+03  0.44231590216E+03  0.50402930593E+03  0.17200000000E+03 0. -1.
         -6    1    1    2    0  501 -0.11944077591E+03 -0.12063202303E+03  0.62513820386E+03  0.67022381177E+03  0.17200000000E+03 0.  1.
</event>
<event>
 4    1  0.8483901E-001  0.1855460E+03  0.7818608E-02  0.1162541E+00
          1   -1    0    0  502    0  0.00000000000E+00  0.00000000000E+00  0.12506417725E+04  0.12506417725E+04  0.00000000000E+00 0. -1.
         -1   -1    0    0    0  501 -0.00000000000E+00 -0.00000000000E+00 -0.42944442893E+02  0.42944442893E+02  0.00000000000E+00 0.  1.
          6    1    1    2  502    0 -0.32212798681E+02  0.61689955580E+02  0.21631632811E+03  0.28499134869E+03  0.17200000000E+03 0.  1.
         -6    1    1    2    0  501  0.32212798681E+02 -0.61689955580E+02  0.99138100145E+03  0.10085948667E+04  0.17200000000E+03 0. -1.
</event>
<event>
 4    1  0.8483901E-001  0.2590196E+03  0.7818608E-02  0.1107734E+00
         -2   -1    0    0    0  501 -0.00000000000E+00  0.00000000000E+00  0.10881030049E+03  0.10881030049E+03  0.00000000000E+00 0.  1.
          2   -1    0    0  502    0  0.00000000000E+00 -0.00000000000E+00 -0.61919310850E+03  0.61919310850E+03  0.00000000000E+00 0. -1.
          6    1    1    2  502    0  0.12238198989E+03 -0.15009936448E+03 -0.23158288686E+03  0.34745043410E+03  0.17200000000E+03 0.  1.
         -6    1    1    2    0  501 -0.12238198989E+03  0.15009936448E+03 -0.27879992114E+03  0.38055297489E+03  0.17200000000E+03 0. -1.
</event>
<event>
 4    1  0.8483901E-001  0.2007857E+03  0.7818608E-02  0.1149078E+00
         -2   -1    0    0    0  501 -0.00000000000E+00  0.00000000000E+00  0.12265721169E+03  0.12265721169E+03  0.00000000000E+00 0.  1.
          2   -1    0    0  502    0  0.00000000000E+00 -0.00000000000E+00 -0.33096787203E+03  0.33096787203E+03  0.00000000000E+00 0. -1.
          6    1    1    2  502    0 -0.40799093374E+02 -0.95217209523E+02 -0.12301608728E+03  0.23547365190E+03  0.17200000000E+03 0.  1.
         -6    1    1    2    0  501  0.40799093374E+02  0.95217209523E+02 -0.85294573060E+02  0.21815143181E+03  0.17200000000E+03 0.  1.
</event>
<event>
 4    1  0.8483901E-001  0.2345979E+03  0.7818608E-02  0.1123445E+00
         -2   -1    0    0    0  501 -0.00000000000E+00  0.00000000000E+00  0.88270170442E+02  0.88270170442E+02  0.00000000000E+00 0. -1.
          2   -1    0    0  502    0  0.00000000000E+00 -0.00000000000E+00 -0.63709402080E+03  0.63709402080E+03  0.00000000000E+00 0.  1.
          6    1    1    2  502    0  0.29351887801E+02 -0.15681398278E+03 -0.22142712642E+03  0.32259282513E+03  0.17200000000E+03 0. -1.
         -6    1    1    2    0  501 -0.29351887801E+02  0.15681398278E+03 -0.32739672394E+03  0.40277136611E+03  0.17200000000E+03 0.  1.
</event>
<event>
 4    1  0.8483901E-001  0.5698832E+03  0.7818608E-02  0.9969937E-01
          2   -1    0    0  502    0  0.00000000000E+00  0.00000000000E+00  0.21103652956E+04  0.21103652956E+04  0.00000000000E+00 0.  1.
         -2   -1    0    0    0  501 -0.00000000000E+00 -0.00000000000E+00 -0.25290202092E+03  0.25290202092E+03  0.00000000000E+00 0. -1.
          6    1    1    2  502    0 -0.39319607579E+03 -0.37493959893E+03  0.18938548575E+03  0.60052786703E+03  0.17200000000E+03 0.  1.
         -6    1    1    2    0  501  0.39319607579E+03  0.37493959893E+03  0.16680777890E+04  0.17627394495E+04  0.17200000000E+03 0. -1.
</event>
<event>
 4    1  0.8483901E-001  0.3202243E+03  0.7818608E-02  0.1075546E+00
          2   -1    0    0  502    0  0.00000000000E+00  0.00000000000E+00  0.90691494688E+03  0.90691494688E+03  0.00000000000E+00 0. -1.
         -2   -1    0    0    0  501 -0.00000000000E+00 -0.00000000000E+00 -0.19967618215E+03  0.19967618215E+03  0.00000000000E+00 0.  1.
          6    1    1    2  502    0 -0.26903783379E+03  0.24046909776E+02 -0.10775270736E+02  0.32040554979E+03  0.17200000000E+03 0.  1.
         -6    1    1    2    0  501  0.26903783379E+03 -0.24046909776E+02  0.71801403546E+03  0.78618557924E+03  0.17200000000E+03 0. -1.
</event>
<event>
 4    1  0.8483901E-001  0.4194836E+03  0.7818608E-02  0.1037234E+00
         -2   -1    0    0    0  501 -0.00000000000E+00  0.00000000000E+00  0.13177568641E+04  0.13177568641E+04  0.00000000000E+00 0.  1.
          2   -1    0    0  502    0  0.00000000000E+00 -0.00000000000E+00 -0.15715054849E+03  0.15715054849E+03  0.00000000000E+00 0. -1.
          6    1    1    2  502    0  0.35581244440E+02 -0.38094157149E+03  0.29442766510E+03  0.51249795689E+03  0.17200000000E+03 0. -1.
         -6    1    1    2    0  501 -0.35581244440E+02  0.38094157149E+03  0.86617865055E+03  0.96240945575E+03  0.17200000000E+03 0.  1.
</event>
<event>
 4    1  0.8483901E-001  0.1939206E+03  0.7818608E-02  0.1154972E+00
          1   -1    0    0  502    0  0.00000000000E+00  0.00000000000E+00  0.21197288973E+04  0.21197288973E+04  0.00000000000E+00 0. -1.
         -1   -1    0    0    0  501 -0.00000000000E+00 -0.00000000000E+00 -0.18693445949E+02  0.18693445949E+02  0.00000000000E+00 0.  1.
          6    1    1    2  502    0 -0.83310284199E+01 -0.89172733794E+02  0.12919185506E+04  0.13063914895E+04  0.17200000000E+03 0. -1.
         -6    1    1    2    0  501  0.83310284199E+01  0.89172733794E+02  0.80911690072E+03  0.83203085371E+03  0.17200000000E+03 0.  1.
</event>
<event>
 4    1  0.8483901E-001  0.3401506E+03  0.7818608E-02  0.1066732E+00
         -2   -1    0    0    0  501 -0.00000000000E+00  0.00000000000E+00  0.85169078519E+02  0.85169078519E+02  0.00000000000E+00 0.  1.
          2   -1    0    0  502    0  0.00000000000E+00 -0.00000000000E+00 -0.14366829111E+04  0.14366829111E+04  0.00000000000E+00 0. -1.
          6    1    1    2  502    0 -0.21399743921E+03  0.20080713168E+03 -0.49825180367E+03  0.60328871030E+03  0.17200000000E+03 0.  1.
         -6    1    1    2    0  501  0.21399743921E+03 -0.20080713168E+03 -0.85326202890E+03  0.91856327930E+03  0.17200000000E+03 0. -1.
</event>
<event>
 4    1  0.8483901E-001  0.1754814E+03  0.7818608E-02  0.1172249E+00
          1   -1    0    0  502    0  0.00000000000E+00  0.00000000000E+00  0.21273825143E+04  0.21273825143E+04  0.00000000000E+00 0.  1.
         -1   -1    0    0    0  501 -0.00000000000E+00 -0.00000000000E+00 -0.15232239294E+02  0.15232239294E+02  0.00000000000E+00 0. -1.
          6    1    1    2  502    0 -0.70286645720E+01 -0.34063294030E+02  0.12949493378E+04  0.13067851765E+04  0.17200000000E+03 0.  1.
         -6    1    1    2    0  501  0.70286645720E+01  0.34063294030E+02  0.81720093721E+03  0.83582957707E+03  0.17200000000E+03 0.  1.
</event>
<event>
 4    1  0.8483901E-001  0.1799321E+03  0.7818608E-02  0.1167869E+00
          2   -1    0    0  502    0  0.00000000000E+00  0.00000000000E+00  0.17603093102E+03  0.17603093102E+03  0.00000000000E+00 0.  1.
         -2   -1    0    0    0  501 -0.00000000000E+00 -0.00000000000E+00 -0.21313702628E+03  0.21313702628E+03  0.00000000000E+00 0. -1.
          6    1    1    2  502    0 -0.50659066691E+02  0.15007565380E+02 -0.90596970956E+02  0.20145316876E+03  0.17200000000E+03 0. -1.
         -6    1    1    2    0  501  0.50659066691E+02 -0.15007565380E+02  0.53490875693E+02  0.18771478855E+03  0.17200000000E+03 0.  1.
</event>
<event>
 4    1  0.8483901E-001  0.1792513E+03  0.7818608E-02  0.1168530E+00
          2   -1    0    0  502    0  0.00000000000E+00  0.00000000000E+00  0.79197882817E+03  0.79197882817E+03  0.00000000000E+00 0.  1.
         -2   -1    0    0    0  501 -0.00000000000E+00 -0.00000000000E+00 -0.50702832169E+02  0.50702832169E+02  0.00000000000E+00 0. -1.
          6    1    1    2  502    0 -0.35736092459E+02  0.35636308395E+02  0.55899038376E+03  0.58702748140E+03  0.17200000000E+03 0.  1.
         -6    1    1    2    0  501  0.35736092459E+02 -0.35636308395E+02  0.18228561224E+03  0.25565417894E+03  0.17200000000E+03 0. -1.
</event>
<event>
 4    1  0.8483901E-001  0.2206108E+03  0.7818608E-02  0.1133428E+00
         -2   -1    0    0    0  501 -0.00000000000E+00  0.00000000000E+00  0.16234414817E+02  0.16234414817E+02  0.00000000000E+00 0.  1.
          2   -1    0    0  502    0  0.00000000000E+00 -0.00000000000E+00 -0.30440836786E+04  0.30440836786E+04  0.00000000000E+00 0. -1.
          6    1    1    2  502    0 -0.38196947788E+01  0.13809617984E+03 -0.13254492486E+04  0.13436833167E+04  0.17200000000E+03 0.  1.
         -6    1    1    2    0  501  0.38196947788E+01 -0.13809617984E+03 -0.17024000153E+04  0.17166347768E+04  0.17200000000E+03 0. -1.
</event>
<event>
 4    1  0.8483901E-001  0.1753872E+03  0.7818608E-02  0.1172344E+00
          2   -1    0    0  502    0  0.00000000000E+00  0.00000000000E+00  0.34485686830E+04  0.34485686830E+04  0.00000000000E+00 0.  1.
         -2   -1    0    0    0  501 -0.00000000000E+00 -0.00000000000E+00 -0.90684895405E+01  0.90684895405E+01  0.00000000000E+00 0. -1.
          6    1    1    2  502    0 -0.30209679255E+02 -0.16249110334E+02  0.14984032741E+04  0.15086328348E+04  0.17200000000E+03 0. -1.
         -6    1    1    2    0  501  0.30209679255E+02  0.16249110334E+02  0.19410969193E+04  0.19490043377E+04  0.17200000000E+03 0.  1.
</event>
<event>
 4    1  0.8483901E-001  0.1971061E+03  0.7818608E-02  0.1152204E+00
          1   -1    0    0  502    0  0.00000000000E+00  0.00000000000E+00  0.21722594092E+03  0.21722594092E+03  0.00000000000E+00 0.  1.
         -1   -1    0    0    0  501 -0.00000000000E+00 -0.00000000000E+00 -0.41727089615E+03  0.41727089615E+03  0.00000000000E+00 0. -1.
          6    1    1    2  502    0  0.58875289204E+02  0.76161151433E+02  0.13978501022E+03  0.24164161427E+03  0.17200000000E+03 0.  1.
         -6    1    1    2    0  501 -0.58875289204E+02 -0.76161151433E+02 -0.33982996544E+03  0.39285522280E+03  0.17200000000E+03 0. -1.
</event>
<event>
 4    1  0.8483901E-001  0.1842331E+03  0.7818608E-02  0.1163768E+00
         -1   -1    0    0    0  501 -0.00000000000E+00  0.00000000000E+00  0.25036460286E+03  0.25036460286E+03  0.00000000000E+00 0. -1.
          1   -1    0    0  502    0  0.00000000000E+00 -0.00000000000E+00 -0.16906375718E+03  0.16906375718E+03  0.00000000000E+00 0.  1.
          6    1    1    2  502    0 -0.25496407173E+02 -0.60891384072E+02 -0.52693727688E+02  0.19162060529E+03  0.17200000000E+03 0.  1.
         -6    1    1    2    0  501  0.25496407173E+02  0.60891384072E+02  0.13399457336E+03  0.22780775475E+03  0.17200000000E+03 0. -1.
</event>
<event>
 4    1  0.8483901E-001  0.2783751E+03  0.7818608E-02  0.1096580E+00
         -2   -1    0    0    0  501 -0.00000000000E+00  0.00000000000E+00  0.45377912832E+03  0.45377912832E+03  0.00000000000E+00 0. -1.
          2   -1    0    0  502    0  0.00000000000E+00 -0.00000000000E+00 -0.25202622217E+03  0.25202622217E+03  0.00000000000E+00 0.  1.
          6    1    1    2  502    0  0.18206461289E+03  0.12149545826E+03 -0.99504132495E+02  0.29562432584E+03  0.17200000000E+03 0. -1.
         -6    1    1    2    0  501 -0.18206461289E+03 -0.12149545826E+03  0.30125703865E+03  0.41018102465E+03  0.17200000000E+03 0.  1.
</event>
<event>
 4    1  0.8483901E-001  0.1859597E+03  0.7818608E-02  0.1162157E+00
          1   -1    0    0  502    0  0.00000000000E+00  0.00000000000E+00  0.58671175027E+03  0.58671175027E+03  0.00000000000E+00 0.  1.
         -1   -1    0    0    0  501 -0.00000000000E+00 -0.00000000000E+00 -0.61939969856E+02  0.61939969856E+02  0.00000000000E+00 0. -1.
          6    1    1    2  502    0  0.18221877512E+02  0.68300739088E+02  0.33375746199E+03  0.38206684129E+03  0.17200000000E+03 0.  1.
         -6    1    1    2    0  501 -0.18221877512E+02 -0.68300739088E+02  0.19101431842E+03  0.26658487883E+03  0.17200000000E+03 0.  1.
</event>
<event>
 4    1  0.8483901E-001  0.2257217E+03  0.7818608E-02  0.1129688E+00
          2   -1    0    0  502    0  0.00000000000E+00  0.00000000000E+00  0.13242706068E+04  0.13242706068E+04  0.00000000000E+00 0.  1.
         -2   -1    0    0    0  501 -0.00000000000E+00 -0.00000000000E+00 -0.45174084368E+02  0.45174084368E+02  0.00000000000E+00 0. -1.
          6    1    1    2  502    0 -0.38200061996E+02  0.14109237173E+03  0.37585304340E+03  0.43842423785E+03  0.17200000000E+03 0. -1.
         -6    1    1    2    0  501  0.38200061996E+02 -0.14109237173E+03  0.90324347902E+03  0.93102045331E+03  0.17200000000E+03 0.  1.
</event>
<event>
 4    1  0.8483901E-001  0.1830730E+03  0.7818608E-02  0.1164862E+00
          2   -1    0    0  502    0  0.00000000000E+00  0.00000000000E+00  0.22564658807E+04  0.22564658807E+04  0.00000000000E+00 0. -1.
         -2   -1    0    0    0  501 -0.00000000000E+00 -0.00000000000E+00 -0.16963431576E+02  0.16963431576E+02  0.00000000000E+00 0.  1.
          6    1    1    2  502    0  0.25794873727E+01  0.62650349029E+02  0.15206738174E+04  0.15316541969E+04  0.17200000000E+03 0. -1.
         -6    1    1    2    0  501 -0.25794873727E+01 -0.62650349029E+02  0.71882863170E+03  0.74177511534E+03  0.17200000000E+03 0.  1.
</event>
<event>
 4    1  0.8483901E-001  0.2626207E+03  0.7818608E-02  0.1105579E+00
          2   -1    0    0  502    0  0.00000000000E+00  0.00000000000E+00  0.11142203465E+04  0.11142203465E+04  0.00000000000E+00 0. -1.
         -2   -1    0    0    0  501 -0.00000000000E+00 -0.00000000000E+00 -0.63729519256E+02  0.63729519256E+02  0.00000000000E+00 0.  1.
          6    1    1    2  502    0  0.10659572948E+03 -0.16740061803E+03  0.62505249042E+03  0.67798247192E+03  0.17200000000E+03 0. -1.
         -6    1    1    2    0  501 -0.10659572948E+03  0.16740061803E+03  0.42543833687E+03  0.49996739387E+03  0.17200000000E+03 0.  1.
</event>
<event>
 4    1  0.8483901E-001  0.2017670E+03  0.7818608E-02  0.1148257E+00
         -1   -1    0    0    0  501 -0.00000000000E+00  0.00000000000E+00  0.28038911175E+02  0.28038911175E+02  0.00000000000E+00 0.  1.
          1   -1    0    0  502    0  0.00000000000E+00 -0.00000000000E+00 -0.14724740348E+04  0.14724740348E+04  0.00000000000E+00 0. -1.
          6    1    1    2  502    0  0.58650532051E+02 -0.87670027892E+02 -0.63355066845E+03  0.66490327733E+03  0.17200000000E+03 0. -1.
         -6    1    1    2    0  501 -0.58650532051E+02  0.87670027892E+02 -0.81088445517E+03  0.83560966865E+03  0.17200000000E+03 0. -1.
</event>
<event>
 4    1  0.8483901E-001  0.1918228E+03  0.7818608E-02  0.1156828E+00
          2   -1    0    0  502    0  0.00000000000E+00  0.00000000000E+00  0.18501151998E+04  0.18501151998E+04  0.00000000000E+00 0.  1.
         -2   -1    0    0    0  501 -0.00000000000E+00 -0.00000000000E+00 -0.25658441176E+02  0.25658441176E+02  0.00000000000E+00 0. -1.
          6    1    1    2  502    0 -0.64092977437E+02 -0.55714131439E+02  0.13569844095E+04  0.13704753415E+04  0.17200000000E+03 0. -1.
         -6    1    1    2    0  501  0.64092977437E+02  0.55714131439E+02  0.46747234915E+03  0.50529829944E+03  0.17200000000E+03 0. -1.
</event>
<event>
 4    1  0.8483901E-001  0.2160151E+03  0.7818608E-02  0.1136889E+00
         -1   -1    0    0    0  501 -0.00000000000E+00  0.00000000000E+00  0.10712268339E+03  0.10712268339E+03  0.00000000000E+00 0. -1.
          1   -1    0    0  502    0  0.00000000000E+00 -0.00000000000E+00 -0.47882006617E+03  0.47882006617E+03  0.00000000000E+00 0.  1.
          6    1    1    2  502    0  0.12728902293E+03  0.29597420801E+02 -0.97827303173E+02  0.23713431621E+03  0.17200000000E+03 0. -1.
         -6    1    1    2    0  501 -0.12728902293E+03 -0.29597420801E+02 -0.27387007960E+03  0.34880843335E+03  0.17200000000E+03 0.  1.
</event>
<event>
 4    1  0.8483901E-001  0.1720191E+03  0.7818608E-02  0.1175758E+00
          2   -1    0    0  502    0  0.00000000000E+00  0.00000000000E+00  0.59202703517E+03  0.59202703517E+03  0.00000000000E+00 0.  1.
         -2   -1    0    0    0  501 -0.00000000000E+00 -0.00000000000E+00 -0.54393774867E+02  0.54393774867E+02  0.00000000000E+00 0. -1.
          6    1    1    2  502    0 -0.77911036720E+00 -0.24423753056E+01  0.17676581563E+03  0.24665102024E+03  0.17200000000E+03 0. -1.
         -6    1    1    2    0  501  0.77911036720E+00  0.24423753056E+01  0.36086744467E+03  0.39976978980E+03  0.17200000000E+03 0.  1.
</event>
<event>
 4    1  0.8483901E-001  0.2348032E+03  0.7818608E-02  0.1123304E+00
          3   -1    0    0  502    0  0.00000000000E+00  0.00000000000E+00  0.14066804086E+03  0.14066804086E+03  0.00000000000E+00 0.  1.
         -3   -1    0    0    0  501 -0.00000000000E+00 -0.00000000000E+00 -0.43420710336E+03  0.43420710336E+03  0.00000000000E+00 0. -1.
          6    1    1    2  502    0 -0.11511443928E+03 -0.11089276227E+03 -0.57082648057E+02  0.24164223051E+03  0.17200000000E+03 0.  1.
         -6    1    1    2    0  501  0.11511443928E+03  0.11089276227E+03 -0.23645641444E+03  0.33323291372E+03  0.17200000000E+03 0.  1.
</event>
<event>
 4    1  0.8483901E-001  0.2129194E+03  0.7818608E-02  0.1139275E+00
         -2   -1    0    0    0  501 -0.00000000000E+00  0.00000000000E+00  0.26153280622E+02  0.26153280622E+02  0.00000000000E+00 0.  1.
          2   -1    0    0  502    0  0.00000000000E+00 -0.00000000000E+00 -0.17344549676E+04  0.17344549676E+04  0.00000000000E+00 0. -1.
          6    1    1    2  502    0 -0.86074249098E+02  0.91334061748E+02 -0.87562778457E+03  0.90114299881E+03  0.17200000000E+03 0. -1.
         -6    1    1    2    0  501  0.86074249098E+02 -0.91334061748E+02 -0.83267390238E+03  0.85946524939E+03  0.17200000000E+03 0. -1.
</event>
<event>
 4    1  0.8483901E-001  0.1822531E+03  0.7818608E-02  0.1165640E+00
          1   -1    0    0  502    0  0.00000000000E+00  0.00000000000E+00  0.19071709528E+04  0.19071709528E+04  0.00000000000E+00 0.  1.
         -1   -1    0    0    0  501 -0.00000000000E+00 -0.00000000000E+00 -0.22430005440E+02  0.22430005440E+02  0.00000000000E+00 0. -1.
          6    1    1    2  502    0  0.57757781698E+02 -0.17211627405E+02  0.13985066390E+04  0.14103322378E+04  0.17200000000E+03 0.  1.
         -6    1    1    2    0  501 -0.57757781698E+02  0.17211627405E+02  0.48623430828E+03  0.51926872043E+03  0.17200000000E+03 0. -1.
</event>
<event>
 4    1  0.8483901E-001  0.1948142E+03  0.7818608E-02  0.1154190E+00
         -1   -1    0    0    0  501 -0.00000000000E+00  0.00000000000E+00  0.73320741300E+02  0.73320741300E+02  0.00000000000E+00 0. -1.
          1   -1    0    0  502    0  0.00000000000E+00 -0.00000000000E+00 -0.63032950812E+03  0.63032950812E+03  0.00000000000E+00 0.  1.
          6    1    1    2  502    0  0.12734488150E+02 -0.90589161773E+02 -0.42727457296E+03  0.46959144383E+03  0.17200000000E+03 0.  1.
         -6    1    1    2    0  501 -0.12734488150E+02  0.90589161773E+02 -0.12973419386E+03  0.23405880560E+03  0.17200000000E+03 0. -1.
</event>
<event>
 4    1  0.8483901E-001  0.2116017E+03  0.7818608E-02  0.1140304E+00
         -3   -1    0    0    0  501 -0.00000000000E+00  0.00000000000E+00  0.54749589095E+03  0.54749589095E+03  0.00000000000E+00 0. -1.
          3   -1    0    0  502    0  0.00000000000E+00 -0.00000000000E+00 -0.13832838283E+03  0.13832838283E+03  0.00000000000E+00 0.  1.
          6    1    1    2  502    0 -0.11759147819E+03  0.36926054149E+02  0.42382878532E+03  0.47371523986E+03  0.17200000000E+03 0. -1.
         -6    1    1    2    0  501  0.11759147819E+03 -0.36926054149E+02 -0.14661277196E+02  0.21210903391E+03  0.17200000000E+03 0.  1.
</event>
<event>
 4    1  0.8483901E-001  0.1976052E+03  0.7818608E-02  0.1151775E+00
         -1   -1    0    0    0  501 -0.00000000000E+00  0.00000000000E+00  0.24106088572E+04  0.24106088572E+04  0.00000000000E+00 0. -1.
          1   -1    0    0  502    0  0.00000000000E+00 -0.00000000000E+00 -0.17232547530E+02  0.17232547530E+02  0.00000000000E+00 0.  1.
          6    1    1    2  502    0  0.73615990800E+02 -0.63596475727E+02  0.89930075534E+03  0.92075494807E+03  0.17200000000E+03 0.  1.
         -6    1    1    2    0  501 -0.73615990800E+02  0.63596475727E+02  0.14940755543E+04  0.15070864567E+04  0.17200000000E+03 0. -1.
</event>
<event>
 4    1  0.8483901E-001  0.1854477E+03  0.7818608E-02  0.1162633E+00
          2   -1    0    0  502    0  0.00000000000E+00  0.00000000000E+00  0.13730925514E+04  0.13730925514E+04  0.00000000000E+00 0. -1.
         -2   -1    0    0    0  501 -0.00000000000E+00 -0.00000000000E+00 -0.28402085196E+02  0.28402085196E+02  0.00000000000E+00 0.  1.
          6    1    1    2  502    0 -0.17016901854E+02 -0.67210563527E+02  0.91321700870E+03  0.93185628708E+03  0.17200000000E+03 0. -1.
         -6    1    1    2    0  501  0.17016901854E+02  0.67210563527E+02  0.43147345746E+03  0.46963834946E+03  0.17200000000E+03 0.  1.
</event>
<event>
 4    1  0.8483901E-001  0.3627026E+03  0.7818608E-02  0.1057519E+00
          2   -1    0    0  502    0  0.00000000000E+00  0.00000000000E+00  0.14069423895E+04  0.14069423895E+04  0.00000000000E+00 0.  1.
         -2   -1    0    0    0  501 -0.00000000000E+00 -0.00000000000E+00 -0.10947971293E+03  0.10947971293E+03  0.00000000000E+00 0. -1.
          6    1    1    2  502    0  0.24402709746E+03 -0.20596107066E+03  0.93837793113E+03  0.10060349539E+04  0.17200000000E+03 0.  1.
         -6    1    1    2    0  501 -0.24402709746E+03  0.20596107066E+03  0.35908474542E+03  0.51038714846E+03  0.17200000000E+03 0. -1.
</event>
<event>
 4    1  0.8483901E-001  0.1993762E+03  0.7818608E-02  0.1150266E+00
         -1   -1    0    0    0  501 -0.00000000000E+00  0.00000000000E+00  0.36295620096E+03  0.36295620096E+03  0.00000000000E+00 0. -1.
          1   -1    0    0  502    0  0.00000000000E+00 -0.00000000000E+00 -0.11972801812E+03  0.11972801812E+03  0.00000000000E+00 0.  1.
          6    1    1    2  502    0  0.15275623376E+02 -0.99667107936E+02  0.19208517791E+03  0.27685301632E+03  0.17200000000E+03 0. -1.
         -6    1    1    2    0  501 -0.15275623376E+02  0.99667107936E+02  0.51143004931E+02  0.20583120275E+03  0.17200000000E+03 0. -1.
</event>
<event>
 4    1  0.8483901E-001  0.2865401E+03  0.7818608E-02  0.1092170E+00
         -1   -1    0    0    0  501 -0.00000000000E+00  0.00000000000E+00  0.11060271560E+03  0.11060271560E+03  0.00000000000E+00 0. -1.
          1   -1    0    0  502    0  0.00000000000E+00 -0.00000000000E+00 -0.74311336738E+03  0.74311336738E+03  0.00000000000E+00 0.  1.
          6    1    1    2  502    0  0.18502928645E+03 -0.13522344687E+03 -0.30251688929E+03  0.41667935602E+03  0.17200000000E+03 0. -1.
         -6    1    1    2    0  501 -0.18502928645E+03  0.13522344687E+03 -0.32999376249E+03  0.43703672696E+03  0.17200000000E+03 0.  1.
</event>
<event>
 4    1  0.8483901E-001  0.1893429E+03  0.7818608E-02  0.1159055E+00
          2   -1    0    0  502    0  0.00000000000E+00  0.00000000000E+00  0.91576540441E+03  0.91576540441E+03  0.00000000000E+00 0.  1.
         -2   -1    0    0    0  501 -0.00000000000E+00 -0.00000000000E+00 -0.39605464356E+02  0.39605464356E+02  0.00000000000E+00 0. -1.
          6    1    1    2  502    0  0.44023042965E+02  0.65792993608E+02  0.38676368409E+03  0.43062384241E+03  0.17200000000E+03 0.  1.
         -6    1    1    2    0  501 -0.44023042965E+02 -0.65792993608E+02  0.48939625596E+03  0.52474702635E+03  0.17200000000E+03 0.  1.
</event>
<event>
 4    1  0.8483901E-001  0.1724866E+03  0.7818608E-02  0.1175279E+00
         -2   -1    0    0    0  501 -0.00000000000E+00  0.00000000000E+00  0.76232244704E+02  0.76232244704E+02  0.00000000000E+00 0. -1.
          2   -1    0    0  502    0  0.00000000000E+00 -0.00000000000E+00 -0.46695854114E+03  0.46695854114E+03  0.00000000000E+00 0.  1.
          6    1    1    2  502    0 -0.19027968988E+01  0.12806195464E+02 -0.85302682537E+02  0.19242704313E+03  0.17200000000E+03 0. -1.
         -6    1    1    2    0  501  0.19027968988E+01 -0.12806195464E+02 -0.30542361390E+03  0.35076374272E+03  0.17200000000E+03 0.  1.
</event>
<event>
 4    1  0.8483901E-001  0.2080305E+03  0.7818608E-02  0.1143135E+00
         -2   -1    0    0    0  501 -0.00000000000E+00  0.00000000000E+00  0.19208633398E+03  0.19208633398E+03  0.00000000000E+00 0.  1.
          2   -1    0    0  502    0  0.00000000000E+00 -0.00000000000E+00 -0.22667955327E+03  0.22667955327E+03  0.00000000000E+00 0. -1.
          6    1    1    2  502    0  0.73722374633E+02  0.90871874352E+02 -0.33642298816E+02  0.21073322078E+03  0.17200000000E+03 0.  1.
         -6    1    1    2    0  501 -0.73722374633E+02 -0.90871874352E+02 -0.95092047637E+00  0.20803266647E+03  0.17200000000E+03 0.  1.
</event>
<event>
 4    1  0.8483901E-001  0.1978015E+03  0.7818608E-02  0.1151607E+00
         -1   -1    0    0    0  501 -0.00000000000E+00  0.00000000000E+00  0.36865640941E+03  0.36865640941E+03  0.00000000000E+00 0.  1.
          1   -1    0    0  502    0  0.00000000000E+00 -0.00000000000E+00 -0.10982509869E+03  0.10982509869E+03  0.00000000000E+00 0. -1.
          6    1    1    2  502    0 -0.89485501849E+02  0.39163487165E+02  0.85531403980E+02  0.21550186736E+03  0.17200000000E+03 0.  1.
         -6    1    1    2    0  501  0.89485501849E+02 -0.39163487165E+02  0.17329990674E+03  0.26297964074E+03  0.17200000000E+03 0. -1.
</event>
<event>
 4    1  0.8483901E-001  0.2319893E+03  0.7818608E-02  0.1125247E+00
         -1   -1    0    0    0  501 -0.00000000000E+00  0.00000000000E+00  0.10126734737E+03  0.10126734737E+03  0.00000000000E+00 0.  1.
          1   -1    0    0  502    0  0.00000000000E+00 -0.00000000000E+00 -0.54497432314E+03  0.54497432314E+03  0.00000000000E+00 0. -1.
          6    1    1    2  502    0  0.48149255005E+01  0.15560160814E+03 -0.27274595281E+03  0.35806340044E+03  0.17200000000E+03 0.  1.
         -6    1    1    2    0  501 -0.48149255005E+01 -0.15560160814E+03 -0.17096102297E+03  0.28817827006E+03  0.17200000000E+03 0.  1.
</event>
<event>
 4    1  0.8483901E-001  0.1940581E+03  0.7818608E-02  0.1154851E+00
          1   -1    0    0  502    0  0.00000000000E+00  0.00000000000E+00  0.13916242909E+04  0.13916242909E+04  0.00000000000E+00 0.  1.
         -1   -1    0    0    0  501 -0.00000000000E+00 -0.00000000000E+00 -0.30182900706E+02  0.30182900706E+02  0.00000000000E+00 0. -1.
          6    1    1    2  502    0 -0.35215035590E+02 -0.82670687418E+02  0.45208188841E+03  0.49197212840E+03  0.17200000000E+03 0. -1.
         -6    1    1    2    0  501  0.35215035590E+02  0.82670687418E+02  0.90935950179E+03  0.92983506322E+03  0.17200000000E+03 0.  1.
</event>
<event>
 4    1  0.8483901E-001  0.2402737E+03  0.7818608E-02  0.1119611E+00
         -2   -1    0    0    0  501 -0.00000000000E+00  0.00000000000E+00  0.16445265087E+03  0.16445265087E+03  0.00000000000E+00 0. -1.
          2   -1    0    0  502    0  0.00000000000E+00 -0.00000000000E+00 -0.36881854094E+03  0.36881854094E+03  0.00000000000E+00 0.  1.
          6    1    1    2  502    0 -0.15108949635E+03  0.72934446918E+02 -0.16070376614E+03  0.28906257092E+03  0.17200000000E+03 0. -1.
         -6    1    1    2    0  501  0.15108949635E+03 -0.72934446918E+02 -0.43662123934E+02  0.24420862090E+03  0.17200000000E+03 0. -1.
</event>
<event>
 4    1  0.8483901E-001  0.2112011E+03  0.7818608E-02  0.1140618E+00
          3   -1    0    0  502    0  0.00000000000E+00  0.00000000000E+00  0.35380384708E+03  0.35380384708E+03  0.00000000000E+00 0. -1.
         -3   -1    0    0    0  501 -0.00000000000E+00 -0.00000000000E+00 -0.12703034506E+03  0.12703034506E+03  0.00000000000E+00 0.  1.
          6    1    1    2  502    0  0.61861010141E+02  0.10580708417E+03  0.92540634382E+02  0.23058554302E+03  0.17200000000E+03 0.  1.
         -6    1    1    2    0  501 -0.61861010141E+02 -0.10580708417E+03  0.13423286764E+03  0.25024864913E+03  0.17200000000E+03 0. -1.
</event>
<event>
 4    1  0.8483901E-001  0.1749624E+03  0.7818608E-02  0.1172769E+00
          3   -1    0    0  502    0  0.00000000000E+00  0.00000000000E+00  0.27921080451E+03  0.27921080451E+03  0.00000000000E+00 0. -1.
         -3   -1    0    0    0  501 -0.00000000000E+00 -0.00000000000E+00 -0.10965888071E+03  0.10965888071E+03  0.00000000000E+00 0.  1.
          6    1    1    2  502    0  0.31015207673E+02  0.81181768125E+01  0.87519575430E+02  0.19563109156E+03  0.17200000000E+03 0.  1.
         -6    1    1    2    0  501 -0.31015207673E+02 -0.81181768125E+01  0.82032348374E+02  0.19323859366E+03  0.17200000000E+03 0.  1.
</event>
<event>
 4    1  0.8483901E-001  0.2286597E+03  0.7818608E-02  0.1127587E+00
          2   -1    0    0  502    0  0.00000000000E+00  0.00000000000E+00  0.65055884929E+03  0.65055884929E+03  0.00000000000E+00 0.  1.
         -2   -1    0    0    0  501 -0.00000000000E+00 -0.00000000000E+00 -0.89111040895E+02  0.89111040895E+02  0.00000000000E+00 0. -1.
          6    1    1    2  502    0  0.13733542919E+03  0.61969631975E+02  0.39655624849E+03  0.45775770186E+03  0.17200000000E+03 0.  1.
         -6    1    1    2    0  501 -0.13733542919E+03 -0.61969631975E+02  0.16489155990E+03  0.28191218832E+03  0.17200000000E+03 0.  1.
</event>
<event>
 4    1  0.8483901E-001  0.2041734E+03  0.7818608E-02  0.1146265E+00
         -2   -1    0    0    0  501 -0.00000000000E+00  0.00000000000E+00  0.11966470178E+03  0.11966470178E+03  0.00000000000E+00 0.  1.
          2   -1    0    0  502    0  0.00000000000E+00 -0.00000000000E+00 -0.37312754983E+03  0.37312754983E+03  0.00000000000E+00 0. -1.
          6    1    1    2  502    0 -0.60052357244E+02  0.92176437454E+02 -0.63254119441E+02  0.21374719848E+03  0.17200000000E+03 0.  1.
         -6    1    1    2    0  501  0.60052357244E+02 -0.92176437454E+02 -0.19020872861E+03  0.27904505312E+03  0.17200000000E+03 0. -1.
</event>
<event>
 4    1  0.8483901E-001  0.1905182E+03  0.7818608E-02  0.1157995E+00
          1   -1    0    0  502    0  0.00000000000E+00  0.00000000000E+00  0.10611610471E+04  0.10611610471E+04  0.00000000000E+00 0. -1.
         -1   -1    0    0    0  501 -0.00000000000E+00 -0.00000000000E+00 -0.35272139896E+02  0.35272139896E+02  0.00000000000E+00 0.  1.
          6    1    1    2  502    0 -0.78236858559E+02 -0.24334450312E+02  0.41759533748E+03  0.45900221938E+03  0.17200000000E+03 0. -1.
         -6    1    1    2    0  501  0.78236858559E+02  0.24334450312E+02  0.60829356970E+03  0.63743096760E+03  0.17200000000E+03 0. -1.
</event>
<event>
 4    1  0.8483901E-001  0.2338651E+03  0.7818608E-02  0.1123949E+00
         -2   -1    0    0    0  501 -0.00000000000E+00  0.00000000000E+00  0.11883043568E+03  0.11883043568E+03  0.00000000000E+00 0. -1.
          2   -1    0    0  502    0  0.00000000000E+00 -0.00000000000E+00 -0.48514296468E+03  0.48514296468E+03  0.00000000000E+00 0.  1.
          6    1    1    2  502    0 -0.33901665159E+02  0.15478870923E+03 -0.25154839506E+03  0.34346682876E+03  0.17200000000E+03 0. -1.
         -6    1    1    2    0  501  0.33901665159E+02 -0.15478870923E+03 -0.11476413394E+03  0.26050657160E+03  0.17200000000E+03 0. -1.
</event>
<event>
 4    1  0.8483901E-001  0.2390650E+03  0.7818608E-02  0.1120417E+00
          1   -1    0    0  502    0  0.00000000000E+00  0.00000000000E+00  0.11227535303E+03  0.11227535303E+03  0.00000000000E+00 0. -1.
         -1   -1    0    0    0  501 -0.00000000000E+00 -0.00000000000E+00 -0.54546816061E+03  0.54546816061E+03  0.00000000000E+00 0.  1.
          6    1    1    2  502    0  0.14724610009E+03 -0.76724589295E+02 -0.30159088165E+03  0.38484949849E+03  0.17200000000E+03 0.  1.
         -6    1    1    2    0  501 -0.14724610009E+03  0.76724589295E+02 -0.13160192592E+03  0.27289401514E+03  0.17200000000E+03 0. -1.
</event>
<event>
 4    1  0.8483901E-001  0.2199312E+03  0.7818608E-02  0.1133934E+00
          2   -1    0    0  502    0  0.00000000000E+00  0.00000000000E+00  0.87958466165E+03  0.87958466165E+03  0.00000000000E+00 0.  1.
         -2   -1    0    0    0  501 -0.00000000000E+00 -0.00000000000E+00 -0.85010297212E+02  0.85010297212E+02  0.00000000000E+00 0. -1.
          6    1    1    2  502    0  0.74744340009E+02  0.11488690334E+03  0.68388677181E+03  0.71838070240E+03  0.17200000000E+03 0.  1.
         -6    1    1    2    0  501 -0.74744340009E+02 -0.11488690334E+03  0.11068759262E+03  0.24621425646E+03  0.17200000000E+03 0.  1.
</event>
<event>
 4    1  0.8483901E-001  0.1839085E+03  0.7818608E-02  0.1164073E+00
         -3   -1    0    0    0  501 -0.00000000000E+00  0.00000000000E+00  0.11509239273E+04  0.11509239273E+04  0.00000000000E+00 0.  1.
          3   -1    0    0  502    0  0.00000000000E+00 -0.00000000000E+00 -0.29455502043E+02  0.29455502043E+02  0.00000000000E+00 0. -1.
          6    1    1    2  502    0 -0.18189345487E+02  0.62509839440E+02  0.53229618655E+03  0.56317098872E+03  0.17200000000E+03 0.  1.
         -6    1    1    2    0  501  0.18189345487E+02 -0.62509839440E+02  0.58917223865E+03  0.61720844057E+03  0.17200000000E+03 0.  1.
</event>
<event>
 4    1  0.8483901E-001  0.1767548E+03  0.7818608E-02  0.1170981E+00
          3   -1    0    0  502    0  0.00000000000E+00  0.00000000000E+00  0.81990595314E+03  0.81990595314E+03  0.00000000000E+00 0.  1.
         -3   -1    0    0    0  501 -0.00000000000E+00 -0.00000000000E+00 -0.38217491662E+02  0.38217491662E+02  0.00000000000E+00 0. -1.
          6    1    1    2  502    0 -0.29152036061E+02  0.28432778750E+02  0.36753425204E+03  0.40782801588E+03  0.17200000000E+03 0.  1.
         -6    1    1    2    0  501  0.29152036061E+02 -0.28432778750E+02  0.41415420944E+03  0.45029542893E+03  0.17200000000E+03 0. -1.
</event>
<event>
 4    1  0.8483901E-001  0.1815575E+03  0.7818608E-02  0.1166304E+00
         -2   -1    0    0    0  501 -0.00000000000E+00  0.00000000000E+00  0.30256295366E+02  0.30256295366E+02  0.00000000000E+00 0.  1.
          2   -1    0    0  502    0  0.00000000000E+00 -0.00000000000E+00 -0.13626470957E+04  0.13626470957E+04  0.00000000000E+00 0. -1.
          6    1    1    2  502    0 -0.69791038313E+01 -0.57709653860E+02 -0.35435881326E+03  0.39816237966E+03  0.17200000000E+03 0.  1.
         -6    1    1    2    0  501  0.69791038313E+01  0.57709653860E+02 -0.97803198710E+03  0.99474101143E+03  0.17200000000E+03 0. -1.
</event>
<event>
 4    1  0.8483901E-001  0.1776469E+03  0.7818608E-02  0.1170100E+00
         -2   -1    0    0    0  501 -0.00000000000E+00  0.00000000000E+00  0.92985982810E+02  0.92985982810E+02  0.00000000000E+00 0.  1.
          2   -1    0    0  502    0  0.00000000000E+00 -0.00000000000E+00 -0.98395400439E+03  0.98395400439E+03  0.00000000000E+00 0. -1.
          6    1    1    2  502    0  0.13590693539E+02  0.42305140282E+02 -0.96637405183E+01  0.17790958301E+03  0.17200000000E+03 0.  1.
         -6    1    1    2    0  501 -0.13590693539E+02 -0.42305140282E+02 -0.88130428106E+03  0.89903040419E+03  0.17200000000E+03 0. -1.
</event>
<event>
 4    1  0.8483901E-001  0.1871193E+03  0.7818608E-02  0.1161085E+00
         -1   -1    0    0    0  501 -0.00000000000E+00  0.00000000000E+00  0.63802544517E+02  0.63802544517E+02  0.00000000000E+00 0.  1.
          1   -1    0    0  502    0  0.00000000000E+00 -0.00000000000E+00 -0.55600086325E+03  0.55600086325E+03  0.00000000000E+00 0. -1.
          6    1    1    2  502    0 -0.66588100440E+02 -0.31554305298E+02 -0.21078581294E+03  0.28185866714E+03  0.17200000000E+03 0.  1.
         -6    1    1    2    0  501  0.66588100440E+02  0.31554305298E+02 -0.28141250579E+03  0.33794474063E+03  0.17200000000E+03 0. -1.
</event>
<event>
 4    1  0.8483901E-001  0.1911467E+03  0.7818608E-02  0.1157431E+00
          2   -1    0    0  502    0  0.00000000000E+00  0.00000000000E+00  0.41501610580E+03  0.41501610580E+03  0.00000000000E+00 0.  1.
         -2   -1    0    0    0  501 -0.00000000000E+00 -0.00000000000E+00 -0.10667066123E+03  0.10667066123E+03  0.00000000000E+00 0. -1.
          6    1    1    2  502    0 -0.28575680980E+02  0.78335648873E+02  0.26319087855E+03  0.32527908322E+03  0.17200000000E+03 0.  1.
         -6    1    1    2    0  501  0.28575680980E+02 -0.78335648873E+02  0.45154566016E+02  0.19640768381E+03  0.17200000000E+03 0. -1.
</event>
<event>
 4    1  0.8483901E-001  0.2355429E+03  0.7818608E-02  0.1122798E+00
         -2   -1    0    0    0  501 -0.00000000000E+00  0.00000000000E+00  0.38064976718E+02  0.38064976718E+02  0.00000000000E+00 0. -1.
          2   -1    0    0  502    0  0.00000000000E+00 -0.00000000000E+00 -0.15523319510E+04  0.15523319510E+04  0.00000000000E+00 0.  1.
          6    1    1    2  502    0  0.27279835962E+02 -0.15859473804E+03 -0.95365669386E+03  0.98231439475E+03  0.17200000000E+03 0.  1.
         -6    1    1    2    0  501 -0.27279835962E+02  0.15859473804E+03 -0.56061028041E+03  0.60808253295E+03  0.17200000000E+03 0.  1.
</event>
<event>
 4    1  0.8483901E-001  0.2249307E+03  0.7818608E-02  0.1130259E+00
         -1   -1    0    0    0  501 -0.00000000000E+00  0.00000000000E+00  0.39455118468E+03  0.39455118468E+03  0.00000000000E+00 0. -1.
          1   -1    0    0  502    0  0.00000000000E+00 -0.00000000000E+00 -0.15497429437E+03  0.15497429437E+03  0.00000000000E+00 0.  1.
          6    1    1    2  502    0  0.12590027466E+03 -0.71825854186E+02  0.23392705665E+03  0.32452380548E+03  0.17200000000E+03 0. -1.
         -6    1    1    2    0  501 -0.12590027466E+03  0.71825854186E+02  0.56498336592E+01  0.22500167357E+03  0.17200000000E+03 0.  1.
</event>
<event>
 4    1  0.8483901E-001  0.1983285E+03  0.7818608E-02  0.1151157E+00
         -2   -1    0    0    0  501 -0.00000000000E+00  0.00000000000E+00  0.23739464444E+02  0.23739464444E+02  0.00000000000E+00 0.  1.
          2   -1    0    0  502    0  0.00000000000E+00 -0.00000000000E+00 -0.16705931729E+04  0.16705931729E+04  0.00000000000E+00 0. -1.
          6    1    1    2  502    0  0.98229086477E+02 -0.10061117380E+02 -0.74675940061E+03  0.77264725581E+03  0.17200000000E+03 0.  1.
         -6    1    1    2    0  501 -0.98229086477E+02  0.10061117380E+02 -0.90009430781E+03  0.92168538150E+03  0.17200000000E+03 0. -1.
</event>
<event>
 4    1  0.8483901E-001  0.2378926E+03  0.7818608E-02  0.1121205E+00
          2   -1    0    0  502    0  0.00000000000E+00  0.00000000000E+00  0.17170600583E+04  0.17170600583E+04  0.00000000000E+00 0. -1.
         -2   -1    0    0    0  501 -0.00000000000E+00 -0.00000000000E+00 -0.32987567274E+02  0.32987567274E+02  0.00000000000E+00 0.  1.
          6    1    1    2  502    0 -0.11665116891E+03 -0.11576446256E+03  0.86770129529E+03  0.89972131455E+03  0.17200000000E+03 0. -1.
         -6    1    1    2    0  501  0.11665116891E+03  0.11576446256E+03  0.81637119573E+03  0.85032631102E+03  0.17200000000E+03 0.  1.
</event>
<event>
 4    1  0.8483901E-001  0.1761221E+03  0.7818608E-02  0.1171610E+00
          2   -1    0    0  502    0  0.00000000000E+00  0.00000000000E+00  0.10763465684E+04  0.10763465684E+04  0.00000000000E+00 0.  1.
         -2   -1    0    0    0  501 -0.00000000000E+00 -0.00000000000E+00 -0.56955308430E+02  0.56955308430E+02  0.00000000000E+00 0. -1.
          6    1    1    2  502    0  0.11306992035E+02  0.36154596787E+02  0.90797123594E+03  0.92489500389E+03  0.17200000000E+03 0.  1.
         -6    1    1    2    0  501 -0.11306992035E+02 -0.36154596787E+02  0.11142002407E+03  0.20840687297E+03  0.17200000000E+03 0. -1.
</event>
<event>
 4    1  0.8483901E-001  0.2546553E+03  0.7818608E-02  0.1110398E+00
         -1   -1    0    0    0  501 -0.00000000000E+00  0.00000000000E+00  0.45777849318E+02  0.45777849318E+02  0.00000000000E+00 0. -1.
          1   -1    0    0  502    0  0.00000000000E+00 -0.00000000000E+00 -0.14698046248E+04  0.14698046248E+04  0.00000000000E+00 0.  1.
          6    1    1    2  502    0 -0.35350486815E+02 -0.18443330848E+03 -0.56784875654E+03  0.62233553048E+03  0.17200000000E+03 0.  1.
         -6    1    1    2    0  501  0.35350486815E+02  0.18443330848E+03 -0.85617801890E+03  0.89324694360E+03  0.17200000000E+03 0.  1.
</event>
<event>
 4    1  0.8483901E-001  0.1803913E+03  0.7818608E-02  0.1167425E+00
          2   -1    0    0  502    0  0.00000000000E+00  0.00000000000E+00  0.10242948216E+04  0.10242948216E+04  0.00000000000E+00 0. -1.
         -2   -1    0    0    0  501 -0.00000000000E+00 -0.00000000000E+00 -0.33468233632E+02  0.33468233632E+02  0.00000000000E+00 0.  1.
          6    1    1    2  502    0  0.40235411094E+02 -0.36580614376E+02  0.37624995466E+03  0.41725898197E+03  0.17200000000E+03 0.  1.
         -6    1    1    2    0  501 -0.40235411094E+02  0.36580614376E+02  0.61457663326E+03  0.64050407322E+03  0.17200000000E+03 0.  1.
</event>
<event>
 4    1  0.8483901E-001  0.1908324E+03  0.7818608E-02  0.1157713E+00
         -2   -1    0    0    0  501 -0.00000000000E+00  0.00000000000E+00  0.32033483389E+02  0.32033483389E+02  0.00000000000E+00 0.  1.
          2   -1    0    0  502    0  0.00000000000E+00 -0.00000000000E+00 -0.12869583253E+04  0.12869583253E+04  0.00000000000E+00 0. -1.
          6    1    1    2  502    0  0.65462951496E+02  0.50473746424E+02 -0.85270182805E+03  0.87379482984E+03  0.17200000000E+03 0.  1.
         -6    1    1    2    0  501 -0.65462951496E+02 -0.50473746424E+02 -0.40222301386E+03  0.44519697885E+03  0.17200000000E+03 0.  1.
</event>
<event>
 4    1  0.8483901E-001  0.2569054E+03  0.7818608E-02  0.1109017E+00
         -2   -1    0    0    0  501 -0.00000000000E+00  0.00000000000E+00  0.27907595901E+02  0.27907595901E+02  0.00000000000E+00 0.  1.
          2   -1    0    0  502    0  0.00000000000E+00 -0.00000000000E+00 -0.26950618515E+04  0.26950618515E+04  0.00000000000E+00 0. -1.
          6    1    1    2  502    0 -0.18676888178E+03 -0.39163504333E+02 -0.85708989297E+03  0.89476448292E+03  0.17200000000E+03 0.  1.
         -6    1    1    2    0  501  0.18676888178E+03  0.39163504333E+02 -0.18100643627E+04  0.18282049645E+04  0.17200000000E+03 0. -1.
</event>
<event>
 4    1  0.8483901E-001  0.2027167E+03  0.7818608E-02  0.1147467E+00
          2   -1    0    0  502    0  0.00000000000E+00  0.00000000000E+00  0.10626905626E+04  0.10626905626E+04  0.00000000000E+00 0. -1.
         -2   -1    0    0    0  501 -0.00000000000E+00 -0.00000000000E+00 -0.41644973138E+02  0.41644973138E+02  0.00000000000E+00 0.  1.
          6    1    1    2  502    0  0.10207461750E+03 -0.33027780663E+02  0.65810833123E+03  0.68862227488E+03  0.17200000000E+03 0.  1.
         -6    1    1    2    0  501 -0.10207461750E+03  0.33027780663E+02  0.36293725822E+03  0.41571326084E+03  0.17200000000E+03 0. -1.
</event>
<event>
 4    1  0.8483901E-001  0.1723476E+03  0.7818608E-02  0.1175422E+00
          4   -1    0    0  502    0  0.00000000000E+00  0.00000000000E+00  0.23850272588E+03  0.23850272588E+03  0.00000000000E+00 0.  1.
         -4   -1    0    0    0  501 -0.00000000000E+00 -0.00000000000E+00 -0.13157511186E+03  0.13157511186E+03  0.00000000000E+00 0. -1.
          6    1    1    2  502    0  0.99264939118E+01 -0.46000271300E+01  0.96243576823E+02  0.19739939618E+03  0.17200000000E+03 0.  1.
         -6    1    1    2    0  501 -0.99264939118E+01  0.46000271300E+01  0.10684037191E+02  0.17267844157E+03  0.17200000000E+03 0. -1.
</event>
<event>
 4    1  0.8483901E-001  0.2173801E+03  0.7818608E-02  0.1135851E+00
          3   -1    0    0  502    0  0.00000000000E+00  0.00000000000E+00  0.58787409579E+02  0.58787409579E+02  0.00000000000E+00 0.  1.
         -3   -1    0    0    0  501 -0.00000000000E+00 -0.00000000000E+00 -0.80575826918E+03  0.80575826918E+03  0.00000000000E+00 0. -1.
          6    1    1    2  502    0 -0.10520330419E+03  0.81255035869E+02 -0.39472201199E+03  0.45062132974E+03  0.17200000000E+03 0. -1.
         -6    1    1    2    0  501  0.10520330419E+03 -0.81255035869E+02 -0.35224884760E+03  0.41392434901E+03  0.17200000000E+03 0. -1.
</event>
<event>
 4    1  0.8483901E-001  0.1793983E+03  0.7818608E-02  0.1168387E+00
          2   -1    0    0  502    0  0.00000000000E+00  0.00000000000E+00  0.21335647101E+04  0.21335647101E+04  0.00000000000E+00 0.  1.
         -2   -1    0    0    0  501 -0.00000000000E+00 -0.00000000000E+00 -0.15253606701E+02  0.15253606701E+02  0.00000000000E+00 0. -1.
          6    1    1    2  502    0  0.29938932593E+02  0.41272371156E+02  0.11722832605E+04  0.11859307700E+04  0.17200000000E+03 0.  1.
         -6    1    1    2    0  501 -0.29938932593E+02 -0.41272371156E+02  0.94602784285E+03  0.96288754678E+03  0.17200000000E+03 0. -1.
</event>
<event>
 4    1  0.8483901E-001  0.2394947E+03  0.7818608E-02  0.1120130E+00
         -1   -1    0    0    0  501 -0.00000000000E+00  0.00000000000E+00  0.38891382707E+02  0.38891382707E+02  0.00000000000E+00 0. -1.
          1   -1    0    0  502    0  0.00000000000E+00 -0.00000000000E+00 -0.19374897655E+04  0.19374897655E+04  0.00000000000E+00 0.  1.
          6    1    1    2  502    0 -0.14080718125E+03  0.89146252685E+02 -0.46639893931E+03  0.52429541983E+03  0.17200000000E+03 0. -1.
         -6    1    1    2    0  501  0.14080718125E+03 -0.89146252685E+02 -0.14321994435E+04  0.14520857284E+04  0.17200000000E+03 0.  1.
</event>
<event>
 4    1  0.8483901E-001  0.1751585E+03  0.7818608E-02  0.1172573E+00
         -1   -1    0    0    0  501 -0.00000000000E+00  0.00000000000E+00  0.57194263092E+02  0.57194263092E+02  0.00000000000E+00 0.  1.
          1   -1    0    0  502    0  0.00000000000E+00 -0.00000000000E+00 -0.84760705007E+03  0.84760705007E+03  0.00000000000E+00 0. -1.
          6    1    1    2  502    0  0.24875408385E+02 -0.21856734162E+02 -0.12109167289E+03  0.21294059269E+03  0.17200000000E+03 0.  1.
         -6    1    1    2    0  501 -0.24875408385E+02  0.21856734162E+02 -0.66932111409E+03  0.69186072047E+03  0.17200000000E+03 0. -1.
</event>
<event>
 4    1  0.8483901E-001  0.2039164E+03  0.7818608E-02  0.1146476E+00
          2   -1    0    0  502    0  0.00000000000E+00  0.00000000000E+00  0.44340333686E+02  0.44340333686E+02  0.00000000000E+00 0.  1.
         -2   -1    0    0    0  501 -0.00000000000E+00 -0.00000000000E+00 -0.16004043727E+04  0.16004043727E+04  0.00000000000E+00 0. -1.
          6    1    1    2  502    0  0.86103836929E+02 -0.67705532548E+02 -0.24887550266E+03  0.32174667939E+03  0.17200000000E+03 0.  1.
         -6    1    1    2    0  501 -0.86103836929E+02  0.67705532548E+02 -0.13071885364E+04  0.13229980270E+04  0.17200000000E+03 0. -1.
</event>
<event>
 4    1  0.8483901E-001  0.2577841E+03  0.7818608E-02  0.1108482E+00
         -2   -1    0    0    0  501 -0.00000000000E+00  0.00000000000E+00  0.84770839664E+02  0.84770839664E+02  0.00000000000E+00 0.  1.
          2   -1    0    0  502    0  0.00000000000E+00 -0.00000000000E+00 -0.10428577326E+04  0.10428577326E+04  0.00000000000E+00 0. -1.
          6    1    1    2  502    0  0.16125257968E+03 -0.10424138140E+03 -0.75999412339E+03  0.80252335021E+03  0.17200000000E+03 0. -1.
         -6    1    1    2    0  501 -0.16125257968E+03  0.10424138140E+03 -0.19809276952E+03  0.32510522202E+03  0.17200000000E+03 0.  1.
</event>
<event>
 4    1  0.8483901E-001  0.2160115E+03  0.7818608E-02  0.1136892E+00
          1   -1    0    0  502    0  0.00000000000E+00  0.00000000000E+00  0.67475612101E+03  0.67475612101E+03  0.00000000000E+00 0. -1.
         -1   -1    0    0    0  501 -0.00000000000E+00 -0.00000000000E+00 -0.80304568441E+02  0.80304568441E+02  0.00000000000E+00 0.  1.
          6    1    1    2  502    0 -0.72442086269E+02  0.10876171045E+03  0.43791555383E+03  0.48829396659E+03  0.17200000000E+03 0. -1.
         -6    1    1    2    0  501  0.72442086269E+02 -0.10876171045E+03  0.15653599874E+03  0.26676672286E+03  0.17200000000E+03 0.  1.
</event>
<event>
 4    1  0.8483901E-001  0.2333695E+03  0.7818608E-02  0.1124290E+00
          2   -1    0    0  502    0  0.00000000000E+00  0.00000000000E+00  0.23409059142E+04  0.23409059142E+04  0.00000000000E+00 0. -1.
         -2   -1    0    0    0  501 -0.00000000000E+00 -0.00000000000E+00 -0.25518883821E+02  0.25518883821E+02  0.00000000000E+00 0.  1.
          6    1    1    2  502    0 -0.17729514952E+02  0.15672585869E+03  0.15093278572E+04  0.15272628821E+04  0.17200000000E+03 0. -1.
         -6    1    1    2    0  501  0.17729514952E+02 -0.15672585869E+03  0.80605917316E+03  0.83916191592E+03  0.17200000000E+03 0.  1.
</event>
<event>
 4    1  0.8483901E-001  0.2996809E+03  0.7818608E-02  0.1085400E+00
         -2   -1    0    0    0  501 -0.00000000000E+00  0.00000000000E+00  0.34409520985E+02  0.34409520985E+02  0.00000000000E+00 0. -1.
          2   -1    0    0  502    0  0.00000000000E+00 -0.00000000000E+00 -0.26158194614E+04  0.26158194614E+04  0.00000000000E+00 0.  1.
          6    1    1    2  502    0  0.18821810143E+03  0.15747576656E+03 -0.13532344693E+04  0.13860202739E+04  0.17200000000E+03 0.  1.
         -6    1    1    2    0  501 -0.18821810143E+03 -0.15747576656E+03 -0.12281754711E+04  0.12642087085E+04  0.17200000000E+03 0. -1.
</event>
<event>
 4    1  0.8483901E-001  0.2119878E+03  0.7818608E-02  0.1140001E+00
         -2   -1    0    0    0  501 -0.00000000000E+00  0.00000000000E+00  0.12372899870E+03  0.12372899870E+03  0.00000000000E+00 0. -1.
          2   -1    0    0  502    0  0.00000000000E+00 -0.00000000000E+00 -0.59347037367E+03  0.59347037367E+03  0.00000000000E+00 0.  1.
          6    1    1    2  502    0 -0.82743486528E+01  0.12363801481E+03 -0.45824127019E+03  0.50489987646E+03  0.17200000000E+03 0.  1.
         -6    1    1    2    0  501  0.82743486528E+01 -0.12363801481E+03 -0.11500104793E+02  0.21229949591E+03  0.17200000000E+03 0. -1.
</event>
<event>
 4    1  0.8483901E-001  0.1791950E+03  0.7818608E-02  0.1168584E+00
         -4   -1    0    0    0  501 -0.00000000000E+00  0.00000000000E+00  0.50844598707E+03  0.50844598707E+03  0.00000000000E+00 0. -1.
          4   -1    0    0  502    0  0.00000000000E+00 -0.00000000000E+00 -0.69188861620E+02  0.69188861620E+02  0.00000000000E+00 0.  1.
          6    1    1    2  502    0 -0.45508405239E+02 -0.21349934025E+02  0.13433661251E+03  0.22395794268E+03  0.17200000000E+03 0.  1.
         -6    1    1    2    0  501  0.45508405239E+02  0.21349934025E+02  0.30492051294E+03  0.35367690601E+03  0.17200000000E+03 0. -1.
</event>
<event>
 4    1  0.8483901E-001  0.1868068E+03  0.7818608E-02  0.1161373E+00
          1   -1    0    0  502    0  0.00000000000E+00  0.00000000000E+00  0.12592820358E+04  0.12592820358E+04  0.00000000000E+00 0. -1.
         -1   -1    0    0    0  501 -0.00000000000E+00 -0.00000000000E+00 -0.48379985794E+02  0.48379985794E+02  0.00000000000E+00 0.  1.
          6    1    1    2  502    0 -0.14125075804E+02  0.71506961986E+02  0.17809919785E+03  0.25810092532E+03  0.17200000000E+03 0.  1.
         -6    1    1    2    0  501  0.14125075804E+02 -0.71506961986E+02  0.10328028522E+04  0.10495610963E+04  0.17200000000E+03 0. -1.
</event>
<event>
 4    1  0.8483901E-001  0.1779556E+03  0.7818608E-02  0.1169796E+00
         -2   -1    0    0    0  501 -0.00000000000E+00  0.00000000000E+00  0.98555874239E+03  0.98555874239E+03  0.00000000000E+00 0.  1.
          2   -1    0    0  502    0  0.00000000000E+00 -0.00000000000E+00 -0.45385244602E+02  0.45385244602E+02  0.00000000000E+00 0. -1.
          6    1    1    2  502    0  0.45648549190E+02  0.64604164359E+00  0.19153560119E+03  0.26144615877E+03  0.17200000000E+03 0. -1.
         -6    1    1    2    0  501 -0.45648549190E+02 -0.64604164359E+00  0.74863789660E+03  0.76949782822E+03  0.17200000000E+03 0.  1.
</event>
<event>
 4    1  0.8483901E-001  0.2134341E+03  0.7818608E-02  0.1138875E+00
         -2   -1    0    0    0  501 -0.00000000000E+00  0.00000000000E+00  0.41767494966E+03  0.41767494966E+03  0.00000000000E+00 0. -1.
          2   -1    0    0  502    0  0.00000000000E+00 -0.00000000000E+00 -0.53203423115E+03  0.53203423115E+03  0.00000000000E+00 0.  1.
          6    1    1    2  502    0 -0.63729992332E+02  0.10912652279E+03 -0.48057369945E+03  0.52583760849E+03  0.17200000000E+03 0.  1.
         -6    1    1    2    0  501  0.63729992332E+02 -0.10912652279E+03  0.36621441796E+03  0.42387157232E+03  0.17200000000E+03 0. -1.
</event>
<event>
 4    1  0.8483901E-001  0.2226482E+03  0.7818608E-02  0.1131924E+00
          2   -1    0    0  502    0  0.00000000000E+00  0.00000000000E+00  0.22290100689E+04  0.22290100689E+04  0.00000000000E+00 0.  1.
         -2   -1    0    0    0  501 -0.00000000000E+00 -0.00000000000E+00 -0.22255788896E+02  0.22255788896E+02  0.00000000000E+00 0. -1.
          6    1    1    2  502    0  0.13948735683E+03 -0.23054508399E+02  0.10729934733E+04  0.10958500020E+04  0.17200000000E+03 0.  1.
         -6    1    1    2    0  501 -0.13948735683E+03  0.23054508399E+02  0.11337608067E+04  0.11554158558E+04  0.17200000000E+03 0. -1.
</event>
<event>
 4    1  0.8483901E-001  0.1915191E+03  0.7818608E-02  0.1157098E+00
          2   -1    0    0  502    0  0.00000000000E+00  0.00000000000E+00  0.38934207081E+03  0.38934207081E+03  0.00000000000E+00 0.  1.
         -2   -1    0    0    0  501 -0.00000000000E+00 -0.00000000000E+00 -0.25569669035E+03  0.25569669035E+03  0.00000000000E+00 0. -1.
          6    1    1    2  502    0  0.24483712353E+02  0.80598575662E+02 -0.18948567689E+03  0.26941492965E+03  0.17200000000E+03 0. -1.
         -6    1    1    2    0  501 -0.24483712353E+02 -0.80598575662E+02  0.32313105736E+03  0.37562383151E+03  0.17200000000E+03 0. -1.
</event>
<event>
 4    1  0.8483901E-001  0.1834158E+03  0.7818608E-02  0.1164538E+00
          1   -1    0    0  502    0  0.00000000000E+00  0.00000000000E+00  0.87758607479E+03  0.87758607479E+03  0.00000000000E+00 0. -1.
         -1   -1    0    0    0  501 -0.00000000000E+00 -0.00000000000E+00 -0.38574630915E+02  0.38574630915E+02  0.00000000000E+00 0.  1.
          6    1    1    2  502    0  0.61611265932E+02 -0.16168218859E+02  0.45568770768E+03  0.49121547851E+03  0.17200000000E+03 0. -1.
         -6    1    1    2    0  501 -0.61611265932E+02  0.16168218859E+02  0.38332373619E+03  0.42494522720E+03  0.17200000000E+03 0.  1.
</event>
<event>
 4    1  0.8483901E-001  0.1859480E+03  0.7818608E-02  0.1162168E+00
         -1   -1    0    0    0  501 -0.00000000000E+00  0.00000000000E+00  0.13340335997E+04  0.13340335997E+04  0.00000000000E+00 0.  1.
          1   -1    0    0  502    0  0.00000000000E+00 -0.00000000000E+00 -0.27946820455E+02  0.27946820455E+02  0.00000000000E+00 0. -1.
          6    1    1    2  502    0 -0.69779739573E+02 -0.11110003905E+02  0.83648728858E+03  0.85690584559E+03  0.17200000000E+03 0.  1.
         -6    1    1    2    0  501  0.69779739573E+02  0.11110003905E+02  0.46959949062E+03  0.50507457453E+03  0.17200000000E+03 0.  1.
</event>
<event>
 4    1  0.8483901E-001  0.2187202E+03  0.7818608E-02  0.1134841E+00
          2   -1    0    0  502    0  0.00000000000E+00  0.00000000000E+00  0.16040263213E+04  0.16040263213E+04  0.00000000000E+00 0. -1.
         -2   -1    0    0    0  501 -0.00000000000E+00 -0.00000000000E+00 -0.48265731175E+02  0.48265731175E+02  0.00000000000E+00 0.  1.
          6    1    1    2  502    0 -0.13466522664E+03  0.10945064556E+02  0.26721311460E+03  0.34531343200E+03  0.17200000000E+03 0.  1.
         -6    1    1    2    0  501  0.13466522664E+03 -0.10945064556E+02  0.12885474756E+04  0.13069786205E+04  0.17200000000E+03 0. -1.
</event>
<event>
 4    1  0.8483901E-001  0.2043771E+03  0.7818608E-02  0.1146098E+00
         -2   -1    0    0    0  501 -0.00000000000E+00  0.00000000000E+00  0.40074068949E+03  0.40074068949E+03  0.00000000000E+00 0.  1.
          2   -1    0    0  502    0  0.00000000000E+00 -0.00000000000E+00 -0.13656228161E+03  0.13656228161E+03  0.00000000000E+00 0. -1.
          6    1    1    2  502    0  0.96973942380E+02 -0.52745047210E+02  0.13731555321E+01  0.20438167986E+03  0.17200000000E+03 0. -1.
         -6    1    1    2    0  501 -0.96973942380E+02  0.52745047210E+02  0.26280525235E+03  0.33292129125E+03  0.17200000000E+03 0.  1.
</event>
<event>
 4    1  0.8483901E-001  0.1777964E+03  0.7818608E-02  0.1169953E+00
         -2   -1    0    0    0  501 -0.00000000000E+00  0.00000000000E+00  0.13942886663E+02  0.13942886663E+02  0.00000000000E+00 0. -1.
          2   -1    0    0  502    0  0.00000000000E+00 -0.00000000000E+00 -0.38939658689E+04  0.38939658689E+04  0.00000000000E+00 0.  1.
          6    1    1    2  502    0 -0.43417571731E+02  0.11935890815E+02 -0.32029394935E+04  0.32078704697E+04  0.17200000000E+03 0.  1.
         -6    1    1    2    0  501  0.43417571731E+02 -0.11935890815E+02 -0.67708348876E+03  0.70003828593E+03  0.17200000000E+03 0. -1.
</event>
<event>
 4    1  0.8483901E-001  0.1926971E+03  0.7818608E-02  0.1156051E+00
          2   -1    0    0  502    0  0.00000000000E+00  0.00000000000E+00  0.20852204593E+04  0.20852204593E+04  0.00000000000E+00 0.  1.
         -2   -1    0    0    0  501 -0.00000000000E+00 -0.00000000000E+00 -0.20807669760E+02  0.20807669760E+02  0.00000000000E+00 0. -1.
          6    1    1    2  502    0  0.55986979381E+02  0.66435272174E+02  0.14320668137E+04  0.14449731991E+04  0.17200000000E+03 0.  1.
         -6    1    1    2    0  501 -0.55986979381E+02 -0.66435272174E+02  0.63234597584E+03  0.66105492995E+03  0.17200000000E+03 0. -1.
</event>
<event>
 4    1  0.8483901E-001  0.1755954E+03  0.7818608E-02  0.1172135E+00
          2   -1    0    0  502    0  0.00000000000E+00  0.00000000000E+00  0.13372608879E+04  0.13372608879E+04  0.00000000000E+00 0.  1.
         -2   -1    0    0    0  501 -0.00000000000E+00 -0.00000000000E+00 -0.26818191619E+02  0.26818191619E+02  0.00000000000E+00 0. -1.
          6    1    1    2  502    0  0.32875931342E+02 -0.12997192180E+02  0.91062945213E+03  0.92740484846E+03  0.17200000000E+03 0.  1.
         -6    1    1    2    0  501 -0.32875931342E+02  0.12997192180E+02  0.39981324411E+03  0.43667423101E+03  0.17200000000E+03 0. -1.
</event>
<event>
 4    1  0.8483901E-001  0.1911310E+03  0.7818608E-02  0.1157445E+00
         -3   -1    0    0    0  501 -0.00000000000E+00  0.00000000000E+00  0.24651187120E+02  0.24651187120E+02  0.00000000000E+00 0. -1.
          3   -1    0    0  502    0  0.00000000000E+00 -0.00000000000E+00 -0.15877816321E+04  0.15877816321E+04  0.00000000000E+00 0.  1.
          6    1    1    2  502    0  0.62203147753E+02 -0.55478058406E+02 -0.57339005495E+03  0.60440648712E+03  0.17200000000E+03 0. -1.
         -6    1    1    2    0  501 -0.62203147753E+02  0.55478058406E+02 -0.98974039001E+03  0.10080263321E+04  0.17200000000E+03 0.  1.
</event>
<event>
 4    1  0.8483901E-001  0.1754015E+03  0.7818608E-02  0.1172329E+00
          2   -1    0    0  502    0  0.00000000000E+00  0.00000000000E+00  0.87336054305E+03  0.87336054305E+03  0.00000000000E+00 0. -1.
         -2   -1    0    0    0  501 -0.00000000000E+00 -0.00000000000E+00 -0.36726007419E+02  0.36726007419E+02  0.00000000000E+00 0.  1.
          6    1    1    2  502    0 -0.33852696563E+02 -0.59734929522E+01  0.51025595073E+03  0.53956169521E+03  0.17200000000E+03 0. -1.
         -6    1    1    2    0  501  0.33852696563E+02  0.59734929522E+01  0.32637858490E+03  0.37052485525E+03  0.17200000000E+03 0.  1.
</event>
<event>
 4    1  0.8483901E-001  0.1876732E+03  0.7818608E-02  0.1160577E+00
          3   -1    0    0  502    0  0.00000000000E+00  0.00000000000E+00  0.10487263999E+04  0.10487263999E+04  0.00000000000E+00 0. -1.
         -3   -1    0    0    0  501 -0.00000000000E+00 -0.00000000000E+00 -0.35577283174E+02  0.35577283174E+02  0.00000000000E+00 0.  1.
          6    1    1    2  502    0 -0.53787483883E+02  0.52384457581E+02  0.63487737743E+03  0.66203512685E+03  0.17200000000E+03 0.  1.
         -6    1    1    2    0  501  0.53787483883E+02 -0.52384457581E+02  0.37827173927E+03  0.42226855619E+03  0.17200000000E+03 0.  1.
</event>
<event>
 4    1  0.8483901E-001  0.1854035E+03  0.7818608E-02  0.1162674E+00
         -2   -1    0    0    0  501 -0.00000000000E+00  0.00000000000E+00  0.25836272731E+02  0.25836272731E+02  0.00000000000E+00 0. -1.
          2   -1    0    0  502    0  0.00000000000E+00 -0.00000000000E+00 -0.22151210072E+04  0.22151210072E+04  0.00000000000E+00 0.  1.
          6    1    1    2  502    0  0.36626407564E+02 -0.58727725717E+02 -0.18027354172E+04  0.18122443058E+04  0.17200000000E+03 0.  1.
         -6    1    1    2    0  501 -0.36626407564E+02  0.58727725717E+02 -0.38654931724E+03  0.42871297410E+03  0.17200000000E+03 0. -1.
</event>
<event>
 4    1  0.8483901E-001  0.1938272E+03  0.7818608E-02  0.1155054E+00
          2   -1    0    0  502    0  0.00000000000E+00  0.00000000000E+00  0.58506051570E+03  0.58506051570E+03  0.00000000000E+00 0. -1.
         -2   -1    0    0    0  501 -0.00000000000E+00 -0.00000000000E+00 -0.12276147137E+03  0.12276147137E+03  0.00000000000E+00 0.  1.
          6    1    1    2  502    0 -0.24912553708E+02  0.85815758210E+02  0.47555880264E+03  0.51354177480E+03  0.17200000000E+03 0. -1.
         -6    1    1    2    0  501  0.24912553708E+02 -0.85815758210E+02 -0.13259758317E+02  0.19428021227E+03  0.17200000000E+03 0.  1.
</event>
<event>
 4    1  0.8483901E-001  0.1912155E+03  0.7818608E-02  0.1157370E+00
          2   -1    0    0  502    0  0.00000000000E+00  0.00000000000E+00  0.16793401581E+04  0.16793401581E+04  0.00000000000E+00 0. -1.
         -2   -1    0    0    0  501 -0.00000000000E+00 -0.00000000000E+00 -0.25761594557E+02  0.25761594557E+02  0.00000000000E+00 0.  1.
          6    1    1    2  502    0  0.55056417604E+02  0.62834344791E+02  0.11622744739E+04  0.11778986869E+04  0.17200000000E+03 0. -1.
         -6    1    1    2    0  501 -0.55056417604E+02 -0.62834344791E+02  0.49130408961E+03  0.52720306569E+03  0.17200000000E+03 0.  1.
</event>
<event>
 4    1  0.8483901E-001  0.2083142E+03  0.7818608E-02  0.1142908E+00
          2   -1    0    0  502    0  0.00000000000E+00  0.00000000000E+00  0.10530272053E+04  0.10530272053E+04  0.00000000000E+00 0. -1.
         -2   -1    0    0    0  501 -0.00000000000E+00 -0.00000000000E+00 -0.41216156620E+02  0.41216156620E+02  0.00000000000E+00 0.  1.
          6    1    1    2  502    0  0.11594124830E+03  0.19194288269E+02  0.49898682388E+03  0.54072418492E+03  0.17200000000E+03 0. -1.
         -6    1    1    2    0  501 -0.11594124830E+03 -0.19194288269E+02  0.51282422480E+03  0.55351917700E+03  0.17200000000E+03 0. -1.
</event>
<event>
 4    1  0.8483901E-001  0.1756394E+03  0.7818608E-02  0.1172091E+00
          2   -1    0    0  502    0  0.00000000000E+00  0.00000000000E+00  0.96041069075E+03  0.96041069075E+03  0.00000000000E+00 0.  1.
         -2   -1    0    0    0  501 -0.00000000000E+00 -0.00000000000E+00 -0.32725487517E+02  0.32725487517E+02  0.00000000000E+00 0. -1.
          6    1    1    2  502    0 -0.26596035897E+02  0.23618929057E+02  0.53133969718E+03  0.55961690176E+03  0.17200000000E+03 0.  1.
         -6    1    1    2    0  501  0.26596035897E+02 -0.23618929057E+02  0.39634550605E+03  0.43351927650E+03  0.17200000000E+03 0.  1.
</event>
<event>
 4    1  0.8483901E-001  0.2100755E+03  0.7818608E-02  0.1141506E+00
          2   -1    0    0  502    0  0.00000000000E+00  0.00000000000E+00  0.16113035610E+03  0.16113035610E+03  0.00000000000E+00 0.  1.
         -2   -1    0    0    0  501 -0.00000000000E+00 -0.00000000000E+00 -0.31351159701E+03  0.31351159701E+03  0.00000000000E+00 0. -1.
          6    1    1    2  502    0 -0.26455192861E+02  0.11767687613E+03 -0.16055992189E+03  0.26440728606E+03  0.17200000000E+03 0. -1.
         -6    1    1    2    0  501  0.26455192861E+02 -0.11767687613E+03  0.81786809860E+01  0.21023466704E+03  0.17200000000E+03 0.  1.
</event>
<event>
 4    1  0.8483901E-001  0.2294556E+03  0.7818608E-02  0.1127024E+00
         -1   -1    0    0    0  501 -0.00000000000E+00  0.00000000000E+00  0.34634701311E+03  0.34634701311E+03  0.00000000000E+00 0. -1.
          1   -1    0    0  502    0  0.00000000000E+00 -0.00000000000E+00 -0.16163947105E+03  0.16163947105E+03  0.00000000000E+00 0.  1.
          6    1    1    2  502    0  0.33020268235E+02  0.14824149576E+03  0.15433225181E+03  0.27652906380E+03  0.17200000000E+03 0.  1.
         -6    1    1    2    0  501 -0.33020268235E+02 -0.14824149576E+03  0.30375290260E+02  0.23145742036E+03  0.17200000000E+03 0.  1.
</event>
<event>
 4    1  0.8483901E-001  0.1835784E+03  0.7818608E-02  0.1164384E+00
          1   -1    0    0  502    0  0.00000000000E+00  0.00000000000E+00  0.42404568986E+03  0.42404568986E+03  0.00000000000E+00 0.  1.
         -1   -1    0    0    0  501 -0.00000000000E+00 -0.00000000000E+00 -0.95559737202E+02  0.95559737202E+02  0.00000000000E+00 0. -1.
          6    1    1    2  502    0  0.55984394442E+02 -0.31349342429E+02  0.27083215481E+03  0.32718662835E+03  0.17200000000E+03 0. -1.
         -6    1    1    2    0  501 -0.55984394442E+02  0.31349342429E+02  0.57653797851E+02  0.19241879871E+03  0.17200000000E+03 0. -1.
</event>
<event>
 4    1  0.8483901E-001  0.2107043E+03  0.7818608E-02  0.1141009E+00
          1   -1    0    0  502    0  0.00000000000E+00  0.00000000000E+00  0.92334844398E+03  0.92334844398E+03  0.00000000000E+00 0.  1.
         -1   -1    0    0    0  501 -0.00000000000E+00 -0.00000000000E+00 -0.90115175046E+02  0.90115175046E+02  0.00000000000E+00 0. -1.
          6    1    1    2  502    0  0.24463535355E+02 -0.11922185039E+03  0.76269623732E+03  0.79126598852E+03  0.17200000000E+03 0.  1.
         -6    1    1    2    0  501 -0.24463535355E+02  0.11922185039E+03  0.70537031618E+02  0.22219763051E+03  0.17200000000E+03 0. -1.
</event>
<event>
 4    1  0.8483901E-001  0.2452545E+03  0.7818608E-02  0.1116341E+00
         -2   -1    0    0    0  501 -0.00000000000E+00  0.00000000000E+00  0.16549857558E+03  0.16549857558E+03  0.00000000000E+00 0. -1.
          2   -1    0    0  502    0  0.00000000000E+00 -0.00000000000E+00 -0.50001099237E+03  0.50001099237E+03  0.00000000000E+00 0.  1.
          6    1    1    2  502    0 -0.16943289771E+03  0.43107461077E+02  0.66457862033E+01  0.24534450575E+03  0.17200000000E+03 0. -1.
         -6    1    1    2    0  501  0.16943289771E+03 -0.43107461077E+02 -0.34115820299E+03  0.42016506220E+03  0.17200000000E+03 0.  1.
</event>
<event>
 4    1  0.8483901E-001  0.2045089E+03  0.7818608E-02  0.1145990E+00
         -1   -1    0    0    0  501 -0.00000000000E+00  0.00000000000E+00  0.77290866014E+02  0.77290866014E+02  0.00000000000E+00 0. -1.
          1   -1    0    0  502    0  0.00000000000E+00 -0.00000000000E+00 -0.54112421057E+03  0.54112421057E+03  0.00000000000E+00 0.  1.
          6    1    1    2  502    0 -0.12431888345E+02 -0.10993334183E+03 -0.23230908371E+03  0.30950186085E+03  0.17200000000E+03 0. -1.
         -6    1    1    2    0  501  0.12431888345E+02  0.10993334183E+03 -0.23152426084E+03  0.30891321573E+03  0.17200000000E+03 0. -1.
</event>
<event>
 4    1  0.8483901E-001  0.1846783E+03  0.7818608E-02  0.1163351E+00
          1   -1    0    0  502    0  0.00000000000E+00  0.00000000000E+00  0.96593740698E+03  0.96593740698E+03  0.00000000000E+00 0.  1.
         -1   -1    0    0    0  501 -0.00000000000E+00 -0.00000000000E+00 -0.40040486745E+02  0.40040486745E+02  0.00000000000E+00 0. -1.
          6    1    1    2  502    0  0.45670942837E+02 -0.49358138583E+02  0.29003922955E+03  0.34384417335E+03  0.17200000000E+03 0. -1.
         -6    1    1    2    0  501 -0.45670942837E+02  0.49358138583E+02  0.63585769068E+03  0.66213372038E+03  0.17200000000E+03 0.  1.
</event>
<event>
 4    1  0.8483901E-001  0.2758938E+03  0.7818608E-02  0.1097953E+00
         -2   -1    0    0    0  501 -0.00000000000E+00  0.00000000000E+00  0.21686706997E+03  0.21686706997E+03  0.00000000000E+00 0. -1.
          2   -1    0    0  502    0  0.00000000000E+00 -0.00000000000E+00 -0.41192641450E+03  0.41192641450E+03  0.00000000000E+00 0.  1.
          6    1    1    2  502    0 -0.40500075073E+02 -0.21188000398E+03 -0.21845561812E+03  0.35190943331E+03  0.17200000000E+03 0. -1.
         -6    1    1    2    0  501  0.40500075073E+02  0.21188000398E+03  0.23396273598E+02  0.27688405116E+03  0.17200000000E+03 0. -1.
</event>
<event>
 4    1  0.8483901E-001  0.2319962E+03  0.7818608E-02  0.1125243E+00
          1   -1    0    0  502    0  0.00000000000E+00  0.00000000000E+00  0.45146007149E+03  0.45146007149E+03  0.00000000000E+00 0. -1.
         -1   -1    0    0    0  501 -0.00000000000E+00 -0.00000000000E+00 -0.12237745559E+03  0.12237745559E+03  0.00000000000E+00 0.  1.
          6    1    1    2  502    0  0.14473339160E+03  0.57362756544E+02  0.11844107169E+03  0.26048133895E+03  0.17200000000E+03 0.  1.
         -6    1    1    2    0  501 -0.14473339160E+03 -0.57362756544E+02  0.21064154422E+03  0.31335618812E+03  0.17200000000E+03 0. -1.
</event>
<event>
 4    1  0.8483901E-001  0.3286296E+03  0.7818608E-02  0.1071745E+00
          1   -1    0    0  502    0  0.00000000000E+00  0.00000000000E+00  0.83339174267E+03  0.83339174267E+03  0.00000000000E+00 0.  1.
         -1   -1    0    0    0  501 -0.00000000000E+00 -0.00000000000E+00 -0.16473612772E+03  0.16473612772E+03  0.00000000000E+00 0. -1.
          6    1    1    2  502    0 -0.27936304960E+03  0.19228209924E+02  0.10380503523E+03  0.34463447720E+03  0.17200000000E+03 0. -1.
         -6    1    1    2    0  501  0.27936304960E+03 -0.19228209924E+02  0.56485057972E+03  0.65349339320E+03  0.17200000000E+03 0.  1.
</event>
<event>
 4    1  0.8483901E-001  0.1842591E+03  0.7818608E-02  0.1163744E+00
         -2   -1    0    0    0  501 -0.00000000000E+00  0.00000000000E+00  0.27149731308E+03  0.27149731308E+03  0.00000000000E+00 0.  1.
          2   -1    0    0  502    0  0.00000000000E+00 -0.00000000000E+00 -0.17987637687E+03  0.17987637687E+03  0.00000000000E+00 0. -1.
          6    1    1    2  502    0  0.65647707691E+02  0.76031093585E+01 -0.78785471666E+02  0.20039605621E+03  0.17200000000E+03 0. -1.
         -6    1    1    2    0  501 -0.65647707691E+02 -0.76031093585E+01  0.17040640787E+03  0.25097763375E+03  0.17200000000E+03 0.  1.
</event>
<event>
 4    1  0.8483901E-001  0.1818221E+03  0.7818608E-02  0.1166051E+00
          2   -1    0    0  502    0  0.00000000000E+00  0.00000000000E+00  0.35175965568E+03  0.35175965568E+03  0.00000000000E+00 0. -1.
         -2   -1    0    0    0  501 -0.00000000000E+00 -0.00000000000E+00 -0.10893593702E+03  0.10893593702E+03  0.00000000000E+00 0.  1.
          6    1    1    2  502    0 -0.25873960468E+02  0.52969879615E+02  0.20675492499E+03  0.27533047231E+03  0.17200000000E+03 0. -1.
         -6    1    1    2    0  501  0.25873960468E+02 -0.52969879615E+02  0.36068793673E+02  0.18536512038E+03  0.17200000000E+03 0.  1.
</event>
<event>
 4    1  0.8483901E-001  0.2558866E+03  0.7818608E-02  0.1109640E+00
         -4   -1    0    0    0  501 -0.00000000000E+00  0.00000000000E+00  0.12173710969E+03  0.12173710969E+03  0.00000000000E+00 0. -1.
          4   -1    0    0  502    0  0.00000000000E+00 -0.00000000000E+00 -0.67511331126E+03  0.67511331126E+03  0.00000000000E+00 0.  1.
          6    1    1    2  502    0  0.17796294650E+03  0.64985740382E+02 -0.45633273000E+03  0.52318019577E+03  0.17200000000E+03 0.  1.
         -6    1    1    2    0  501 -0.17796294650E+03 -0.64985740382E+02 -0.97043471572E+02  0.27367022519E+03  0.17200000000E+03 0. -1.
</event>
<event>
 4    1  0.8483901E-001  0.3149456E+03  0.7818608E-02  0.1077999E+00
          2   -1    0    0  502    0  0.00000000000E+00  0.00000000000E+00  0.59473969445E+03  0.59473969445E+03  0.00000000000E+00 0. -1.
         -2   -1    0    0    0  501 -0.00000000000E+00 -0.00000000000E+00 -0.16737968242E+03  0.16737968242E+03  0.00000000000E+00 0.  1.
          6    1    1    2  502    0 -0.10965004401E+03 -0.23996577211E+03  0.23648823284E+03  0.39384944866E+03  0.17200000000E+03 0.  1.
         -6    1    1    2    0  501  0.10965004401E+03  0.23996577211E+03  0.19087177919E+03  0.36826992821E+03  0.17200000000E+03 0. -1.
</event>
<event>
 4    1  0.8483901E-001  0.2439227E+03  0.7818608E-02  0.1117207E+00
          2   -1    0    0  502    0  0.00000000000E+00  0.00000000000E+00  0.31303318145E+03  0.31303318145E+03  0.00000000000E+00 0. -1.
         -2   -1    0    0    0  501 -0.00000000000E+00 -0.00000000000E+00 -0.19518344266E+03  0.19518344266E+03  0.00000000000E+00 0.  1.
          6    1    1    2  502    0  0.10275611730E+03  0.13912383408E+03  0.17795873888E+02  0.24457095899E+03  0.17200000000E+03 0. -1.
         -6    1    1    2    0  501 -0.10275611730E+03 -0.13912383408E+03  0.10005386491E+03  0.26364566512E+03  0.17200000000E+03 0. -1.
</event>
<event>
 4    1  0.8483901E-001  0.2757049E+03  0.7818608E-02  0.1098058E+00
         -2   -1    0    0    0  501 -0.00000000000E+00  0.00000000000E+00  0.53929338473E+02  0.53929338473E+02  0.00000000000E+00 0. -1.
          2   -1    0    0  502    0  0.00000000000E+00 -0.00000000000E+00 -0.14120092498E+04  0.14120092498E+04  0.00000000000E+00 0.  1.
          6    1    1    2  502    0  0.11122647821E+03  0.18454777544E+03 -0.70996044508E+03  0.76161476118E+03  0.17200000000E+03 0. -1.
         -6    1    1    2    0  501 -0.11122647821E+03 -0.18454777544E+03 -0.64811946623E+03  0.70432382708E+03  0.17200000000E+03 0. -1.
</event>
<event>
 4    1  0.8483901E-001  0.1909028E+03  0.7818608E-02  0.1157650E+00
         -1   -1    0    0    0  501 -0.00000000000E+00  0.00000000000E+00  0.11284262122E+03  0.11284262122E+03  0.00000000000E+00 0.  1.
          1   -1    0    0  502    0  0.00000000000E+00 -0.00000000000E+00 -0.34032390578E+03  0.34032390578E+03  0.00000000000E+00 0. -1.
          6    1    1    2  502    0  0.82823193487E+02  0.42765637437E+00 -0.16491847482E+03  0.25227359673E+03  0.17200000000E+03 0. -1.
         -6    1    1    2    0  501 -0.82823193487E+02 -0.42765637437E+00 -0.62562809740E+02  0.20089293027E+03  0.17200000000E+03 0.  1.
</event>
<event>
 4    1  0.8483901E-001  0.2023335E+03  0.7818608E-02  0.1147785E+00
          4   -1    0    0  502    0  0.00000000000E+00  0.00000000000E+00  0.65966100245E+02  0.65966100245E+02  0.00000000000E+00 0. -1.
         -4   -1    0    0    0  501 -0.00000000000E+00 -0.00000000000E+00 -0.64027866055E+03  0.64027866055E+03  0.00000000000E+00 0.  1.
          6    1    1    2  502    0  0.98166691555E+02  0.41450509724E+02 -0.34905636913E+03  0.40345903499E+03  0.17200000000E+03 0.  1.
         -6    1    1    2    0  501 -0.98166691555E+02 -0.41450509724E+02 -0.22525619118E+03  0.30278572580E+03  0.17200000000E+03 0.  1.
</event>
<event>
 4    1  0.8483901E-001  0.1803811E+03  0.7818608E-02  0.1167435E+00
          2   -1    0    0  502    0  0.00000000000E+00  0.00000000000E+00  0.46470200938E+03  0.46470200938E+03  0.00000000000E+00 0. -1.
         -2   -1    0    0    0  501 -0.00000000000E+00 -0.00000000000E+00 -0.70764726040E+02  0.70764726040E+02  0.00000000000E+00 0.  1.
          6    1    1    2  502    0 -0.54123046438E+02 -0.49032219246E+01  0.16945965741E+03  0.24749529537E+03  0.17200000000E+03 0.  1.
         -6    1    1    2    0  501  0.54123046438E+02  0.49032219246E+01  0.22447762593E+03  0.28797144005E+03  0.17200000000E+03 0. -1.
</event>
<event>
 4    1  0.8483901E-001  0.1942119E+03  0.7818608E-02  0.1154716E+00
          3   -1    0    0  502    0  0.00000000000E+00  0.00000000000E+00  0.49512232478E+03  0.49512232478E+03  0.00000000000E+00 0.  1.
         -3   -1    0    0    0  501 -0.00000000000E+00 -0.00000000000E+00 -0.77030872508E+02  0.77030872508E+02  0.00000000000E+00 0. -1.
          6    1    1    2  502    0  0.61833883574E+02 -0.65656857148E+02  0.23911812364E+03  0.30805150398E+03  0.17200000000E+03 0.  1.
         -6    1    1    2    0  501 -0.61833883574E+02  0.65656857148E+02  0.17897332863E+03  0.26410169331E+03  0.17200000000E+03 0. -1.
</event>
<event>
 4    1  0.8483901E-001  0.2218238E+03  0.7818608E-02  0.1132531E+00
         -4   -1    0    0    0  501 -0.00000000000E+00  0.00000000000E+00  0.10794904901E+04  0.10794904901E+04  0.00000000000E+00 0.  1.
          4   -1    0    0  502    0  0.00000000000E+00 -0.00000000000E+00 -0.56779263261E+02  0.56779263261E+02  0.00000000000E+00 0. -1.
          6    1    1    2  502    0 -0.76459131928E+02 -0.11737027909E+03  0.25906301444E+03  0.34105633951E+03  0.17200000000E+03 0. -1.
         -6    1    1    2    0  501  0.76459131928E+02  0.11737027909E+03  0.76364821240E+03  0.79521341385E+03  0.17200000000E+03 0.  1.
</event>
<event>
 4    1  0.8483901E-001  0.2118788E+03  0.7818608E-02  0.1140087E+00
          1   -1    0    0  502    0  0.00000000000E+00  0.00000000000E+00  0.12939222179E+04  0.12939222179E+04  0.00000000000E+00 0. -1.
         -1   -1    0    0    0  501 -0.00000000000E+00 -0.00000000000E+00 -0.98114365707E+02  0.98114365707E+02  0.00000000000E+00 0.  1.
          6    1    1    2  502    0  0.12333283180E+03  0.98809476896E+01  0.38319874114E+02  0.21531612406E+03  0.17200000000E+03 0.  1.
         -6    1    1    2    0  501 -0.12333283180E+03 -0.98809476896E+01  0.11574879781E+04  0.11767204596E+04  0.17200000000E+03 0. -1.
</event>
<event>
 4    1  0.8483901E-001  0.2419743E+03  0.7818608E-02  0.1118485E+00
         -2   -1    0    0    0  501 -0.00000000000E+00  0.00000000000E+00  0.56144532345E+02  0.56144532345E+02  0.00000000000E+00 0.  1.
          2   -1    0    0  502    0  0.00000000000E+00 -0.00000000000E+00 -0.13551001138E+04  0.13551001138E+04  0.00000000000E+00 0. -1.
          6    1    1    2  502    0  0.36423723105E+02  0.16625541401E+03 -0.31077189768E+03  0.39386637668E+03  0.17200000000E+03 0.  1.
         -6    1    1    2    0  501 -0.36423723105E+02 -0.16625541401E+03 -0.98818368381E+03  0.10173782695E+04  0.17200000000E+03 0. -1.
</event>
<event>
 4    1  0.8483901E-001  0.2424189E+03  0.7818608E-02  0.1118192E+00
         -1   -1    0    0    0  501 -0.00000000000E+00  0.00000000000E+00  0.46010177226E+02  0.46010177226E+02  0.00000000000E+00 0.  1.
          1   -1    0    0  502    0  0.00000000000E+00 -0.00000000000E+00 -0.12778436465E+04  0.12778436465E+04  0.00000000000E+00 0. -1.
          6    1    1    2  502    0  0.85604769241E+02  0.14783358366E+03 -0.63006682541E+03  0.67509343758E+03  0.17200000000E+03 0.  1.
         -6    1    1    2    0  501 -0.85604769241E+02 -0.14783358366E+03 -0.60176664389E+03  0.64876038618E+03  0.17200000000E+03 0. -1.
</event>
<event>
 4    1  0.8483901E-001  0.2591642E+03  0.7818608E-02  0.1107646E+00
         -1   -1    0    0    0  501 -0.00000000000E+00  0.00000000000E+00  0.16801776869E+03  0.16801776869E+03  0.00000000000E+00 0.  1.
          1   -1    0    0  502    0  0.00000000000E+00 -0.00000000000E+00 -0.47233111586E+03  0.47233111586E+03  0.00000000000E+00 0. -1.
          6    1    1    2  502    0 -0.14325841202E+03  0.13061044974E+03 -0.27766083434E+03  0.37981785256E+03  0.17200000000E+03 0. -1.
         -6    1    1    2    0  501  0.14325841202E+03 -0.13061044974E+03 -0.26652512834E+02  0.26053103200E+03  0.17200000000E+03 0.  1.
</event>
<event>
 4    1  0.8483901E-001  0.2246667E+03  0.7818608E-02  0.1130451E+00
         -1   -1    0    0    0  501 -0.00000000000E+00  0.00000000000E+00  0.31190160304E+03  0.31190160304E+03  0.00000000000E+00 0.  1.
          1   -1    0    0  502    0  0.00000000000E+00 -0.00000000000E+00 -0.16184836415E+03  0.16184836415E+03  0.00000000000E+00 0. -1.
          6    1    1    2  502    0  0.14074811134E+03  0.32879914242E+02  0.77531422942E+02  0.23766834276E+03  0.17200000000E+03 0. -1.
         -6    1    1    2    0  501 -0.14074811134E+03 -0.32879914242E+02  0.72521815954E+02  0.23608162443E+03  0.17200000000E+03 0.  1.
</event>
<event>
 4    1  0.8483901E-001  0.2146722E+03  0.7818608E-02  0.1137919E+00
         -2   -1    0    0    0  501 -0.00000000000E+00  0.00000000000E+00  0.31640596545E+02  0.31640596545E+02  0.00000000000E+00 0.  1.
          2   -1    0    0  502    0  0.00000000000E+00 -0.00000000000E+00 -0.14994294872E+04  0.14994294872E+04  0.00000000000E+00 0. -1.
          6    1    1    2  502    0  0.16447536267E+02 -0.12739549256E+03 -0.86344616489E+03  0.88973221401E+03  0.17200000000E+03 0.  1.
         -6    1    1    2    0  501 -0.16447536267E+02  0.12739549256E+03 -0.60434272572E+03  0.64133786969E+03  0.17200000000E+03 0.  1.
</event>
<event>
 4    1  0.8483901E-001  0.1889373E+03  0.7818608E-02  0.1159423E+00
         -2   -1    0    0    0  501 -0.00000000000E+00  0.00000000000E+00  0.34659535465E+02  0.34659535465E+02  0.00000000000E+00 0. -1.
          2   -1    0    0  502    0  0.00000000000E+00 -0.00000000000E+00 -0.10930338876E+04  0.10930338876E+04  0.00000000000E+00 0.  1.
          6    1    1    2  502    0  0.19770546586E+00 -0.78187421475E+02 -0.39372098165E+03  0.43670759480E+03  0.17200000000E+03 0. -1.
         -6    1    1    2    0  501 -0.19770546586E+00  0.78187421475E+02 -0.66465337045E+03  0.69098582823E+03  0.17200000000E+03 0.  1.
</event>
<event>
 4    1  0.8483901E-001  0.1994147E+03  0.7818608E-02  0.1150234E+00
         -2   -1    0    0    0  501 -0.00000000000E+00  0.00000000000E+00  0.56770765261E+02  0.56770765261E+02  0.00000000000E+00 0.  1.
          2   -1    0    0  502    0  0.00000000000E+00 -0.00000000000E+00 -0.71415080728E+03  0.71415080728E+03  0.00000000000E+00 0. -1.
          6    1    1    2  502    0 -0.83798369268E+02 -0.56214422641E+02 -0.27533954650E+03  0.33996778358E+03  0.17200000000E+03 0.  1.
         -6    1    1    2    0  501  0.83798369268E+02  0.56214422641E+02 -0.38204049553E+03  0.43095378897E+03  0.17200000000E+03 0.  1.
</event>
<event>
 4    1  0.8483901E-001  0.2151227E+03  0.7818608E-02  0.1137572E+00
          1   -1    0    0  502    0  0.00000000000E+00  0.00000000000E+00  0.10258294620E+04  0.10258294620E+04  0.00000000000E+00 0. -1.
         -1   -1    0    0    0  501 -0.00000000000E+00 -0.00000000000E+00 -0.79094204152E+02  0.79094204152E+02  0.00000000000E+00 0.  1.
          6    1    1    2  502    0  0.96359166153E+02 -0.86073793544E+02  0.83548735493E+03  0.86273802923E+03  0.17200000000E+03 0. -1.
         -6    1    1    2    0  501 -0.96359166153E+02  0.86073793544E+02  0.11124790296E+03  0.24218563696E+03  0.17200000000E+03 0.  1.
</event>
<event>
 4    1  0.8483901E-001  0.1902840E+03  0.7818608E-02  0.1158205E+00
         -1   -1    0    0    0  501 -0.00000000000E+00  0.00000000000E+00  0.12876573883E+03  0.12876573883E+03  0.00000000000E+00 0. -1.
          1   -1    0    0  502    0  0.00000000000E+00 -0.00000000000E+00 -0.28682206385E+03  0.28682206385E+03  0.00000000000E+00 0.  1.
          6    1    1    2  502    0 -0.75412318060E+02 -0.30610019882E+02 -0.49917331600E+02  0.19672247209E+03  0.17200000000E+03 0. -1.
         -6    1    1    2    0  501  0.75412318060E+02  0.30610019882E+02 -0.10813899342E+03  0.21886533058E+03  0.17200000000E+03 0.  1.
</event>
<event>
 4    1  0.8483901E-001  0.1956467E+03  0.7818608E-02  0.1153465E+00
         -2   -1    0    0    0  501 -0.00000000000E+00  0.00000000000E+00  0.31610737437E+02  0.31610737437E+02  0.00000000000E+00 0. -1.
          2   -1    0    0  502    0  0.00000000000E+00 -0.00000000000E+00 -0.13286748718E+04  0.13286748718E+04  0.00000000000E+00 0.  1.
          6    1    1    2  502    0  0.32104711088E+02  0.87538095302E+02 -0.85102322519E+03  0.87322285839E+03  0.17200000000E+03 0.  1.
         -6    1    1    2    0  501 -0.32104711088E+02 -0.87538095302E+02 -0.44604090914E+03  0.48706275081E+03  0.17200000000E+03 0.  1.
</event>
<event>
 4    1  0.8483901E-001  0.1955171E+03  0.7818608E-02  0.1153577E+00
         -2   -1    0    0    0  501 -0.00000000000E+00  0.00000000000E+00  0.80637340621E+02  0.80637340621E+02  0.00000000000E+00 0. -1.
          2   -1    0    0  502    0  0.00000000000E+00 -0.00000000000E+00 -0.12645052145E+04  0.12645052145E+04  0.00000000000E+00 0.  1.
          6    1    1    2  502    0 -0.30442732380E+02  0.87841711804E+02 -0.60176061688E+02  0.20456804415E+03  0.17200000000E+03 0. -1.
         -6    1    1    2    0  501  0.30442732380E+02 -0.87841711804E+02 -0.11236918122E+04  0.11405745110E+04  0.17200000000E+03 0.  1.
</event>
<event>
 4    1  0.8483901E-001  0.2776105E+03  0.7818608E-02  0.1097001E+00
          2   -1    0    0  502    0  0.00000000000E+00  0.00000000000E+00  0.56713792691E+03  0.56713792691E+03  0.00000000000E+00 0. -1.
         -2   -1    0    0    0  501 -0.00000000000E+00 -0.00000000000E+00 -0.16769480541E+03  0.16769480541E+03  0.00000000000E+00 0.  1.
          6    1    1    2  502    0 -0.66876105340E+02  0.20739137422E+03  0.35973424902E+03  0.45439666095E+03  0.17200000000E+03 0. -1.
         -6    1    1    2    0  501  0.66876105340E+02 -0.20739137422E+03  0.39708872482E+02  0.28043607136E+03  0.17200000000E+03 0.  1.
</event>
<event>
 4    1  0.8483901E-001  0.1915167E+03  0.7818608E-02  0.1157100E+00
         -2   -1    0    0    0  501 -0.00000000000E+00  0.00000000000E+00  0.33004120474E+02  0.33004120474E+02  0.00000000000E+00 0.  1.
          2   -1    0    0  502    0  0.00000000000E+00 -0.00000000000E+00 -0.11206156448E+04  0.11206156448E+04  0.00000000000E+00 0. -1.
          6    1    1    2  502    0 -0.87692315982E+01  0.83772060698E+02 -0.49131572573E+03  0.52732324045E+03  0.17200000000E+03 0. -1.
         -6    1    1    2    0  501  0.87692315982E+01 -0.83772060698E+02 -0.59629579864E+03  0.62629652486E+03  0.17200000000E+03 0.  1.
</event>
<event>
 4    1  0.8483901E-001  0.1970837E+03  0.7818608E-02  0.1152223E+00
         -1   -1    0    0    0  501 -0.00000000000E+00  0.00000000000E+00  0.98504605246E+02  0.98504605246E+02  0.00000000000E+00 0. -1.
          1   -1    0    0  502    0  0.00000000000E+00 -0.00000000000E+00 -0.40709088139E+03  0.40709088139E+03  0.00000000000E+00 0.  1.
          6    1    1    2  502    0 -0.64614881454E+02 -0.71294467387E+02 -0.19907464310E+03  0.28012978690E+03  0.17200000000E+03 0.  1.
         -6    1    1    2    0  501  0.64614881454E+02  0.71294467387E+02 -0.10951163305E+03  0.22546569974E+03  0.17200000000E+03 0.  1.
</event>
<event>
 4    1  0.8483901E-001  0.2288639E+03  0.7818608E-02  0.1127442E+00
         -2   -1    0    0    0  501 -0.00000000000E+00  0.00000000000E+00  0.57993285817E+02  0.57993285817E+02  0.00000000000E+00 0.  1.
          2   -1    0    0  502    0  0.00000000000E+00 -0.00000000000E+00 -0.16812591920E+04  0.16812591920E+04  0.00000000000E+00 0. -1.
          6    1    1    2  502    0  0.14459670670E+03 -0.43433754398E+02 -0.22003638391E+03  0.31748182444E+03  0.17200000000E+03 0.  1.
         -6    1    1    2    0  501 -0.14459670670E+03  0.43433754398E+02 -0.14032295223E+04  0.14217706534E+04  0.17200000000E+03 0. -1.
</event>
<event>
 4    1  0.8483901E-001  0.2185174E+03  0.7818608E-02  0.1134993E+00
         -3   -1    0    0    0  501 -0.00000000000E+00  0.00000000000E+00  0.66130327344E+02  0.66130327344E+02  0.00000000000E+00 0. -1.
          3   -1    0    0  502    0  0.00000000000E+00 -0.00000000000E+00 -0.12433155509E+04  0.12433155509E+04  0.00000000000E+00 0.  1.
          6    1    1    2  502    0 -0.11789198936E+03  0.65324722589E+02 -0.16466312084E+03  0.27361247029E+03  0.17200000000E+03 0. -1.
         -6    1    1    2    0  501  0.11789198936E+03 -0.65324722589E+02 -0.10125221028E+04  0.10358334080E+04  0.17200000000E+03 0.  1.
</event>
<event>
 4    1  0.8483901E-001  0.2448430E+03  0.7818608E-02  0.1116608E+00
         -1   -1    0    0    0  501 -0.00000000000E+00  0.00000000000E+00  0.25626898882E+03  0.25626898882E+03  0.00000000000E+00 0.  1.
          1   -1    0    0  502    0  0.00000000000E+00 -0.00000000000E+00 -0.23791177947E+03  0.23791177947E+03  0.00000000000E+00 0. -1.
          6    1    1    2  502    0  0.12622213650E+03  0.12013359418E+03  0.41158507493E+02  0.24827833359E+03  0.17200000000E+03 0.  1.
         -6    1    1    2    0  501 -0.12622213650E+03 -0.12013359418E+03 -0.22801298142E+02  0.24590243470E+03  0.17200000000E+03 0. -1.
</event>
<event>
 4    1  0.8483901E-001  0.3014943E+03  0.7818608E-02  0.1084496E+00
         -1   -1    0    0    0  501 -0.00000000000E+00  0.00000000000E+00  0.34433444011E+03  0.34433444011E+03  0.00000000000E+00 0.  1.
          1   -1    0    0  502    0  0.00000000000E+00 -0.00000000000E+00 -0.29225771396E+03  0.29225771396E+03  0.00000000000E+00 0. -1.
          6    1    1    2  502    0  0.16409289435E+03 -0.18544084721E+03  0.12503938069E+03  0.32639490271E+03  0.17200000000E+03 0.  1.
         -6    1    1    2    0  501 -0.16409289435E+03  0.18544084721E+03 -0.72962654538E+02  0.31019725136E+03  0.17200000000E+03 0. -1.
</event>
<event>
 4    1  0.8483901E-001  0.1837125E+03  0.7818608E-02  0.1164258E+00
         -2   -1    0    0    0  501 -0.00000000000E+00  0.00000000000E+00  0.22560042863E+02  0.22560042863E+02  0.00000000000E+00 0.  1.
          2   -1    0    0  502    0  0.00000000000E+00 -0.00000000000E+00 -0.21644806936E+04  0.21644806936E+04  0.00000000000E+00 0. -1.
          6    1    1    2  502    0 -0.41136384694E+02 -0.49740133447E+02 -0.46326227179E+03  0.49835952432E+03  0.17200000000E+03 0.  1.
         -6    1    1    2    0  501  0.41136384694E+02  0.49740133447E+02 -0.16786583790E+04  0.16886812122E+04  0.17200000000E+03 0. -1.
</event>
<event>
 4    1  0.8483901E-001  0.1768362E+03  0.7818608E-02  0.1170901E+00
         -1   -1    0    0    0  501 -0.00000000000E+00  0.00000000000E+00  0.13510131924E+03  0.13510131924E+03  0.00000000000E+00 0. -1.
          1   -1    0    0  502    0  0.00000000000E+00 -0.00000000000E+00 -0.23638900906E+03  0.23638900906E+03  0.00000000000E+00 0.  1.
          6    1    1    2  502    0  0.40759673283E+02 -0.50699909938E+01 -0.23832466964E+02  0.17843498047E+03  0.17200000000E+03 0. -1.
         -6    1    1    2    0  501 -0.40759673283E+02  0.50699909938E+01 -0.77455222859E+02  0.19305534782E+03  0.17200000000E+03 0.  1.
</event>
<event>
 4    1  0.8483901E-001  0.1919841E+03  0.7818608E-02  0.1156684E+00
         -1   -1    0    0    0  501 -0.00000000000E+00  0.00000000000E+00  0.25427835149E+02  0.25427835149E+02  0.00000000000E+00 0.  1.
          1   -1    0    0  502    0  0.00000000000E+00 -0.00000000000E+00 -0.20808894773E+04  0.20808894773E+04  0.00000000000E+00 0. -1.
          6    1    1    2  502    0 -0.83395888838E+02 -0.17861398848E+02 -0.16078463502E+04  0.16192676708E+04  0.17200000000E+03 0. -1.
         -6    1    1    2    0  501  0.83395888838E+02  0.17861398848E+02 -0.44761529196E+03  0.48704964166E+03  0.17200000000E+03 0.  1.
</event>
<event>
 4    1  0.8483901E-001  0.2468538E+03  0.7818608E-02  0.1115309E+00
          1   -1    0    0  502    0  0.00000000000E+00  0.00000000000E+00  0.25105276409E+03  0.25105276409E+03  0.00000000000E+00 0. -1.
         -1   -1    0    0    0  501 -0.00000000000E+00 -0.00000000000E+00 -0.25297196005E+03  0.25297196005E+03  0.00000000000E+00 0.  1.
          6    1    1    2  502    0  0.63153456989E+02 -0.16542200937E+03 -0.51679877865E+02  0.25220549179E+03  0.17200000000E+03 0.  1.
         -6    1    1    2    0  501 -0.63153456989E+02  0.16542200937E+03  0.49760681911E+02  0.25181923235E+03  0.17200000000E+03 0. -1.
</event>
<event>
 4    1  0.8483901E-001  0.2198457E+03  0.7818608E-02  0.1133998E+00
          2   -1    0    0  502    0  0.00000000000E+00  0.00000000000E+00  0.82655822192E+03  0.82655822192E+03  0.00000000000E+00 0. -1.
         -2   -1    0    0    0  501 -0.00000000000E+00 -0.00000000000E+00 -0.63345523750E+02  0.63345523750E+02  0.00000000000E+00 0.  1.
          6    1    1    2  502    0 -0.70705660873E+02  0.11725544006E+03  0.50499904936E+03  0.55077778510E+03  0.17200000000E+03 0. -1.
         -6    1    1    2    0  501  0.70705660873E+02 -0.11725544006E+03  0.25821364881E+03  0.33912596057E+03  0.17200000000E+03 0.  1.
</event>
<event>
 4    1  0.8483901E-001  0.2385419E+03  0.7818608E-02  0.1120768E+00
          2   -1    0    0  502    0  0.00000000000E+00  0.00000000000E+00  0.18443652451E+04  0.18443652451E+04  0.00000000000E+00 0. -1.
         -2   -1    0    0    0  501 -0.00000000000E+00 -0.00000000000E+00 -0.52834770935E+02  0.52834770935E+02  0.00000000000E+00 0.  1.
          6    1    1    2  502    0 -0.15263969018E+03 -0.63398317700E+02  0.28388679966E+03  0.37080174855E+03  0.17200000000E+03 0. -1.
         -6    1    1    2    0  501  0.15263969018E+03  0.63398317700E+02  0.15076436745E+04  0.15263982675E+04  0.17200000000E+03 0. -1.
</event>
<event>
 4    1  0.8483901E-001  0.2028376E+03  0.7818608E-02  0.1147367E+00
         -2   -1    0    0    0  501 -0.00000000000E+00  0.00000000000E+00  0.41038725548E+02  0.41038725548E+02  0.00000000000E+00 0.  1.
          2   -1    0    0  502    0  0.00000000000E+00 -0.00000000000E+00 -0.19519732346E+04  0.19519732346E+04  0.00000000000E+00 0. -1.
          6    1    1    2  502    0  0.10367045363E+03  0.28487283094E+02 -0.16504507677E+04  0.16628682524E+04  0.17200000000E+03 0. -1.
         -6    1    1    2    0  501 -0.10367045363E+03 -0.28487283094E+02 -0.26048374135E+03  0.33014370774E+03  0.17200000000E+03 0.  1.
</event>
<event>
 4    1  0.8483901E-001  0.1844155E+03  0.7818608E-02  0.1163597E+00
         -2   -1    0    0    0  501 -0.00000000000E+00  0.00000000000E+00  0.24299414512E+02  0.24299414512E+02  0.00000000000E+00 0. -1.
          2   -1    0    0  502    0  0.00000000000E+00 -0.00000000000E+00 -0.14016586872E+04  0.14016586872E+04  0.00000000000E+00 0.  1.
          6    1    1    2  502    0 -0.12631556266E+02 -0.65311062600E+02 -0.66125451359E+03  0.68648861815E+03  0.17200000000E+03 0. -1.
         -6    1    1    2    0  501  0.12631556266E+02  0.65311062600E+02 -0.71610475910E+03  0.73946948356E+03  0.17200000000E+03 0. -1.
</event>
<event>
 4    1  0.8483901E-001  0.1881754E+03  0.7818608E-02  0.1160117E+00
         -2   -1    0    0    0  501 -0.00000000000E+00  0.00000000000E+00  0.44016126794E+02  0.44016126794E+02  0.00000000000E+00 0. -1.
          2   -1    0    0  502    0  0.00000000000E+00 -0.00000000000E+00 -0.11927017856E+04  0.11927017856E+04  0.00000000000E+00 0.  1.
          6    1    1    2  502    0  0.39454827426E+02 -0.65339977868E+02 -0.22155311731E+03  0.29068157820E+03  0.17200000000E+03 0. -1.
         -6    1    1    2    0  501 -0.39454827426E+02  0.65339977868E+02 -0.92713254153E+03  0.94603633423E+03  0.17200000000E+03 0.  1.
</event>
<event>
 4    1  0.8483901E-001  0.1817260E+03  0.7818608E-02  0.1166143E+00
          2   -1    0    0  502    0  0.00000000000E+00  0.00000000000E+00  0.77128538635E+03  0.77128538635E+03  0.00000000000E+00 0.  1.
         -2   -1    0    0    0  501 -0.00000000000E+00 -0.00000000000E+00 -0.43162149922E+02  0.43162149922E+02  0.00000000000E+00 0. -1.
          6    1    1    2  502    0 -0.54416830084E+01  0.58401397105E+02  0.40046277299E+03  0.43976671958E+03  0.17200000000E+03 0. -1.
         -6    1    1    2    0  501  0.54416830084E+01 -0.58401397105E+02  0.32766046344E+03  0.37468081670E+03  0.17200000000E+03 0. -1.
</event>
<event>
 4    1  0.8483901E-001  0.2186424E+03  0.7818608E-02  0.1134899E+00
         -2   -1    0    0    0  501 -0.00000000000E+00  0.00000000000E+00  0.24553278104E+02  0.24553278104E+02  0.00000000000E+00 0. -1.
          2   -1    0    0  502    0  0.00000000000E+00 -0.00000000000E+00 -0.36541577363E+04  0.36541577363E+04  0.00000000000E+00 0.  1.
          6    1    1    2  502    0 -0.37518381187E+02  0.12966451809E+03 -0.30720259536E+04  0.30797967426E+04  0.17200000000E+03 0.  1.
         -6    1    1    2    0  501  0.37518381187E+02 -0.12966451809E+03 -0.55757850462E+03  0.59891427182E+03  0.17200000000E+03 0. -1.
</event>
<event>
 4    1  0.8483901E-001  0.1909829E+03  0.7818608E-02  0.1157578E+00
         -1   -1    0    0    0  501 -0.00000000000E+00  0.00000000000E+00  0.17373220075E+03  0.17373220075E+03  0.00000000000E+00 0.  1.
          1   -1    0    0  502    0  0.00000000000E+00 -0.00000000000E+00 -0.21137847476E+03  0.21137847476E+03  0.00000000000E+00 0. -1.
          6    1    1    2  502    0 -0.60423313881E+02  0.56916681689E+02 -0.29750398168E+01  0.19100611607E+03  0.17200000000E+03 0.  1.
         -6    1    1    2    0  501  0.60423313881E+02 -0.56916681689E+02 -0.34671234196E+02  0.19410455944E+03  0.17200000000E+03 0.  1.
</event>
<event>
 4    1  0.8483901E-001  0.4315899E+03  0.7818608E-02  0.1033359E+00
          2   -1    0    0  502    0  0.00000000000E+00  0.00000000000E+00  0.52013410474E+03  0.52013410474E+03  0.00000000000E+00 0.  1.
         -2   -1    0    0    0  501 -0.00000000000E+00 -0.00000000000E+00 -0.44968966073E+03  0.44968966073E+03  0.00000000000E+00 0. -1.
          6    1    1    2  502    0 -0.38903051123E+03 -0.73082735166E+02 -0.18359672149E+03  0.46901767663E+03  0.17200000000E+03 0. -1.
         -6    1    1    2    0  501  0.38903051123E+03  0.73082735166E+02  0.25404116550E+03  0.50080608884E+03  0.17200000000E+03 0.  1.
</event>
<event>
 4    1  0.8483901E-001  0.2382936E+03  0.7818608E-02  0.1120935E+00
         -2   -1    0    0    0  501 -0.00000000000E+00  0.00000000000E+00  0.12198991345E+03  0.12198991345E+03  0.00000000000E+00 0.  1.
          2   -1    0    0  502    0  0.00000000000E+00 -0.00000000000E+00 -0.78234025843E+03  0.78234025843E+03  0.00000000000E+00 0. -1.
          6    1    1    2  502    0  0.69509128326E+02  0.14956048865E+03 -0.42413395583E+02  0.24203874651E+03  0.17200000000E+03 0.  1.
         -6    1    1    2    0  501 -0.69509128326E+02 -0.14956048865E+03 -0.61793694940E+03  0.66229142537E+03  0.17200000000E+03 0. -1.
</event>
<event>
 4    1  0.8483901E-001  0.1837999E+03  0.7818608E-02  0.1164175E+00
         -2   -1    0    0    0  501 -0.00000000000E+00  0.00000000000E+00  0.34802612427E+02  0.34802612427E+02  0.00000000000E+00 0.  1.
          2   -1    0    0  502    0  0.00000000000E+00 -0.00000000000E+00 -0.97072094975E+03  0.97072094975E+03  0.00000000000E+00 0. -1.
          6    1    1    2  502    0 -0.48426285859E+02  0.43049826212E+02 -0.46492272242E+03  0.49993552636E+03  0.17200000000E+03 0. -1.
         -6    1    1    2    0  501  0.48426285859E+02 -0.43049826212E+02 -0.47099561491E+03  0.50558803582E+03  0.17200000000E+03 0.  1.
</event>
<event>
 4    1  0.8483901E-001  0.3171097E+03  0.7818608E-02  0.1076987E+00
          2   -1    0    0  502    0  0.00000000000E+00  0.00000000000E+00  0.22542786421E+04  0.22542786421E+04  0.00000000000E+00 0. -1.
         -2   -1    0    0    0  501 -0.00000000000E+00 -0.00000000000E+00 -0.47275955087E+02  0.47275955087E+02  0.00000000000E+00 0.  1.
          6    1    1    2  502    0  0.23838204401E+03  0.11894775186E+03  0.13768840516E+04  0.14129289643E+04  0.17200000000E+03 0.  1.
         -6    1    1    2    0  501 -0.23838204401E+03 -0.11894775186E+03  0.83011863541E+03  0.88862563290E+03  0.17200000000E+03 0. -1.
</event>
<event>
 4    1  0.8483901E-001  0.2749015E+03  0.7818608E-02  0.1098507E+00
         -2   -1    0    0    0  501 -0.00000000000E+00  0.00000000000E+00  0.37721922462E+03  0.37721922462E+03  0.00000000000E+00 0.  1.
          2   -1    0    0  502    0  0.00000000000E+00 -0.00000000000E+00 -0.20727042584E+03  0.20727042584E+03  0.00000000000E+00 0. -1.
          6    1    1    2  502    0 -0.19260955986E+03 -0.94278263087E+02  0.31522486418E+02  0.27670291034E+03  0.17200000000E+03 0.  1.
         -6    1    1    2    0  501  0.19260955986E+03  0.94278263087E+02  0.13842631237E+03  0.30778674012E+03  0.17200000000E+03 0. -1.
</event>
<event>
 4    1  0.8483901E-001  0.1976316E+03  0.7818608E-02  0.1151753E+00
         -1   -1    0    0    0  501 -0.00000000000E+00  0.00000000000E+00  0.11805477392E+03  0.11805477392E+03  0.00000000000E+00 0.  1.
          1   -1    0    0  502    0  0.00000000000E+00 -0.00000000000E+00 -0.11372057025E+04  0.11372057025E+04  0.00000000000E+00 0. -1.
          6    1    1    2  502    0 -0.23422629193E+02 -0.94475515792E+02  0.18928299415E+02  0.19853594929E+03  0.17200000000E+03 0.  1.
         -6    1    1    2    0  501  0.23422629193E+02  0.94475515792E+02 -0.10380792279E+04  0.10567245271E+04  0.17200000000E+03 0. -1.
</event>
<event>
 4    1  0.8483901E-001  0.1735793E+03  0.7818608E-02  0.1174166E+00
          2   -1    0    0  502    0  0.00000000000E+00  0.00000000000E+00  0.65458749804E+03  0.65458749804E+03  0.00000000000E+00 0. -1.
         -2   -1    0    0    0  501 -0.00000000000E+00 -0.00000000000E+00 -0.47857175214E+02  0.47857175214E+02  0.00000000000E+00 0.  1.
          6    1    1    2  502    0 -0.21142171165E+02 -0.99392097907E+01  0.23471224480E+03  0.29192399208E+03  0.17200000000E+03 0. -1.
         -6    1    1    2    0  501  0.21142171165E+02  0.99392097907E+01  0.37201807803E+03  0.41052068117E+03  0.17200000000E+03 0. -1.
</event>
<event>
 4    1  0.8483901E-001  0.2243904E+03  0.7818608E-02  0.1130652E+00
          2   -1    0    0  502    0  0.00000000000E+00  0.00000000000E+00  0.73207004978E+03  0.73207004978E+03  0.00000000000E+00 0.  1.
         -2   -1    0    0    0  501 -0.00000000000E+00 -0.00000000000E+00 -0.22753447737E+03  0.22753447737E+03  0.00000000000E+00 0. -1.
          6    1    1    2  502    0  0.12158621037E+03  0.77355217799E+02  0.65304503836E+03  0.69052071540E+03  0.17200000000E+03 0.  1.
         -6    1    1    2    0  501 -0.12158621037E+03 -0.77355217799E+02 -0.14850946594E+03  0.26908381175E+03  0.17200000000E+03 0. -1.
</event>
<event>
 4    1  0.8483901E-001  0.1820996E+03  0.7818608E-02  0.1165786E+00
         -1   -1    0    0    0  501 -0.00000000000E+00  0.00000000000E+00  0.12208066921E+03  0.12208066921E+03  0.00000000000E+00 0. -1.
          1   -1    0    0  502    0  0.00000000000E+00 -0.00000000000E+00 -0.35223353041E+03  0.35223353041E+03  0.00000000000E+00 0.  1.
          6    1    1    2  502    0  0.48101126191E+02  0.35532454437E+02 -0.16253032483E+01  0.18210687870E+03  0.17200000000E+03 0. -1.
         -6    1    1    2    0  501 -0.48101126191E+02 -0.35532454437E+02 -0.22852755795E+03  0.29220732092E+03  0.17200000000E+03 0.  1.
</event>
<event>
 4    1  0.8483901E-001  0.1768958E+03  0.7818608E-02  0.1170842E+00
         -2   -1    0    0    0  501 -0.00000000000E+00  0.00000000000E+00  0.18046626686E+04  0.18046626686E+04  0.00000000000E+00 0.  1.
          2   -1    0    0  502    0  0.00000000000E+00 -0.00000000000E+00 -0.17957710341E+02  0.17957710341E+02  0.00000000000E+00 0. -1.
          6    1    1    2  502    0 -0.33452283550E+02  0.24270594258E+02  0.10624261743E+04  0.10770522239E+04  0.17200000000E+03 0. -1.
         -6    1    1    2    0  501  0.33452283550E+02 -0.24270594258E+02  0.72427878394E+03  0.74556815509E+03  0.17200000000E+03 0. -1.
</event>
<event>
 4    1  0.8483901E-001  0.1934731E+03  0.7818608E-02  0.1155366E+00
         -1   -1    0    0    0  501 -0.00000000000E+00  0.00000000000E+00  0.14130112362E+03  0.14130112362E+03  0.00000000000E+00 0.  1.
          1   -1    0    0  502    0  0.00000000000E+00 -0.00000000000E+00 -0.27478143724E+03  0.27478143724E+03  0.00000000000E+00 0. -1.
          6    1    1    2  502    0  0.83248631417E+02  0.30290124256E+02 -0.27304814248E+02  0.19539032510E+03  0.17200000000E+03 0.  1.
         -6    1    1    2    0  501 -0.83248631417E+02 -0.30290124256E+02 -0.10617549937E+03  0.22069223576E+03  0.17200000000E+03 0. -1.
</event>
<event>
 4    1  0.8483901E-001  0.2655395E+03  0.7818608E-02  0.1103860E+00
          4   -1    0    0  502    0  0.00000000000E+00  0.00000000000E+00  0.27850583329E+03  0.27850583329E+03  0.00000000000E+00 0.  1.
         -4   -1    0    0    0  501 -0.00000000000E+00 -0.00000000000E+00 -0.38738172278E+03  0.38738172278E+03  0.00000000000E+00 0. -1.
          6    1    1    2  502    0 -0.20111055501E+03 -0.21949507133E+02 -0.25040607278E+03  0.36498553052E+03  0.17200000000E+03 0. -1.
         -6    1    1    2    0  501  0.20111055501E+03  0.21949507133E+02  0.14153018329E+03  0.30090202555E+03  0.17200000000E+03 0.  1.
</event>
<event>
 4    1  0.8483901E-001  0.2030953E+03  0.7818608E-02  0.1147153E+00
         -2   -1    0    0    0  501 -0.00000000000E+00  0.00000000000E+00  0.36377389397E+02  0.36377389397E+02  0.00000000000E+00 0. -1.
          2   -1    0    0  502    0  0.00000000000E+00 -0.00000000000E+00 -0.11532381843E+04  0.11532381843E+04  0.00000000000E+00 0.  1.
          6    1    1    2  502    0 -0.28046211540E+02 -0.10429339010E+03 -0.48137261994E+03  0.52246272635E+03  0.17200000000E+03 0.  1.
         -6    1    1    2    0  501  0.28046211540E+02  0.10429339010E+03 -0.63548817492E+03  0.66715284730E+03  0.17200000000E+03 0. -1.
</event>
<event>
 4    1  0.8483901E-001  0.1919044E+03  0.7818608E-02  0.1156755E+00
          2   -1    0    0  502    0  0.00000000000E+00  0.00000000000E+00  0.17380289157E+04  0.17380289157E+04  0.00000000000E+00 0.  1.
         -2   -1    0    0    0  501 -0.00000000000E+00 -0.00000000000E+00 -0.22613520699E+02  0.22613520699E+02  0.00000000000E+00 0. -1.
          6    1    1    2  502    0  0.69761673279E+02 -0.48750418398E+02  0.10786474935E+04  0.10955855555E+04  0.17200000000E+03 0. -1.
         -6    1    1    2    0  501 -0.69761673279E+02  0.48750418398E+02  0.63676790157E+03  0.66505688089E+03  0.17200000000E+03 0. -1.
</event>
<event>
 4    1  0.8483901E-001  0.1805897E+03  0.7818608E-02  0.1167234E+00
         -1   -1    0    0    0  501 -0.00000000000E+00  0.00000000000E+00  0.10002069594E+04  0.10002069594E+04  0.00000000000E+00 0.  1.
          1   -1    0    0  502    0  0.00000000000E+00 -0.00000000000E+00 -0.54089593112E+02  0.54089593112E+02  0.00000000000E+00 0. -1.
          6    1    1    2  502    0  0.41413781154E+02 -0.36242625385E+02  0.14083499528E+03  0.22901337310E+03  0.17200000000E+03 0. -1.
         -6    1    1    2    0  501 -0.41413781154E+02  0.36242625385E+02  0.80528237104E+03  0.82528317945E+03  0.17200000000E+03 0.  1.
</event>
<event>
 4    1  0.8483901E-001  0.2143755E+03  0.7818608E-02  0.1138147E+00
         -2   -1    0    0    0  501 -0.00000000000E+00  0.00000000000E+00  0.64725088575E+02  0.64725088575E+02  0.00000000000E+00 0.  1.
          2   -1    0    0  502    0  0.00000000000E+00 -0.00000000000E+00 -0.77721401528E+03  0.77721401528E+03  0.00000000000E+00 0. -1.
          6    1    1    2  502    0 -0.12787225759E+03 -0.46433589604E+01 -0.48001216861E+03  0.52570767262E+03  0.17200000000E+03 0. -1.
         -6    1    1    2    0  501  0.12787225759E+03  0.46433589604E+01 -0.23247675810E+03  0.31623143123E+03  0.17200000000E+03 0. -1.
</event>
<event>
 4    1  0.8483901E-001  0.1787234E+03  0.7818608E-02  0.1169044E+00
         -1   -1    0    0    0  501 -0.00000000000E+00  0.00000000000E+00  0.46880983107E+02  0.46880983107E+02  0.00000000000E+00 0. -1.
          1   -1    0    0  502    0  0.00000000000E+00 -0.00000000000E+00 -0.70612530215E+03  0.70612530215E+03  0.00000000000E+00 0.  1.
          6    1    1    2  502    0  0.35994032405E+02  0.32595920437E+02 -0.25908920888E+03  0.31475273240E+03  0.17200000000E+03 0. -1.
         -6    1    1    2    0  501 -0.35994032405E+02 -0.32595920437E+02 -0.40015511016E+03  0.43825355285E+03  0.17200000000E+03 0.  1.
</event>
<event>
 4    1  0.8483901E-001  0.1913635E+03  0.7818608E-02  0.1157237E+00
          2   -1    0    0  502    0  0.00000000000E+00  0.00000000000E+00  0.11418971310E+04  0.11418971310E+04  0.00000000000E+00 0.  1.
         -2   -1    0    0    0  501 -0.00000000000E+00 -0.00000000000E+00 -0.32868253644E+02  0.32868253644E+02  0.00000000000E+00 0. -1.
          6    1    1    2  502    0  0.77604241854E+02 -0.31836503581E+02  0.46294292774E+03  0.50093526095E+03  0.17200000000E+03 0. -1.
         -6    1    1    2    0  501 -0.77604241854E+02  0.31836503581E+02  0.64608594964E+03  0.67383012373E+03  0.17200000000E+03 0. -1.
</event>
<event>
 4    1  0.8483901E-001  0.1892586E+03  0.7818608E-02  0.1159132E+00
         -2   -1    0    0    0  501 -0.00000000000E+00  0.00000000000E+00  0.33578171690E+02  0.33578171690E+02  0.00000000000E+00 0. -1.
          2   -1    0    0  502    0  0.00000000000E+00 -0.00000000000E+00 -0.11830763530E+04  0.11830763530E+04  0.00000000000E+00 0.  1.
          6    1    1    2  502    0 -0.81705739722E+01 -0.78536938047E+02 -0.76551869526E+03  0.78856685304E+03  0.17200000000E+03 0. -1.
         -6    1    1    2    0  501  0.81705739722E+01  0.78536938047E+02 -0.38397948609E+03  0.42808767169E+03  0.17200000000E+03 0. -1.
</event>
<event>
 4    1  0.8483901E-001  0.1758880E+03  0.7818608E-02  0.1171843E+00
          1   -1    0    0  502    0  0.00000000000E+00  0.00000000000E+00  0.29045716938E+03  0.29045716938E+03  0.00000000000E+00 0. -1.
         -1   -1    0    0    0  501 -0.00000000000E+00 -0.00000000000E+00 -0.13595902267E+03  0.13595902267E+03  0.00000000000E+00 0.  1.
          6    1    1    2  502    0  0.35266871799E+02  0.10433094604E+02  0.17647722456E+03  0.24916021451E+03  0.17200000000E+03 0. -1.
         -6    1    1    2    0  501 -0.35266871799E+02 -0.10433094604E+02 -0.21979077843E+02  0.17725597754E+03  0.17200000000E+03 0.  1.
</event>
<event>
 4    1  0.8483901E-001  0.1833162E+03  0.7818608E-02  0.1164632E+00
          1   -1    0    0  502    0  0.00000000000E+00  0.00000000000E+00  0.10097890937E+04  0.10097890937E+04  0.00000000000E+00 0.  1.
         -1   -1    0    0    0  501 -0.00000000000E+00 -0.00000000000E+00 -0.36002141010E+02  0.36002141010E+02  0.00000000000E+00 0. -1.
          6    1    1    2  502    0 -0.59651428100E+02 -0.21506872970E+02  0.34308628800E+03  0.38898976783E+03  0.17200000000E+03 0. -1.
         -6    1    1    2    0  501  0.59651428100E+02  0.21506872970E+02  0.63070066467E+03  0.65680146686E+03  0.17200000000E+03 0.  1.
</event>
<event>
 4    1  0.8483901E-001  0.1915746E+03  0.7818608E-02  0.1157049E+00
          1   -1    0    0  502    0  0.00000000000E+00  0.00000000000E+00  0.98292731066E+03  0.98292731066E+03  0.00000000000E+00 0.  1.
         -1   -1    0    0    0  501 -0.00000000000E+00 -0.00000000000E+00 -0.39303998050E+02  0.39303998050E+02  0.00000000000E+00 0. -1.
          6    1    1    2  502    0  0.73172830258E+02  0.41983047483E+02  0.58611494048E+03  0.61662919394E+03  0.17200000000E+03 0.  1.
         -6    1    1    2    0  501 -0.73172830258E+02 -0.41983047483E+02  0.35750837212E+03  0.40560211477E+03  0.17200000000E+03 0.  1.
</event>
<event>
 4    1  0.8483901E-001  0.1772557E+03  0.7818608E-02  0.1170486E+00
          1   -1    0    0  502    0  0.00000000000E+00  0.00000000000E+00  0.13534136572E+03  0.13534136572E+03  0.00000000000E+00 0. -1.
         -1   -1    0    0    0  501 -0.00000000000E+00 -0.00000000000E+00 -0.25885323651E+03  0.25885323651E+03  0.00000000000E+00 0.  1.
          6    1    1    2  502    0  0.32474842205E+02 -0.27945648293E+02 -0.12505994628E+03  0.21693216635E+03  0.17200000000E+03 0.  1.
         -6    1    1    2    0  501 -0.32474842205E+02  0.27945648293E+02  0.15480754882E+01  0.17726243588E+03  0.17200000000E+03 0. -1.
</event>
<event>
 4    1  0.8483901E-001  0.1958659E+03  0.7818608E-02  0.1153275E+00
         -2   -1    0    0    0  501 -0.00000000000E+00  0.00000000000E+00  0.37283799737E+03  0.37283799737E+03  0.00000000000E+00 0.  1.
          2   -1    0    0  502    0  0.00000000000E+00 -0.00000000000E+00 -0.13775239041E+03  0.13775239041E+03  0.00000000000E+00 0. -1.
          6    1    1    2  502    0 -0.49371858251E+02  0.79635757002E+02  0.24596379450E+03  0.31442268109E+03  0.17200000000E+03 0.  1.
         -6    1    1    2    0  501  0.49371858251E+02 -0.79635757002E+02 -0.10878187543E+02  0.19616770668E+03  0.17200000000E+03 0. -1.
</event>
<event>
 4    1  0.8483901E-001  0.2802555E+03  0.7818608E-02  0.1095549E+00
          1   -1    0    0  502    0  0.00000000000E+00  0.00000000000E+00  0.30381235671E+03  0.30381235671E+03  0.00000000000E+00 0.  1.
         -1   -1    0    0    0  501 -0.00000000000E+00 -0.00000000000E+00 -0.37471514812E+03  0.37471514812E+03  0.00000000000E+00 0. -1.
          6    1    1    2  502    0 -0.48274812670E+02  0.21593678142E+03  0.15346563459E+03  0.31952285068E+03  0.17200000000E+03 0.  1.
         -6    1    1    2    0  501  0.48274812670E+02 -0.21593678142E+03 -0.22436842600E+03  0.35900465414E+03  0.17200000000E+03 0. -1.
</event>
<event>
 4    1  0.8483901E-001  0.1751400E+03  0.7818608E-02  0.1172591E+00
          1   -1    0    0  502    0  0.00000000000E+00  0.00000000000E+00  0.87541175350E+03  0.87541175350E+03  0.00000000000E+00 0. -1.
         -1   -1    0    0    0  501 -0.00000000000E+00 -0.00000000000E+00 -0.35589636103E+02  0.35589636103E+02  0.00000000000E+00 0.  1.
          6    1    1    2  502    0 -0.20136781504E+02 -0.26163698633E+02  0.47654082592E+03  0.50770580839E+03  0.17200000000E+03 0.  1.
         -6    1    1    2    0  501  0.20136781504E+02  0.26163698633E+02  0.36328129147E+03  0.40329558121E+03  0.17200000000E+03 0.  1.
</event>
<event>
 4    1  0.8483901E-001  0.2269395E+03  0.7818608E-02  0.1128813E+00
         -2   -1    0    0    0  501 -0.00000000000E+00  0.00000000000E+00  0.51205244353E+02  0.51205244353E+02  0.00000000000E+00 0.  1.
          2   -1    0    0  502    0  0.00000000000E+00 -0.00000000000E+00 -0.13091197369E+04  0.13091197369E+04  0.00000000000E+00 0. -1.
          6    1    1    2  502    0 -0.14572603404E+03  0.26104405880E+02 -0.30155371230E+03  0.37740715203E+03  0.17200000000E+03 0.  1.
         -6    1    1    2    0  501  0.14572603404E+03 -0.26104405880E+02 -0.95636078029E+03  0.98291782926E+03  0.17200000000E+03 0. -1.
</event>
<event>
 4    1  0.8483901E-001  0.1945227E+03  0.7818608E-02  0.1154444E+00
          2   -1    0    0  502    0  0.00000000000E+00  0.00000000000E+00  0.15057345569E+04  0.15057345569E+04  0.00000000000E+00 0.  1.
         -2   -1    0    0    0  501 -0.00000000000E+00 -0.00000000000E+00 -0.27916107638E+02  0.27916107638E+02  0.00000000000E+00 0. -1.
          6    1    1    2  502    0 -0.80309145298E+02  0.42491535817E+02  0.49665631665E+03  0.53339158814E+03  0.17200000000E+03 0. -1.
         -6    1    1    2    0  501  0.80309145298E+02 -0.42491535817E+02  0.98116213259E+03  0.10002590764E+04  0.17200000000E+03 0.  1.
</event>
<event>
 4    1  0.8483901E-001  0.1946348E+03  0.7818608E-02  0.1154346E+00
          1   -1    0    0  502    0  0.00000000000E+00  0.00000000000E+00  0.26678531533E+04  0.26678531533E+04  0.00000000000E+00 0.  1.
         -1   -1    0    0    0  501 -0.00000000000E+00 -0.00000000000E+00 -0.14449924396E+02  0.14449924396E+02  0.00000000000E+00 0. -1.
          6    1    1    2  502    0 -0.49668276940E+02 -0.76366049787E+02  0.15031878773E+04  0.15157362916E+04  0.17200000000E+03 0. -1.
         -6    1    1    2    0  501  0.49668276940E+02  0.76366049787E+02  0.11502153516E+04  0.11665667861E+04  0.17200000000E+03 0. -1.
</event>
<event>
 4    1  0.8483901E-001  0.1982705E+03  0.7818608E-02  0.1151206E+00
         -2   -1    0    0    0  501 -0.00000000000E+00  0.00000000000E+00  0.13292406156E+03  0.13292406156E+03  0.00000000000E+00 0. -1.
          2   -1    0    0  502    0  0.00000000000E+00 -0.00000000000E+00 -0.38587097190E+03  0.38587097190E+03  0.00000000000E+00 0.  1.
          6    1    1    2  502    0 -0.93053762033E+02  0.32682936566E+02 -0.11079976874E+01  0.19827356009E+03  0.17200000000E+03 0.  1.
         -6    1    1    2    0  501  0.93053762033E+02 -0.32682936566E+02 -0.25183891265E+03  0.32052147338E+03  0.17200000000E+03 0. -1.
</event>
<event>
 4    1  0.8483901E-001  0.2063522E+03  0.7818608E-02  0.1144488E+00
          2   -1    0    0  502    0  0.00000000000E+00  0.00000000000E+00  0.37132931917E+03  0.37132931917E+03  0.00000000000E+00 0.  1.
         -2   -1    0    0    0  501 -0.00000000000E+00 -0.00000000000E+00 -0.11663922303E+03  0.11663922303E+03  0.00000000000E+00 0. -1.
          6    1    1    2  502    0 -0.11267293960E+03 -0.17379528286E+02  0.95662677272E+02  0.22744798778E+03  0.17200000000E+03 0. -1.
         -6    1    1    2    0  501  0.11267293960E+03  0.17379528286E+02  0.15902741887E+03  0.26052055442E+03  0.17200000000E+03 0.  1.
</event>
<event>
 4    1  0.8483901E-001  0.1815410E+03  0.7818608E-02  0.1166320E+00
          1   -1    0    0  502    0  0.00000000000E+00  0.00000000000E+00  0.29808426644E+03  0.29808426644E+03  0.00000000000E+00 0. -1.
         -1   -1    0    0    0  501 -0.00000000000E+00 -0.00000000000E+00 -0.22112822667E+03  0.22112822667E+03  0.00000000000E+00 0.  1.
          6    1    1    2  502    0 -0.38143773871E+02 -0.43797173097E+02  0.22204814473E+03  0.28681443206E+03  0.17200000000E+03 0. -1.
         -6    1    1    2    0  501  0.38143773871E+02  0.43797173097E+02 -0.14509210497E+03  0.23239806105E+03  0.17200000000E+03 0.  1.
</event>
<event>
 4    1  0.8483901E-001  0.1788523E+03  0.7818608E-02  0.1168918E+00
          2   -1    0    0  502    0  0.00000000000E+00  0.00000000000E+00  0.14275421213E+04  0.14275421213E+04  0.00000000000E+00 0.  1.
         -2   -1    0    0    0  501 -0.00000000000E+00 -0.00000000000E+00 -0.23594305934E+02  0.23594305934E+02  0.00000000000E+00 0. -1.
          6    1    1    2  502    0  0.30567661818E+02  0.38337407665E+02  0.86467926584E+03  0.88298265642E+03  0.17200000000E+03 0.  1.
         -6    1    1    2    0  501 -0.30567661818E+02 -0.38337407665E+02  0.53926854951E+03  0.56815377080E+03  0.17200000000E+03 0. -1.
</event>
<event>
 4    1  0.8483901E-001  0.1906945E+03  0.7818608E-02  0.1157836E+00
         -2   -1    0    0    0  501 -0.00000000000E+00  0.00000000000E+00  0.14023850818E+03  0.14023850818E+03  0.00000000000E+00 0. -1.
          2   -1    0    0  502    0  0.00000000000E+00 -0.00000000000E+00 -0.26036175559E+03  0.26036175559E+03  0.00000000000E+00 0.  1.
          6    1    1    2  502    0  0.13810692170E+02  0.81176642099E+02 -0.72829538397E+02  0.20412869495E+03  0.17200000000E+03 0. -1.
         -6    1    1    2    0  501 -0.13810692170E+02 -0.81176642099E+02 -0.47293709006E+02  0.19647156881E+03  0.17200000000E+03 0.  1.
</event>
<event>
 4    1  0.8483901E-001  0.1735824E+03  0.7818608E-02  0.1174163E+00
         -2   -1    0    0    0  501 -0.00000000000E+00  0.00000000000E+00  0.22000556226E+02  0.22000556226E+02  0.00000000000E+00 0. -1.
          2   -1    0    0  502    0  0.00000000000E+00 -0.00000000000E+00 -0.15892481058E+04  0.15892481058E+04  0.00000000000E+00 0.  1.
          6    1    1    2  502    0 -0.15491011494E+02  0.17517750058E+02 -0.10831609450E+04  0.10969815294E+04  0.17200000000E+03 0.  1.
         -6    1    1    2    0  501  0.15491011494E+02 -0.17517750058E+02 -0.48408660459E+03  0.51426713267E+03  0.17200000000E+03 0. -1.
</event>
<event>
 4    1  0.8483901E-001  0.1728525E+03  0.7818608E-02  0.1174905E+00
          2   -1    0    0  502    0  0.00000000000E+00  0.00000000000E+00  0.31625944717E+04  0.31625944717E+04  0.00000000000E+00 0. -1.
         -2   -1    0    0    0  501 -0.00000000000E+00 -0.00000000000E+00 -0.10290060753E+02  0.10290060753E+02  0.00000000000E+00 0.  1.
          6    1    1    2  502    0  0.16383462253E+02 -0.50551431584E+01  0.11221395291E+04  0.11353744295E+04  0.17200000000E+03 0.  1.
         -6    1    1    2    0  501 -0.16383462253E+02  0.50551431584E+01  0.20301648818E+04  0.20375101030E+04  0.17200000000E+03 0. -1.
</event>
<event>
 4    1  0.8483901E-001  0.3915437E+03  0.7818608E-02  0.1046748E+00
         -2   -1    0    0    0  501 -0.00000000000E+00  0.00000000000E+00  0.47586692712E+02  0.47586692712E+02  0.00000000000E+00 0.  1.
          2   -1    0    0  502    0  0.00000000000E+00 -0.00000000000E+00 -0.33339503175E+04  0.33339503175E+04  0.00000000000E+00 0. -1.
          6    1    1    2  502    0  0.33514091146E+03 -0.10678507003E+03 -0.19535257748E+04  0.19923778343E+04  0.17200000000E+03 0.  1.
         -6    1    1    2    0  501 -0.33514091146E+03  0.10678507003E+03 -0.13328378500E+04  0.13891591759E+04  0.17200000000E+03 0.  1.
</event>
<event>
 4    1  0.8483901E-001  0.1729128E+03  0.7818608E-02  0.1174844E+00
          2   -1    0    0  502    0  0.00000000000E+00  0.00000000000E+00  0.60897724021E+03  0.60897724021E+03  0.00000000000E+00 0. -1.
         -2   -1    0    0    0  501 -0.00000000000E+00 -0.00000000000E+00 -0.72667323960E+02  0.72667323960E+02  0.00000000000E+00 0.  1.
          6    1    1    2  502    0 -0.56525364677E+00  0.17734147255E+02  0.74047049306E+02  0.18810046518E+03  0.17200000000E+03 0.  1.
         -6    1    1    2    0  501  0.56525364677E+00 -0.17734147255E+02  0.46226286695E+03  0.49354409899E+03  0.17200000000E+03 0. -1.
</event>
<event>
 4    1  0.8483901E-001  0.4461470E+03  0.7818608E-02  0.1028877E+00
          2   -1    0    0  502    0  0.00000000000E+00  0.00000000000E+00  0.13404110804E+04  0.13404110804E+04  0.00000000000E+00 0.  1.
         -2   -1    0    0    0  501 -0.00000000000E+00 -0.00000000000E+00 -0.15405182548E+03  0.15405182548E+03  0.00000000000E+00 0. -1.
          6    1    1    2  502    0 -0.12626339234E+03  0.39181715156E+03  0.45128890365E+03  0.63459341240E+03  0.17200000000E+03 0. -1.
         -6    1    1    2    0  501  0.12626339234E+03 -0.39181715156E+03  0.73507035130E+03  0.85986949351E+03  0.17200000000E+03 0.  1.
</event>
<event>
 4    1  0.8483901E-001  0.2384334E+03  0.7818608E-02  0.1120841E+00
         -2   -1    0    0    0  501 -0.00000000000E+00  0.00000000000E+00  0.27029240950E+02  0.27029240950E+02  0.00000000000E+00 0. -1.
          2   -1    0    0  502    0  0.00000000000E+00 -0.00000000000E+00 -0.29295740679E+04  0.29295740679E+04  0.00000000000E+00 0.  1.
          6    1    1    2  502    0  0.59673009291E+02  0.15396635193E+03 -0.22363703312E+04  0.22490448559E+04  0.17200000000E+03 0. -1.
         -6    1    1    2    0  501 -0.59673009291E+02 -0.15396635193E+03 -0.66617449583E+03  0.70755845303E+03  0.17200000000E+03 0.  1.
</event>
<event>
 4    1  0.8483901E-001  0.1893948E+03  0.7818608E-02  0.1159008E+00
          1   -1    0    0  502    0  0.00000000000E+00  0.00000000000E+00  0.10040595809E+04  0.10040595809E+04  0.00000000000E+00 0.  1.
         -1   -1    0    0    0  501 -0.00000000000E+00 -0.00000000000E+00 -0.40222341827E+02  0.40222341827E+02  0.00000000000E+00 0. -1.
          6    1    1    2  502    0 -0.36883710058E+02  0.70185212587E+02  0.30733016800E+03  0.36100166800E+03  0.17200000000E+03 0.  1.
         -6    1    1    2    0  501  0.36883710058E+02 -0.70185212587E+02  0.65650707104E+03  0.68328025470E+03  0.17200000000E+03 0.  1.
</event>
<event>
 4    1  0.8483901E-001  0.1815680E+03  0.7818608E-02  0.1166294E+00
         -2   -1    0    0    0  501 -0.00000000000E+00  0.00000000000E+00  0.15048549663E+03  0.15048549663E+03  0.00000000000E+00 0. -1.
          2   -1    0    0  502    0  0.00000000000E+00 -0.00000000000E+00 -0.24964181264E+03  0.24964181264E+03  0.00000000000E+00 0.  1.
          6    1    1    2  502    0  0.33863335790E+02 -0.47288500475E+02  0.20432929381E+02  0.18271407278E+03  0.17200000000E+03 0. -1.
         -6    1    1    2    0  501 -0.33863335790E+02  0.47288500475E+02 -0.11958924540E+03  0.21741323649E+03  0.17200000000E+03 0.  1.
</event>
<event>
 4    1  0.8483901E-001  0.1735289E+03  0.7818608E-02  0.1174217E+00
          2   -1    0    0  502    0  0.00000000000E+00  0.00000000000E+00  0.20192808625E+03  0.20192808625E+03  0.00000000000E+00 0. -1.
         -2   -1    0    0    0  501 -0.00000000000E+00 -0.00000000000E+00 -0.16490967461E+03  0.16490967461E+03  0.00000000000E+00 0.  1.
          6    1    1    2  502    0 -0.41755214836E+01 -0.22602021926E+02 -0.38239387751E+02  0.17769225405E+03  0.17200000000E+03 0.  1.
         -6    1    1    2    0  501  0.41755214836E+01  0.22602021926E+02  0.75257799388E+02  0.18914550680E+03  0.17200000000E+03 0. -1.
</event>
<event>
 4    1  0.8483901E-001  0.1845749E+03  0.7818608E-02  0.1163447E+00
          2   -1    0    0  502    0  0.00000000000E+00  0.00000000000E+00  0.27062766551E+03  0.27062766551E+03  0.00000000000E+00 0.  1.
         -2   -1    0    0    0  501 -0.00000000000E+00 -0.00000000000E+00 -0.14276259797E+03  0.14276259797E+03  0.00000000000E+00 0. -1.
          6    1    1    2  502    0 -0.32313728692E+02  0.58649215705E+02  0.13500166603E+03  0.22867740902E+03  0.17200000000E+03 0.  1.
         -6    1    1    2    0  501  0.32313728692E+02 -0.58649215705E+02 -0.71365984922E+01  0.18471285446E+03  0.17200000000E+03 0. -1.
</event>
<event>
 4    1  0.8483901E-001  0.1885042E+03  0.7818608E-02  0.1159817E+00
          2   -1    0    0  502    0  0.00000000000E+00  0.00000000000E+00  0.44612119735E+04  0.44612119735E+04  0.00000000000E+00 0.  1.
         -2   -1    0    0    0  501 -0.00000000000E+00 -0.00000000000E+00 -0.86048156979E+01  0.86048156979E+01  0.00000000000E+00 0. -1.
          6    1    1    2  502    0 -0.77129743532E+02  0.90503833181E+00  0.16169121068E+04  0.16278631937E+04  0.17200000000E+03 0. -1.
         -6    1    1    2    0  501  0.77129743532E+02 -0.90503833181E+00  0.28356950511E+04  0.28419535955E+04  0.17200000000E+03 0.  1.
</event>
<event>
 4    1  0.8483901E-001  0.2047883E+03  0.7818608E-02  0.1145761E+00
         -1   -1    0    0    0  501 -0.00000000000E+00  0.00000000000E+00  0.11556351145E+04  0.11556351145E+04  0.00000000000E+00 0. -1.
          1   -1    0    0  502    0  0.00000000000E+00 -0.00000000000E+00 -0.51277014702E+02  0.51277014702E+02  0.00000000000E+00 0.  1.
          6    1    1    2  502    0  0.62024721233E+02  0.92234284185E+02  0.87842036652E+03  0.90197592514E+03  0.17200000000E+03 0. -1.
         -6    1    1    2    0  501 -0.62024721233E+02 -0.92234284185E+02  0.22593773326E+03  0.30493620404E+03  0.17200000000E+03 0.  1.
</event>
<event>
 4    1  0.8483901E-001  0.2597022E+03  0.7818608E-02  0.1107322E+00
         -2   -1    0    0    0  501 -0.00000000000E+00  0.00000000000E+00  0.40183304523E+02  0.40183304523E+02  0.00000000000E+00 0. -1.
          2   -1    0    0  502    0  0.00000000000E+00 -0.00000000000E+00 -0.16807282633E+04  0.16807282633E+04  0.00000000000E+00 0.  1.
          6    1    1    2  502    0  0.95715996364E+02 -0.16940979672E+03 -0.78851732975E+03  0.83018360048E+03  0.17200000000E+03 0. -1.
         -6    1    1    2    0  501 -0.95715996364E+02  0.16940979672E+03 -0.85202762901E+03  0.89072796733E+03  0.17200000000E+03 0.  1.
</event>
<event>
 4    1  0.8483901E-001  0.1931282E+03  0.7818608E-02  0.1155670E+00
          1   -1    0    0  502    0  0.00000000000E+00  0.00000000000E+00  0.36094784875E+03  0.36094784875E+03  0.00000000000E+00 0.  1.
         -1   -1    0    0    0  501 -0.00000000000E+00 -0.00000000000E+00 -0.11519210192E+03  0.11519210192E+03  0.00000000000E+00 0. -1.
          6    1    1    2  502    0  0.88407170910E+01 -0.87386140495E+02  0.19925883032E+03  0.27749338243E+03  0.17200000000E+03 0.  1.
         -6    1    1    2    0  501 -0.88407170910E+01  0.87386140495E+02  0.46496916514E+02  0.19864656824E+03  0.17200000000E+03 0.  1.
</event>
<event>
 4    1  0.8483901E-001  0.1735498E+03  0.7818608E-02  0.1174196E+00
          2   -1    0    0  502    0  0.00000000000E+00  0.00000000000E+00  0.12665589832E+03  0.12665589832E+03  0.00000000000E+00 0. -1.
         -2   -1    0    0    0  501 -0.00000000000E+00 -0.00000000000E+00 -0.23939491452E+03  0.23939491452E+03  0.00000000000E+00 0.  1.
          6    1    1    2  502    0 -0.57979515884E+01  0.22403306496E+02 -0.41458294144E+02  0.17843294129E+03  0.17200000000E+03 0. -1.
         -6    1    1    2    0  501  0.57979515884E+01 -0.22403306496E+02 -0.71280722057E+02  0.18761787154E+03  0.17200000000E+03 0.  1.
</event>
<event>
 4    1  0.8483901E-001  0.2029390E+03  0.7818608E-02  0.1147283E+00
         -4   -1    0    0    0  501 -0.00000000000E+00  0.00000000000E+00  0.36869840357E+03  0.36869840357E+03  0.00000000000E+00 0. -1.
          4   -1    0    0  502    0  0.00000000000E+00 -0.00000000000E+00 -0.12600426275E+03  0.12600426275E+03  0.00000000000E+00 0.  1.
          6    1    1    2  502    0  0.76373709044E+02  0.75942798500E+02  0.20468217927E+03  0.28823436052E+03  0.17200000000E+03 0. -1.
         -6    1    1    2    0  501 -0.76373709044E+02 -0.75942798500E+02  0.38011961550E+02  0.20646830580E+03  0.17200000000E+03 0.  1.
</event>
<event>
 4    1  0.8483901E-001  0.1731473E+03  0.7818608E-02  0.1174605E+00
         -3   -1    0    0    0  501 -0.00000000000E+00  0.00000000000E+00  0.89576336684E+01  0.89576336684E+01  0.00000000000E+00 0.  1.
          3   -1    0    0  502    0  0.00000000000E+00 -0.00000000000E+00 -0.33810606284E+04  0.33810606284E+04  0.00000000000E+00 0. -1.
          6    1    1    2  502    0  0.18645975891E+02 -0.69503729159E+01 -0.15155852873E+04  0.15254437856E+04  0.17200000000E+03 0.  1.
         -6    1    1    2    0  501 -0.18645975891E+02  0.69503729159E+01 -0.18565177075E+04  0.18645744765E+04  0.17200000000E+03 0. -1.
</event>
<event>
 4    1  0.8483901E-001  0.2006724E+03  0.7818608E-02  0.1149173E+00
         -2   -1    0    0    0  501 -0.00000000000E+00  0.00000000000E+00  0.33623973345E+03  0.33623973345E+03  0.00000000000E+00 0.  1.
          2   -1    0    0  502    0  0.00000000000E+00 -0.00000000000E+00 -0.11983439073E+03  0.11983439073E+03  0.00000000000E+00 0. -1.
          6    1    1    2  502    0  0.53630456790E+02  0.88369545397E+02  0.11373097068E+03  0.23066021794E+03  0.17200000000E+03 0.  1.
         -6    1    1    2    0  501 -0.53630456790E+02 -0.88369545397E+02  0.10267437204E+03  0.22541390623E+03  0.17200000000E+03 0. -1.
</event>
<event>
 4    1  0.8483901E-001  0.1828538E+03  0.7818608E-02  0.1165069E+00
          1   -1    0    0  502    0  0.00000000000E+00  0.00000000000E+00  0.85660265736E+02  0.85660265736E+02  0.00000000000E+00 0.  1.
         -1   -1    0    0    0  501 -0.00000000000E+00 -0.00000000000E+00 -0.47953641918E+03  0.47953641918E+03  0.00000000000E+00 0. -1.
          6    1    1    2  502    0 -0.62060588523E+02 -0.80958083509E-01 -0.31882691059E+03  0.36754064009E+03  0.17200000000E+03 0. -1.
         -6    1    1    2    0  501  0.62060588523E+02  0.80958083509E-01 -0.75049242848E+02  0.19765604482E+03  0.17200000000E+03 0.  1.
</event>
<event>
 4    1  0.8483901E-001  0.1760975E+03  0.7818608E-02  0.1171634E+00
          2   -1    0    0  502    0  0.00000000000E+00  0.00000000000E+00  0.19816769567E+04  0.19816769567E+04  0.00000000000E+00 0. -1.
         -2   -1    0    0    0  501 -0.00000000000E+00 -0.00000000000E+00 -0.15791214374E+02  0.15791214374E+02  0.00000000000E+00 0.  1.
          6    1    1    2  502    0  0.37438848575E+02  0.49656794320E+01  0.10778797359E+04  0.10921698817E+04  0.17200000000E+03 0. -1.
         -6    1    1    2    0  501 -0.37438848575E+02 -0.49656794320E+01  0.88800600642E+03  0.90529828940E+03  0.17200000000E+03 0.  1.
</event>
<event>
 4    1  0.8483901E-001  0.1812110E+03  0.7818608E-02  0.1166636E+00
          1   -1    0    0  502    0  0.00000000000E+00  0.00000000000E+00  0.19719416766E+03  0.19719416766E+03  0.00000000000E+00 0. -1.
         -1   -1    0    0    0  501 -0.00000000000E+00 -0.00000000000E+00 -0.16717491437E+03  0.16717491437E+03  0.00000000000E+00 0.  1.
          6    1    1    2  502    0  0.90548479332E+00  0.57031517996E+02  0.26384262478E+02  0.18312166244E+03  0.17200000000E+03 0. -1.
         -6    1    1    2    0  501 -0.90548479332E+00 -0.57031517996E+02  0.36349908103E+01  0.18124741958E+03  0.17200000000E+03 0. -1.
</event>
<event>
 4    1  0.8483901E-001  0.1793799E+03  0.7818608E-02  0.1168405E+00
         -3   -1    0    0    0  501 -0.00000000000E+00  0.00000000000E+00  0.66070055229E+02  0.66070055229E+02  0.00000000000E+00 0. -1.
          3   -1    0    0  502    0  0.00000000000E+00 -0.00000000000E+00 -0.50383654661E+03  0.50383654661E+03  0.00000000000E+00 0.  1.
          6    1    1    2  502    0 -0.31702089442E+01 -0.50824185874E+02 -0.27094921720E+03  0.32494711323E+03  0.17200000000E+03 0.  1.
         -6    1    1    2    0  501  0.31702089442E+01  0.50824185874E+02 -0.16681727418E+03  0.24495948861E+03  0.17200000000E+03 0. -1.
</event>
<event>
 4    1  0.8483901E-001  0.2503887E+03  0.7818608E-02  0.1113059E+00
         -2   -1    0    0    0  501 -0.00000000000E+00  0.00000000000E+00  0.16356120267E+03  0.16356120267E+03  0.00000000000E+00 0.  1.
          2   -1    0    0  502    0  0.00000000000E+00 -0.00000000000E+00 -0.41537465960E+03  0.41537465960E+03  0.00000000000E+00 0. -1.
          6    1    1    2  502    0  0.17457373173E+03 -0.51327649317E+02 -0.20633322008E+03  0.32445017045E+03  0.17200000000E+03 0. -1.
         -6    1    1    2    0  501 -0.17457373173E+03  0.51327649317E+02 -0.45480236851E+02  0.25448569182E+03  0.17200000000E+03 0.  1.
</event>
<event>
 4    1  0.8483901E-001  0.1746990E+03  0.7818608E-02  0.1173034E+00
         -1   -1    0    0    0  501 -0.00000000000E+00  0.00000000000E+00  0.16885960307E+02  0.16885960307E+02  0.00000000000E+00 0.  1.
          1   -1    0    0  502    0  0.00000000000E+00 -0.00000000000E+00 -0.34887801228E+04  0.34887801228E+04  0.00000000000E+00 0. -1.
          6    1    1    2  502    0 -0.30570876727E+02 -0.10709203712E+01 -0.29527952550E+04  0.29579586784E+04  0.17200000000E+03 0. -1.
         -6    1    1    2    0  501  0.30570876727E+02  0.10709203712E+01 -0.51909890754E+03  0.54770740471E+03  0.17200000000E+03 0.  1.
</event>
<event>
 4    1  0.8483901E-001  0.1815687E+03  0.7818608E-02  0.1166293E+00
         -1   -1    0    0    0  501 -0.00000000000E+00  0.00000000000E+00  0.26129511246E+02  0.26129511246E+02  0.00000000000E+00 0. -1.
          1   -1    0    0  502    0  0.00000000000E+00 -0.00000000000E+00 -0.16665055153E+04  0.16665055153E+04  0.00000000000E+00 0.  1.
          6    1    1    2  502    0 -0.53788499511E+02  0.22135357378E+02 -0.40306711312E+03  0.44207496469E+03  0.17200000000E+03 0. -1.
         -6    1    1    2    0  501  0.53788499511E+02 -0.22135357378E+02 -0.12373088909E+04  0.12505600618E+04  0.17200000000E+03 0.  1.
</event>
<event>
 4    1  0.8483901E-001  0.2642242E+03  0.7818608E-02  0.1104631E+00
          2   -1    0    0  502    0  0.00000000000E+00  0.00000000000E+00  0.64753686721E+03  0.64753686721E+03  0.00000000000E+00 0. -1.
         -2   -1    0    0    0  501 -0.00000000000E+00 -0.00000000000E+00 -0.20958061549E+03  0.20958061549E+03  0.00000000000E+00 0.  1.
          6    1    1    2  502    0  0.53468620800E+02  0.19331724625E+03 -0.79652582739E+02  0.27596917408E+03  0.17200000000E+03 0.  1.
         -6    1    1    2    0  501 -0.53468620800E+02 -0.19331724625E+03  0.51760883446E+03  0.58114830862E+03  0.17200000000E+03 0. -1.
</event>
<event>
 4    1  0.8483901E-001  0.1967024E+03  0.7818608E-02  0.1152551E+00
         -2   -1    0    0    0  501 -0.00000000000E+00  0.00000000000E+00  0.11987365415E+02  0.11987365415E+02  0.00000000000E+00 0.  1.
          2   -1    0    0  502    0  0.00000000000E+00 -0.00000000000E+00 -0.33824495556E+04  0.33824495556E+04  0.00000000000E+00 0. -1.
          6    1    1    2  502    0 -0.72653948602E+02 -0.61880767587E+02 -0.13222260690E+04  0.13367773200E+04  0.17200000000E+03 0.  1.
         -6    1    1    2    0  501  0.72653948602E+02  0.61880767587E+02 -0.20482361211E+04  0.20576596010E+04  0.17200000000E+03 0. -1.
</event>
<event>
 4    1  0.8483901E-001  0.1728108E+03  0.7818608E-02  0.1174948E+00
          2   -1    0    0  502    0  0.00000000000E+00  0.00000000000E+00  0.46310894682E+03  0.46310894682E+03  0.00000000000E+00 0.  1.
         -2   -1    0    0    0  501 -0.00000000000E+00 -0.00000000000E+00 -0.81782845740E+02  0.81782845740E+02  0.00000000000E+00 0. -1.
          6    1    1    2  502    0  0.52153072418E+01 -0.15885754715E+02  0.65364566470E+02  0.18475952799E+03  0.17200000000E+03 0. -1.
         -6    1    1    2    0  501 -0.52153072418E+01  0.15885754715E+02  0.31596153462E+03  0.36013226458E+03  0.17200000000E+03 0.  1.
</event>
<event>
 4    1  0.8483901E-001  0.2790895E+03  0.7818608E-02  0.1096187E+00
         -1   -1    0    0    0  501 -0.00000000000E+00  0.00000000000E+00  0.11657360141E+03  0.11657360141E+03  0.00000000000E+00 0. -1.
          1   -1    0    0  502    0  0.00000000000E+00 -0.00000000000E+00 -0.68415185774E+03  0.68415185774E+03  0.00000000000E+00 0.  1.
          6    1    1    2  502    0  0.19027859947E+03  0.11000463961E+03 -0.34498089737E+03  0.44373729356E+03  0.17200000000E+03 0. -1.
         -6    1    1    2    0  501 -0.19027859947E+03 -0.11000463961E+03 -0.22259735897E+03  0.35698816559E+03  0.17200000000E+03 0. -1.
</event>
<event>
 4    1  0.8483901E-001  0.1759735E+03  0.7818608E-02  0.1171758E+00
          2   -1    0    0  502    0  0.00000000000E+00  0.00000000000E+00  0.58555934708E+02  0.58555934708E+02  0.00000000000E+00 0. -1.
         -2   -1    0    0    0  501 -0.00000000000E+00 -0.00000000000E+00 -0.57549396358E+03  0.57549396358E+03  0.00000000000E+00 0.  1.
          6    1    1    2  502    0 -0.11888410471E+02 -0.35232711182E+02 -0.34873428498E+03  0.39061781803E+03  0.17200000000E+03 0.  1.
         -6    1    1    2    0  501  0.11888410471E+02  0.35232711182E+02 -0.16820374389E+03  0.24343208026E+03  0.17200000000E+03 0. -1.
</event>
<event>
 4    1  0.8483901E-001  0.1955327E+03  0.7818608E-02  0.1153564E+00
         -2   -1    0    0    0  501 -0.00000000000E+00  0.00000000000E+00  0.39332866889E+02  0.39332866889E+02  0.00000000000E+00 0.  1.
          2   -1    0    0  502    0  0.00000000000E+00 -0.00000000000E+00 -0.98334055102E+03  0.98334055102E+03  0.00000000000E+00 0. -1.
          6    1    1    2  502    0  0.75967131821E+02 -0.53647306467E+02 -0.52682453662E+03  0.56194050485E+03  0.17200000000E+03 0. -1.
         -6    1    1    2    0  501 -0.75967131821E+02  0.53647306467E+02 -0.41718314751E+03  0.46073291306E+03  0.17200000000E+03 0.  1.
</event>
<event>
 4    1  0.8483901E-001  0.2230804E+03  0.7818608E-02  0.1131607E+00
         -2   -1    0    0    0  501 -0.00000000000E+00  0.00000000000E+00  0.70253457244E+02  0.70253457244E+02  0.00000000000E+00 0.  1.
          2   -1    0    0  502    0  0.00000000000E+00 -0.00000000000E+00 -0.71745154892E+03  0.71745154892E+03  0.00000000000E+00 0. -1.
          6    1    1    2  502    0 -0.95291285063E+02  0.10535853244E+03 -0.27926690269E+03  0.35742810788E+03  0.17200000000E+03 0.  1.
         -6    1    1    2    0  501  0.95291285063E+02 -0.10535853244E+03 -0.36793118899E+03  0.43027689829E+03  0.17200000000E+03 0. -1.
</event>
<event>
 4    1  0.8483901E-001  0.1790281E+03  0.7818608E-02  0.1168747E+00
          1   -1    0    0  502    0  0.00000000000E+00  0.00000000000E+00  0.55500667404E+03  0.55500667404E+03  0.00000000000E+00 0.  1.
         -1   -1    0    0    0  501 -0.00000000000E+00 -0.00000000000E+00 -0.60347288091E+02  0.60347288091E+02  0.00000000000E+00 0. -1.
          6    1    1    2  502    0 -0.44877934237E+02  0.21284715970E+02  0.31117244954E+03  0.35899771792E+03  0.17200000000E+03 0. -1.
         -6    1    1    2    0  501  0.44877934237E+02 -0.21284715970E+02  0.18348693640E+03  0.25635624421E+03  0.17200000000E+03 0. -1.
</event>
<event>
 4    1  0.8483901E-001  0.1798521E+03  0.7818608E-02  0.1167946E+00
          2   -1    0    0  502    0  0.00000000000E+00  0.00000000000E+00  0.21161866850E+04  0.21161866850E+04  0.00000000000E+00 0. -1.
         -2   -1    0    0    0  501 -0.00000000000E+00 -0.00000000000E+00 -0.23652101141E+02  0.23652101141E+02  0.00000000000E+00 0.  1.
          6    1    1    2  502    0  0.51388816874E+02 -0.11043778706E+02  0.40992156428E+03  0.44764099947E+03  0.17200000000E+03 0.  1.
         -6    1    1    2    0  501 -0.51388816874E+02  0.11043778706E+02  0.16826130195E+04  0.16921977866E+04  0.17200000000E+03 0. -1.
</event>
<event>
 4    1  0.8483901E-001  0.1792191E+03  0.7818608E-02  0.1168561E+00
         -2   -1    0    0    0  501 -0.00000000000E+00  0.00000000000E+00  0.16860079407E+02  0.16860079407E+02  0.00000000000E+00 0.  1.
          2   -1    0    0  502    0  0.00000000000E+00 -0.00000000000E+00 -0.19051263966E+04  0.19051263966E+04  0.00000000000E+00 0. -1.
          6    1    1    2  502    0  0.18835864049E+02  0.46697949918E+02 -0.94974160565E+03  0.96650328805E+03  0.17200000000E+03 0.  1.
         -6    1    1    2    0  501 -0.18835864049E+02 -0.46697949918E+02 -0.93852471156E+03  0.95548318798E+03  0.17200000000E+03 0.  1.
</event>
<event>
 4    1  0.8483901E-001  0.1767007E+03  0.7818608E-02  0.1171035E+00
         -4   -1    0    0    0  501 -0.00000000000E+00  0.00000000000E+00  0.13786206916E+03  0.13786206916E+03  0.00000000000E+00 0. -1.
          4   -1    0    0  502    0  0.00000000000E+00 -0.00000000000E+00 -0.23038956024E+03  0.23038956024E+03  0.00000000000E+00 0.  1.
          6    1    1    2  502    0 -0.48085426662E+01 -0.40199572247E+02 -0.70246350885E+02  0.19015172233E+03  0.17200000000E+03 0.  1.
         -6    1    1    2    0  501  0.48085426662E+01  0.40199572247E+02 -0.22281140192E+02  0.17809990707E+03  0.17200000000E+03 0. -1.
</event>
<event>
 4    1  0.8483901E-001  0.1933044E+03  0.7818608E-02  0.1155514E+00
         -2   -1    0    0    0  501 -0.00000000000E+00  0.00000000000E+00  0.11031166919E+03  0.11031166919E+03  0.00000000000E+00 0. -1.
          2   -1    0    0  502    0  0.00000000000E+00 -0.00000000000E+00 -0.34062758753E+03  0.34062758753E+03  0.00000000000E+00 0.  1.
          6    1    1    2  502    0 -0.72900217942E+02 -0.49680404053E+02 -0.98357987775E+02  0.21688909166E+03  0.17200000000E+03 0.  1.
         -6    1    1    2    0  501  0.72900217942E+02  0.49680404053E+02 -0.13195793057E+03  0.23405016506E+03  0.17200000000E+03 0.  1.
</event>
<event>
 4    1  0.8483901E-001  0.1781894E+03  0.7818608E-02  0.1169567E+00
         -2   -1    0    0    0  501 -0.00000000000E+00  0.00000000000E+00  0.84780310408E+02  0.84780310408E+02  0.00000000000E+00 0. -1.
          2   -1    0    0  502    0  0.00000000000E+00 -0.00000000000E+00 -0.39173952961E+03  0.39173952961E+03  0.00000000000E+00 0.  1.
          6    1    1    2  502    0  0.37582654074E+01 -0.46404228973E+02 -0.10351884342E+03  0.20607675262E+03  0.17200000000E+03 0. -1.
         -6    1    1    2    0  501 -0.37582654074E+01  0.46404228973E+02 -0.20344037578E+03  0.27044308740E+03  0.17200000000E+03 0.  1.
</event>
<event>
 4    1  0.8483901E-001  0.1931703E+03  0.7818608E-02  0.1155633E+00
          4   -1    0    0  502    0  0.00000000000E+00  0.00000000000E+00  0.47835548122E+03  0.47835548122E+03  0.00000000000E+00 0.  1.
         -4   -1    0    0    0  501 -0.00000000000E+00 -0.00000000000E+00 -0.78517139907E+02  0.78517139907E+02  0.00000000000E+00 0. -1.
          6    1    1    2  502    0 -0.42761949764E+02 -0.76825649787E+02  0.22237685827E+03  0.29456108349E+03  0.17200000000E+03 0.  1.
         -6    1    1    2    0  501  0.42761949764E+02  0.76825649787E+02  0.17746148303E+03  0.26231153763E+03  0.17200000000E+03 0.  1.
</event>
<event>
 4    1  0.8483901E-001  0.2149135E+03  0.7818608E-02  0.1137733E+00
          3   -1    0    0  502    0  0.00000000000E+00  0.00000000000E+00  0.72605339065E+02  0.72605339065E+02  0.00000000000E+00 0.  1.
         -3   -1    0    0    0  501 -0.00000000000E+00 -0.00000000000E+00 -0.69659650148E+03  0.69659650148E+03  0.00000000000E+00 0. -1.
          6    1    1    2  502    0  0.97618156378E+02 -0.84110127437E+02 -0.19870112833E+03  0.29269430536E+03  0.17200000000E+03 0.  1.
         -6    1    1    2    0  501 -0.97618156378E+02  0.84110127437E+02 -0.42529003409E+03  0.47650753519E+03  0.17200000000E+03 0. -1.
</event>
<event>
 4    1  0.8483901E-001  0.2686781E+03  0.7818608E-02  0.1102039E+00
          2   -1    0    0  502    0  0.00000000000E+00  0.00000000000E+00  0.24594646493E+04  0.24594646493E+04  0.00000000000E+00 0. -1.
         -2   -1    0    0    0  501 -0.00000000000E+00 -0.00000000000E+00 -0.55197743063E+02  0.55197743063E+02  0.00000000000E+00 0.  1.
          6    1    1    2  502    0  0.87405659281E+02  0.18698705250E+03  0.34175129337E+03  0.43472043154E+03  0.17200000000E+03 0.  1.
         -6    1    1    2    0  501 -0.87405659281E+02 -0.18698705250E+03  0.20625156128E+04  0.20799419608E+04  0.17200000000E+03 0. -1.
</event>
<event>
 4    1  0.8483901E-001  0.1861153E+03  0.7818608E-02  0.1162012E+00
         -1   -1    0    0    0  501 -0.00000000000E+00  0.00000000000E+00  0.16253537986E+03  0.16253537986E+03  0.00000000000E+00 0. -1.
          1   -1    0    0  502    0  0.00000000000E+00 -0.00000000000E+00 -0.22519166994E+03  0.22519166994E+03  0.00000000000E+00 0.  1.
          6    1    1    2  502    0 -0.52477095571E+02  0.47969242013E+02 -0.76220785392E+02  0.20111812913E+03  0.17200000000E+03 0. -1.
         -6    1    1    2    0  501  0.52477095571E+02 -0.47969242013E+02  0.13564495317E+02  0.18660892067E+03  0.17200000000E+03 0. -1.
</event>
<event>
 4    1  0.8483901E-001  0.1790555E+03  0.7818608E-02  0.1168720E+00
          1   -1    0    0  502    0  0.00000000000E+00  0.00000000000E+00  0.42068809290E+03  0.42068809290E+03  0.00000000000E+00 0. -1.
         -1   -1    0    0    0  501 -0.00000000000E+00 -0.00000000000E+00 -0.77150767119E+02  0.77150767119E+02  0.00000000000E+00 0.  1.
          6    1    1    2  502    0 -0.10860956110E+02 -0.48568495911E+02  0.19924818751E+03  0.26788187581E+03  0.17200000000E+03 0. -1.
         -6    1    1    2    0  501  0.10860956110E+02  0.48568495911E+02  0.14428913827E+03  0.22995698421E+03  0.17200000000E+03 0.  1.
</event>
<event>
 4    1  0.8483901E-001  0.2039943E+03  0.7818608E-02  0.1146412E+00
          1   -1    0    0  502    0  0.00000000000E+00  0.00000000000E+00  0.89351563292E+02  0.89351563292E+02  0.00000000000E+00 0. -1.
         -1   -1    0    0    0  501 -0.00000000000E+00 -0.00000000000E+00 -0.46685293508E+03  0.46685293508E+03  0.00000000000E+00 0.  1.
          6    1    1    2  502    0 -0.10962090228E+03  0.35976425791E+01 -0.20239122173E+03  0.28736021277E+03  0.17200000000E+03 0.  1.
         -6    1    1    2    0  501  0.10962090228E+03 -0.35976425791E+01 -0.17511015005E+03  0.26884428560E+03  0.17200000000E+03 0. -1.
</event>
<event>
 4    1  0.8483901E-001  0.2816742E+03  0.7818608E-02  0.1094778E+00
          2   -1    0    0  502    0  0.00000000000E+00  0.00000000000E+00  0.17041080801E+04  0.17041080801E+04  0.00000000000E+00 0. -1.
         -2   -1    0    0    0  501 -0.00000000000E+00 -0.00000000000E+00 -0.12112001371E+03  0.12112001371E+03  0.00000000000E+00 0.  1.
          6    1    1    2  502    0 -0.20820768137E+03  0.80036973456E+02  0.75454225230E+02  0.29160537685E+03  0.17200000000E+03 0.  1.
         -6    1    1    2    0  501  0.20820768137E+03 -0.80036973456E+02  0.15075338412E+04  0.15336227170E+04  0.17200000000E+03 0. -1.
</event>
<event>
 4    1  0.8483901E-001  0.1847966E+03  0.7818608E-02  0.1163240E+00
          3   -1    0    0  502    0  0.00000000000E+00  0.00000000000E+00  0.24488033020E+03  0.24488033020E+03  0.00000000000E+00 0.  1.
         -3   -1    0    0    0  501 -0.00000000000E+00 -0.00000000000E+00 -0.17714032058E+03  0.17714032058E+03  0.00000000000E+00 0. -1.
          6    1    1    2  502    0  0.36921586203E+02 -0.56591236890E+02 -0.63456572319E+02  0.19538809634E+03  0.17200000000E+03 0. -1.
         -6    1    1    2    0  501 -0.36921586203E+02  0.56591236890E+02  0.13119658194E+03  0.22663255444E+03  0.17200000000E+03 0.  1.
</event>
<event>
 4    1  0.8483901E-001  0.1898608E+03  0.7818608E-02  0.1158587E+00
          2   -1    0    0  502    0  0.00000000000E+00  0.00000000000E+00  0.76813533216E+03  0.76813533216E+03  0.00000000000E+00 0.  1.
         -2   -1    0    0    0  501 -0.00000000000E+00 -0.00000000000E+00 -0.48697401413E+02  0.48697401413E+02  0.00000000000E+00 0. -1.
          6    1    1    2  502    0 -0.28646794985E+02  0.75116433876E+02  0.43756803413E+03  0.47698312548E+03  0.17200000000E+03 0. -1.
         -6    1    1    2    0  501  0.28646794985E+02 -0.75116433876E+02  0.28186989662E+03  0.33984960809E+03  0.17200000000E+03 0. -1.
</event>
<event>
 4    1  0.8483901E-001  0.2098665E+03  0.7818608E-02  0.1141672E+00
         -3   -1    0    0    0  501 -0.00000000000E+00  0.00000000000E+00  0.24107557516E+03  0.24107557516E+03  0.00000000000E+00 0.  1.
          3   -1    0    0  502    0  0.00000000000E+00 -0.00000000000E+00 -0.22575463626E+03  0.22575463626E+03  0.00000000000E+00 0. -1.
          6    1    1    2  502    0  0.11909610820E+03  0.16614914218E+02  0.10959762009E+03  0.23676058940E+03  0.17200000000E+03 0.  1.
         -6    1    1    2    0  501 -0.11909610820E+03 -0.16614914218E+02 -0.94276681184E+02  0.23006962202E+03  0.17200000000E+03 0. -1.
</event>
<event>
 4    1  0.8483901E-001  0.2180407E+03  0.7818608E-02  0.1135352E+00
          1   -1    0    0  502    0  0.00000000000E+00  0.00000000000E+00  0.40117961848E+03  0.40117961848E+03  0.00000000000E+00 0. -1.
         -1   -1    0    0    0  501 -0.00000000000E+00 -0.00000000000E+00 -0.19655452645E+03  0.19655452645E+03  0.00000000000E+00 0.  1.
          6    1    1    2  502    0 -0.77728446852E+02  0.10916052227E+03 -0.86018576220E+02  0.23439480909E+03  0.17200000000E+03 0. -1.
         -6    1    1    2    0  501  0.77728446852E+02 -0.10916052227E+03  0.29064366825E+03  0.36333933584E+03  0.17200000000E+03 0. -1.
</event>
<event>
 4    1  0.8483901E-001  0.2010090E+03  0.7818608E-02  0.1148890E+00
          2   -1    0    0  502    0  0.00000000000E+00  0.00000000000E+00  0.59648426882E+03  0.59648426882E+03  0.00000000000E+00 0.  1.
         -2   -1    0    0    0  501 -0.00000000000E+00 -0.00000000000E+00 -0.71288703010E+02  0.71288703010E+02  0.00000000000E+00 0. -1.
          6    1    1    2  502    0  0.59841596449E+02  0.85085893057E+02  0.33711356725E+03  0.39249227137E+03  0.17200000000E+03 0.  1.
         -6    1    1    2    0  501 -0.59841596449E+02 -0.85085893057E+02  0.18808199856E+03  0.27528070046E+03  0.17200000000E+03 0. -1.
</event>
<event>
 4    1  0.8483901E-001  0.1781368E+03  0.7818608E-02  0.1169619E+00
          2   -1    0    0  502    0  0.00000000000E+00  0.00000000000E+00  0.94001024156E+03  0.94001024156E+03  0.00000000000E+00 0.  1.
         -2   -1    0    0    0  501 -0.00000000000E+00 -0.00000000000E+00 -0.35035334822E+02  0.35035334822E+02  0.00000000000E+00 0. -1.
          6    1    1    2  502    0 -0.29671661940E+02  0.35613275713E+02  0.54558147527E+03  0.57392670184E+03  0.17200000000E+03 0. -1.
         -6    1    1    2    0  501  0.29671661940E+02 -0.35613275713E+02  0.35939343147E+03  0.40111887454E+03  0.17200000000E+03 0. -1.
</event>
<event>
 4    1  0.8483901E-001  0.4486984E+03  0.7818608E-02  0.1028111E+00
          1   -1    0    0  502    0  0.00000000000E+00  0.00000000000E+00  0.60689926431E+03  0.60689926431E+03  0.00000000000E+00 0. -1.
         -1   -1    0    0    0  501 -0.00000000000E+00 -0.00000000000E+00 -0.79176287022E+03  0.79176287022E+03  0.00000000000E+00 0.  1.
          6    1    1    2  502    0 -0.15864875396E+03 -0.38285349100E+03 -0.62549284350E+03  0.76978667173E+03  0.17200000000E+03 0.  1.
         -6    1    1    2    0  501  0.15864875396E+03  0.38285349100E+03  0.44062923758E+03  0.62887546280E+03  0.17200000000E+03 0. -1.
</event>
<event>
 4    1  0.8483901E-001  0.1842807E+03  0.7818608E-02  0.1163723E+00
         -2   -1    0    0    0  501 -0.00000000000E+00  0.00000000000E+00  0.42612508129E+02  0.42612508129E+02  0.00000000000E+00 0.  1.
          2   -1    0    0  502    0  0.00000000000E+00 -0.00000000000E+00 -0.79949297759E+03  0.79949297759E+03  0.00000000000E+00 0. -1.
          6    1    1    2  502    0  0.15115991796E+01  0.66129274766E+02 -0.40226034539E+03  0.44246214684E+03  0.17200000000E+03 0.  1.
         -6    1    1    2    0  501 -0.15115991796E+01 -0.66129274766E+02 -0.35462012406E+03  0.39964333887E+03  0.17200000000E+03 0. -1.
</event>
<event>
 4    1  0.8483901E-001  0.2671890E+03  0.7818608E-02  0.1102899E+00
         -2   -1    0    0    0  501 -0.00000000000E+00  0.00000000000E+00  0.25196842858E+03  0.25196842858E+03  0.00000000000E+00 0. -1.
          2   -1    0    0  502    0  0.00000000000E+00 -0.00000000000E+00 -0.34611921836E+03  0.34611921836E+03  0.00000000000E+00 0.  1.
          6    1    1    2  502    0  0.45315283917E+02  0.19938022254E+03 -0.17444569719E+03  0.31909442077E+03  0.17200000000E+03 0.  1.
         -6    1    1    2    0  501 -0.45315283917E+02 -0.19938022254E+03  0.80294907407E+02  0.27899322618E+03  0.17200000000E+03 0.  1.
</event>
<event>
 4    1  0.8483901E-001  0.2318552E+03  0.7818608E-02  0.1125341E+00
         -2   -1    0    0    0  501 -0.00000000000E+00  0.00000000000E+00  0.28529834426E+03  0.28529834426E+03  0.00000000000E+00 0. -1.
          2   -1    0    0  502    0  0.00000000000E+00 -0.00000000000E+00 -0.29750675735E+03  0.29750675735E+03  0.00000000000E+00 0.  1.
          6    1    1    2  502    0  0.12794717235E+03 -0.88330996986E+02 -0.18255534295E+03  0.29509879224E+03  0.17200000000E+03 0.  1.
         -6    1    1    2    0  501 -0.12794717235E+03  0.88330996986E+02  0.17034692986E+03  0.28770630937E+03  0.17200000000E+03 0. -1.
</event>
<event>
 4    1  0.8483901E-001  0.1836325E+03  0.7818608E-02  0.1164333E+00
          2   -1    0    0  502    0  0.00000000000E+00  0.00000000000E+00  0.61337148996E+03  0.61337148996E+03  0.00000000000E+00 0. -1.
         -2   -1    0    0    0  501 -0.00000000000E+00 -0.00000000000E+00 -0.77951295807E+02  0.77951295807E+02  0.00000000000E+00 0.  1.
          6    1    1    2  502    0 -0.16587342546E+02  0.62142996642E+02  0.80052144364E+02  0.20032283390E+03  0.17200000000E+03 0.  1.
         -6    1    1    2    0  501  0.16587342546E+02 -0.62142996642E+02  0.45536804978E+03  0.49099995186E+03  0.17200000000E+03 0. -1.
</event>
<event>
 4    1  0.8483901E-001  0.2826244E+03  0.7818608E-02  0.1094264E+00
         -1   -1    0    0    0  501 -0.00000000000E+00  0.00000000000E+00  0.27284766435E+02  0.27284766435E+02  0.00000000000E+00 0. -1.
          1   -1    0    0  502    0  0.00000000000E+00 -0.00000000000E+00 -0.34852413390E+04  0.34852413390E+04  0.00000000000E+00 0.  1.
          6    1    1    2  502    0 -0.14471375780E+03  0.17131988659E+03 -0.24315384801E+04  0.24479084859E+04  0.17200000000E+03 0.  1.
         -6    1    1    2    0  501  0.14471375780E+03 -0.17131988659E+03 -0.10264180925E+04  0.10646176195E+04  0.17200000000E+03 0. -1.
</event>
<event>
 4    1  0.8483901E-001  0.1735379E+03  0.7818608E-02  0.1174208E+00
          1   -1    0    0  502    0  0.00000000000E+00  0.00000000000E+00  0.99638749674E+03  0.99638749674E+03  0.00000000000E+00 0. -1.
         -1   -1    0    0    0  501 -0.00000000000E+00 -0.00000000000E+00 -0.30338836237E+02  0.30338836237E+02  0.00000000000E+00 0.  1.
          6    1    1    2  502    0  0.23040808056E+02  0.72886376211E+00  0.45152264539E+03  0.48372317432E+03  0.17200000000E+03 0.  1.
         -6    1    1    2    0  501 -0.23040808056E+02 -0.72886376211E+00  0.51452601512E+03  0.54300315866E+03  0.17200000000E+03 0. -1.
</event>
<event>
 4    1  0.8483901E-001  0.1745000E+03  0.7818608E-02  0.1173235E+00
         -1   -1    0    0    0  501 -0.00000000000E+00  0.00000000000E+00  0.10093141367E+02  0.10093141367E+02  0.00000000000E+00 0.  1.
          1   -1    0    0  502    0  0.00000000000E+00 -0.00000000000E+00 -0.33167809332E+04  0.33167809332E+04  0.00000000000E+00 0. -1.
          6    1    1    2  502    0 -0.28591274498E+02  0.69844619105E+01 -0.11531886982E+04  0.11663166026E+04  0.17200000000E+03 0.  1.
         -6    1    1    2    0  501  0.28591274498E+02 -0.69844619105E+01 -0.21534990936E+04  0.21605574720E+04  0.17200000000E+03 0. -1.
</event>
<event>
 4    1  0.8483901E-001  0.2239075E+03  0.7818608E-02  0.1131003E+00
          2   -1    0    0  502    0  0.00000000000E+00  0.00000000000E+00  0.68388605470E+03  0.68388605470E+03  0.00000000000E+00 0. -1.
         -2   -1    0    0    0  501 -0.00000000000E+00 -0.00000000000E+00 -0.77024041045E+02  0.77024041045E+02  0.00000000000E+00 0.  1.
          6    1    1    2  502    0  0.14209169460E+03 -0.18987022188E+02  0.38699325829E+03  0.44709992020E+03  0.17200000000E+03 0. -1.
         -6    1    1    2    0  501 -0.14209169460E+03  0.18987022188E+02  0.21986875536E+03  0.31381017554E+03  0.17200000000E+03 0.  1.
</event>
<event>
 4    1  0.8483901E-001  0.1955533E+03  0.7818608E-02  0.1153546E+00
          2   -1    0    0  502    0  0.00000000000E+00  0.00000000000E+00  0.18628526274E+04  0.18628526274E+04  0.00000000000E+00 0.  1.
         -2   -1    0    0    0  501 -0.00000000000E+00 -0.00000000000E+00 -0.26051847122E+02  0.26051847122E+02  0.00000000000E+00 0. -1.
          6    1    1    2  502    0  0.26235068705E+02  0.89268206361E+02  0.48351781182E+03  0.52156549526E+03  0.17200000000E+03 0.  1.
         -6    1    1    2    0  501 -0.26235068705E+02 -0.89268206361E+02  0.13532829684E+04  0.13673389792E+04  0.17200000000E+03 0.  1.
</event>
<event>
 4    1  0.8483901E-001  0.1858178E+03  0.7818608E-02  0.1162288E+00
         -2   -1    0    0    0  501 -0.00000000000E+00  0.00000000000E+00  0.19334850916E+02  0.19334850916E+02  0.00000000000E+00 0.  1.
          2   -1    0    0  502    0  0.00000000000E+00 -0.00000000000E+00 -0.20454859345E+04  0.20454859345E+04  0.00000000000E+00 0. -1.
          6    1    1    2  502    0 -0.58881420314E+02  0.38434921715E+02 -0.64522235525E+03  0.67144631400E+03  0.17200000000E+03 0.  1.
         -6    1    1    2    0  501  0.58881420314E+02 -0.38434921715E+02 -0.13809287283E+04  0.13933744714E+04  0.17200000000E+03 0. -1.
</event>
<event>
 4    1  0.8483901E-001  0.1918388E+03  0.7818608E-02  0.1156813E+00
          1   -1    0    0  502    0  0.00000000000E+00  0.00000000000E+00  0.34263933412E+02  0.34263933412E+02  0.00000000000E+00 0. -1.
         -1   -1    0    0    0  501 -0.00000000000E+00 -0.00000000000E+00 -0.11323341194E+04  0.11323341194E+04  0.00000000000E+00 0.  1.
          6    1    1    2  502    0  0.60144111932E+02  0.60006810103E+02 -0.68133981394E+03  0.70783195288E+03  0.17200000000E+03 0.  1.
         -6    1    1    2    0  501 -0.60144111932E+02 -0.60006810103E+02 -0.41673037205E+03  0.45876609993E+03  0.17200000000E+03 0. -1.
</event>
<event>
 4    1  0.8483901E-001  0.2015798E+03  0.7818608E-02  0.1148413E+00
          2   -1    0    0  502    0  0.00000000000E+00  0.00000000000E+00  0.24609590173E+03  0.24609590173E+03  0.00000000000E+00 0. -1.
         -2   -1    0    0    0  501 -0.00000000000E+00 -0.00000000000E+00 -0.23977540121E+03  0.23977540121E+03  0.00000000000E+00 0.  1.
          6    1    1    2  502    0 -0.34949963323E+02 -0.99140900475E+02 -0.13239946061E+03  0.24117221078E+03  0.17200000000E+03 0.  1.
         -6    1    1    2    0  501  0.34949963323E+02  0.99140900475E+02  0.13871996113E+03  0.24469909215E+03  0.17200000000E+03 0. -1.
</event>
<event>
 4    1  0.8483901E-001  0.1935426E+03  0.7818608E-02  0.1155304E+00
         -2   -1    0    0    0  501 -0.00000000000E+00  0.00000000000E+00  0.59497600831E+02  0.59497600831E+02  0.00000000000E+00 0.  1.
          2   -1    0    0  502    0  0.00000000000E+00 -0.00000000000E+00 -0.84280362850E+03  0.84280362850E+03  0.00000000000E+00 0. -1.
          6    1    1    2  502    0  0.86395421719E+02 -0.20262212872E+02 -0.16473334525E+03  0.25415704043E+03  0.17200000000E+03 0.  1.
         -6    1    1    2    0  501 -0.86395421719E+02  0.20262212872E+02 -0.61857268243E+03  0.64814418890E+03  0.17200000000E+03 0. -1.
</event>
<event>
 4    1  0.8483901E-001  0.2102846E+03  0.7818608E-02  0.1141341E+00
          1   -1    0    0  502    0  0.00000000000E+00  0.00000000000E+00  0.36993386139E+03  0.36993386139E+03  0.00000000000E+00 0.  1.
         -1   -1    0    0    0  501 -0.00000000000E+00 -0.00000000000E+00 -0.15366634407E+03  0.15366634407E+03  0.00000000000E+00 0. -1.
          6    1    1    2  502    0  0.94896973820E+02  0.75034573355E+02  0.23151932921E+03  0.31276320537E+03  0.17200000000E+03 0.  1.
         -6    1    1    2    0  501 -0.94896973820E+02 -0.75034573355E+02 -0.15251811892E+02  0.21083700008E+03  0.17200000000E+03 0. -1.
</event>
<event>
 4    1  0.8483901E-001  0.1812474E+03  0.7818608E-02  0.1166601E+00
          2   -1    0    0  502    0  0.00000000000E+00  0.00000000000E+00  0.34193320945E+04  0.34193320945E+04  0.00000000000E+00 0.  1.
         -2   -1    0    0    0  501 -0.00000000000E+00 -0.00000000000E+00 -0.19205782624E+02  0.19205782624E+02  0.00000000000E+00 0. -1.
          6    1    1    2  502    0  0.52309344107E+02 -0.23029605616E+02  0.48463702789E+03  0.51742021513E+03  0.17200000000E+03 0. -1.
         -6    1    1    2    0  501 -0.52309344107E+02  0.23029605616E+02  0.29154892840E+04  0.29211176620E+04  0.17200000000E+03 0.  1.
</event>
<event>
 4    1  0.8483901E-001  0.1760959E+03  0.7818608E-02  0.1171636E+00
          2   -1    0    0  502    0  0.00000000000E+00  0.00000000000E+00  0.10434480051E+03  0.10434480051E+03  0.00000000000E+00 0. -1.
         -2   -1    0    0    0  501 -0.00000000000E+00 -0.00000000000E+00 -0.36192881804E+03  0.36192881804E+03  0.00000000000E+00 0.  1.
          6    1    1    2  502    0 -0.26643380792E+02 -0.26756276360E+02 -0.22739646407E+03  0.28760897054E+03  0.17200000000E+03 0.  1.
         -6    1    1    2    0  501  0.26643380792E+02  0.26756276360E+02 -0.30187553461E+02  0.17866464801E+03  0.17200000000E+03 0. -1.
</event>
<event>
 4    1  0.8483901E-001  0.2633739E+03  0.7818608E-02  0.1105133E+00
         -1   -1    0    0    0  501 -0.00000000000E+00  0.00000000000E+00  0.47148292302E+02  0.47148292302E+02  0.00000000000E+00 0. -1.
          1   -1    0    0  502    0  0.00000000000E+00 -0.00000000000E+00 -0.23138604357E+04  0.23138604357E+04  0.00000000000E+00 0.  1.
          6    1    1    2  502    0  0.15592590527E+03 -0.12437422612E+03 -0.42096513465E+03  0.49656568613E+03  0.17200000000E+03 0. -1.
         -6    1    1    2    0  501 -0.15592590527E+03  0.12437422612E+03 -0.18457470088E+04  0.18644430419E+04  0.17200000000E+03 0.  1.
</event>
<event>
 4    1  0.8483901E-001  0.1727120E+03  0.7818608E-02  0.1175049E+00
         -1   -1    0    0    0  501 -0.00000000000E+00  0.00000000000E+00  0.26314947773E+03  0.26314947773E+03  0.00000000000E+00 0.  1.
          1   -1    0    0  502    0  0.00000000000E+00 -0.00000000000E+00 -0.12745385486E+03  0.12745385486E+03  0.00000000000E+00 0. -1.
          6    1    1    2  502    0  0.77224177386E+01 -0.13630219456E+02  0.28924553797E+01  0.17273617142E+03  0.17200000000E+03 0. -1.
         -6    1    1    2    0  501 -0.77224177386E+01  0.13630219456E+02  0.13280316749E+03  0.21786716117E+03  0.17200000000E+03 0.  1.
</event>
<event>
 4    1  0.8483901E-001  0.1980363E+03  0.7818608E-02  0.1151406E+00
          1   -1    0    0  502    0  0.00000000000E+00  0.00000000000E+00  0.19784274107E+03  0.19784274107E+03  0.00000000000E+00 0.  1.
         -1   -1    0    0    0  501 -0.00000000000E+00 -0.00000000000E+00 -0.26246974142E+03  0.26246974142E+03  0.00000000000E+00 0. -1.
          6    1    1    2  502    0  0.94267530066E+02 -0.27349395020E+02 -0.14617717508E+03  0.24614248546E+03  0.17200000000E+03 0. -1.
         -6    1    1    2    0  501 -0.94267530066E+02  0.27349395020E+02  0.81550174733E+02  0.21416999704E+03  0.17200000000E+03 0.  1.
</event>
<event>
 4    1  0.8483901E-001  0.1774357E+03  0.7818608E-02  0.1170308E+00
          2   -1    0    0  502    0  0.00000000000E+00  0.00000000000E+00  0.49448305427E+03  0.49448305427E+03  0.00000000000E+00 0.  1.
         -2   -1    0    0    0  501 -0.00000000000E+00 -0.00000000000E+00 -0.65613247206E+02  0.65613247206E+02  0.00000000000E+00 0. -1.
          6    1    1    2  502    0  0.34890392457E+02  0.26116536363E+02  0.26263789308E+03  0.31695753002E+03  0.17200000000E+03 0.  1.
         -6    1    1    2    0  501 -0.34890392457E+02 -0.26116536363E+02  0.16623191399E+03  0.24313877146E+03  0.17200000000E+03 0. -1.
</event>
<event>
 4    1  0.8483901E-001  0.2114408E+03  0.7818608E-02  0.1140430E+00
          1   -1    0    0  502    0  0.00000000000E+00  0.00000000000E+00  0.14448322236E+04  0.14448322236E+04  0.00000000000E+00 0.  1.
         -1   -1    0    0    0  501 -0.00000000000E+00 -0.00000000000E+00 -0.94403116156E+02  0.94403116156E+02  0.00000000000E+00 0. -1.
          6    1    1    2  502    0  0.12297614822E+03  0.29848903028E+00  0.44209524356E+02  0.21601320369E+03  0.17200000000E+03 0. -1.
         -6    1    1    2    0  501 -0.12297614822E+03 -0.29848903028E+00  0.13062195831E+04  0.13232221361E+04  0.17200000000E+03 0.  1.
</event>
<event>
 4    1  0.8483901E-001  0.2096667E+03  0.7818608E-02  0.1141830E+00
         -2   -1    0    0    0  501 -0.00000000000E+00  0.00000000000E+00  0.85884668756E+03  0.85884668756E+03  0.00000000000E+00 0. -1.
          2   -1    0    0  502    0  0.00000000000E+00 -0.00000000000E+00 -0.63102871369E+02  0.63102871369E+02  0.00000000000E+00 0.  1.
          6    1    1    2  502    0  0.49590278670E+02  0.10916476544E+03  0.19753988335E+03  0.28806622028E+03  0.17200000000E+03 0.  1.
         -6    1    1    2    0  501 -0.49590278670E+02 -0.10916476544E+03  0.59820393284E+03  0.63388333865E+03  0.17200000000E+03 0. -1.
</event>
<event>
 4    1  0.8483901E-001  0.2990113E+03  0.7818608E-02  0.1085736E+00
         -2   -1    0    0    0  501 -0.00000000000E+00  0.00000000000E+00  0.11355134305E+03  0.11355134305E+03  0.00000000000E+00 0.  1.
          2   -1    0    0  502    0  0.00000000000E+00 -0.00000000000E+00 -0.88652820684E+03  0.88652820684E+03  0.00000000000E+00 0. -1.
          6    1    1    2  502    0 -0.17478410320E+03  0.17109734215E+03 -0.55371526862E+03  0.62929196874E+03  0.17200000000E+03 0. -1.
         -6    1    1    2    0  501  0.17478410320E+03 -0.17109734215E+03 -0.21926159517E+03  0.37078758115E+03  0.17200000000E+03 0.  1.
</event>
<event>
 4    1  0.8483901E-001  0.2103504E+03  0.7818608E-02  0.1141289E+00
         -1   -1    0    0    0  501 -0.00000000000E+00  0.00000000000E+00  0.86286749965E+02  0.86286749965E+02  0.00000000000E+00 0.  1.
          1   -1    0    0  502    0  0.00000000000E+00 -0.00000000000E+00 -0.58036697160E+03  0.58036697160E+03  0.00000000000E+00 0. -1.
          6    1    1    2  502    0  0.15898475860E+02 -0.12004388615E+03 -0.13330183229E+03  0.24903147317E+03  0.17200000000E+03 0.  1.
         -6    1    1    2    0  501 -0.15898475860E+02  0.12004388615E+03 -0.36077838935E+03  0.41762224840E+03  0.17200000000E+03 0. -1.
</event>
<event>
 4    1  0.8483901E-001  0.1778028E+03  0.7818608E-02  0.1169947E+00
         -2   -1    0    0    0  501 -0.00000000000E+00  0.00000000000E+00  0.32595400570E+02  0.32595400570E+02  0.00000000000E+00 0. -1.
          2   -1    0    0  502    0  0.00000000000E+00 -0.00000000000E+00 -0.96989713991E+03  0.96989713991E+03  0.00000000000E+00 0.  1.
          6    1    1    2  502    0 -0.12706093178E+01 -0.45035808479E+02 -0.46698952872E+03  0.49969296415E+03  0.17200000000E+03 0.  1.
         -6    1    1    2    0  501  0.12706093178E+01  0.45035808479E+02 -0.47031221062E+03  0.50279957632E+03  0.17200000000E+03 0. -1.
</event>
<event>
 4    1  0.8483901E-001  0.1838798E+03  0.7818608E-02  0.1164100E+00
         -2   -1    0    0    0  501 -0.00000000000E+00  0.00000000000E+00  0.26976320559E+02  0.26976320559E+02  0.00000000000E+00 0.  1.
          2   -1    0    0  502    0  0.00000000000E+00 -0.00000000000E+00 -0.13373669148E+04  0.13373669148E+04  0.00000000000E+00 0. -1.
          6    1    1    2  502    0 -0.59157408537E+02  0.26984785485E+02 -0.82613986066E+03  0.84635621756E+03  0.17200000000E+03 0.  1.
         -6    1    1    2    0  501  0.59157408537E+02 -0.26984785485E+02 -0.48425073356E+03  0.51798701777E+03  0.17200000000E+03 0.  1.
</event>
<event>
 4    1  0.8483901E-001  0.2212093E+03  0.7818608E-02  0.1132985E+00
         -2   -1    0    0    0  501 -0.00000000000E+00  0.00000000000E+00  0.19387545570E+02  0.19387545570E+02  0.00000000000E+00 0.  1.
          2   -1    0    0  502    0  0.00000000000E+00 -0.00000000000E+00 -0.25279926906E+04  0.25279926906E+04  0.00000000000E+00 0. -1.
          6    1    1    2  502    0 -0.12627408819E+03  0.58347185569E+02 -0.12034800046E+04  0.12236411488E+04  0.17200000000E+03 0. -1.
         -6    1    1    2    0  501  0.12627408819E+03 -0.58347185569E+02 -0.13051251404E+04  0.13237390874E+04  0.17200000000E+03 0.  1.
</event>
<event>
 4    1  0.8483901E-001  0.1803008E+03  0.7818608E-02  0.1167512E+00
         -1   -1    0    0    0  501 -0.00000000000E+00  0.00000000000E+00  0.50134072571E+02  0.50134072571E+02  0.00000000000E+00 0. -1.
          1   -1    0    0  502    0  0.00000000000E+00 -0.00000000000E+00 -0.95709554477E+03  0.95709554477E+03  0.00000000000E+00 0.  1.
          6    1    1    2  502    0 -0.96413606601E+01 -0.53211244003E+02 -0.16748105838E+03  0.24608595498E+03  0.17200000000E+03 0. -1.
         -6    1    1    2    0  501  0.96413606601E+01  0.53211244003E+02 -0.73948041382E+03  0.76114366236E+03  0.17200000000E+03 0.  1.
</event>
<event>
 4    1  0.8483901E-001  0.2031301E+03  0.7818608E-02  0.1147125E+00
          1   -1    0    0  502    0  0.00000000000E+00  0.00000000000E+00  0.83557550172E+03  0.83557550172E+03  0.00000000000E+00 0. -1.
         -1   -1    0    0    0  501 -0.00000000000E+00 -0.00000000000E+00 -0.72991872673E+02  0.72991872673E+02  0.00000000000E+00 0.  1.
          6    1    1    2  502    0  0.63120630275E+02 -0.87713189498E+02  0.12292126680E+03  0.23742673693E+03  0.17200000000E+03 0.  1.
         -6    1    1    2    0  501 -0.63120630275E+02  0.87713189498E+02  0.63966236224E+03  0.67114063745E+03  0.17200000000E+03 0. -1.
</event>
<event>
 4    1  0.8483901E-001  0.2653230E+03  0.7818608E-02  0.1103987E+00
         -1   -1    0    0    0  501 -0.00000000000E+00  0.00000000000E+00  0.14904425378E+03  0.14904425378E+03  0.00000000000E+00 0.  1.
          1   -1    0    0  502    0  0.00000000000E+00 -0.00000000000E+00 -0.49179280500E+03  0.49179280500E+03  0.00000000000E+00 0. -1.
          6    1    1    2  502    0 -0.93345171545E+02  0.17916187061E+03 -0.23513630311E+03  0.35452133641E+03  0.17200000000E+03 0. -1.
         -6    1    1    2    0  501  0.93345171545E+02 -0.17916187061E+03 -0.10761224811E+03  0.28631572237E+03  0.17200000000E+03 0. -1.
</event>
<event>
 4    1  0.8483901E-001  0.1726149E+03  0.7818608E-02  0.1175148E+00
         -2   -1    0    0    0  501 -0.00000000000E+00  0.00000000000E+00  0.10766539776E+02  0.10766539776E+02  0.00000000000E+00 0.  1.
          2   -1    0    0  502    0  0.00000000000E+00 -0.00000000000E+00 -0.27890904810E+04  0.27890904810E+04  0.00000000000E+00 0. -1.
          6    1    1    2  502    0 -0.94100658663E+01 -0.11106856008E+02 -0.12658627326E+04  0.12775775394E+04  0.17200000000E+03 0.  1.
         -6    1    1    2    0  501  0.94100658663E+01  0.11106856008E+02 -0.15124612087E+04  0.15222794813E+04  0.17200000000E+03 0.  1.
</event>
<event>
 4    1  0.8483901E-001  0.1730591E+03  0.7818608E-02  0.1174695E+00
          2   -1    0    0  502    0  0.00000000000E+00  0.00000000000E+00  0.11442751661E+04  0.11442751661E+04  0.00000000000E+00 0.  1.
         -2   -1    0    0    0  501 -0.00000000000E+00 -0.00000000000E+00 -0.26739694957E+02  0.26739694957E+02  0.00000000000E+00 0. -1.
          6    1    1    2  502    0 -0.18204858638E+02  0.58342605514E+01  0.47355304813E+03  0.50418443537E+03  0.17200000000E+03 0. -1.
         -6    1    1    2    0  501  0.18204858638E+02 -0.58342605514E+01  0.64398242301E+03  0.66683042569E+03  0.17200000000E+03 0.  1.
</event>
<event>
 4    1  0.8483901E-001  0.1852092E+03  0.7818608E-02  0.1162855E+00
         -1   -1    0    0    0  501 -0.00000000000E+00  0.00000000000E+00  0.27934305660E+02  0.27934305660E+02  0.00000000000E+00 0. -1.
          1   -1    0    0  502    0  0.00000000000E+00 -0.00000000000E+00 -0.12578307095E+04  0.12578307095E+04  0.00000000000E+00 0.  1.
          6    1    1    2  502    0  0.20288160456E+02  0.65626596731E+02 -0.71400363405E+03  0.73763381775E+03  0.17200000000E+03 0.  1.
         -6    1    1    2    0  501 -0.20288160456E+02 -0.65626596731E+02 -0.51589276981E+03  0.54813119743E+03  0.17200000000E+03 0. -1.
</event>
<event>
 4    1  0.8483901E-001  0.1799397E+03  0.7818608E-02  0.1167861E+00
          2   -1    0    0  502    0  0.00000000000E+00  0.00000000000E+00  0.23122962873E+02  0.23122962873E+02  0.00000000000E+00 0. -1.
         -2   -1    0    0    0  501 -0.00000000000E+00 -0.00000000000E+00 -0.14002670613E+04  0.14002670613E+04  0.00000000000E+00 0.  1.
          6    1    1    2  502    0 -0.52801992513E+02  0.24963887953E+01 -0.68777214548E+03  0.71092109722E+03  0.17200000000E+03 0. -1.
         -6    1    1    2    0  501  0.52801992513E+02 -0.24963887953E+01 -0.68937195298E+03  0.71246892699E+03  0.17200000000E+03 0.  1.
</event>
<event>
 4    1  0.8483901E-001  0.1879091E+03  0.7818608E-02  0.1160361E+00
          2   -1    0    0  502    0  0.00000000000E+00  0.00000000000E+00  0.15888691290E+03  0.15888691290E+03  0.00000000000E+00 0. -1.
         -2   -1    0    0    0  501 -0.00000000000E+00 -0.00000000000E+00 -0.32517131181E+03  0.32517131181E+03  0.00000000000E+00 0.  1.
          6    1    1    2  502    0 -0.66451263006E+02  0.36194983840E+02  0.53033909761E+02  0.19524969346E+03  0.17200000000E+03 0. -1.
         -6    1    1    2    0  501  0.66451263006E+02 -0.36194983840E+02 -0.21931830867E+03  0.28880853126E+03  0.17200000000E+03 0.  1.
</event>
<event>
 4    1  0.8483901E-001  0.1980114E+03  0.7818608E-02  0.1151428E+00
         -1   -1    0    0    0  501 -0.00000000000E+00  0.00000000000E+00  0.15117306431E+03  0.15117306431E+03  0.00000000000E+00 0.  1.
          1   -1    0    0  502    0  0.00000000000E+00 -0.00000000000E+00 -0.27203160085E+03  0.27203160085E+03  0.00000000000E+00 0. -1.
          6    1    1    2  502    0 -0.27154166198E+02 -0.94271713869E+02 -0.14762826503E+02  0.19856093731E+03  0.17200000000E+03 0.  1.
         -6    1    1    2    0  501  0.27154166198E+02  0.94271713869E+02 -0.10609571003E+03  0.22464372786E+03  0.17200000000E+03 0. -1.
</event>
<event>
 4    1  0.8483901E-001  0.1736827E+03  0.7818608E-02  0.1174061E+00
         -2   -1    0    0    0  501 -0.00000000000E+00  0.00000000000E+00  0.10597102200E+03  0.10597102200E+03  0.00000000000E+00 0. -1.
          2   -1    0    0  502    0  0.00000000000E+00 -0.00000000000E+00 -0.28546765421E+03  0.28546765421E+03  0.00000000000E+00 0.  1.
          6    1    1    2  502    0 -0.75205661842E+00 -0.24106359346E+02 -0.79336139831E+02  0.19094477011E+03  0.17200000000E+03 0. -1.
         -6    1    1    2    0  501  0.75205661842E+00  0.24106359346E+02 -0.10016049238E+03  0.20049390610E+03  0.17200000000E+03 0.  1.
</event>
<event>
 4    1  0.8483901E-001  0.2006601E+03  0.7818608E-02  0.1149183E+00
          4   -1    0    0  502    0  0.00000000000E+00  0.00000000000E+00  0.12066513592E+03  0.12066513592E+03  0.00000000000E+00 0. -1.
         -4   -1    0    0    0  501 -0.00000000000E+00 -0.00000000000E+00 -0.36966986676E+03  0.36966986676E+03  0.00000000000E+00 0.  1.
          6    1    1    2  502    0  0.81412524786E+02 -0.63659012519E+02 -0.20099148497E+03  0.28401064434E+03  0.17200000000E+03 0.  1.
         -6    1    1    2    0  501 -0.81412524786E+02  0.63659012519E+02 -0.48013245876E+02  0.20632435834E+03  0.17200000000E+03 0. -1.
</event>
<event>
 4    1  0.8483901E-001  0.2216566E+03  0.7818608E-02  0.1132654E+00
          2   -1    0    0  502    0  0.00000000000E+00  0.00000000000E+00  0.10394199805E+04  0.10394199805E+04  0.00000000000E+00 0. -1.
         -2   -1    0    0    0  501 -0.00000000000E+00 -0.00000000000E+00 -0.49743492604E+02  0.49743492604E+02  0.00000000000E+00 0.  1.
          6    1    1    2  502    0  0.77638689382E+02 -0.11627502130E+03  0.61631601107E+03  0.65496341285E+03  0.17200000000E+03 0. -1.
         -6    1    1    2    0  501 -0.77638689382E+02  0.11627502130E+03  0.37336047680E+03  0.43420006023E+03  0.17200000000E+03 0. -1.
</event>
<event>
 4    1  0.8483901E-001  0.1798817E+03  0.7818608E-02  0.1167918E+00
         -2   -1    0    0    0  501 -0.00000000000E+00  0.00000000000E+00  0.45068711753E+02  0.45068711753E+02  0.00000000000E+00 0.  1.
          2   -1    0    0  502    0  0.00000000000E+00 -0.00000000000E+00 -0.71896271084E+03  0.71896271084E+03  0.00000000000E+00 0. -1.
          6    1    1    2  502    0 -0.51935980581E+02  0.87220454252E+01 -0.35123113795E+03  0.39461466321E+03  0.17200000000E+03 0.  1.
         -6    1    1    2    0  501  0.51935980581E+02 -0.87220454252E+01 -0.32266286113E+03  0.36941675938E+03  0.17200000000E+03 0.  1.
</event>
<event>
 4    1  0.8483901E-001  0.1921797E+03  0.7818608E-02  0.1156510E+00
          1   -1    0    0  502    0  0.00000000000E+00  0.00000000000E+00  0.61612024043E+02  0.61612024043E+02  0.00000000000E+00 0. -1.
         -1   -1    0    0    0  501 -0.00000000000E+00 -0.00000000000E+00 -0.60433464210E+03  0.60433464210E+03  0.00000000000E+00 0.  1.
          6    1    1    2  502    0 -0.62291446038E+02  0.58896628245E+02 -0.30131130464E+03  0.35738150396E+03  0.17200000000E+03 0. -1.
         -6    1    1    2    0  501  0.62291446038E+02 -0.58896628245E+02 -0.24141131341E+03  0.30856516218E+03  0.17200000000E+03 0. -1.
</event>
<event>
 4    1  0.8483901E-001  0.1947987E+03  0.7818608E-02  0.1154203E+00
          2   -1    0    0  502    0  0.00000000000E+00  0.00000000000E+00  0.24400515684E+04  0.24400515684E+04  0.00000000000E+00 0.  1.
         -2   -1    0    0    0  501 -0.00000000000E+00 -0.00000000000E+00 -0.15691643581E+02  0.15691643581E+02  0.00000000000E+00 0. -1.
          6    1    1    2  502    0  0.28769686595E+02 -0.86803470865E+02  0.10961534003E+04  0.11133278108E+04  0.17200000000E+03 0.  1.
         -6    1    1    2    0  501 -0.28769686595E+02  0.86803470865E+02  0.13282065245E+04  0.13424154011E+04  0.17200000000E+03 0. -1.
</event>
<event>
 4    1  0.8483901E-001  0.2027907E+03  0.7818608E-02  0.1147406E+00
          2   -1    0    0  502    0  0.00000000000E+00  0.00000000000E+00  0.49774143129E+03  0.49774143129E+03  0.00000000000E+00 0.  1.
         -2   -1    0    0    0  501 -0.00000000000E+00 -0.00000000000E+00 -0.82687620568E+02  0.82687620568E+02  0.00000000000E+00 0. -1.
          6    1    1    2  502    0  0.10292511052E+03 -0.30765110981E+02  0.21574270541E+03  0.29608948878E+03  0.17200000000E+03 0.  1.
         -6    1    1    2    0  501 -0.10292511052E+03  0.30765110981E+02  0.19931110531E+03  0.28433956307E+03  0.17200000000E+03 0.  1.
</event>
<event>
 4    1  0.8483901E-001  0.1899236E+03  0.7818608E-02  0.1158530E+00
          2   -1    0    0  502    0  0.00000000000E+00  0.00000000000E+00  0.14849295305E+04  0.14849295305E+04  0.00000000000E+00 0. -1.
         -2   -1    0    0    0  501 -0.00000000000E+00 -0.00000000000E+00 -0.24317255740E+02  0.24317255740E+02  0.00000000000E+00 0.  1.
          6    1    1    2  502    0  0.76823335318E+02  0.24189758926E+02  0.75492807758E+03  0.77845190706E+03  0.17200000000E+03 0. -1.
         -6    1    1    2    0  501 -0.76823335318E+02 -0.24189758926E+02  0.70568419719E+03  0.73079487919E+03  0.17200000000E+03 0. -1.
</event>
