<event>
 4    1  0.3094855E-002  0.2082331E+03  0.7818608E-02  0.1142973E+00
          2   -1    0    0  502    0  0.00000000000E+00  0.00000000000E+00  0.14880799231E+04  0.14880799231E+04  0.00000000000E+00 0. -1.
         -2   -1    0    0    0  501 -0.00000000000E+00 -0.00000000000E+00 -0.37845365919E+02  0.37845365919E+02  0.00000000000E+00 0.  1.
          6    1    1    2  502    0  0.68215253896E+02  0.95518069073E+02  0.10910638646E+04  0.11107571197E+04  0.17200000000E+03 0. -1.
         -6    1    1    2    0  501 -0.68215253896E+02 -0.95518069073E+02  0.35917069257E+03  0.41516816928E+03  0.17200000000E+03 0.  1.
</event>
<event>
 4    1  0.3094855E-002  0.5802001E+03  0.7818608E-02  0.9947358E-01
         -1   -1    0    0    0  501 -0.00000000000E+00  0.00000000000E+00  0.10364060437E+04  0.10364060437E+04  0.00000000000E+00 0.  1.
          1   -1    0    0  502    0  0.00000000000E+00 -0.00000000000E+00 -0.39326575337E+03  0.39326575337E+03  0.00000000000E+00 0. -1.
          6    1    1    2  502    0  0.20106645804E+03  0.51635299494E+03  0.61981789580E+03  0.84900315659E+03  0.17200000000E+03 0. -1.
         -6    1    1    2    0  501 -0.20106645804E+03 -0.51635299494E+03  0.23322394502E+02  0.58066864046E+03  0.17200000000E+03 0.  1.
</event>
<event>
 4    1  0.3094855E-002  0.1799307E+03  0.7818608E-02  0.1167870E+00
         -2   -1    0    0    0  501 -0.00000000000E+00  0.00000000000E+00  0.45595898219E+02  0.45595898219E+02  0.00000000000E+00 0.  1.
          2   -1    0    0  502    0  0.00000000000E+00 -0.00000000000E+00 -0.11209628875E+04  0.11209628875E+04  0.00000000000E+00 0. -1.
          6    1    1    2  502    0  0.43054535788E+02 -0.30616574349E+02 -0.89083362621E+03  0.90882320463E+03  0.17200000000E+03 0. -1.
         -6    1    1    2    0  501 -0.43054535788E+02  0.30616574349E+02 -0.18453336307E+03  0.25773558110E+03  0.17200000000E+03 0.  1.
</event>
<event>
 4    1  0.3094855E-002  0.1827150E+03  0.7818608E-02  0.1165201E+00
          2   -1    0    0  502    0  0.00000000000E+00  0.00000000000E+00  0.19055126025E+03  0.19055126025E+03  0.00000000000E+00 0. -1.
         -2   -1    0    0    0  501 -0.00000000000E+00 -0.00000000000E+00 -0.18409765519E+03  0.18409765519E+03  0.00000000000E+00 0.  1.
          6    1    1    2  502    0  0.44284327551E+02  0.42891280369E+02  0.44406649432E+02  0.18803381109E+03  0.17200000000E+03 0. -1.
         -6    1    1    2    0  501 -0.44284327551E+02 -0.42891280369E+02 -0.37953044373E+02  0.18661510436E+03  0.17200000000E+03 0.  1.
</event>
<event>
 4    1  0.3094855E-002  0.1794181E+03  0.7818608E-02  0.1168367E+00
          2   -1    0    0  502    0  0.00000000000E+00  0.00000000000E+00  0.27400375548E+04  0.27400375548E+04  0.00000000000E+00 0. -1.
         -2   -1    0    0    0  501 -0.00000000000E+00 -0.00000000000E+00 -0.12166528326E+02  0.12166528326E+02  0.00000000000E+00 0.  1.
          6    1    1    2  502    0  0.12307436473E+02 -0.49551738312E+02  0.11088053587E+04  0.11232275687E+04  0.17200000000E+03 0.  1.
         -6    1    1    2    0  501 -0.12307436473E+02  0.49551738312E+02  0.16190656679E+04  0.16289765144E+04  0.17200000000E+03 0.  1.
</event>
<event>
 4    1  0.3094855E-002  0.2797700E+03  0.7818608E-02  0.1095815E+00
         -2   -1    0    0    0  501 -0.00000000000E+00  0.00000000000E+00  0.33366867109E+03  0.33366867109E+03  0.00000000000E+00 0.  1.
          2   -1    0    0  502    0  0.00000000000E+00 -0.00000000000E+00 -0.26271275693E+03  0.26271275693E+03  0.00000000000E+00 0. -1.
          6    1    1    2  502    0  0.61911879356E+02 -0.21178805424E+03 -0.62105614453E+02  0.28658047398E+03  0.17200000000E+03 0.  1.
         -6    1    1    2    0  501 -0.61911879356E+02  0.21178805424E+03  0.13306152861E+03  0.30980095403E+03  0.17200000000E+03 0.  1.
</event>
<event>
 4    1  0.3094855E-002  0.2253613E+03  0.7818608E-02  0.1129948E+00
         -1   -1    0    0    0  501 -0.00000000000E+00  0.00000000000E+00  0.10745239946E+04  0.10745239946E+04  0.00000000000E+00 0.  1.
          1   -1    0    0  502    0  0.00000000000E+00 -0.00000000000E+00 -0.47641599201E+02  0.47641599201E+02  0.00000000000E+00 0. -1.
          6    1    1    2  502    0 -0.38896328400E+02 -0.14032382019E+03  0.46357566281E+03  0.51545134982E+03  0.17200000000E+03 0. -1.
         -6    1    1    2    0  501  0.38896328400E+02  0.14032382019E+03  0.56330673260E+03  0.60671424400E+03  0.17200000000E+03 0.  1.
</event>
<event>
 4    1  0.3094855E-002  0.2132609E+03  0.7818608E-02  0.1139009E+00
         -1   -1    0    0    0  501 -0.00000000000E+00  0.00000000000E+00  0.39877142566E+02  0.39877142566E+02  0.00000000000E+00 0.  1.
          1   -1    0    0  502    0  0.00000000000E+00 -0.00000000000E+00 -0.12456111671E+04  0.12456111671E+04  0.00000000000E+00 0. -1.
          6    1    1    2  502    0  0.11975626227E+03 -0.39429037587E+02 -0.41616276050E+03  0.46762341107E+03  0.17200000000E+03 0.  1.
         -6    1    1    2    0  501 -0.11975626227E+03  0.39429037587E+02 -0.78957126402E+03  0.81786489858E+03  0.17200000000E+03 0. -1.
</event>
<event>
 4    1  0.3094855E-002  0.1735722E+03  0.7818608E-02  0.1174173E+00
         -1   -1    0    0    0  501 -0.00000000000E+00  0.00000000000E+00  0.29782576420E+02  0.29782576420E+02  0.00000000000E+00 0.  1.
          1   -1    0    0  502    0  0.00000000000E+00 -0.00000000000E+00 -0.10399425491E+04  0.10399425491E+04  0.00000000000E+00 0. -1.
          6    1    1    2  502    0 -0.22486461273E+02  0.61379883344E+01 -0.59341784484E+03  0.61828153329E+03  0.17200000000E+03 0. -1.
         -6    1    1    2    0  501  0.22486461273E+02 -0.61379883344E+01 -0.41674212783E+03  0.45144359221E+03  0.17200000000E+03 0.  1.
</event>
<event>
 4    1  0.3094855E-002  0.2543912E+03  0.7818608E-02  0.1110561E+00
          4   -1    0    0  502    0  0.00000000000E+00  0.00000000000E+00  0.22984607544E+03  0.22984607544E+03  0.00000000000E+00 0. -1.
         -4   -1    0    0    0  501 -0.00000000000E+00 -0.00000000000E+00 -0.87471292020E+03  0.87471292020E+03  0.00000000000E+00 0.  1.
          6    1    1    2  502    0 -0.87377357783E+02 -0.16581937588E+03  0.13235607978E+03  0.28676296819E+03  0.17200000000E+03 0. -1.
         -6    1    1    2    0  501  0.87377357783E+02  0.16581937588E+03 -0.77722292454E+03  0.81779602745E+03  0.17200000000E+03 0.  1.
</event>
<event>
 4    1  0.3094855E-002  0.2122977E+03  0.7818608E-02  0.1139759E+00
         -4   -1    0    0    0  501 -0.00000000000E+00  0.00000000000E+00  0.61844358342E+02  0.61844358342E+02  0.00000000000E+00 0.  1.
          4   -1    0    0  502    0  0.00000000000E+00 -0.00000000000E+00 -0.76079919658E+03  0.76079919658E+03  0.00000000000E+00 0. -1.
          6    1    1    2  502    0  0.41248034577E+02 -0.11740908551E+03 -0.43387341083E+03  0.48302839496E+03  0.17200000000E+03 0. -1.
         -6    1    1    2    0  501 -0.41248034577E+02  0.11740908551E+03 -0.26508142741E+03  0.33961515996E+03  0.17200000000E+03 0.  1.
</event>
<event>
 4    1  0.3094855E-002  0.1813855E+03  0.7818608E-02  0.1166469E+00
         -1   -1    0    0    0  501 -0.00000000000E+00  0.00000000000E+00  0.54202251444E+02  0.54202251444E+02  0.00000000000E+00 0.  1.
          1   -1    0    0  502    0  0.00000000000E+00 -0.00000000000E+00 -0.63492552237E+03  0.63492552237E+03  0.00000000000E+00 0. -1.
          6    1    1    2  502    0  0.42838556026E+02  0.38490981498E+02 -0.21809814591E+03  0.28366793754E+03  0.17200000000E+03 0.  1.
         -6    1    1    2    0  501 -0.42838556026E+02 -0.38490981498E+02 -0.36262512502E+03  0.40545983628E+03  0.17200000000E+03 0. -1.
</event>
<event>
 4    1  0.3094855E-002  0.1823238E+03  0.7818608E-02  0.1165573E+00
          2   -1    0    0  502    0  0.00000000000E+00  0.00000000000E+00  0.63421167430E+02  0.63421167430E+02  0.00000000000E+00 0. -1.
         -2   -1    0    0    0  501 -0.00000000000E+00 -0.00000000000E+00 -0.56072665189E+03  0.56072665189E+03  0.00000000000E+00 0.  1.
          6    1    1    2  502    0  0.43935449438E+02 -0.41564765365E+02 -0.16894373952E+03  0.24856375552E+03  0.17200000000E+03 0. -1.
         -6    1    1    2    0  501 -0.43935449438E+02  0.41564765365E+02 -0.32836174495E+03  0.37558406380E+03  0.17200000000E+03 0.  1.
</event>
<event>
 4    1  0.3094855E-002  0.2297331E+03  0.7818608E-02  0.1126828E+00
          1   -1    0    0  502    0  0.00000000000E+00  0.00000000000E+00  0.14756193996E+03  0.14756193996E+03  0.00000000000E+00 0. -1.
         -1   -1    0    0    0  501 -0.00000000000E+00 -0.00000000000E+00 -0.39327196132E+03  0.39327196132E+03  0.00000000000E+00 0.  1.
          6    1    1    2  502    0  0.58337875683E+02 -0.14067697735E+03 -0.41483515346E+02  0.23344849912E+03  0.17200000000E+03 0. -1.
         -6    1    1    2    0  501 -0.58337875683E+02  0.14067697735E+03 -0.20422650602E+03  0.30738540215E+03  0.17200000000E+03 0.  1.
</event>
<event>
 4    1  0.3094855E-002  0.8164069E+03  0.7818608E-02  0.9536568E-01
         -1   -1    0    0    0  501 -0.00000000000E+00  0.00000000000E+00  0.48660817116E+03  0.48660817116E+03  0.00000000000E+00 0.  1.
          1   -1    0    0  502    0  0.00000000000E+00 -0.00000000000E+00 -0.13975352812E+04  0.13975352812E+04  0.00000000000E+00 0. -1.
          6    1    1    2  502    0 -0.14674585825E+03  0.78447551113E+03 -0.58835360870E+03  0.10063200998E+04  0.17200000000E+03 0. -1.
         -6    1    1    2    0  501  0.14674585825E+03 -0.78447551113E+03 -0.32257350136E+03  0.87782335254E+03  0.17200000000E+03 0.  1.
</event>
<event>
 4    1  0.3094855E-002  0.2159126E+03  0.7818608E-02  0.1136968E+00
          1   -1    0    0  502    0  0.00000000000E+00  0.00000000000E+00  0.24116313758E+04  0.24116313758E+04  0.00000000000E+00 0. -1.
         -1   -1    0    0    0  501 -0.00000000000E+00 -0.00000000000E+00 -0.19332686292E+02  0.19332686292E+02  0.00000000000E+00 0.  1.
          6    1    1    2  502    0  0.17498279528E+02  0.12933706570E+03  0.11835036809E+04  0.12030375011E+04  0.17200000000E+03 0. -1.
         -6    1    1    2    0  501 -0.17498279528E+02 -0.12933706570E+03  0.12087950086E+04  0.12279265609E+04  0.17200000000E+03 0. -1.
</event>
<event>
 4    1  0.3094855E-002  0.1891400E+03  0.7818608E-02  0.1159239E+00
         -2   -1    0    0    0  501 -0.00000000000E+00  0.00000000000E+00  0.76957621736E+02  0.76957621736E+02  0.00000000000E+00 0.  1.
          2   -1    0    0  502    0  0.00000000000E+00 -0.00000000000E+00 -0.48210935173E+03  0.48210935173E+03  0.00000000000E+00 0. -1.
          6    1    1    2  502    0 -0.49339527099E+02 -0.61282421917E+02 -0.25546237434E+03  0.31785995166E+03  0.17200000000E+03 0. -1.
         -6    1    1    2    0  501  0.49339527099E+02  0.61282421917E+02 -0.14968935566E+03  0.24120702181E+03  0.17200000000E+03 0.  1.
</event>
<event>
 4    1  0.3094855E-002  0.3317725E+03  0.7818608E-02  0.1070355E+00
         -2   -1    0    0    0  501 -0.00000000000E+00  0.00000000000E+00  0.90114926126E+02  0.90114926126E+02  0.00000000000E+00 0.  1.
          2   -1    0    0  502    0  0.00000000000E+00 -0.00000000000E+00 -0.19717207174E+04  0.19717207174E+04  0.00000000000E+00 0. -1.
          6    1    1    2  502    0 -0.14498033507E+03 -0.24386405586E+03 -0.15767245372E+04  0.16112520726E+04  0.17200000000E+03 0. -1.
         -6    1    1    2    0  501  0.14498033507E+03  0.24386405586E+03 -0.30488125410E+03  0.45058357094E+03  0.17200000000E+03 0.  1.
</event>
<event>
 4    1  0.3094855E-002  0.1762385E+03  0.7818608E-02  0.1171494E+00
         -1   -1    0    0    0  501 -0.00000000000E+00  0.00000000000E+00  0.69197276386E+03  0.69197276386E+03  0.00000000000E+00 0.  1.
          1   -1    0    0  502    0  0.00000000000E+00 -0.00000000000E+00 -0.13395774555E+03  0.13395774555E+03  0.00000000000E+00 0. -1.
          6    1    1    2  502    0 -0.12685311313E+02  0.36264156679E+02 -0.57735950040E+02  0.18545470096E+03  0.17200000000E+03 0. -1.
         -6    1    1    2    0  501  0.12685311313E+02 -0.36264156679E+02  0.61575096834E+03  0.64047580844E+03  0.17200000000E+03 0.  1.
</event>
<event>
 4    1  0.3094855E-002  0.3281413E+03  0.7818608E-02  0.1071962E+00
          2   -1    0    0  502    0  0.00000000000E+00  0.00000000000E+00  0.72261830053E+03  0.72261830053E+03  0.00000000000E+00 0. -1.
         -2   -1    0    0    0  501 -0.00000000000E+00 -0.00000000000E+00 -0.24488034421E+03  0.24488034421E+03  0.00000000000E+00 0.  1.
          6    1    1    2  502    0 -0.27938138427E+03  0.62235149107E+01  0.54155169776E+03  0.63321002153E+03  0.17200000000E+03 0. -1.
         -6    1    1    2    0  501  0.27938138427E+03 -0.62235149107E+01 -0.63813741430E+02  0.33428862321E+03  0.17200000000E+03 0.  1.
</event>
<event>
 4    1  0.3094855E-002  0.3504113E+03  0.7818608E-02  0.1062446E+00
         -2   -1    0    0    0  501 -0.00000000000E+00  0.00000000000E+00  0.75789670863E+02  0.75789670863E+02  0.00000000000E+00 0.  1.
          2   -1    0    0  502    0  0.00000000000E+00 -0.00000000000E+00 -0.24161217551E+04  0.24161217551E+04  0.00000000000E+00 0. -1.
          6    1    1    2  502    0 -0.21977642567E+03  0.21190186684E+03 -0.18853227715E+04  0.19176105004E+04  0.17200000000E+03 0. -1.
         -6    1    1    2    0  501  0.21977642567E+03 -0.21190186684E+03 -0.45500931278E+03  0.57430092562E+03  0.17200000000E+03 0.  1.
</event>
<event>
 4    1  0.3094855E-002  0.6550453E+03  0.7818608E-02  0.9797358E-01
          2   -1    0    0  502    0  0.00000000000E+00  0.00000000000E+00  0.44500724110E+03  0.44500724110E+03  0.00000000000E+00 0. -1.
         -2   -1    0    0    0  501 -0.00000000000E+00 -0.00000000000E+00 -0.11069369676E+04  0.11069369676E+04  0.00000000000E+00 0.  1.
          6    1    1    2  502    0 -0.62348133366E+03  0.10378508143E+03 -0.60959263471E+03  0.89481143089E+03  0.17200000000E+03 0. -1.
         -6    1    1    2    0  501  0.62348133366E+03 -0.10378508143E+03 -0.52337091838E+02  0.65713277786E+03  0.17200000000E+03 0.  1.
</event>
<event>
 4    1  0.3094855E-002  0.3812089E+03  0.7818608E-02  0.1050488E+00
         -2   -1    0    0    0  501 -0.00000000000E+00  0.00000000000E+00  0.79688982294E+03  0.79688982294E+03  0.00000000000E+00 0.  1.
          2   -1    0    0  502    0  0.00000000000E+00 -0.00000000000E+00 -0.20034762690E+03  0.20034762690E+03  0.00000000000E+00 0. -1.
          6    1    1    2  502    0 -0.23545733822E+02 -0.33938444064E+03  0.14886341494E+03  0.40924383494E+03  0.17200000000E+03 0.  1.
         -6    1    1    2    0  501  0.23545733822E+02  0.33938444064E+03  0.44767878109E+03  0.58799361491E+03  0.17200000000E+03 0.  1.
</event>
<event>
 4    1  0.3094855E-002  0.2051620E+03  0.7818608E-02  0.1145456E+00
         -1   -1    0    0    0  501 -0.00000000000E+00  0.00000000000E+00  0.57458905053E+02  0.57458905053E+02  0.00000000000E+00 0.  1.
          1   -1    0    0  502    0  0.00000000000E+00 -0.00000000000E+00 -0.12360047336E+04  0.12360047336E+04  0.00000000000E+00 0. -1.
          6    1    1    2  502    0  0.81049445342E+02  0.77061109038E+02 -0.10020305158E+04  0.10228179611E+04  0.17200000000E+03 0. -1.
         -6    1    1    2    0  501 -0.81049445342E+02 -0.77061109038E+02 -0.17651531283E+03  0.27064567756E+03  0.17200000000E+03 0.  1.
</event>
<event>
 4    1  0.3094855E-002  0.1759653E+03  0.7818608E-02  0.1171766E+00
         -2   -1    0    0    0  501 -0.00000000000E+00  0.00000000000E+00  0.95652552201E+02  0.95652552201E+02  0.00000000000E+00 0.  1.
          2   -1    0    0  502    0  0.00000000000E+00 -0.00000000000E+00 -0.33989355181E+03  0.33989355181E+03  0.00000000000E+00 0. -1.
          6    1    1    2  502    0 -0.35194440756E+02 -0.11879583157E+02 -0.16963843977E+03  0.24441966657E+03  0.17200000000E+03 0. -1.
         -6    1    1    2    0  501  0.35194440756E+02  0.11879583157E+02 -0.74602559837E+02  0.19112643744E+03  0.17200000000E+03 0.  1.
</event>
<event>
 4    1  0.3094855E-002  0.2163860E+03  0.7818608E-02  0.1136606E+00
         -2   -1    0    0    0  501 -0.00000000000E+00  0.00000000000E+00  0.45765578075E+02  0.45765578075E+02  0.00000000000E+00 0.  1.
          2   -1    0    0  502    0  0.00000000000E+00 -0.00000000000E+00 -0.13633139492E+04  0.13633139492E+04  0.00000000000E+00 0. -1.
          6    1    1    2  502    0  0.61107042152E+02  0.11621023672E+03 -0.10107249072E+04  0.10336284283E+04  0.17200000000E+03 0. -1.
         -6    1    1    2    0  501 -0.61107042152E+02 -0.11621023672E+03 -0.30682346392E+03  0.37545109898E+03  0.17200000000E+03 0.  1.
</event>
<event>
 4    1  0.3094855E-002  0.1993668E+03  0.7818608E-02  0.1150274E+00
          1   -1    0    0  502    0  0.00000000000E+00  0.00000000000E+00  0.26245701580E+03  0.26245701580E+03  0.00000000000E+00 0. -1.
         -1   -1    0    0    0  501 -0.00000000000E+00 -0.00000000000E+00 -0.45570173772E+03  0.45570173772E+03  0.00000000000E+00 0.  1.
          6    1    1    2  502    0  0.97450188031E+02 -0.25817862104E+02  0.19678576025E+03  0.28012807176E+03  0.17200000000E+03 0. -1.
         -6    1    1    2    0  501 -0.97450188031E+02  0.25817862104E+02 -0.39003048217E+03  0.43803068177E+03  0.17200000000E+03 0.  1.
</event>
<event>
 4    1  0.3094855E-002  0.1900092E+03  0.7818608E-02  0.1158453E+00
          2   -1    0    0  502    0  0.00000000000E+00  0.00000000000E+00  0.30477538773E+03  0.30477538773E+03  0.00000000000E+00 0. -1.
         -2   -1    0    0    0  501 -0.00000000000E+00 -0.00000000000E+00 -0.14450703138E+03  0.14450703138E+03  0.00000000000E+00 0.  1.
          6    1    1    2  502    0  0.74400786309E+02 -0.31369054251E+02  0.17550806192E+03  0.25866305180E+03  0.17200000000E+03 0. -1.
         -6    1    1    2    0  501 -0.74400786309E+02  0.31369054251E+02 -0.15239705569E+02  0.19061936731E+03  0.17200000000E+03 0.  1.
</event>
<event>
 4    1  0.3094855E-002  0.2099949E+03  0.7818608E-02  0.1141570E+00
         -4   -1    0    0    0  501 -0.00000000000E+00  0.00000000000E+00  0.20509267743E+03  0.20509267743E+03  0.00000000000E+00 0.  1.
          4   -1    0    0  502    0  0.00000000000E+00 -0.00000000000E+00 -0.22422428456E+03  0.22422428456E+03  0.00000000000E+00 0. -1.
          6    1    1    2  502    0  0.52859481703E+02 -0.10825763857E+03 -0.53070703600E+02  0.21659718534E+03  0.17200000000E+03 0. -1.
         -6    1    1    2    0  501 -0.52859481703E+02  0.10825763857E+03  0.33939096469E+02  0.21271977666E+03  0.17200000000E+03 0.  1.
</event>
<event>
 4    1  0.3094855E-002  0.2131118E+03  0.7818608E-02  0.1139125E+00
          2   -1    0    0  502    0  0.00000000000E+00  0.00000000000E+00  0.11344031708E+04  0.11344031708E+04  0.00000000000E+00 0. -1.
         -2   -1    0    0    0  501 -0.00000000000E+00 -0.00000000000E+00 -0.42528752026E+02  0.42528752026E+02  0.00000000000E+00 0.  1.
          6    1    1    2  502    0 -0.22222008077E+02  0.12384999163E+03  0.68841418796E+03  0.72064605199E+03  0.17200000000E+03 0. -1.
         -6    1    1    2    0  501  0.22222008077E+02 -0.12384999163E+03  0.40346023079E+03  0.45628587081E+03  0.17200000000E+03 0.  1.
</event>
<event>
 4    1  0.3094855E-002  0.2294617E+03  0.7818608E-02  0.1127019E+00
         -1   -1    0    0    0  501 -0.00000000000E+00  0.00000000000E+00  0.73265936451E+02  0.73265936451E+02  0.00000000000E+00 0.  1.
          1   -1    0    0  502    0  0.00000000000E+00 -0.00000000000E+00 -0.89378330940E+03  0.89378330940E+03  0.00000000000E+00 0. -1.
          6    1    1    2  502    0 -0.89299567838E+02  0.12285864817E+03 -0.62429390676E+03  0.66512821490E+03  0.17200000000E+03 0. -1.
         -6    1    1    2    0  501  0.89299567838E+02 -0.12285864817E+03 -0.19622346619E+03  0.30192103095E+03  0.17200000000E+03 0.  1.
</event>
<event>
 4    1  0.3094855E-002  0.1877790E+03  0.7818608E-02  0.1160480E+00
         -2   -1    0    0    0  501 -0.00000000000E+00  0.00000000000E+00  0.64796794097E+02  0.64796794097E+02  0.00000000000E+00 0.  1.
          2   -1    0    0  502    0  0.00000000000E+00 -0.00000000000E+00 -0.65587264182E+03  0.65587264182E+03  0.00000000000E+00 0. -1.
          6    1    1    2  502    0  0.69926259862E+02  0.28058272912E+02 -0.44423887960E+03  0.48229568798E+03  0.17200000000E+03 0. -1.
         -6    1    1    2    0  501 -0.69926259862E+02 -0.28058272912E+02 -0.14683696812E+03  0.23837374794E+03  0.17200000000E+03 0.  1.
</event>
<event>
 4    1  0.3094855E-002  0.2684088E+03  0.7818608E-02  0.1102194E+00
         -1   -1    0    0    0  501 -0.00000000000E+00  0.00000000000E+00  0.42430497727E+03  0.42430497727E+03  0.00000000000E+00 0.  1.
          1   -1    0    0  502    0  0.00000000000E+00 -0.00000000000E+00 -0.20103364214E+03  0.20103364214E+03  0.00000000000E+00 0. -1.
          6    1    1    2  502    0 -0.13140224886E+03  0.15872213712E+03  0.23489593345E+03  0.35667824067E+03  0.17200000000E+03 0.  1.
         -6    1    1    2    0  501  0.13140224886E+03 -0.15872213712E+03 -0.11624598318E+02  0.26866037874E+03  0.17200000000E+03 0.  1.
</event>
<event>
 4    1  0.3094855E-002  0.6082296E+03  0.7818608E-02  0.9888478E-01
          2   -1    0    0  502    0  0.00000000000E+00  0.00000000000E+00  0.23038390466E+04  0.23038390466E+04  0.00000000000E+00 0. -1.
         -2   -1    0    0    0  501 -0.00000000000E+00 -0.00000000000E+00 -0.16181517078E+03  0.16181517078E+03  0.00000000000E+00 0.  1.
          6    1    1    2  502    0 -0.58128163924E+01  0.58337416429E+03  0.11788594420E+04  0.13265190494E+04  0.17200000000E+03 0.  1.
         -6    1    1    2    0  501  0.58128163924E+01 -0.58337416429E+03  0.96316443381E+03  0.11391351680E+04  0.17200000000E+03 0.  1.
</event>
<event>
 4    1  0.3094855E-002  0.2008136E+03  0.7818608E-02  0.1149054E+00
         -2   -1    0    0    0  501 -0.00000000000E+00  0.00000000000E+00  0.10290936604E+04  0.10290936604E+04  0.00000000000E+00 0.  1.
          2   -1    0    0  502    0  0.00000000000E+00 -0.00000000000E+00 -0.40078619534E+02  0.40078619534E+02  0.00000000000E+00 0. -1.
          6    1    1    2  502    0  0.27981796754E+02 -0.99795371670E+02  0.41472886468E+03  0.46078859399E+03  0.17200000000E+03 0.  1.
         -6    1    1    2    0  501 -0.27981796754E+02  0.99795371670E+02  0.57428617615E+03  0.60838368590E+03  0.17200000000E+03 0.  1.
</event>
<event>
 4    1  0.3094855E-002  0.2485302E+03  0.7818608E-02  0.1114237E+00
          1   -1    0    0  502    0  0.00000000000E+00  0.00000000000E+00  0.52589537535E+03  0.52589537535E+03  0.00000000000E+00 0. -1.
         -1   -1    0    0    0  501 -0.00000000000E+00 -0.00000000000E+00 -0.13411124691E+03  0.13411124691E+03  0.00000000000E+00 0.  1.
          6    1    1    2  502    0  0.14238765545E+03  0.10912846179E+03  0.31220239423E+03  0.39904586273E+03  0.17200000000E+03 0. -1.
         -6    1    1    2    0  501 -0.14238765545E+03 -0.10912846179E+03  0.79581734216E+02  0.26096075954E+03  0.17200000000E+03 0.  1.
</event>
<event>
 4    1  0.3094855E-002  0.1815190E+03  0.7818608E-02  0.1166341E+00
          1   -1    0    0  502    0  0.00000000000E+00  0.00000000000E+00  0.18362548788E+03  0.18362548788E+03  0.00000000000E+00 0. -1.
         -1   -1    0    0    0  501 -0.00000000000E+00 -0.00000000000E+00 -0.19661382061E+03  0.19661382061E+03  0.00000000000E+00 0.  1.
          6    1    1    2  502    0 -0.29700470066E+02 -0.49830075868E+02  0.49700485386E+02  0.18820013983E+03  0.17200000000E+03 0. -1.
         -6    1    1    2    0  501  0.29700470066E+02  0.49830075868E+02 -0.62688818116E+02  0.19203916866E+03  0.17200000000E+03 0. -1.
</event>
<event>
 4    1  0.3094855E-002  0.2016851E+03  0.7818608E-02  0.1148325E+00
          1   -1    0    0  502    0  0.00000000000E+00  0.00000000000E+00  0.10562373589E+03  0.10562373589E+03  0.00000000000E+00 0. -1.
         -1   -1    0    0    0  501 -0.00000000000E+00 -0.00000000000E+00 -0.60245128643E+03  0.60245128643E+03  0.00000000000E+00 0.  1.
          6    1    1    2  502    0  0.92886129200E+02  0.49649195995E+02 -0.46106030739E+03  0.50324296589E+03  0.17200000000E+03 0.  1.
         -6    1    1    2    0  501 -0.92886129200E+02 -0.49649195995E+02 -0.35767243144E+02  0.20483205643E+03  0.17200000000E+03 0. -1.
</event>
<event>
 4    1  0.3094855E-002  0.2234973E+03  0.7818608E-02  0.1131302E+00
         -2   -1    0    0    0  501 -0.00000000000E+00  0.00000000000E+00  0.65765194179E+03  0.65765194179E+03  0.00000000000E+00 0.  1.
          2   -1    0    0  502    0  0.00000000000E+00 -0.00000000000E+00 -0.10065894401E+03  0.10065894401E+03  0.00000000000E+00 0. -1.
          6    1    1    2  502    0 -0.41006218836E+02  0.13669497504E+03  0.90657118320E+02  0.24118403613E+03  0.17200000000E+03 0. -1.
         -6    1    1    2    0  501  0.41006218836E+02 -0.13669497504E+03  0.46633587946E+03  0.51712684967E+03  0.17200000000E+03 0.  1.
</event>
<event>
 4    1  0.3094855E-002  0.1844259E+03  0.7818608E-02  0.1163587E+00
         -2   -1    0    0    0  501 -0.00000000000E+00  0.00000000000E+00  0.25844279759E+03  0.25844279759E+03  0.00000000000E+00 0.  1.
          2   -1    0    0  502    0  0.00000000000E+00 -0.00000000000E+00 -0.15150909801E+03  0.15150909801E+03  0.00000000000E+00 0. -1.
          6    1    1    2  502    0  0.36953563787E+02  0.55347489049E+02 -0.20823387626E+02  0.18559774754E+03  0.17200000000E+03 0. -1.
         -6    1    1    2    0  501 -0.36953563787E+02 -0.55347489049E+02  0.12775708721E+03  0.22435414806E+03  0.17200000000E+03 0.  1.
</event>
<event>
 4    1  0.3094855E-002  0.3602619E+03  0.7818608E-02  0.1058480E+00
         -2   -1    0    0    0  501 -0.00000000000E+00  0.00000000000E+00  0.40856153812E+03  0.40856153812E+03  0.00000000000E+00 0.  1.
          2   -1    0    0  502    0  0.00000000000E+00 -0.00000000000E+00 -0.64969334336E+03  0.64969334336E+03  0.00000000000E+00 0. -1.
          6    1    1    2  502    0  0.30168507482E+03  0.95868460789E+02  0.25769281080E+03  0.44293817952E+03  0.17200000000E+03 0.  1.
         -6    1    1    2    0  501 -0.30168507482E+03 -0.95868460789E+02 -0.49882461604E+03  0.61531670196E+03  0.17200000000E+03 0. -1.
</event>
<event>
 4    1  0.3094855E-002  0.2030215E+03  0.7818608E-02  0.1147215E+00
          1   -1    0    0  502    0  0.00000000000E+00  0.00000000000E+00  0.12272507535E+03  0.12272507535E+03  0.00000000000E+00 0. -1.
         -1   -1    0    0    0  501 -0.00000000000E+00 -0.00000000000E+00 -0.47344595027E+03  0.47344595027E+03  0.00000000000E+00 0.  1.
          6    1    1    2  502    0 -0.44039964027E+02  0.98459134922E+02 -0.14665563810E+02  0.20355048131E+03  0.17200000000E+03 0. -1.
         -6    1    1    2    0  501  0.44039964027E+02 -0.98459134922E+02 -0.33605531112E+03  0.39262054431E+03  0.17200000000E+03 0.  1.
</event>
<event>
 4    1  0.3094855E-002  0.2190069E+03  0.7818608E-02  0.1134626E+00
          2   -1    0    0  502    0  0.00000000000E+00  0.00000000000E+00  0.23155507679E+04  0.23155507679E+04  0.00000000000E+00 0. -1.
         -2   -1    0    0    0  501 -0.00000000000E+00 -0.00000000000E+00 -0.20721055132E+02  0.20721055132E+02  0.00000000000E+00 0.  1.
          6    1    1    2  502    0  0.12765859746E+03 -0.45643233219E+02  0.11691640919E+04  0.11894993468E+04  0.17200000000E+03 0. -1.
         -6    1    1    2    0  501 -0.12765859746E+03  0.45643233219E+02  0.11256656208E+04  0.11467724762E+04  0.17200000000E+03 0.  1.
</event>
<event>
 4    1  0.3094855E-002  0.1964521E+03  0.7818608E-02  0.1152767E+00
         -2   -1    0    0    0  501 -0.00000000000E+00  0.00000000000E+00  0.16530501429E+02  0.16530501429E+02  0.00000000000E+00 0.  1.
          2   -1    0    0  502    0  0.00000000000E+00 -0.00000000000E+00 -0.25332401527E+04  0.25332401527E+04  0.00000000000E+00 0. -1.
          6    1    1    2  502    0 -0.54690751685E+01  0.94760209800E+02 -0.16152827344E+04  0.16271852138E+04  0.17200000000E+03 0. -1.
         -6    1    1    2    0  501  0.54690751685E+01 -0.94760209800E+02 -0.90142691691E+03  0.92258544031E+03  0.17200000000E+03 0.  1.
</event>
<event>
 4    1  0.3094855E-002  0.1209101E+04  0.7818608E-02  0.9104927E-01
         -1   -1    0    0    0  501 -0.00000000000E+00  0.00000000000E+00  0.88909941337E+03  0.88909941337E+03  0.00000000000E+00 0.  1.
          1   -1    0    0  502    0  0.00000000000E+00 -0.00000000000E+00 -0.18607700189E+04  0.18607700189E+04  0.00000000000E+00 0. -1.
          6    1    1    2  502    0 -0.79747153365E+03 -0.89240163753E+03 -0.95481915154E+03  0.15406508825E+04  0.17200000000E+03 0.  1.
         -6    1    1    2    0  501  0.79747153365E+03  0.89240163753E+03 -0.16851454006E+02  0.12092185498E+04  0.17200000000E+03 0.  1.
</event>
<event>
 4    1  0.3094855E-002  0.1765195E+03  0.7818608E-02  0.1171215E+00
         -2   -1    0    0    0  501 -0.00000000000E+00  0.00000000000E+00  0.57243298801E+02  0.57243298801E+02  0.00000000000E+00 0.  1.
          2   -1    0    0  502    0  0.00000000000E+00 -0.00000000000E+00 -0.84730796891E+03  0.84730796891E+03  0.00000000000E+00 0. -1.
          6    1    1    2  502    0  0.85235652726E+01  0.38761801057E+02 -0.66548391845E+03  0.68849689476E+03  0.17200000000E+03 0. -1.
         -6    1    1    2    0  501 -0.85235652726E+01 -0.38761801057E+02 -0.12458075167E+03  0.21605437295E+03  0.17200000000E+03 0.  1.
</event>
<event>
 4    1  0.3094855E-002  0.2017126E+03  0.7818608E-02  0.1148302E+00
          2   -1    0    0  502    0  0.00000000000E+00  0.00000000000E+00  0.47441086916E+04  0.47441086916E+04  0.00000000000E+00 0. -1.
         -2   -1    0    0    0  501 -0.00000000000E+00 -0.00000000000E+00 -0.13512021757E+02  0.13512021757E+02  0.00000000000E+00 0.  1.
          6    1    1    2  502    0 -0.98823259574E+02  0.36578022665E+02  0.38029871301E+04  0.38083328505E+04  0.17200000000E+03 0. -1.
         -6    1    1    2    0  501  0.98823259574E+02 -0.36578022665E+02  0.92760953976E+03  0.94928786289E+03  0.17200000000E+03 0.  1.
</event>
<event>
 4    1  0.3094855E-002  0.2165706E+03  0.7818608E-02  0.1136466E+00
          2   -1    0    0  502    0  0.00000000000E+00  0.00000000000E+00  0.69650615416E+03  0.69650615416E+03  0.00000000000E+00 0. -1.
         -2   -1    0    0    0  501 -0.00000000000E+00 -0.00000000000E+00 -0.93528466700E+02  0.93528466700E+02  0.00000000000E+00 0.  1.
          6    1    1    2  502    0 -0.94897511121E+01  0.13125842292E+03  0.51051373765E+03  0.55455126481E+03  0.17200000000E+03 0. -1.
         -6    1    1    2    0  501  0.94897511121E+01 -0.13125842292E+03  0.92463949805E+02  0.23548335605E+03  0.17200000000E+03 0.  1.
</event>
<event>
 4    1  0.3094855E-002  0.2588573E+03  0.7818608E-02  0.1107832E+00
          2   -1    0    0  502    0  0.00000000000E+00  0.00000000000E+00  0.41508913639E+04  0.41508913639E+04  0.00000000000E+00 0. -1.
         -2   -1    0    0    0  501 -0.00000000000E+00 -0.00000000000E+00 -0.16147674238E+02  0.16147674238E+02  0.00000000000E+00 0.  1.
          6    1    1    2  502    0  0.18809023558E+03 -0.45223334738E+02  0.21035012918E+04  0.21193689559E+04  0.17200000000E+03 0. -1.
         -6    1    1    2    0  501 -0.18809023558E+03  0.45223334738E+02  0.20312423980E+04  0.20476700823E+04  0.17200000000E+03 0.  1.
</event>
<event>
 4    1  0.3094855E-002  0.3737777E+03  0.7818608E-02  0.1053258E+00
          3   -1    0    0  502    0  0.00000000000E+00  0.00000000000E+00  0.16814418942E+03  0.16814418942E+03  0.00000000000E+00 0. -1.
         -3   -1    0    0    0  501 -0.00000000000E+00 -0.00000000000E+00 -0.10707375200E+04  0.10707375200E+04  0.00000000000E+00 0.  1.
          6    1    1    2  502    0  0.24976353774E+03  0.21850389665E+03 -0.15812397197E+03  0.40584845466E+03  0.17200000000E+03 0. -1.
         -6    1    1    2    0  501 -0.24976353774E+03 -0.21850389665E+03 -0.74446935856E+03  0.83303325472E+03  0.17200000000E+03 0.  1.
</event>
<event>
 4    1  0.3094855E-002  0.2577813E+03  0.7818608E-02  0.1108484E+00
          3   -1    0    0  502    0  0.00000000000E+00  0.00000000000E+00  0.51959312204E+03  0.51959312204E+03  0.00000000000E+00 0. -1.
         -3   -1    0    0    0  501 -0.00000000000E+00 -0.00000000000E+00 -0.12925647864E+03  0.12925647864E+03  0.00000000000E+00 0.  1.
          6    1    1    2  502    0  0.17136487234E+03  0.86609780350E+02  0.16182075562E+03  0.30436348414E+03  0.17200000000E+03 0. -1.
         -6    1    1    2    0  501 -0.17136487234E+03 -0.86609780350E+02  0.22851588777E+03  0.34448611654E+03  0.17200000000E+03 0.  1.
</event>
<event>
 4    1  0.3094855E-002  0.2092528E+03  0.7818608E-02  0.1142159E+00
         -2   -1    0    0    0  501 -0.00000000000E+00  0.00000000000E+00  0.17937323485E+02  0.17937323485E+02  0.00000000000E+00 0.  1.
          2   -1    0    0  502    0  0.00000000000E+00 -0.00000000000E+00 -0.24810815648E+04  0.24810815648E+04  0.00000000000E+00 0. -1.
          6    1    1    2  502    0 -0.98062789752E+02 -0.67723216590E+02 -0.10729492745E+04  0.10931637071E+04  0.17200000000E+03 0. -1.
         -6    1    1    2    0  501  0.98062789752E+02  0.67723216590E+02 -0.13901949668E+04  0.14058551812E+04  0.17200000000E+03 0. -1.
</event>
<event>
 4    1  0.3094855E-002  0.3739061E+03  0.7818608E-02  0.1053209E+00
          2   -1    0    0  502    0  0.00000000000E+00  0.00000000000E+00  0.13318363869E+04  0.13318363869E+04  0.00000000000E+00 0. -1.
         -2   -1    0    0    0  501 -0.00000000000E+00 -0.00000000000E+00 -0.51198058986E+03  0.51198058986E+03  0.00000000000E+00 0.  1.
          6    1    1    2  502    0 -0.26976645571E+03 -0.19351434982E+03  0.12319107684E+04  0.12874043209E+04  0.17200000000E+03 0. -1.
         -6    1    1    2    0  501  0.26976645571E+03  0.19351434982E+03 -0.41205497134E+03  0.55641265587E+03  0.17200000000E+03 0.  1.
</event>
<event>
 4    1  0.3094855E-002  0.3558909E+03  0.7818608E-02  0.1060223E+00
         -1   -1    0    0    0  501 -0.00000000000E+00  0.00000000000E+00  0.24533091666E+03  0.24533091666E+03  0.00000000000E+00 0.  1.
          1   -1    0    0  502    0  0.00000000000E+00 -0.00000000000E+00 -0.51799164510E+03  0.51799164510E+03  0.00000000000E+00 0. -1.
          6    1    1    2  502    0 -0.31156740077E+03 -0.33095497020E+00 -0.11436254354E+03  0.37381432038E+03  0.17200000000E+03 0. -1.
         -6    1    1    2    0  501  0.31156740077E+03  0.33095497020E+00 -0.15829818489E+03  0.38950824137E+03  0.17200000000E+03 0.  1.
</event>
<event>
 4    1  0.3094855E-002  0.1951620E+03  0.7818608E-02  0.1153886E+00
          2   -1    0    0  502    0  0.00000000000E+00  0.00000000000E+00  0.14264661336E+04  0.14264661336E+04  0.00000000000E+00 0. -1.
         -2   -1    0    0    0  501 -0.00000000000E+00 -0.00000000000E+00 -0.38130417733E+02  0.38130417733E+02  0.00000000000E+00 0.  1.
          6    1    1    2  502    0 -0.39284822502E+02  0.83432152065E+02  0.10950920824E+04  0.11123465693E+04  0.17200000000E+03 0. -1.
         -6    1    1    2    0  501  0.39284822502E+02 -0.83432152065E+02  0.29324363344E+03  0.35224998202E+03  0.17200000000E+03 0.  1.
</event>
<event>
 4    1  0.3094855E-002  0.2085351E+03  0.7818608E-02  0.1142731E+00
         -1   -1    0    0    0  501 -0.00000000000E+00  0.00000000000E+00  0.29509292344E+03  0.29509292344E+03  0.00000000000E+00 0.  1.
          1   -1    0    0  502    0  0.00000000000E+00 -0.00000000000E+00 -0.31320310572E+03  0.31320310572E+03  0.00000000000E+00 0. -1.
          6    1    1    2  502    0  0.16976816146E+02  0.11668200246E+03  0.21226036934E+03  0.29755901327E+03  0.17200000000E+03 0.  1.
         -6    1    1    2    0  501 -0.16976816146E+02 -0.11668200246E+03 -0.23037055163E+03  0.31073701589E+03  0.17200000000E+03 0. -1.
</event>
<event>
 4    1  0.3094855E-002  0.4496116E+03  0.7818608E-02  0.1027838E+00
          1   -1    0    0  502    0  0.00000000000E+00  0.00000000000E+00  0.10182590109E+04  0.10182590109E+04  0.00000000000E+00 0. -1.
         -1   -1    0    0    0  501 -0.00000000000E+00 -0.00000000000E+00 -0.34384126974E+03  0.34384126974E+03  0.00000000000E+00 0.  1.
          6    1    1    2  502    0  0.29207142468E+03  0.29539953009E+03  0.77995638927E+03  0.90026805378E+03  0.17200000000E+03 0. -1.
         -6    1    1    2    0  501 -0.29207142468E+03 -0.29539953009E+03 -0.10553864812E+03  0.46183222684E+03  0.17200000000E+03 0.  1.
</event>
<event>
 4    1  0.3094855E-002  0.2903882E+03  0.7818608E-02  0.1090147E+00
         -2   -1    0    0    0  501 -0.00000000000E+00  0.00000000000E+00  0.93701994353E+02  0.93701994353E+02  0.00000000000E+00 0.  1.
          2   -1    0    0  502    0  0.00000000000E+00 -0.00000000000E+00 -0.11780813306E+04  0.11780813306E+04  0.00000000000E+00 0. -1.
          6    1    1    2  502    0  0.37698761447E+01  0.23393827677E+03 -0.85117316623E+03  0.89934481052E+03  0.17200000000E+03 0. -1.
         -6    1    1    2    0  501 -0.37698761447E+01 -0.23393827677E+03 -0.23320617005E+03  0.37243851446E+03  0.17200000000E+03 0.  1.
</event>
<event>
 4    1  0.3094855E-002  0.2105409E+03  0.7818608E-02  0.1141138E+00
          4   -1    0    0  502    0  0.00000000000E+00  0.00000000000E+00  0.11102455849E+03  0.11102455849E+03  0.00000000000E+00 0. -1.
         -4   -1    0    0    0  501 -0.00000000000E+00 -0.00000000000E+00 -0.43237404033E+03  0.43237404033E+03  0.00000000000E+00 0.  1.
          6    1    1    2  502    0 -0.10220237135E+03 -0.65560183564E+02 -0.85481850362E+02  0.22723250014E+03  0.17200000000E+03 0. -1.
         -6    1    1    2    0  501  0.10220237135E+03  0.65560183564E+02 -0.23586763147E+03  0.31616609868E+03  0.17200000000E+03 0.  1.
</event>
<event>
 4    1  0.3094855E-002  0.1816293E+03  0.7818608E-02  0.1166235E+00
          1   -1    0    0  502    0  0.00000000000E+00  0.00000000000E+00  0.13465443666E+04  0.13465443666E+04  0.00000000000E+00 0. -1.
         -1   -1    0    0    0  501 -0.00000000000E+00 -0.00000000000E+00 -0.58259258536E+03  0.58259258536E+03  0.00000000000E+00 0.  1.
          6    1    1    2  502    0  0.58308661376E+02 -0.23057671682E+01  0.13260455441E+04  0.13384266889E+04  0.17200000000E+03 0. -1.
         -6    1    1    2    0  501 -0.58308661376E+02  0.23057671682E+01 -0.56209376289E+03  0.59071026302E+03  0.17200000000E+03 0.  1.
</event>
<event>
 4    1  0.3094855E-002  0.1991025E+03  0.7818608E-02  0.1150498E+00
         -1   -1    0    0    0  501 -0.00000000000E+00  0.00000000000E+00  0.10303409108E+03  0.10303409108E+03  0.00000000000E+00 0.  1.
          1   -1    0    0  502    0  0.00000000000E+00 -0.00000000000E+00 -0.54546365912E+03  0.54546365912E+03  0.00000000000E+00 0. -1.
          6    1    1    2  502    0 -0.21952632401E+02 -0.97856514644E+02 -0.39722147886E+03  0.44432726542E+03  0.17200000000E+03 0. -1.
         -6    1    1    2    0  501  0.21952632401E+02  0.97856514644E+02 -0.45208089188E+02  0.20417048478E+03  0.17200000000E+03 0.  1.
</event>
<event>
 4    1  0.3094855E-002  0.2716800E+03  0.7818608E-02  0.1100322E+00
         -2   -1    0    0    0  501 -0.00000000000E+00  0.00000000000E+00  0.46893245983E+02  0.46893245983E+02  0.00000000000E+00 0.  1.
          2   -1    0    0  502    0  0.00000000000E+00 -0.00000000000E+00 -0.17006070964E+04  0.17006070964E+04  0.00000000000E+00 0. -1.
          6    1    1    2  502    0 -0.18053055864E+03  0.10786452455E+03 -0.10652599592E+04  0.10993583669E+04  0.17200000000E+03 0. -1.
         -6    1    1    2    0  501  0.18053055864E+03 -0.10786452455E+03 -0.58845389121E+03  0.64814197545E+03  0.17200000000E+03 0.  1.
</event>
<event>
 4    1  0.3094855E-002  0.5200144E+03  0.7818608E-02  0.1008683E+00
         -2   -1    0    0    0  501 -0.00000000000E+00  0.00000000000E+00  0.23363206666E+03  0.23363206666E+03  0.00000000000E+00 0.  1.
          2   -1    0    0  502    0  0.00000000000E+00 -0.00000000000E+00 -0.11576754212E+04  0.11576754212E+04  0.00000000000E+00 0. -1.
          6    1    1    2  502    0 -0.87626683987E+02 -0.48285875662E+03 -0.47194955589E+03  0.70224739081E+03  0.17200000000E+03 0. -1.
         -6    1    1    2    0  501  0.87626683987E+02  0.48285875662E+03 -0.45209379870E+03  0.68906009710E+03  0.17200000000E+03 0.  1.
</event>
<event>
 4    1  0.3094855E-002  0.1725012E+03  0.7818608E-02  0.1175264E+00
          2   -1    0    0  502    0  0.00000000000E+00  0.00000000000E+00  0.28311034689E+04  0.28311034689E+04  0.00000000000E+00 0. -1.
         -2   -1    0    0    0  501 -0.00000000000E+00 -0.00000000000E+00 -0.29786040982E+02  0.29786040982E+02  0.00000000000E+00 0.  1.
          6    1    1    2  502    0 -0.30037360870E+01  0.12792173136E+02  0.24994683361E+03  0.30369405947E+03  0.17200000000E+03 0.  1.
         -6    1    1    2    0  501  0.30037360870E+01 -0.12792173136E+02  0.25513705943E+04  0.25571954504E+04  0.17200000000E+03 0. -1.
</event>
<event>
 4    1  0.3094855E-002  0.3547107E+03  0.7818608E-02  0.1060698E+00
          3   -1    0    0  502    0  0.00000000000E+00  0.00000000000E+00  0.32707512516E+03  0.32707512516E+03  0.00000000000E+00 0. -1.
         -3   -1    0    0    0  501 -0.00000000000E+00 -0.00000000000E+00 -0.51829378197E+03  0.51829378197E+03  0.00000000000E+00 0.  1.
          6    1    1    2  502    0 -0.28665718976E+03  0.11858904529E+03  0.11900152571E+03  0.37414044051E+03  0.17200000000E+03 0. -1.
         -6    1    1    2    0  501  0.28665718976E+03 -0.11858904529E+03 -0.31022018252E+03  0.47122846661E+03  0.17200000000E+03 0.  1.
</event>
<event>
 4    1  0.3094855E-002  0.4194920E+03  0.7818608E-02  0.1037232E+00
          1   -1    0    0  502    0  0.00000000000E+00  0.00000000000E+00  0.12840994411E+04  0.12840994411E+04  0.00000000000E+00 0. -1.
         -1   -1    0    0    0  501 -0.00000000000E+00 -0.00000000000E+00 -0.14301898063E+03  0.14301898063E+03  0.00000000000E+00 0.  1.
          6    1    1    2  502    0 -0.15337058605E+03  0.35052384666E+03  0.71643245473E+03  0.83021019383E+03  0.17200000000E+03 0. -1.
         -6    1    1    2    0  501  0.15337058605E+03 -0.35052384666E+03  0.42464800572E+03  0.59690822787E+03  0.17200000000E+03 0.  1.
</event>
<event>
 4    1  0.3094855E-002  0.1814411E+03  0.7818608E-02  0.1166416E+00
         -2   -1    0    0    0  501 -0.00000000000E+00  0.00000000000E+00  0.34482939944E+02  0.34482939944E+02  0.00000000000E+00 0.  1.
          2   -1    0    0  502    0  0.00000000000E+00 -0.00000000000E+00 -0.19024635009E+04  0.19024635009E+04  0.00000000000E+00 0. -1.
          6    1    1    2  502    0 -0.51074829976E+02  0.26986104748E+02 -0.16175544200E+04  0.16276987405E+04  0.17200000000E+03 0. -1.
         -6    1    1    2    0  501  0.51074829976E+02 -0.26986104748E+02 -0.25042614097E+03  0.30924770038E+03  0.17200000000E+03 0.  1.
</event>
<event>
 4    1  0.3094855E-002  0.2666928E+03  0.7818608E-02  0.1103187E+00
         -2   -1    0    0    0  501 -0.00000000000E+00  0.00000000000E+00  0.76017046527E+02  0.76017046527E+02  0.00000000000E+00 0.  1.
          2   -1    0    0  502    0  0.00000000000E+00 -0.00000000000E+00 -0.11852907426E+04  0.11852907426E+04  0.00000000000E+00 0. -1.
          6    1    1    2  502    0 -0.80552703653E+02 -0.18722261613E+03 -0.84406438034E+03  0.88519473802E+03  0.17200000000E+03 0. -1.
         -6    1    1    2    0  501  0.80552703653E+02  0.18722261613E+03 -0.26520931571E+03  0.37611305109E+03  0.17200000000E+03 0.  1.
</event>
<event>
 4    1  0.3094855E-002  0.3751532E+03  0.7818608E-02  0.1052740E+00
         -2   -1    0    0    0  501 -0.00000000000E+00  0.00000000000E+00  0.13788963101E+04  0.13788963101E+04  0.00000000000E+00 0.  1.
          2   -1    0    0  502    0  0.00000000000E+00 -0.00000000000E+00 -0.16798266238E+03  0.16798266238E+03  0.00000000000E+00 0. -1.
          6    1    1    2  502    0 -0.17195941876E+03 -0.28563242846E+03  0.12096311419E+03  0.39417255217E+03  0.17200000000E+03 0. -1.
         -6    1    1    2    0  501  0.17195941876E+03  0.28563242846E+03  0.10899505336E+04  0.11527064203E+04  0.17200000000E+03 0.  1.
</event>
<event>
 4    1  0.3094855E-002  0.5341655E+03  0.7818608E-02  0.1005227E+00
         -2   -1    0    0    0  501 -0.00000000000E+00  0.00000000000E+00  0.19879421426E+03  0.19879421426E+03  0.00000000000E+00 0.  1.
          2   -1    0    0  502    0  0.00000000000E+00 -0.00000000000E+00 -0.16958761922E+04  0.16958761922E+04  0.00000000000E+00 0. -1.
          6    1    1    2  502    0 -0.50442490912E+03  0.36115176979E+02 -0.37721147442E+03  0.65392758879E+03  0.17200000000E+03 0. -1.
         -6    1    1    2    0  501  0.50442490912E+03 -0.36115176979E+02 -0.11198705035E+04  0.12407428177E+04  0.17200000000E+03 0.  1.
</event>
<event>
 4    1  0.3094855E-002  0.1905060E+03  0.7818608E-02  0.1158006E+00
          2   -1    0    0  502    0  0.00000000000E+00  0.00000000000E+00  0.16138294631E+03  0.16138294631E+03  0.00000000000E+00 0. -1.
         -2   -1    0    0    0  501 -0.00000000000E+00 -0.00000000000E+00 -0.48488400717E+03  0.48488400717E+03  0.00000000000E+00 0.  1.
          6    1    1    2  502    0  0.77899381710E+02  0.25302465167E+02  0.74868275652E+02  0.20468948950E+03  0.17200000000E+03 0. -1.
         -6    1    1    2    0  501 -0.77899381710E+02 -0.25302465167E+02 -0.39836933651E+03  0.44157746397E+03  0.17200000000E+03 0.  1.
</event>
<event>
 4    1  0.3094855E-002  0.2400168E+03  0.7818608E-02  0.1119782E+00
          2   -1    0    0  502    0  0.00000000000E+00  0.00000000000E+00  0.29697105533E+03  0.29697105533E+03  0.00000000000E+00 0. -1.
         -2   -1    0    0    0  501 -0.00000000000E+00 -0.00000000000E+00 -0.19630063331E+03  0.19630063331E+03  0.00000000000E+00 0.  1.
          6    1    1    2  502    0  0.15884253280E+03  0.52850104406E+02  0.77119599310E+02  0.25210219428E+03  0.17200000000E+03 0. -1.
         -6    1    1    2    0  501 -0.15884253280E+03 -0.52850104406E+02  0.23550822713E+02  0.24116949436E+03  0.17200000000E+03 0.  1.
</event>
<event>
 4    1  0.3094855E-002  0.1763866E+03  0.7818608E-02  0.1171347E+00
         -1   -1    0    0    0  501 -0.00000000000E+00  0.00000000000E+00  0.22580785436E+03  0.22580785436E+03  0.00000000000E+00 0.  1.
          1   -1    0    0  502    0  0.00000000000E+00 -0.00000000000E+00 -0.18159190942E+03  0.18159190942E+03  0.00000000000E+00 0. -1.
          6    1    1    2  502    0  0.10375881668E+02 -0.37690643159E+02  0.12216072036E+03  0.21455881502E+03  0.17200000000E+03 0.  1.
         -6    1    1    2    0  501 -0.10375881668E+02  0.37690643159E+02 -0.77944775426E+02  0.19284094876E+03  0.17200000000E+03 0.  1.
</event>
<event>
 4    1  0.3094855E-002  0.1950873E+03  0.7818608E-02  0.1153951E+00
          2   -1    0    0  502    0  0.00000000000E+00  0.00000000000E+00  0.12388979844E+03  0.12388979844E+03  0.00000000000E+00 0. -1.
         -2   -1    0    0    0  501 -0.00000000000E+00 -0.00000000000E+00 -0.30784807774E+03  0.30784807774E+03  0.00000000000E+00 0.  1.
          6    1    1    2  502    0 -0.67740157695E+02 -0.62340266619E+02 -0.10187804723E+03  0.22008674270E+03  0.17200000000E+03 0.  1.
         -6    1    1    2    0  501  0.67740157695E+02  0.62340266619E+02 -0.82080232064E+02  0.21165113348E+03  0.17200000000E+03 0.  1.
</event>
<event>
 4    1  0.3094855E-002  0.2661840E+03  0.7818608E-02  0.1103484E+00
          2   -1    0    0  502    0  0.00000000000E+00  0.00000000000E+00  0.86764555492E+03  0.86764555492E+03  0.00000000000E+00 0. -1.
         -2   -1    0    0    0  501 -0.00000000000E+00 -0.00000000000E+00 -0.88479908276E+02  0.88479908276E+02  0.00000000000E+00 0.  1.
          6    1    1    2  502    0 -0.19988713158E+03 -0.36263432714E+02  0.52228549549E+03  0.58620477713E+03  0.17200000000E+03 0. -1.
         -6    1    1    2    0  501  0.19988713158E+03  0.36263432714E+02  0.25688015115E+03  0.36992068607E+03  0.17200000000E+03 0.  1.
</event>
<event>
 4    1  0.3094855E-002  0.1897242E+03  0.7818608E-02  0.1158710E+00
          1   -1    0    0  502    0  0.00000000000E+00  0.00000000000E+00  0.78900386407E+02  0.78900386407E+02  0.00000000000E+00 0. -1.
         -1   -1    0    0    0  501 -0.00000000000E+00 -0.00000000000E+00 -0.45700644401E+03  0.45700644401E+03  0.00000000000E+00 0.  1.
          6    1    1    2  502    0 -0.30991860165E+02  0.73829285944E+02 -0.20022893977E+03  0.27583851649E+03  0.17200000000E+03 0. -1.
         -6    1    1    2    0  501  0.30991860165E+02 -0.73829285944E+02 -0.17787711784E+03  0.26006831393E+03  0.17200000000E+03 0.  1.
</event>
<event>
 4    1  0.3094855E-002  0.2140446E+03  0.7818608E-02  0.1138403E+00
          2   -1    0    0  502    0  0.00000000000E+00  0.00000000000E+00  0.22738872284E+04  0.22738872284E+04  0.00000000000E+00 0. -1.
         -2   -1    0    0    0  501 -0.00000000000E+00 -0.00000000000E+00 -0.23481324656E+02  0.23481324656E+02  0.00000000000E+00 0.  1.
          6    1    1    2  502    0 -0.12251130517E+03  0.34957908799E+02  0.69243469466E+03  0.72476263815E+03  0.17200000000E+03 0. -1.
         -6    1    1    2    0  501  0.12251130517E+03 -0.34957908799E+02  0.15579712091E+04  0.15726059149E+04  0.17200000000E+03 0. -1.
</event>
<event>
 4    1  0.3094855E-002  0.2482157E+03  0.7818608E-02  0.1114438E+00
         -2   -1    0    0    0  501 -0.00000000000E+00  0.00000000000E+00  0.90121774008E+02  0.90121774008E+02  0.00000000000E+00 0.  1.
          2   -1    0    0  502    0  0.00000000000E+00 -0.00000000000E+00 -0.69517489164E+03  0.69517489164E+03  0.00000000000E+00 0. -1.
          6    1    1    2  502    0  0.17192187167E+03 -0.49698223743E+02 -0.35310005621E+03  0.43161405572E+03  0.17200000000E+03 0.  1.
         -6    1    1    2    0  501 -0.17192187167E+03  0.49698223743E+02 -0.25195306142E+03  0.35368260992E+03  0.17200000000E+03 0.  1.
</event>
<event>
 4    1  0.3094855E-002  0.2467455E+03  0.7818608E-02  0.1115379E+00
         -2   -1    0    0    0  501 -0.00000000000E+00  0.00000000000E+00  0.76414941001E+02  0.76414941001E+02  0.00000000000E+00 0.  1.
          2   -1    0    0  502    0  0.00000000000E+00 -0.00000000000E+00 -0.21879941526E+04  0.21879941526E+04  0.00000000000E+00 0. -1.
          6    1    1    2  502    0  0.69429100005E+02 -0.16272352340E+03 -0.19586155310E+04  0.19740967918E+04  0.17200000000E+03 0. -1.
         -6    1    1    2    0  501 -0.69429100005E+02  0.16272352340E+03 -0.15296368054E+03  0.29031230177E+03  0.17200000000E+03 0.  1.
</event>
<event>
 4    1  0.3094855E-002  0.1779591E+03  0.7818608E-02  0.1169793E+00
          1   -1    0    0  502    0  0.00000000000E+00  0.00000000000E+00  0.64734423092E+03  0.64734423092E+03  0.00000000000E+00 0. -1.
         -1   -1    0    0    0  501 -0.00000000000E+00 -0.00000000000E+00 -0.77333176982E+02  0.77333176982E+02  0.00000000000E+00 0.  1.
          6    1    1    2  502    0  0.41205860307E+02 -0.19685728370E+02  0.50462735986E+03  0.53508711734E+03  0.17200000000E+03 0. -1.
         -6    1    1    2    0  501 -0.41205860307E+02  0.19685728370E+02  0.65383694083E+02  0.18959029057E+03  0.17200000000E+03 0.  1.
</event>
<event>
 4    1  0.3094855E-002  0.1840503E+03  0.7818608E-02  0.1163940E+00
         -2   -1    0    0    0  501 -0.00000000000E+00  0.00000000000E+00  0.38142830175E+02  0.38142830175E+02  0.00000000000E+00 0.  1.
          2   -1    0    0  502    0  0.00000000000E+00 -0.00000000000E+00 -0.11797167537E+04  0.11797167537E+04  0.00000000000E+00 0. -1.
          6    1    1    2  502    0 -0.18227374165E+02 -0.62914886229E+02 -0.87353899716E+03  0.89271770434E+03  0.17200000000E+03 0. -1.
         -6    1    1    2    0  501  0.18227374165E+02  0.62914886229E+02 -0.26803492637E+03  0.32514187954E+03  0.17200000000E+03 0.  1.
</event>
<event>
 4    1  0.3094855E-002  0.2576346E+03  0.7818608E-02  0.1108573E+00
          2   -1    0    0  502    0  0.00000000000E+00  0.00000000000E+00  0.32648360489E+03  0.32648360489E+03  0.00000000000E+00 0. -1.
         -2   -1    0    0    0  501 -0.00000000000E+00 -0.00000000000E+00 -0.40014826328E+03  0.40014826328E+03  0.00000000000E+00 0.  1.
          6    1    1    2  502    0  0.16125397715E+03  0.10386890384E+03  0.21798841448E+03  0.33748265611E+03  0.17200000000E+03 0.  1.
         -6    1    1    2    0  501 -0.16125397715E+03 -0.10386890384E+03 -0.29165307287E+03  0.38914921206E+03  0.17200000000E+03 0.  1.
</event>
<event>
 4    1  0.3094855E-002  0.3281753E+03  0.7818608E-02  0.1071947E+00
         -2   -1    0    0    0  501 -0.00000000000E+00  0.00000000000E+00  0.15649911032E+03  0.15649911032E+03  0.00000000000E+00 0.  1.
          2   -1    0    0  502    0  0.00000000000E+00 -0.00000000000E+00 -0.85190023741E+03  0.85190023741E+03  0.00000000000E+00 0. -1.
          6    1    1    2  502    0  0.54501011141E+01  0.27943750440E+03 -0.56873702022E+03  0.65662837332E+03  0.17200000000E+03 0. -1.
         -6    1    1    2    0  501 -0.54501011141E+01 -0.27943750440E+03 -0.12666410687E+03  0.35177097441E+03  0.17200000000E+03 0.  1.
</event>
<event>
 4    1  0.3094855E-002  0.2008714E+03  0.7818608E-02  0.1149006E+00
         -2   -1    0    0    0  501 -0.00000000000E+00  0.00000000000E+00  0.69286607325E+02  0.69286607325E+02  0.00000000000E+00 0.  1.
          2   -1    0    0  502    0  0.00000000000E+00 -0.00000000000E+00 -0.66000573804E+03  0.66000573804E+03  0.00000000000E+00 0. -1.
          6    1    1    2  502    0 -0.23127433268E+01  0.10373021843E+03 -0.17028343380E+03  0.26333582138E+03  0.17200000000E+03 0.  1.
         -6    1    1    2    0  501  0.23127433268E+01 -0.10373021843E+03 -0.42043569692E+03  0.46595652398E+03  0.17200000000E+03 0.  1.
</event>
<event>
 4    1  0.3094855E-002  0.1919848E+03  0.7818608E-02  0.1156683E+00
          2   -1    0    0  502    0  0.00000000000E+00  0.00000000000E+00  0.28915245573E+03  0.28915245573E+03  0.00000000000E+00 0. -1.
         -2   -1    0    0    0  501 -0.00000000000E+00 -0.00000000000E+00 -0.12836185194E+03  0.12836185194E+03  0.00000000000E+00 0.  1.
          6    1    1    2  502    0 -0.31713717468E+02  0.79173305212E+02  0.62991396727E+02  0.20205466635E+03  0.17200000000E+03 0. -1.
         -6    1    1    2    0  501  0.31713717468E+02 -0.79173305212E+02  0.97799207070E+02  0.21545964132E+03  0.17200000000E+03 0. -1.
</event>
<event>
 4    1  0.3094855E-002  0.2475123E+03  0.7818608E-02  0.1114887E+00
         -2   -1    0    0    0  501 -0.00000000000E+00  0.00000000000E+00  0.14975304125E+03  0.14975304125E+03  0.00000000000E+00 0.  1.
          2   -1    0    0  502    0  0.00000000000E+00 -0.00000000000E+00 -0.41089047770E+03  0.41089047770E+03  0.00000000000E+00 0. -1.
          6    1    1    2  502    0  0.45987287947E+02 -0.17194044697E+03 -0.14912911406E+03  0.28896685038E+03  0.17200000000E+03 0. -1.
         -6    1    1    2    0  501 -0.45987287947E+02  0.17194044697E+03 -0.11200832239E+03  0.27167666857E+03  0.17200000000E+03 0.  1.
</event>
<event>
 4    1  0.3094855E-002  0.1779843E+03  0.7818608E-02  0.1169768E+00
         -2   -1    0    0    0  501 -0.00000000000E+00  0.00000000000E+00  0.25924606997E+02  0.25924606997E+02  0.00000000000E+00 0.  1.
          2   -1    0    0  502    0  0.00000000000E+00 -0.00000000000E+00 -0.14117968004E+04  0.14117968004E+04  0.00000000000E+00 0. -1.
          6    1    1    2  502    0 -0.17286966935E+02 -0.42374098782E+02 -0.42932250981E+03  0.46475393587E+03  0.17200000000E+03 0.  1.
         -6    1    1    2    0  501  0.17286966935E+02  0.42374098782E+02 -0.95654968358E+03  0.97296747151E+03  0.17200000000E+03 0.  1.
</event>
<event>
 4    1  0.3094855E-002  0.2191843E+03  0.7818608E-02  0.1134493E+00
         -2   -1    0    0    0  501 -0.00000000000E+00  0.00000000000E+00  0.65740266557E+02  0.65740266557E+02  0.00000000000E+00 0.  1.
          2   -1    0    0  502    0  0.00000000000E+00 -0.00000000000E+00 -0.76132998851E+03  0.76132998851E+03  0.00000000000E+00 0. -1.
          6    1    1    2  502    0  0.12285454764E+03 -0.58004307103E+02 -0.26495789903E+03  0.34386687508E+03  0.17200000000E+03 0.  1.
         -6    1    1    2    0  501 -0.12285454764E+03  0.58004307103E+02 -0.43063182292E+03  0.48320337998E+03  0.17200000000E+03 0. -1.
</event>
<event>
 4    1  0.3094855E-002  0.3363731E+03  0.7818608E-02  0.1068351E+00
          2   -1    0    0  502    0  0.00000000000E+00  0.00000000000E+00  0.82585875365E+03  0.82585875365E+03  0.00000000000E+00 0. -1.
         -2   -1    0    0    0  501 -0.00000000000E+00 -0.00000000000E+00 -0.14335225046E+03  0.14335225046E+03  0.00000000000E+00 0.  1.
          6    1    1    2  502    0 -0.27961504008E+03 -0.73336655433E+02  0.44322421783E+03  0.55641220596E+03  0.17200000000E+03 0. -1.
         -6    1    1    2    0  501  0.27961504008E+03  0.73336655433E+02  0.23928228536E+03  0.41279879815E+03  0.17200000000E+03 0.  1.
</event>
<event>
 4    1  0.3094855E-002  0.2205382E+03  0.7818608E-02  0.1133482E+00
          1   -1    0    0  502    0  0.00000000000E+00  0.00000000000E+00  0.16000357314E+04  0.16000357314E+04  0.00000000000E+00 0. -1.
         -1   -1    0    0    0  501 -0.00000000000E+00 -0.00000000000E+00 -0.71249660594E+02  0.71249660594E+02  0.00000000000E+00 0.  1.
          6    1    1    2  502    0 -0.61871536475E+02 -0.12338964472E+03  0.13163638376E+03  0.25683696965E+03  0.17200000000E+03 0.  1.
         -6    1    1    2    0  501  0.61871536475E+02  0.12338964472E+03  0.13971496870E+04  0.14144484223E+04  0.17200000000E+03 0. -1.
</event>
<event>
 4    1  0.3094855E-002  0.2175416E+03  0.7818608E-02  0.1135729E+00
          2   -1    0    0  502    0  0.00000000000E+00  0.00000000000E+00  0.21476213746E+04  0.21476213746E+04  0.00000000000E+00 0. -1.
         -2   -1    0    0    0  501 -0.00000000000E+00 -0.00000000000E+00 -0.22745071065E+02  0.22745071065E+02  0.00000000000E+00 0.  1.
          6    1    1    2  502    0 -0.40529968442E+02  0.12687650683E+03  0.87079286105E+03  0.89755475219E+03  0.17200000000E+03 0. -1.
         -6    1    1    2    0  501  0.40529968442E+02 -0.12687650683E+03  0.12540834425E+04  0.12728116935E+04  0.17200000000E+03 0. -1.
</event>
<event>
 4    1  0.3094855E-002  0.1913890E+03  0.7818608E-02  0.1157214E+00
          1   -1    0    0  502    0  0.00000000000E+00  0.00000000000E+00  0.12513282622E+04  0.12513282622E+04  0.00000000000E+00 0. -1.
         -1   -1    0    0    0  501 -0.00000000000E+00 -0.00000000000E+00 -0.51190637408E+02  0.51190637408E+02  0.00000000000E+00 0.  1.
          6    1    1    2  502    0  0.72324855110E-01  0.83939032956E+02  0.10262149279E+04  0.10439094045E+04  0.17200000000E+03 0. -1.
         -6    1    1    2    0  501 -0.72324855110E-01 -0.83939032956E+02  0.17392269689E+03  0.25860949514E+03  0.17200000000E+03 0.  1.
</event>
<event>
 4    1  0.3094855E-002  0.2917380E+03  0.7818608E-02  0.1089445E+00
          4   -1    0    0  502    0  0.00000000000E+00  0.00000000000E+00  0.61204964278E+03  0.61204964278E+03  0.00000000000E+00 0. -1.
         -4   -1    0    0    0  501 -0.00000000000E+00 -0.00000000000E+00 -0.16483188075E+03  0.16483188075E+03  0.00000000000E+00 0.  1.
          6    1    1    2  502    0  0.19629976378E+03  0.13035899468E+03  0.37720666007E+03  0.47686049234E+03  0.17200000000E+03 0.  1.
         -6    1    1    2    0  501 -0.19629976378E+03 -0.13035899468E+03  0.70011101963E+02  0.30002103118E+03  0.17200000000E+03 0. -1.
</event>
<event>
 4    1  0.3094855E-002  0.3268951E+03  0.7818608E-02  0.1072519E+00
         -2   -1    0    0    0  501 -0.00000000000E+00  0.00000000000E+00  0.40097016184E+02  0.40097016184E+02  0.00000000000E+00 0.  1.
          2   -1    0    0  502    0  0.00000000000E+00 -0.00000000000E+00 -0.26778297393E+04  0.26778297393E+04  0.00000000000E+00 0. -1.
          6    1    1    2  502    0  0.25728962508E+03 -0.10525409185E+03 -0.14127635673E+04  0.14500900910E+04  0.17200000000E+03 0. -1.
         -6    1    1    2    0  501 -0.25728962508E+03  0.10525409185E+03 -0.12249691558E+04  0.12678366644E+04  0.17200000000E+03 0.  1.
</event>
<event>
 4    1  0.3094855E-002  0.2927219E+03  0.7818608E-02  0.1088937E+00
         -1   -1    0    0    0  501 -0.00000000000E+00  0.00000000000E+00  0.14537167274E+03  0.14537167274E+03  0.00000000000E+00 0.  1.
          1   -1    0    0  502    0  0.00000000000E+00 -0.00000000000E+00 -0.12327222816E+04  0.12327222816E+04  0.00000000000E+00 0. -1.
          6    1    1    2  502    0  0.18673193593E+03 -0.14571644318E+03 -0.10414366173E+04  0.10817931066E+04  0.17200000000E+03 0. -1.
         -6    1    1    2    0  501 -0.18673193593E+03  0.14571644318E+03 -0.45913991532E+02  0.29630084767E+03  0.17200000000E+03 0.  1.
</event>
<event>
 4    1  0.3094855E-002  0.1779749E+03  0.7818608E-02  0.1169777E+00
          2   -1    0    0  502    0  0.00000000000E+00  0.00000000000E+00  0.10975006170E+04  0.10975006170E+04  0.00000000000E+00 0. -1.
         -2   -1    0    0    0  501 -0.00000000000E+00 -0.00000000000E+00 -0.38165205679E+02  0.38165205679E+02  0.00000000000E+00 0.  1.
          6    1    1    2  502    0 -0.72709414625E+01  0.45146422259E+02  0.24930240256E+03  0.30631153089E+03  0.17200000000E+03 0.  1.
         -6    1    1    2    0  501  0.72709414625E+01 -0.45146422259E+02  0.81003300879E+03  0.82935429182E+03  0.17200000000E+03 0. -1.
</event>
<event>
 4    1  0.3094855E-002  0.2268195E+03  0.7818608E-02  0.1128899E+00
          2   -1    0    0  502    0  0.00000000000E+00  0.00000000000E+00  0.21560930489E+04  0.21560930489E+04  0.00000000000E+00 0. -1.
         -2   -1    0    0    0  501 -0.00000000000E+00 -0.00000000000E+00 -0.24103589761E+02  0.24103589761E+02  0.00000000000E+00 0.  1.
          6    1    1    2  502    0 -0.40942451317E+02 -0.14208028471E+03  0.11752972923E+04  0.11969840504E+04  0.17200000000E+03 0.  1.
         -6    1    1    2    0  501  0.40942451317E+02  0.14208028471E+03  0.95669216683E+03  0.98321258825E+03  0.17200000000E+03 0.  1.
</event>
<event>
 4    1  0.3094855E-002  0.1764476E+03  0.7818608E-02  0.1171286E+00
          4   -1    0    0  502    0  0.00000000000E+00  0.00000000000E+00  0.91365409624E+02  0.91365409624E+02  0.00000000000E+00 0. -1.
         -4   -1    0    0    0  501 -0.00000000000E+00 -0.00000000000E+00 -0.35847483912E+03  0.35847483912E+03  0.00000000000E+00 0.  1.
          6    1    1    2  502    0 -0.38042072064E+02 -0.10126895478E+02 -0.83556171802E+02  0.19523162424E+03  0.17200000000E+03 0.  1.
         -6    1    1    2    0  501  0.38042072064E+02  0.10126895478E+02 -0.18355325769E+03  0.25460862450E+03  0.17200000000E+03 0.  1.
</event>
<event>
 4    1  0.3094855E-002  0.5243529E+03  0.7818608E-02  0.1007611E+00
         -2   -1    0    0    0  501 -0.00000000000E+00  0.00000000000E+00  0.23835969828E+03  0.23835969828E+03  0.00000000000E+00 0.  1.
          2   -1    0    0  502    0  0.00000000000E+00 -0.00000000000E+00 -0.13456761052E+04  0.13456761052E+04  0.00000000000E+00 0. -1.
          6    1    1    2  502    0  0.44410749466E+03  0.21938661060E+03 -0.85296991722E+03  0.10012510332E+04  0.17200000000E+03 0. -1.
         -6    1    1    2    0  501 -0.44410749466E+03 -0.21938661060E+03 -0.25434648973E+03  0.58278477036E+03  0.17200000000E+03 0.  1.
</event>
<event>
 4    1  0.3094855E-002  0.1786881E+03  0.7818608E-02  0.1169079E+00
          2   -1    0    0  502    0  0.00000000000E+00  0.00000000000E+00  0.12308583281E+04  0.12308583281E+04  0.00000000000E+00 0. -1.
         -2   -1    0    0    0  501 -0.00000000000E+00 -0.00000000000E+00 -0.42049241935E+02  0.42049241935E+02  0.00000000000E+00 0.  1.
          6    1    1    2  502    0  0.44056931538E+02 -0.20110120026E+02  0.20047843023E+03  0.26855359080E+03  0.17200000000E+03 0.  1.
         -6    1    1    2    0  501 -0.44056931538E+02  0.20110120026E+02  0.98833065594E+03  0.10043539792E+04  0.17200000000E+03 0. -1.
</event>
<event>
 4    1  0.3094855E-002  0.1932454E+03  0.7818608E-02  0.1155566E+00
          1   -1    0    0  502    0  0.00000000000E+00  0.00000000000E+00  0.84387282380E+03  0.84387282380E+03  0.00000000000E+00 0. -1.
         -1   -1    0    0    0  501 -0.00000000000E+00 -0.00000000000E+00 -0.16093805060E+03  0.16093805060E+03  0.00000000000E+00 0.  1.
          6    1    1    2  502    0 -0.85607581712E+02  0.20763461865E+02  0.76925957203E+03  0.79316080876E+03  0.17200000000E+03 0. -1.
         -6    1    1    2    0  501  0.85607581712E+02 -0.20763461865E+02 -0.86324798826E+02  0.21165006564E+03  0.17200000000E+03 0.  1.
</event>
<event>
 4    1  0.3094855E-002  0.2007187E+03  0.7818608E-02  0.1149134E+00
         -2   -1    0    0    0  501 -0.00000000000E+00  0.00000000000E+00  0.32632646576E+03  0.32632646576E+03  0.00000000000E+00 0.  1.
          2   -1    0    0  502    0  0.00000000000E+00 -0.00000000000E+00 -0.12571789693E+03  0.12571789693E+03  0.00000000000E+00 0. -1.
          6    1    1    2  502    0 -0.50199821617E+02  0.90465247519E+02  0.13060045694E+03  0.23946703834E+03  0.17200000000E+03 0.  1.
         -6    1    1    2    0  501  0.50199821617E+02 -0.90465247519E+02  0.70008111894E+02  0.21257732436E+03  0.17200000000E+03 0.  1.
</event>
<event>
 4    1  0.3094855E-002  0.2130644E+03  0.7818608E-02  0.1139162E+00
         -1   -1    0    0    0  501 -0.00000000000E+00  0.00000000000E+00  0.40516923573E+02  0.40516923573E+02  0.00000000000E+00 0.  1.
          1   -1    0    0  502    0  0.00000000000E+00 -0.00000000000E+00 -0.11317087856E+04  0.11317087856E+04  0.00000000000E+00 0. -1.
          6    1    1    2  502    0 -0.60335390686E+02  0.11032706965E+03 -0.60410506830E+03  0.64057736084E+03  0.17200000000E+03 0. -1.
         -6    1    1    2    0  501  0.60335390686E+02 -0.11032706965E+03 -0.48708679372E+03  0.53164834834E+03  0.17200000000E+03 0.  1.
</event>
<event>
 4    1  0.3094855E-002  0.2582719E+03  0.7818608E-02  0.1108186E+00
          2   -1    0    0  502    0  0.00000000000E+00  0.00000000000E+00  0.93771450314E+03  0.93771450314E+03  0.00000000000E+00 0. -1.
         -2   -1    0    0    0  501 -0.00000000000E+00 -0.00000000000E+00 -0.73995839550E+02  0.73995839550E+02  0.00000000000E+00 0.  1.
          6    1    1    2  502    0 -0.16099029142E+03  0.10584193225E+03  0.33239580827E+03  0.42094104327E+03  0.17200000000E+03 0. -1.
         -6    1    1    2    0  501  0.16099029142E+03 -0.10584193225E+03  0.53132285531E+03  0.59076929941E+03  0.17200000000E+03 0. -1.
</event>
<event>
 4    1  0.3094855E-002  0.4224985E+03  0.7818608E-02  0.1036256E+00
         -1   -1    0    0    0  501 -0.00000000000E+00  0.00000000000E+00  0.10111624700E+03  0.10111624700E+03  0.00000000000E+00 0.  1.
          1   -1    0    0  502    0  0.00000000000E+00 -0.00000000000E+00 -0.29159746845E+04  0.29159746845E+04  0.00000000000E+00 0. -1.
          6    1    1    2  502    0  0.33012083577E+03 -0.19985304029E+03 -0.23550496653E+04  0.23926478910E+04  0.17200000000E+03 0. -1.
         -6    1    1    2    0  501 -0.33012083577E+03  0.19985304029E+03 -0.45980877216E+03  0.62444304054E+03  0.17200000000E+03 0.  1.
</event>
<event>
 4    1  0.3094855E-002  0.4526048E+03  0.7818608E-02  0.1026948E+00
          1   -1    0    0  502    0  0.00000000000E+00  0.00000000000E+00  0.83629421978E+03  0.83629421978E+03  0.00000000000E+00 0. -1.
         -1   -1    0    0    0  501 -0.00000000000E+00 -0.00000000000E+00 -0.68883526262E+03  0.68883526262E+03  0.00000000000E+00 0.  1.
          6    1    1    2  502    0  0.32840050659E+03 -0.25965400546E+03  0.68587392691E+03  0.82175065494E+03  0.17200000000E+03 0. -1.
         -6    1    1    2    0  501 -0.32840050659E+03  0.25965400546E+03 -0.53841496974E+03  0.70337882746E+03  0.17200000000E+03 0.  1.
</event>
<event>
 4    1  0.3094855E-002  0.3362599E+03  0.7818608E-02  0.1068400E+00
         -2   -1    0    0    0  501 -0.00000000000E+00  0.00000000000E+00  0.26077547347E+03  0.26077547347E+03  0.00000000000E+00 0.  1.
          2   -1    0    0  502    0  0.00000000000E+00 -0.00000000000E+00 -0.44440198274E+03  0.44440198274E+03  0.00000000000E+00 0. -1.
          6    1    1    2  502    0  0.31302876785E+02 -0.28724005188E+03 -0.14679897411E+03  0.36690687687E+03  0.17200000000E+03 0. -1.
         -6    1    1    2    0  501 -0.31302876785E+02  0.28724005188E+03 -0.36827535166E+02  0.33827057934E+03  0.17200000000E+03 0.  1.
</event>
<event>
 4    1  0.3094855E-002  0.4005673E+03  0.7818608E-02  0.1043583E+00
          2   -1    0    0  502    0  0.00000000000E+00  0.00000000000E+00  0.20709901741E+04  0.20709901741E+04  0.00000000000E+00 0. -1.
         -2   -1    0    0    0  501 -0.00000000000E+00 -0.00000000000E+00 -0.18222094563E+03  0.18222094563E+03  0.00000000000E+00 0.  1.
          6    1    1    2  502    0 -0.23352322294E+03  0.27629162338E+03  0.17985405351E+04  0.18426074496E+04  0.17200000000E+03 0. -1.
         -6    1    1    2    0  501  0.23352322294E+03 -0.27629162338E+03  0.90228693305E+02  0.41060367010E+03  0.17200000000E+03 0.  1.
</event>
<event>
 4    1  0.3094855E-002  0.2336821E+03  0.7818608E-02  0.1124075E+00
          2   -1    0    0  502    0  0.00000000000E+00  0.00000000000E+00  0.81272447852E+03  0.81272447852E+03  0.00000000000E+00 0. -1.
         -2   -1    0    0    0  501 -0.00000000000E+00 -0.00000000000E+00 -0.67311341020E+02  0.67311341020E+02  0.00000000000E+00 0.  1.
          6    1    1    2  502    0  0.10224348800E+03 -0.12070466173E+03  0.39135202158E+03  0.45581109135E+03  0.17200000000E+03 0.  1.
         -6    1    1    2    0  501 -0.10224348800E+03  0.12070466173E+03  0.35406111591E+03  0.42422472819E+03  0.17200000000E+03 0. -1.
</event>
<event>
 4    1  0.3094855E-002  0.4546625E+03  0.7818608E-02  0.1026341E+00
         -3   -1    0    0    0  501 -0.00000000000E+00  0.00000000000E+00  0.44167120346E+03  0.44167120346E+03  0.00000000000E+00 0.  1.
          3   -1    0    0  502    0  0.00000000000E+00 -0.00000000000E+00 -0.50845668860E+03  0.50845668860E+03  0.00000000000E+00 0. -1.
          6    1    1    2  502    0 -0.97489166112E+02  0.40942628819E+03 -0.16733787883E+03  0.48447909002E+03  0.17200000000E+03 0. -1.
         -6    1    1    2    0  501  0.97489166112E+02 -0.40942628819E+03  0.10055239369E+03  0.46564880205E+03  0.17200000000E+03 0. -1.
</event>
<event>
 4    1  0.3094855E-002  0.2593999E+03  0.7818608E-02  0.1107504E+00
         -2   -1    0    0    0  501 -0.00000000000E+00  0.00000000000E+00  0.66543049152E+03  0.66543049152E+03  0.00000000000E+00 0.  1.
          2   -1    0    0  502    0  0.00000000000E+00 -0.00000000000E+00 -0.45136744375E+03  0.45136744375E+03  0.00000000000E+00 0. -1.
          6    1    1    2  502    0 -0.15789721849E+03 -0.11301668643E+03 -0.38485735610E+03  0.46411581266E+03  0.17200000000E+03 0. -1.
         -6    1    1    2    0  501  0.15789721849E+03  0.11301668643E+03  0.59892040386E+03  0.65268212261E+03  0.17200000000E+03 0.  1.
</event>
<event>
 4    1  0.3094855E-002  0.3374503E+03  0.7818608E-02  0.1067887E+00
          2   -1    0    0  502    0  0.00000000000E+00  0.00000000000E+00  0.12965082978E+04  0.12965082978E+04  0.00000000000E+00 0. -1.
         -2   -1    0    0    0  501 -0.00000000000E+00 -0.00000000000E+00 -0.37385580820E+03  0.37385580820E+03  0.00000000000E+00 0.  1.
          6    1    1    2  502    0  0.11443112938E+03  0.26682246950E+03  0.11918451670E+04  0.12386959335E+04  0.17200000000E+03 0. -1.
         -6    1    1    2    0  501 -0.11443112938E+03 -0.26682246950E+03 -0.26919267738E+03  0.43166817251E+03  0.17200000000E+03 0.  1.
</event>
<event>
 4    1  0.3094855E-002  0.2052421E+03  0.7818608E-02  0.1145390E+00
          2   -1    0    0  502    0  0.00000000000E+00  0.00000000000E+00  0.89761673078E+03  0.89761673078E+03  0.00000000000E+00 0. -1.
         -2   -1    0    0    0  501 -0.00000000000E+00 -0.00000000000E+00 -0.85634727938E+02  0.85634727938E+02  0.00000000000E+00 0.  1.
          6    1    1    2  502    0  0.97870095311E+02 -0.54422146343E+02  0.73651030181E+03  0.76457292016E+03  0.17200000000E+03 0. -1.
         -6    1    1    2    0  501 -0.97870095311E+02  0.54422146343E+02  0.75471701030E+02  0.21867853856E+03  0.17200000000E+03 0.  1.
</event>
<event>
 4    1  0.3094855E-002  0.2074964E+03  0.7818608E-02  0.1143564E+00
         -2   -1    0    0    0  501 -0.00000000000E+00  0.00000000000E+00  0.55295728479E+02  0.55295728479E+02  0.00000000000E+00 0.  1.
          2   -1    0    0  502    0  0.00000000000E+00 -0.00000000000E+00 -0.93985260831E+03  0.93985260831E+03  0.00000000000E+00 0. -1.
          6    1    1    2  502    0 -0.21660196387E+01 -0.11604340023E+03 -0.64836259034E+03  0.68075605831E+03  0.17200000000E+03 0. -1.
         -6    1    1    2    0  501  0.21660196387E+01  0.11604340023E+03 -0.23619428949E+03  0.31439227848E+03  0.17200000000E+03 0. -1.
</event>
<event>
 4    1  0.3094855E-002  0.2087760E+03  0.7818608E-02  0.1142539E+00
         -1   -1    0    0    0  501 -0.00000000000E+00  0.00000000000E+00  0.22076104848E+03  0.22076104848E+03  0.00000000000E+00 0.  1.
          1   -1    0    0  502    0  0.00000000000E+00 -0.00000000000E+00 -0.19992652358E+03  0.19992652358E+03  0.00000000000E+00 0. -1.
          6    1    1    2  502    0  0.10390637049E+03  0.56629235342E+02 -0.13033402167E+02  0.20918239337E+03  0.17200000000E+03 0. -1.
         -6    1    1    2    0  501 -0.10390637049E+03 -0.56629235342E+02  0.33867927069E+02  0.21150517868E+03  0.17200000000E+03 0.  1.
</event>
<event>
 4    1  0.3094855E-002  0.2419073E+03  0.7818608E-02  0.1118529E+00
          1   -1    0    0  502    0  0.00000000000E+00  0.00000000000E+00  0.34755222992E+03  0.34755222992E+03  0.00000000000E+00 0. -1.
         -1   -1    0    0    0  501 -0.00000000000E+00 -0.00000000000E+00 -0.24398621343E+03  0.24398621343E+03  0.00000000000E+00 0.  1.
          6    1    1    2  502    0 -0.15324766344E+03 -0.73825961381E+02  0.21643361596E+03  0.32459610139E+03  0.17200000000E+03 0. -1.
         -6    1    1    2    0  501  0.15324766344E+03  0.73825961381E+02 -0.11286759946E+03  0.26694234196E+03  0.17200000000E+03 0.  1.
</event>
<event>
 4    1  0.3094855E-002  0.1777952E+03  0.7818608E-02  0.1169954E+00
          4   -1    0    0  502    0  0.00000000000E+00  0.00000000000E+00  0.18467297406E+03  0.18467297406E+03  0.00000000000E+00 0. -1.
         -4   -1    0    0    0  501 -0.00000000000E+00 -0.00000000000E+00 -0.31114250963E+03  0.31114250963E+03  0.00000000000E+00 0.  1.
          6    1    1    2  502    0 -0.12691162083E+02 -0.43198184240E+02  0.10303990897E+03  0.20549542953E+03  0.17200000000E+03 0. -1.
         -6    1    1    2    0  501  0.12691162083E+02  0.43198184240E+02 -0.22950944454E+03  0.29032005417E+03  0.17200000000E+03 0.  1.
</event>
<event>
 4    1  0.3094855E-002  0.3425795E+03  0.7818608E-02  0.1065703E+00
         -2   -1    0    0    0  501 -0.00000000000E+00  0.00000000000E+00  0.12091481151E+03  0.12091481151E+03  0.00000000000E+00 0.  1.
          2   -1    0    0  502    0  0.00000000000E+00 -0.00000000000E+00 -0.14923761538E+04  0.14923761538E+04  0.00000000000E+00 0. -1.
          6    1    1    2  502    0 -0.60156427473E+02  0.29009979596E+03 -0.11626918305E+04  0.12121109603E+04  0.17200000000E+03 0. -1.
         -6    1    1    2    0  501  0.60156427473E+02 -0.29009979596E+03 -0.20876951183E+03  0.40118000505E+03  0.17200000000E+03 0.  1.
</event>
<event>
 4    1  0.3094855E-002  0.2150982E+03  0.7818608E-02  0.1137591E+00
         -2   -1    0    0    0  501 -0.00000000000E+00  0.00000000000E+00  0.13226970788E+03  0.13226970788E+03  0.00000000000E+00 0.  1.
          2   -1    0    0  502    0  0.00000000000E+00 -0.00000000000E+00 -0.36658659075E+03  0.36658659075E+03  0.00000000000E+00 0. -1.
          6    1    1    2  502    0 -0.32378562977E+02  0.12503949489E+03 -0.17054188708E+03  0.27450279028E+03  0.17200000000E+03 0. -1.
         -6    1    1    2    0  501  0.32378562977E+02 -0.12503949489E+03 -0.63774995788E+02  0.22435350835E+03  0.17200000000E+03 0.  1.
</event>
<event>
 4    1  0.3094855E-002  0.2442237E+03  0.7818608E-02  0.1117011E+00
         -2   -1    0    0    0  501 -0.00000000000E+00  0.00000000000E+00  0.13075461561E+03  0.13075461561E+03  0.00000000000E+00 0.  1.
          2   -1    0    0  502    0  0.00000000000E+00 -0.00000000000E+00 -0.99682943618E+03  0.99682943618E+03  0.00000000000E+00 0. -1.
          6    1    1    2  502    0  0.35758869018E+02  0.16965407245E+03 -0.84825321171E+03  0.88271100151E+03  0.17200000000E+03 0. -1.
         -6    1    1    2    0  501 -0.35758869018E+02 -0.16965407245E+03 -0.17821608863E+02  0.24487305028E+03  0.17200000000E+03 0.  1.
</event>
<event>
 4    1  0.3094855E-002  0.2099566E+03  0.7818608E-02  0.1141600E+00
         -2   -1    0    0    0  501 -0.00000000000E+00  0.00000000000E+00  0.20547621065E+02  0.20547621065E+02  0.00000000000E+00 0.  1.
          2   -1    0    0  502    0  0.00000000000E+00 -0.00000000000E+00 -0.23396565873E+04  0.23396565873E+04  0.00000000000E+00 0. -1.
          6    1    1    2  502    0 -0.89576099781E+02  0.80460571722E+02 -0.81946717779E+03  0.84593630773E+03  0.17200000000E+03 0. -1.
         -6    1    1    2    0  501  0.89576099781E+02 -0.80460571722E+02 -0.14996417884E+04  0.15142679006E+04  0.17200000000E+03 0. -1.
</event>
<event>
 4    1  0.3094855E-002  0.2825124E+03  0.7818608E-02  0.1094325E+00
          1   -1    0    0  502    0  0.00000000000E+00  0.00000000000E+00  0.85664047523E+03  0.85664047523E+03  0.00000000000E+00 0. -1.
         -1   -1    0    0    0  501 -0.00000000000E+00 -0.00000000000E+00 -0.11701300071E+03  0.11701300071E+03  0.00000000000E+00 0.  1.
          6    1    1    2  502    0  0.17970435908E+03  0.13392380912E+03  0.58956798894E+03  0.65376116197E+03  0.17200000000E+03 0. -1.
         -6    1    1    2    0  501 -0.17970435908E+03 -0.13392380912E+03  0.15005948557E+03  0.31989231397E+03  0.17200000000E+03 0.  1.
</event>
<event>
 4    1  0.3094855E-002  0.1967702E+03  0.7818608E-02  0.1152493E+00
          2   -1    0    0  502    0  0.00000000000E+00  0.00000000000E+00  0.48775381235E+03  0.48775381235E+03  0.00000000000E+00 0. -1.
         -2   -1    0    0    0  501 -0.00000000000E+00 -0.00000000000E+00 -0.79749267537E+02  0.79749267537E+02  0.00000000000E+00 0.  1.
          6    1    1    2  502    0 -0.92695248960E+02  0.23282799281E+02  0.22327843132E+03  0.29761007344E+03  0.17200000000E+03 0. -1.
         -6    1    1    2    0  501  0.92695248960E+02 -0.23282799281E+02  0.18472611350E+03  0.26989300645E+03  0.17200000000E+03 0.  1.
</event>
<event>
 4    1  0.3094855E-002  0.1898039E+03  0.7818608E-02  0.1158638E+00
         -2   -1    0    0    0  501 -0.00000000000E+00  0.00000000000E+00  0.64364439304E+02  0.64364439304E+02  0.00000000000E+00 0.  1.
          2   -1    0    0  502    0  0.00000000000E+00 -0.00000000000E+00 -0.64063492327E+03  0.64063492327E+03  0.00000000000E+00 0. -1.
          6    1    1    2  502    0  0.27957379368E+02  0.75232222735E+02 -0.16285252879E+03  0.25009287981E+03  0.17200000000E+03 0.  1.
         -6    1    1    2    0  501 -0.27957379368E+02 -0.75232222735E+02 -0.41341795518E+03  0.45490648277E+03  0.17200000000E+03 0. -1.
</event>
<event>
 4    1  0.3094855E-002  0.2505755E+03  0.7818608E-02  0.1112942E+00
          2   -1    0    0  502    0  0.00000000000E+00  0.00000000000E+00  0.70988182027E+03  0.70988182027E+03  0.00000000000E+00 0. -1.
         -2   -1    0    0    0  501 -0.00000000000E+00 -0.00000000000E+00 -0.88590097286E+02  0.88590097286E+02  0.00000000000E+00 0.  1.
          6    1    1    2  502    0  0.14780792226E+03 -0.10656869831E+03  0.29469162046E+03  0.38682194937E+03  0.17200000000E+03 0. -1.
         -6    1    1    2    0  501 -0.14780792226E+03  0.10656869831E+03  0.32660010252E+03  0.41164996819E+03  0.17200000000E+03 0. -1.
</event>
<event>
 4    1  0.3094855E-002  0.3633902E+03  0.7818608E-02  0.1057249E+00
          2   -1    0    0  502    0  0.00000000000E+00  0.00000000000E+00  0.23926468133E+04  0.23926468133E+04  0.00000000000E+00 0. -1.
         -2   -1    0    0    0  501 -0.00000000000E+00 -0.00000000000E+00 -0.86653945288E+02  0.86653945288E+02  0.00000000000E+00 0.  1.
          6    1    1    2  502    0 -0.83945994283E+02  0.30890374886E+03  0.18999697097E+04  0.19344087867E+04  0.17200000000E+03 0. -1.
         -6    1    1    2    0  501  0.83945994283E+02 -0.30890374886E+03  0.40602315830E+03  0.54489197194E+03  0.17200000000E+03 0.  1.
</event>
<event>
 4    1  0.3094855E-002  0.4184508E+03  0.7818608E-02  0.1037572E+00
          1   -1    0    0  502    0  0.00000000000E+00  0.00000000000E+00  0.19246995826E+03  0.19246995826E+03  0.00000000000E+00 0. -1.
         -1   -1    0    0    0  501 -0.00000000000E+00 -0.00000000000E+00 -0.90977098522E+03  0.90977098522E+03  0.00000000000E+00 0.  1.
          6    1    1    2  502    0 -0.34973750510E+03 -0.15231795114E+03 -0.35656690801E+03  0.54976453196E+03  0.17200000000E+03 0. -1.
         -6    1    1    2    0  501  0.34973750510E+03  0.15231795114E+03 -0.36073411895E+03  0.55247641152E+03  0.17200000000E+03 0. -1.
</event>
<event>
 4    1  0.3094855E-002  0.2268998E+03  0.7818608E-02  0.1128841E+00
         -2   -1    0    0    0  501 -0.00000000000E+00  0.00000000000E+00  0.61562955353E+02  0.61562955353E+02  0.00000000000E+00 0.  1.
          2   -1    0    0  502    0  0.00000000000E+00 -0.00000000000E+00 -0.83991575137E+03  0.83991575137E+03  0.00000000000E+00 0. -1.
          6    1    1    2  502    0  0.27914678363E+02 -0.14532821141E+03 -0.35949775815E+03  0.42511428630E+03  0.17200000000E+03 0.  1.
         -6    1    1    2    0  501 -0.27914678363E+02  0.14532821141E+03 -0.41885503787E+03  0.47636442042E+03  0.17200000000E+03 0. -1.
</event>
<event>
 4    1  0.3094855E-002  0.1921919E+03  0.7818608E-02  0.1156499E+00
         -2   -1    0    0    0  501 -0.00000000000E+00  0.00000000000E+00  0.73732205556E+03  0.73732205556E+03  0.00000000000E+00 0.  1.
          2   -1    0    0  502    0  0.00000000000E+00 -0.00000000000E+00 -0.50293011535E+02  0.50293011535E+02  0.00000000000E+00 0. -1.
          6    1    1    2  502    0 -0.85007216053E+01 -0.85331387733E+02  0.31893670596E+03  0.37236854111E+03  0.17200000000E+03 0.  1.
         -6    1    1    2    0  501  0.85007216053E+01  0.85331387733E+02  0.36809233806E+03  0.41524652598E+03  0.17200000000E+03 0. -1.
</event>
<event>
 4    1  0.3094855E-002  0.2325891E+03  0.7818608E-02  0.1124831E+00
         -1   -1    0    0    0  501 -0.00000000000E+00  0.00000000000E+00  0.86100437890E+02  0.86100437890E+02  0.00000000000E+00 0.  1.
          1   -1    0    0  502    0  0.00000000000E+00 -0.00000000000E+00 -0.75967104387E+03  0.75967104387E+03  0.00000000000E+00 0. -1.
          6    1    1    2  502    0  0.16300478809E+02 -0.15571758536E+03 -0.51263651173E+03  0.56293326883E+03  0.17200000000E+03 0. -1.
         -6    1    1    2    0  501 -0.16300478809E+02  0.15571758536E+03 -0.16093409425E+03  0.28283821293E+03  0.17200000000E+03 0. -1.
</event>
<event>
 4    1  0.3094855E-002  0.2084218E+03  0.7818608E-02  0.1142822E+00
         -2   -1    0    0    0  501 -0.00000000000E+00  0.00000000000E+00  0.14005540362E+02  0.14005540362E+02  0.00000000000E+00 0.  1.
          2   -1    0    0  502    0  0.00000000000E+00 -0.00000000000E+00 -0.31127320598E+04  0.31127320598E+04  0.00000000000E+00 0. -1.
          6    1    1    2  502    0  0.54930749202E+02 -0.10410689686E+03 -0.16428413452E+04  0.16560094561E+04  0.17200000000E+03 0.  1.
         -6    1    1    2    0  501 -0.54930749202E+02  0.10410689686E+03 -0.14558851743E+04  0.14707281441E+04  0.17200000000E+03 0. -1.
</event>
<event>
 4    1  0.3094855E-002  0.1919972E+03  0.7818608E-02  0.1156672E+00
         -2   -1    0    0    0  501 -0.00000000000E+00  0.00000000000E+00  0.42931166255E+02  0.42931166255E+02  0.00000000000E+00 0.  1.
          2   -1    0    0  502    0  0.00000000000E+00 -0.00000000000E+00 -0.10355247991E+04  0.10355247991E+04  0.00000000000E+00 0. -1.
          6    1    1    2  502    0  0.83528737805E+02 -0.17374049648E+02 -0.71915233027E+03  0.74434063558E+03  0.17200000000E+03 0. -1.
         -6    1    1    2    0  501 -0.83528737805E+02  0.17374049648E+02 -0.27344130259E+03  0.33411532980E+03  0.17200000000E+03 0.  1.
</event>
<event>
 4    1  0.3094855E-002  0.2052924E+03  0.7818608E-02  0.1145349E+00
         -1   -1    0    0    0  501 -0.00000000000E+00  0.00000000000E+00  0.10052669440E+03  0.10052669440E+03  0.00000000000E+00 0.  1.
          1   -1    0    0  502    0  0.00000000000E+00 -0.00000000000E+00 -0.46239514569E+03  0.46239514569E+03  0.00000000000E+00 0. -1.
          6    1    1    2  502    0 -0.33839393796E+02 -0.10684505295E+03 -0.26691865772E+03  0.33673511808E+03  0.17200000000E+03 0. -1.
         -6    1    1    2    0  501  0.33839393796E+02  0.10684505295E+03 -0.94949793570E+02  0.22618672201E+03  0.17200000000E+03 0. -1.
</event>
<event>
 4    1  0.3094855E-002  0.2703349E+03  0.7818608E-02  0.1101088E+00
         -1   -1    0    0    0  501 -0.00000000000E+00  0.00000000000E+00  0.33718473857E+03  0.33718473857E+03  0.00000000000E+00 0.  1.
          1   -1    0    0  502    0  0.00000000000E+00 -0.00000000000E+00 -0.54055294924E+03  0.54055294924E+03  0.00000000000E+00 0. -1.
          6    1    1    2  502    0 -0.19675385928E+03  0.69172976036E+02 -0.44135912414E+03  0.51757014812E+03  0.17200000000E+03 0. -1.
         -6    1    1    2    0  501  0.19675385928E+03 -0.69172976036E+02  0.23799091347E+03  0.36016753970E+03  0.17200000000E+03 0.  1.
</event>
<event>
 4    1  0.3094855E-002  0.2543453E+03  0.7818608E-02  0.1110589E+00
         -2   -1    0    0    0  501 -0.00000000000E+00  0.00000000000E+00  0.17866764113E+03  0.17866764113E+03  0.00000000000E+00 0.  1.
          2   -1    0    0  502    0  0.00000000000E+00 -0.00000000000E+00 -0.92365805013E+03  0.92365805013E+03  0.00000000000E+00 0. -1.
          6    1    1    2  502    0 -0.94312581379E+02  0.16190330508E+03  0.57269089637E+02  0.26071304500E+03  0.17200000000E+03 0. -1.
         -6    1    1    2    0  501  0.94312581379E+02 -0.16190330508E+03 -0.80225949864E+03  0.84161264627E+03  0.17200000000E+03 0. -1.
</event>
<event>
 4    1  0.3094855E-002  0.2255439E+03  0.7818608E-02  0.1129816E+00
         -3   -1    0    0    0  501 -0.00000000000E+00  0.00000000000E+00  0.40673703358E+03  0.40673703358E+03  0.00000000000E+00 0.  1.
          3   -1    0    0  502    0  0.00000000000E+00 -0.00000000000E+00 -0.20115179496E+03  0.20115179496E+03  0.00000000000E+00 0. -1.
          6    1    1    2  502    0  0.10274687755E+03 -0.10358153266E+03 -0.84136266364E+02  0.24072591483E+03  0.17200000000E+03 0.  1.
         -6    1    1    2    0  501 -0.10274687755E+03  0.10358153266E+03  0.28972150498E+03  0.36716291371E+03  0.17200000000E+03 0.  1.
</event>
<event>
 4    1  0.3094855E-002  0.1987815E+03  0.7818608E-02  0.1150771E+00
         -2   -1    0    0    0  501 -0.00000000000E+00  0.00000000000E+00  0.11337990208E+03  0.11337990208E+03  0.00000000000E+00 0.  1.
          2   -1    0    0  502    0  0.00000000000E+00 -0.00000000000E+00 -0.35060863528E+03  0.35060863528E+03  0.00000000000E+00 0. -1.
          6    1    1    2  502    0  0.60055596470E+02  0.79519975329E+02 -0.10066830294E+03  0.22281877919E+03  0.17200000000E+03 0. -1.
         -6    1    1    2    0  501 -0.60055596470E+02 -0.79519975329E+02 -0.13656043026E+03  0.24116975817E+03  0.17200000000E+03 0. -1.
</event>
<event>
 4    1  0.3094855E-002  0.2291427E+03  0.7818608E-02  0.1127245E+00
         -2   -1    0    0    0  501 -0.00000000000E+00  0.00000000000E+00  0.35134961656E+03  0.35134961656E+03  0.00000000000E+00 0.  1.
          2   -1    0    0  502    0  0.00000000000E+00 -0.00000000000E+00 -0.18298760098E+03  0.18298760098E+03  0.00000000000E+00 0. -1.
          6    1    1    2  502    0 -0.14899334006E+03  0.26894968150E+02 -0.30210299966E+02  0.23112554363E+03  0.17200000000E+03 0. -1.
         -6    1    1    2    0  501  0.14899334006E+03 -0.26894968150E+02  0.19857231555E+03  0.30321167391E+03  0.17200000000E+03 0.  1.
</event>
<event>
 4    1  0.3094855E-002  0.2721371E+03  0.7818608E-02  0.1100063E+00
          2   -1    0    0  502    0  0.00000000000E+00  0.00000000000E+00  0.35196963390E+03  0.35196963390E+03  0.00000000000E+00 0. -1.
         -2   -1    0    0    0  501 -0.00000000000E+00 -0.00000000000E+00 -0.31026373738E+03  0.31026373738E+03  0.00000000000E+00 0.  1.
          6    1    1    2  502    0  0.92705370830E+02 -0.18942103491E+03  0.20869529063E+03  0.34294655353E+03  0.17200000000E+03 0. -1.
         -6    1    1    2    0  501 -0.92705370830E+02  0.18942103491E+03 -0.16698939411E+03  0.31928681775E+03  0.17200000000E+03 0.  1.
</event>
<event>
 4    1  0.3094855E-002  0.1878403E+03  0.7818608E-02  0.1160424E+00
         -2   -1    0    0    0  501 -0.00000000000E+00  0.00000000000E+00  0.53382502303E+02  0.53382502303E+02  0.00000000000E+00 0.  1.
          2   -1    0    0  502    0  0.00000000000E+00 -0.00000000000E+00 -0.84577545144E+03  0.84577545144E+03  0.00000000000E+00 0. -1.
          6    1    1    2  502    0  0.47598875996E+02  0.58603079434E+02 -0.18604059806E+03  0.26437677289E+03  0.17200000000E+03 0.  1.
         -6    1    1    2    0  501 -0.47598875996E+02 -0.58603079434E+02 -0.60635235107E+03  0.63478118085E+03  0.17200000000E+03 0. -1.
</event>
<event>
 4    1  0.3094855E-002  0.2366048E+03  0.7818608E-02  0.1122075E+00
          1   -1    0    0  502    0  0.00000000000E+00  0.00000000000E+00  0.60853682798E+02  0.60853682798E+02  0.00000000000E+00 0. -1.
         -1   -1    0    0    0  501 -0.00000000000E+00 -0.00000000000E+00 -0.98167877701E+03  0.98167877701E+03  0.00000000000E+00 0.  1.
          6    1    1    2  502    0  0.80476520787E+02 -0.14114303658E+03 -0.59113454772E+03  0.63672747756E+03  0.17200000000E+03 0. -1.
         -6    1    1    2    0  501 -0.80476520787E+02  0.14114303658E+03 -0.32969054650E+03  0.40580498225E+03  0.17200000000E+03 0.  1.
</event>
<event>
 4    1  0.3094855E-002  0.2266596E+03  0.7818608E-02  0.1129013E+00
          2   -1    0    0  502    0  0.00000000000E+00  0.00000000000E+00  0.87790764674E+03  0.87790764674E+03  0.00000000000E+00 0. -1.
         -2   -1    0    0    0  501 -0.00000000000E+00 -0.00000000000E+00 -0.16233162555E+03  0.16233162555E+03  0.00000000000E+00 0.  1.
          6    1    1    2  502    0 -0.14573905288E+03 -0.23467418172E+02 -0.58147520571E+02  0.23399941325E+03  0.17200000000E+03 0.  1.
         -6    1    1    2    0  501  0.14573905288E+03  0.23467418172E+02  0.77372354176E+03  0.80623985905E+03  0.17200000000E+03 0. -1.
</event>
<event>
 4    1  0.3094855E-002  0.2712683E+03  0.7818608E-02  0.1100556E+00
         -2   -1    0    0    0  501 -0.00000000000E+00  0.00000000000E+00  0.40685633030E+02  0.40685633030E+02  0.00000000000E+00 0.  1.
          2   -1    0    0  502    0  0.00000000000E+00 -0.00000000000E+00 -0.31532228445E+04  0.31532228445E+04  0.00000000000E+00 0. -1.
          6    1    1    2  502    0  0.20516157244E+03 -0.43717394911E+02 -0.25990797767E+04  0.26131976900E+04  0.17200000000E+03 0. -1.
         -6    1    1    2    0  501 -0.20516157244E+03  0.43717394911E+02 -0.51345743479E+03  0.58071078754E+03  0.17200000000E+03 0.  1.
</event>
<event>
 4    1  0.3094855E-002  0.2634236E+03  0.7818608E-02  0.1105104E+00
         -1   -1    0    0    0  501 -0.00000000000E+00  0.00000000000E+00  0.48456960016E+02  0.48456960016E+02  0.00000000000E+00 0.  1.
          1   -1    0    0  502    0  0.00000000000E+00 -0.00000000000E+00 -0.15854971308E+04  0.15854971308E+04  0.00000000000E+00 0. -1.
          6    1    1    2  502    0  0.18973013434E+03 -0.61729079255E+02 -0.10226931220E+04  0.10560744410E+04  0.17200000000E+03 0. -1.
         -6    1    1    2    0  501 -0.18973013434E+03  0.61729079255E+02 -0.51434704876E+03  0.57787964982E+03  0.17200000000E+03 0. -1.
</event>
<event>
 4    1  0.3094855E-002  0.1860911E+03  0.7818608E-02  0.1162035E+00
         -2   -1    0    0    0  501 -0.00000000000E+00  0.00000000000E+00  0.32337981199E+02  0.32337981199E+02  0.00000000000E+00 0.  1.
          2   -1    0    0  502    0  0.00000000000E+00 -0.00000000000E+00 -0.11390259512E+04  0.11390259512E+04  0.00000000000E+00 0. -1.
          6    1    1    2  502    0  0.40747444127E+02  0.58185378531E+02 -0.69660738492E+03  0.72103518721E+03  0.17200000000E+03 0.  1.
         -6    1    1    2    0  501 -0.40747444127E+02 -0.58185378531E+02 -0.41008058508E+03  0.45032874518E+03  0.17200000000E+03 0.  1.
</event>
<event>
 4    1  0.3094855E-002  0.3402899E+03  0.7818608E-02  0.1066673E+00
         -2   -1    0    0    0  501 -0.00000000000E+00  0.00000000000E+00  0.13053137685E+03  0.13053137685E+03  0.00000000000E+00 0.  1.
          2   -1    0    0  502    0  0.00000000000E+00 -0.00000000000E+00 -0.90107300492E+03  0.90107300492E+03  0.00000000000E+00 0. -1.
          6    1    1    2  502    0  0.21604479759E+03 -0.19884122685E+03 -0.32108869502E+03  0.46786230681E+03  0.17200000000E+03 0. -1.
         -6    1    1    2    0  501 -0.21604479759E+03  0.19884122685E+03 -0.44945293304E+03  0.56374207496E+03  0.17200000000E+03 0.  1.
</event>
<event>
 4    1  0.3094855E-002  0.1886817E+03  0.7818608E-02  0.1159656E+00
          2   -1    0    0  502    0  0.00000000000E+00  0.00000000000E+00  0.10402756522E+03  0.10402756522E+03  0.00000000000E+00 0. -1.
         -2   -1    0    0    0  501 -0.00000000000E+00 -0.00000000000E+00 -0.39263870356E+03  0.39263870356E+03  0.00000000000E+00 0.  1.
          6    1    1    2  502    0  0.69410259969E+02 -0.34626310565E+02 -0.23329024674E+03  0.30004183841E+03  0.17200000000E+03 0.  1.
         -6    1    1    2    0  501 -0.69410259969E+02  0.34626310565E+02 -0.55320891596E+02  0.19662443037E+03  0.17200000000E+03 0. -1.
</event>
<event>
 4    1  0.3094855E-002  0.3739575E+03  0.7818608E-02  0.1053190E+00
         -2   -1    0    0    0  501 -0.00000000000E+00  0.00000000000E+00  0.31344877245E+03  0.31344877245E+03  0.00000000000E+00 0.  1.
          2   -1    0    0  502    0  0.00000000000E+00 -0.00000000000E+00 -0.56767710388E+03  0.56767710388E+03  0.00000000000E+00 0. -1.
          6    1    1    2  502    0  0.13743309497E+02 -0.33176998402E+03 -0.33095883958E+03  0.49937756692E+03  0.17200000000E+03 0. -1.
         -6    1    1    2    0  501 -0.13743309497E+02  0.33176998402E+03  0.76730508142E+02  0.38174830940E+03  0.17200000000E+03 0.  1.
</event>
<event>
 4    1  0.3094855E-002  0.2259314E+03  0.7818608E-02  0.1129537E+00
          1   -1    0    0  502    0  0.00000000000E+00  0.00000000000E+00  0.18284403570E+03  0.18284403570E+03  0.00000000000E+00 0. -1.
         -1   -1    0    0    0  501 -0.00000000000E+00 -0.00000000000E+00 -0.31965124954E+03  0.31965124954E+03  0.00000000000E+00 0.  1.
          6    1    1    2  502    0 -0.16569736352E+02  0.14555561455E+03  0.21004792076E+02  0.22690569491E+03  0.17200000000E+03 0. -1.
         -6    1    1    2    0  501  0.16569736352E+02 -0.14555561455E+03 -0.15781200592E+03  0.27558959034E+03  0.17200000000E+03 0.  1.
</event>
<event>
 4    1  0.3094855E-002  0.2772067E+03  0.7818608E-02  0.1097224E+00
         -1   -1    0    0    0  501 -0.00000000000E+00  0.00000000000E+00  0.47799404314E+03  0.47799404314E+03  0.00000000000E+00 0.  1.
          1   -1    0    0  502    0  0.00000000000E+00 -0.00000000000E+00 -0.69460994760E+03  0.69460994760E+03  0.00000000000E+00 0. -1.
          6    1    1    2  502    0 -0.14251357599E+03  0.16416275706E+03 -0.62230360677E+03  0.68125274983E+03  0.17200000000E+03 0. -1.
         -6    1    1    2    0  501  0.14251357599E+03 -0.16416275706E+03  0.40568770231E+03  0.49135124092E+03  0.17200000000E+03 0.  1.
</event>
<event>
 4    1  0.3094855E-002  0.1867637E+03  0.7818608E-02  0.1161413E+00
          2   -1    0    0  502    0  0.00000000000E+00  0.00000000000E+00  0.39775180899E+02  0.39775180899E+02  0.00000000000E+00 0. -1.
         -2   -1    0    0    0  501 -0.00000000000E+00 -0.00000000000E+00 -0.14133908958E+04  0.14133908958E+04  0.00000000000E+00 0.  1.
          6    1    1    2  502    0  0.96987097375E+01 -0.72129033899E+02 -0.23918020629E+03  0.30345977259E+03  0.17200000000E+03 0. -1.
         -6    1    1    2    0  501 -0.96987097375E+01  0.72129033899E+02 -0.11344355086E+04  0.11497063041E+04  0.17200000000E+03 0.  1.
</event>
<event>
 4    1  0.3094855E-002  0.1759115E+03  0.7818608E-02  0.1171820E+00
         -3   -1    0    0    0  501 -0.00000000000E+00  0.00000000000E+00  0.56668647934E+03  0.56668647934E+03  0.00000000000E+00 0.  1.
          3   -1    0    0  502    0  0.00000000000E+00 -0.00000000000E+00 -0.72626857989E+02  0.72626857989E+02  0.00000000000E+00 0. -1.
          6    1    1    2  502    0  0.34965063307E+02  0.11760014637E+02  0.87803449825E+02  0.19660696681E+03  0.17200000000E+03 0. -1.
         -6    1    1    2    0  501 -0.34965063307E+02 -0.11760014637E+02  0.40625617153E+03  0.44270637052E+03  0.17200000000E+03 0.  1.
</event>
<event>
 4    1  0.3094855E-002  0.1830366E+03  0.7818608E-02  0.1164896E+00
         -3   -1    0    0    0  501 -0.00000000000E+00  0.00000000000E+00  0.17003534755E+03  0.17003534755E+03  0.00000000000E+00 0.  1.
          3   -1    0    0  502    0  0.00000000000E+00 -0.00000000000E+00 -0.51052855960E+03  0.51052855960E+03  0.00000000000E+00 0. -1.
          6    1    1    2  502    0 -0.40981757415E+02  0.47316868546E+02 -0.43689891180E+03  0.47369087982E+03  0.17200000000E+03 0. -1.
         -6    1    1    2    0  501  0.40981757415E+02 -0.47316868546E+02  0.96405699750E+02  0.20687302732E+03  0.17200000000E+03 0.  1.
</event>
<event>
 4    1  0.3094855E-002  0.3483638E+03  0.7818608E-02  0.1063289E+00
         -2   -1    0    0    0  501 -0.00000000000E+00  0.00000000000E+00  0.12663756596E+03  0.12663756596E+03  0.00000000000E+00 0.  1.
          2   -1    0    0  502    0  0.00000000000E+00 -0.00000000000E+00 -0.11086160771E+04  0.11086160771E+04  0.00000000000E+00 0. -1.
          6    1    1    2  502    0  0.20372046524E+03 -0.22421267345E+03 -0.71841088108E+03  0.79841815169E+03  0.17200000000E+03 0. -1.
         -6    1    1    2    0  501 -0.20372046524E+03  0.22421267345E+03 -0.26356763002E+03  0.43683549133E+03  0.17200000000E+03 0.  1.
</event>
<event>
 4    1  0.3094855E-002  0.7335057E+03  0.7818608E-02  0.9661589E-01
         -2   -1    0    0    0  501 -0.00000000000E+00  0.00000000000E+00  0.93842974764E+03  0.93842974764E+03  0.00000000000E+00 0.  1.
          2   -1    0    0  502    0  0.00000000000E+00 -0.00000000000E+00 -0.60482422320E+03  0.60482422320E+03  0.00000000000E+00 0. -1.
          6    1    1    2  502    0  0.65769785257E+03  0.27546363359E+03 -0.92742857427E+01  0.73356437419E+03  0.17200000000E+03 0. -1.
         -6    1    1    2    0  501 -0.65769785257E+03 -0.27546363359E+03  0.34287981018E+03  0.80968959665E+03  0.17200000000E+03 0.  1.
</event>
<event>
 4    1  0.3094855E-002  0.4469221E+03  0.7818608E-02  0.1028644E+00
          1   -1    0    0  502    0  0.00000000000E+00  0.00000000000E+00  0.65248542041E+03  0.65248542041E+03  0.00000000000E+00 0. -1.
         -1   -1    0    0    0  501 -0.00000000000E+00 -0.00000000000E+00 -0.39912483684E+03  0.39912483684E+03  0.00000000000E+00 0.  1.
          6    1    1    2  502    0 -0.76894057774E+02  0.40526861270E+03  0.38049769224E+03  0.58695641947E+03  0.17200000000E+03 0. -1.
         -6    1    1    2    0  501  0.76894057774E+02 -0.40526861270E+03 -0.12713710866E+03  0.46465383777E+03  0.17200000000E+03 0. -1.
</event>
<event>
 4    1  0.3094855E-002  0.1772466E+03  0.7818608E-02  0.1170495E+00
         -2   -1    0    0    0  501 -0.00000000000E+00  0.00000000000E+00  0.11797436218E+02  0.11797436218E+02  0.00000000000E+00 0.  1.
          2   -1    0    0  502    0  0.00000000000E+00 -0.00000000000E+00 -0.31407739418E+04  0.31407739418E+04  0.00000000000E+00 0. -1.
          6    1    1    2  502    0  0.39306908201E+02 -0.16951025186E+02 -0.21792907440E+04  0.21864867978E+04  0.17200000000E+03 0.  1.
         -6    1    1    2    0  501 -0.39306908201E+02  0.16951025186E+02 -0.94968576157E+03  0.96608458016E+03  0.17200000000E+03 0.  1.
</event>
<event>
 4    1  0.3094855E-002  0.2923961E+03  0.7818608E-02  0.1089105E+00
         -1   -1    0    0    0  501 -0.00000000000E+00  0.00000000000E+00  0.29569394967E+03  0.29569394967E+03  0.00000000000E+00 0.  1.
          1   -1    0    0  502    0  0.00000000000E+00 -0.00000000000E+00 -0.44461527998E+03  0.44461527998E+03  0.00000000000E+00 0. -1.
          6    1    1    2  502    0 -0.42588495060E+02 -0.23258913954E+03 -0.29335199015E+03  0.41418700833E+03  0.17200000000E+03 0. -1.
         -6    1    1    2    0  501  0.42588495060E+02  0.23258913954E+03  0.14443065984E+03  0.32612222133E+03  0.17200000000E+03 0.  1.
</event>
<event>
 4    1  0.3094855E-002  0.4922995E+03  0.7818608E-02  0.1015809E+00
          1   -1    0    0  502    0  0.00000000000E+00  0.00000000000E+00  0.19863995189E+04  0.19863995189E+04  0.00000000000E+00 0. -1.
         -1   -1    0    0    0  501 -0.00000000000E+00 -0.00000000000E+00 -0.12357019704E+03  0.12357019704E+03  0.00000000000E+00 0.  1.
          6    1    1    2  502    0  0.93652478006E+02  0.45166803174E+03  0.81283622758E+03  0.95029549635E+03  0.17200000000E+03 0. -1.
         -6    1    1    2    0  501 -0.93652478006E+02 -0.45166803174E+03  0.10499930943E+04  0.11596742196E+04  0.17200000000E+03 0.  1.
</event>
<event>
 4    1  0.3094855E-002  0.1872525E+03  0.7818608E-02  0.1160963E+00
          4   -1    0    0  502    0  0.00000000000E+00  0.00000000000E+00  0.87232997282E+03  0.87232997282E+03  0.00000000000E+00 0. -1.
         -4   -1    0    0    0  501 -0.00000000000E+00 -0.00000000000E+00 -0.40228668933E+02  0.40228668933E+02  0.00000000000E+00 0.  1.
          6    1    1    2  502    0  0.73420911094E+02  0.94276466177E+01  0.42920406434E+03  0.46827303953E+03  0.17200000000E+03 0.  1.
         -6    1    1    2    0  501 -0.73420911094E+02 -0.94276466177E+01  0.40289723955E+03  0.44428560222E+03  0.17200000000E+03 0.  1.
</event>
<event>
 4    1  0.3094855E-002  0.3921025E+03  0.7818608E-02  0.1046549E+00
         -1   -1    0    0    0  501 -0.00000000000E+00  0.00000000000E+00  0.32824068230E+03  0.32824068230E+03  0.00000000000E+00 0.  1.
          1   -1    0    0  502    0  0.00000000000E+00 -0.00000000000E+00 -0.91641058104E+03  0.91641058104E+03  0.00000000000E+00 0. -1.
          6    1    1    2  502    0  0.35185719826E+03 -0.18892176015E+02 -0.72921792243E+03  0.82795119462E+03  0.17200000000E+03 0. -1.
         -6    1    1    2    0  501 -0.35185719826E+03  0.18892176015E+02  0.14104802369E+03  0.41670006872E+03  0.17200000000E+03 0.  1.
</event>
<event>
 4    1  0.3094855E-002  0.1743477E+03  0.7818608E-02  0.1173388E+00
          2   -1    0    0  502    0  0.00000000000E+00  0.00000000000E+00  0.15252373763E+03  0.15252373763E+03  0.00000000000E+00 0. -1.
         -2   -1    0    0    0  501 -0.00000000000E+00 -0.00000000000E+00 -0.20688098631E+03  0.20688098631E+03  0.00000000000E+00 0.  1.
          6    1    1    2  502    0 -0.23782408939E+02  0.15732715510E+02 -0.61591243113E+02  0.18490701052E+03  0.17200000000E+03 0.  1.
         -6    1    1    2    0  501  0.23782408939E+02 -0.15732715510E+02  0.72339944391E+01  0.17449771342E+03  0.17200000000E+03 0. -1.
</event>
<event>
 4    1  0.3094855E-002  0.1989387E+03  0.7818608E-02  0.1150638E+00
          1   -1    0    0  502    0  0.00000000000E+00  0.00000000000E+00  0.58411158137E+03  0.58411158137E+03  0.00000000000E+00 0. -1.
         -1   -1    0    0    0  501 -0.00000000000E+00 -0.00000000000E+00 -0.67806996972E+02  0.67806996972E+02  0.00000000000E+00 0.  1.
          6    1    1    2  502    0  0.87477841304E+02 -0.48375773229E+02  0.24914193724E+03  0.31882329439E+03  0.17200000000E+03 0.  1.
         -6    1    1    2    0  501 -0.87477841304E+02  0.48375773229E+02  0.26716264716E+03  0.33309528395E+03  0.17200000000E+03 0.  1.
</event>
<event>
 4    1  0.3094855E-002  0.2173048E+03  0.7818608E-02  0.1135909E+00
         -3   -1    0    0    0  501 -0.00000000000E+00  0.00000000000E+00  0.29290631581E+03  0.29290631581E+03  0.00000000000E+00 0.  1.
          3   -1    0    0  502    0  0.00000000000E+00 -0.00000000000E+00 -0.16122964209E+03  0.16122964209E+03  0.00000000000E+00 0. -1.
          6    1    1    2  502    0 -0.11421609546E+03 -0.67764679403E+02  0.63798204237E+02  0.22647644271E+03  0.17200000000E+03 0. -1.
         -6    1    1    2    0  501  0.11421609546E+03  0.67764679403E+02  0.67878469485E+02  0.22765951519E+03  0.17200000000E+03 0. -1.
</event>
<event>
 4    1  0.3094855E-002  0.3010874E+03  0.7818608E-02  0.1084698E+00
         -2   -1    0    0    0  501 -0.00000000000E+00  0.00000000000E+00  0.34677711848E+03  0.34677711848E+03  0.00000000000E+00 0.  1.
          2   -1    0    0  502    0  0.00000000000E+00 -0.00000000000E+00 -0.34199653905E+03  0.34199653905E+03  0.00000000000E+00 0. -1.
          6    1    1    2  502    0 -0.24459169473E+03 -0.35277416623E+02 -0.16477527870E+03  0.34322658074E+03  0.17200000000E+03 0. -1.
         -6    1    1    2    0  501  0.24459169473E+03  0.35277416623E+02  0.16955585813E+03  0.34554707679E+03  0.17200000000E+03 0.  1.
</event>
<event>
 4    1  0.3094855E-002  0.2995742E+03  0.7818608E-02  0.1085454E+00
         -1   -1    0    0    0  501 -0.00000000000E+00  0.00000000000E+00  0.27467784277E+03  0.27467784277E+03  0.00000000000E+00 0.  1.
          1   -1    0    0  502    0  0.00000000000E+00 -0.00000000000E+00 -0.34756560811E+03  0.34756560811E+03  0.00000000000E+00 0. -1.
          6    1    1    2  502    0 -0.10270169393E+03  0.22273986662E+03 -0.11262469324E+03  0.32004532124E+03  0.17200000000E+03 0. -1.
         -6    1    1    2    0  501  0.10270169393E+03 -0.22273986662E+03  0.39736927898E+02  0.30219812964E+03  0.17200000000E+03 0. -1.
</event>
<event>
 4    1  0.3094855E-002  0.2400027E+03  0.7818608E-02  0.1119791E+00
          1   -1    0    0  502    0  0.00000000000E+00  0.00000000000E+00  0.49105673800E+03  0.49105673800E+03  0.00000000000E+00 0. -1.
         -1   -1    0    0    0  501 -0.00000000000E+00 -0.00000000000E+00 -0.13434177029E+03  0.13434177029E+03  0.00000000000E+00 0.  1.
          6    1    1    2  502    0 -0.16183418749E+03 -0.42743090534E+02  0.28972802880E+03  0.37622281523E+03  0.17200000000E+03 0. -1.
         -6    1    1    2    0  501  0.16183418749E+03  0.42743090534E+02  0.66986938909E+02  0.24917569306E+03  0.17200000000E+03 0.  1.
</event>
<event>
 4    1  0.3094855E-002  0.1985298E+03  0.7818608E-02  0.1150985E+00
         -2   -1    0    0    0  501 -0.00000000000E+00  0.00000000000E+00  0.51415777193E+02  0.51415777193E+02  0.00000000000E+00 0.  1.
          2   -1    0    0  502    0  0.00000000000E+00 -0.00000000000E+00 -0.77537000709E+03  0.77537000709E+03  0.00000000000E+00 0. -1.
          6    1    1    2  502    0 -0.88950792500E+02 -0.43793141951E+02 -0.40600325189E+03  0.45194327444E+03  0.17200000000E+03 0. -1.
         -6    1    1    2    0  501  0.88950792500E+02  0.43793141951E+02 -0.31795097801E+03  0.37484250984E+03  0.17200000000E+03 0.  1.
</event>
<event>
 4    1  0.3094855E-002  0.3292409E+03  0.7818608E-02  0.1071473E+00
          1   -1    0    0  502    0  0.00000000000E+00  0.00000000000E+00  0.36928644198E+03  0.36928644198E+03  0.00000000000E+00 0. -1.
         -1   -1    0    0    0  501 -0.00000000000E+00 -0.00000000000E+00 -0.29354955304E+03  0.29354955304E+03  0.00000000000E+00 0.  1.
          6    1    1    2  502    0  0.24307072474E+03  0.14047128286E+03  0.35778351634E+02  0.33117917957E+03  0.17200000000E+03 0. -1.
         -6    1    1    2    0  501 -0.24307072474E+03 -0.14047128286E+03  0.39958537307E+02  0.33165681546E+03  0.17200000000E+03 0. -1.
</event>
<event>
 4    1  0.3094855E-002  0.2269632E+03  0.7818608E-02  0.1128796E+00
          1   -1    0    0  502    0  0.00000000000E+00  0.00000000000E+00  0.81947443779E+03  0.81947443779E+03  0.00000000000E+00 0. -1.
         -1   -1    0    0    0  501 -0.00000000000E+00 -0.00000000000E+00 -0.64873974008E+02  0.64873974008E+02  0.00000000000E+00 0.  1.
          6    1    1    2  502    0  0.14781765465E+03  0.88453801915E+01  0.45520555053E+03  0.50864957781E+03  0.17200000000E+03 0. -1.
         -6    1    1    2    0  501 -0.14781765465E+03 -0.88453801915E+01  0.29939491325E+03  0.37569883398E+03  0.17200000000E+03 0.  1.
</event>
<event>
 4    1  0.3094855E-002  0.2138984E+03  0.7818608E-02  0.1138516E+00
         -1   -1    0    0    0  501 -0.00000000000E+00  0.00000000000E+00  0.17272326366E+03  0.17272326366E+03  0.00000000000E+00 0.  1.
          1   -1    0    0  502    0  0.00000000000E+00 -0.00000000000E+00 -0.36207309269E+03  0.36207309269E+03  0.00000000000E+00 0. -1.
          6    1    1    2  502    0  0.93343060522E+02  0.86345872475E+02  0.43859393768E+02  0.21834876474E+03  0.17200000000E+03 0. -1.
         -6    1    1    2    0  501 -0.93343060522E+02 -0.86345872475E+02 -0.23320922280E+03  0.31644759162E+03  0.17200000000E+03 0.  1.
</event>
<event>
 4    1  0.3094855E-002  0.2078064E+03  0.7818608E-02  0.1143315E+00
          2   -1    0    0  502    0  0.00000000000E+00  0.00000000000E+00  0.10624398417E+04  0.10624398417E+04  0.00000000000E+00 0. -1.
         -2   -1    0    0    0  501 -0.00000000000E+00 -0.00000000000E+00 -0.59825825428E+02  0.59825825428E+02  0.00000000000E+00 0.  1.
          6    1    1    2  502    0 -0.23903233544E+02  0.11414090071E+03  0.18358439016E+03  0.27728457963E+03  0.17200000000E+03 0.  1.
         -6    1    1    2    0  501  0.23903233544E+02 -0.11414090071E+03  0.81902962606E+03  0.84498108746E+03  0.17200000000E+03 0. -1.
</event>
<event>
 4    1  0.3094855E-002  0.2386853E+03  0.7818608E-02  0.1120672E+00
          1   -1    0    0  502    0  0.00000000000E+00  0.00000000000E+00  0.81868071246E+03  0.81868071246E+03  0.00000000000E+00 0. -1.
         -1   -1    0    0    0  501 -0.00000000000E+00 -0.00000000000E+00 -0.69816018445E+02  0.69816018445E+02  0.00000000000E+00 0.  1.
          6    1    1    2  502    0 -0.16133835589E+03  0.36832468979E+02  0.34906736325E+03  0.42286962523E+03  0.17200000000E+03 0. -1.
         -6    1    1    2    0  501  0.16133835589E+03 -0.36832468979E+02  0.39979733076E+03  0.46562710567E+03  0.17200000000E+03 0.  1.
</event>
<event>
 4    1  0.3094855E-002  0.1823382E+03  0.7818608E-02  0.1165559E+00
         -1   -1    0    0    0  501 -0.00000000000E+00  0.00000000000E+00  0.53299546934E+03  0.53299546934E+03  0.00000000000E+00 0.  1.
          1   -1    0    0  502    0  0.00000000000E+00 -0.00000000000E+00 -0.64954590961E+02  0.64954590961E+02  0.00000000000E+00 0. -1.
          6    1    1    2  502    0  0.58329320235E+02  0.16152357853E+02  0.29356609230E+03  0.34558393888E+03  0.17200000000E+03 0.  1.
         -6    1    1    2    0  501 -0.58329320235E+02 -0.16152357853E+02  0.17447478607E+03  0.25236612142E+03  0.17200000000E+03 0. -1.
</event>
<event>
 4    1  0.3094855E-002  0.2168528E+03  0.7818608E-02  0.1136251E+00
          1   -1    0    0  502    0  0.00000000000E+00  0.00000000000E+00  0.57585375564E+03  0.57585375564E+03  0.00000000000E+00 0. -1.
         -1   -1    0    0    0  501 -0.00000000000E+00 -0.00000000000E+00 -0.10172198103E+03  0.10172198103E+03  0.00000000000E+00 0.  1.
          6    1    1    2  502    0 -0.13111067582E+03 -0.15846567447E+02  0.38751524431E+03  0.44406439576E+03  0.17200000000E+03 0. -1.
         -6    1    1    2    0  501  0.13111067582E+03  0.15846567447E+02  0.86616530303E+02  0.23351134091E+03  0.17200000000E+03 0.  1.
</event>
<event>
 4    1  0.3094855E-002  0.1747530E+03  0.7818608E-02  0.1172980E+00
          4   -1    0    0  502    0  0.00000000000E+00  0.00000000000E+00  0.48204691479E+03  0.48204691479E+03  0.00000000000E+00 0. -1.
         -4   -1    0    0    0  501 -0.00000000000E+00 -0.00000000000E+00 -0.66419723419E+02  0.66419723419E+02  0.00000000000E+00 0.  1.
          6    1    1    2  502    0  0.11374368902E+02 -0.28726960139E+02  0.14887728218E+03  0.22957146961E+03  0.17200000000E+03 0.  1.
         -6    1    1    2    0  501 -0.11374368902E+02  0.28726960139E+02  0.26674990918E+03  0.31889516860E+03  0.17200000000E+03 0.  1.
</event>
<event>
 4    1  0.3094855E-002  0.3453949E+03  0.7818608E-02  0.1064521E+00
         -1   -1    0    0    0  501 -0.00000000000E+00  0.00000000000E+00  0.41775594233E+03  0.41775594233E+03  0.00000000000E+00 0.  1.
          1   -1    0    0  502    0  0.00000000000E+00 -0.00000000000E+00 -0.47718495499E+03  0.47718495499E+03  0.00000000000E+00 0. -1.
          6    1    1    2  502    0  0.46231322078E+02  0.29593288019E+03 -0.31327014792E+03  0.46630010754E+03  0.17200000000E+03 0. -1.
         -6    1    1    2    0  501 -0.46231322078E+02 -0.29593288019E+03  0.25384113526E+03  0.42864078978E+03  0.17200000000E+03 0.  1.
</event>
<event>
 4    1  0.3094855E-002  0.2346926E+03  0.7818608E-02  0.1123380E+00
          3   -1    0    0  502    0  0.00000000000E+00  0.00000000000E+00  0.27463732895E+03  0.27463732895E+03  0.00000000000E+00 0. -1.
         -3   -1    0    0    0  501 -0.00000000000E+00 -0.00000000000E+00 -0.21592170093E+03  0.21592170093E+03  0.00000000000E+00 0.  1.
          6    1    1    2  502    0 -0.48787167793E+02  0.15204089297E+03 -0.36070513245E+02  0.23744831606E+03  0.17200000000E+03 0.  1.
         -6    1    1    2    0  501  0.48787167793E+02 -0.15204089297E+03  0.94786141262E+02  0.25311071382E+03  0.17200000000E+03 0.  1.
</event>
<event>
 4    1  0.3094855E-002  0.2142631E+03  0.7818608E-02  0.1138234E+00
         -1   -1    0    0    0  501 -0.00000000000E+00  0.00000000000E+00  0.92935580466E+02  0.92935580466E+02  0.00000000000E+00 0.  1.
          1   -1    0    0  502    0  0.00000000000E+00 -0.00000000000E+00 -0.92413451190E+03  0.92413451190E+03  0.00000000000E+00 0. -1.
          6    1    1    2  502    0 -0.76304075779E+01 -0.12753993204E+03 -0.76254690901E+03  0.79207729788E+03  0.17200000000E+03 0. -1.
         -6    1    1    2    0  501  0.76304075779E+01  0.12753993204E+03 -0.68652022426E+02  0.22499279448E+03  0.17200000000E+03 0.  1.
</event>
<event>
 4    1  0.3094855E-002  0.1768151E+03  0.7818608E-02  0.1170921E+00
          1   -1    0    0  502    0  0.00000000000E+00  0.00000000000E+00  0.25602664679E+03  0.25602664679E+03  0.00000000000E+00 0. -1.
         -1   -1    0    0    0  501 -0.00000000000E+00 -0.00000000000E+00 -0.12516032891E+03  0.12516032891E+03  0.00000000000E+00 0.  1.
          6    1    1    2  502    0 -0.40527655787E+02 -0.60905594367E+01  0.95184067074E+02  0.20080735152E+03  0.17200000000E+03 0. -1.
         -6    1    1    2    0  501  0.40527655787E+02  0.60905594367E+01  0.35682250807E+02  0.18037962418E+03  0.17200000000E+03 0.  1.
</event>
<event>
 4    1  0.3094855E-002  0.1872574E+03  0.7818608E-02  0.1160959E+00
         -1   -1    0    0    0  501 -0.00000000000E+00  0.00000000000E+00  0.15383351099E+03  0.15383351099E+03  0.00000000000E+00 0.  1.
          1   -1    0    0  502    0  0.00000000000E+00 -0.00000000000E+00 -0.54010719152E+03  0.54010719152E+03  0.00000000000E+00 0. -1.
          6    1    1    2  502    0 -0.44834132970E+02  0.58917114761E+02 -0.45691794562E+03  0.49380090616E+03  0.17200000000E+03 0. -1.
         -6    1    1    2    0  501  0.44834132970E+02 -0.58917114761E+02  0.70644265096E+02  0.20013979635E+03  0.17200000000E+03 0.  1.
</event>
<event>
 4    1  0.3094855E-002  0.4550088E+03  0.7818608E-02  0.1026239E+00
         -1   -1    0    0    0  501 -0.00000000000E+00  0.00000000000E+00  0.45741334347E+03  0.45741334347E+03  0.00000000000E+00 0.  1.
          1   -1    0    0  502    0  0.00000000000E+00 -0.00000000000E+00 -0.50169814878E+03  0.50169814878E+03  0.00000000000E+00 0. -1.
          6    1    1    2  502    0 -0.28982652810E+03  0.30569532130E+03 -0.17213689090E+03  0.48648140259E+03  0.17200000000E+03 0. -1.
         -6    1    1    2    0  501  0.28982652810E+03 -0.30569532130E+03  0.12785208559E+03  0.47263008966E+03  0.17200000000E+03 0.  1.
</event>
<event>
 4    1  0.3094855E-002  0.3271699E+03  0.7818608E-02  0.1072396E+00
          1   -1    0    0  502    0  0.00000000000E+00  0.00000000000E+00  0.68542409490E+02  0.68542409490E+02  0.00000000000E+00 0. -1.
         -1   -1    0    0    0  501 -0.00000000000E+00 -0.00000000000E+00 -0.18388818871E+04  0.18388818871E+04  0.00000000000E+00 0.  1.
          6    1    1    2  502    0 -0.21180152003E+03  0.18054437673E+03 -0.51487147223E+03  0.61002687545E+03  0.17200000000E+03 0.  1.
         -6    1    1    2    0  501  0.21180152003E+03 -0.18054437673E+03 -0.12554680054E+04  0.12973974212E+04  0.17200000000E+03 0.  1.
</event>
<event>
 4    1  0.3094855E-002  0.1814456E+03  0.7818608E-02  0.1166411E+00
         -3   -1    0    0    0  501 -0.00000000000E+00  0.00000000000E+00  0.38894734881E+03  0.38894734881E+03  0.00000000000E+00 0.  1.
          3   -1    0    0  502    0  0.00000000000E+00 -0.00000000000E+00 -0.93085427496E+02  0.93085427496E+02  0.00000000000E+00 0. -1.
          6    1    1    2  502    0 -0.38414755064E+02  0.43160295751E+02  0.75356431029E+02  0.19647161686E+03  0.17200000000E+03 0. -1.
         -6    1    1    2    0  501  0.38414755064E+02 -0.43160295751E+02  0.22050549029E+03  0.28556115944E+03  0.17200000000E+03 0.  1.
</event>
<event>
 4    1  0.3094855E-002  0.3387687E+03  0.7818608E-02  0.1067322E+00
          2   -1    0    0  502    0  0.00000000000E+00  0.00000000000E+00  0.24424411876E+03  0.24424411876E+03  0.00000000000E+00 0. -1.
         -2   -1    0    0    0  501 -0.00000000000E+00 -0.00000000000E+00 -0.51074481813E+03  0.51074481813E+03  0.00000000000E+00 0.  1.
          6    1    1    2  502    0  0.20471366508E+03  0.20802055937E+03 -0.26465595235E+02  0.33980092043E+03  0.17200000000E+03 0. -1.
         -6    1    1    2    0  501 -0.20471366508E+03 -0.20802055937E+03 -0.24003510414E+03  0.41518801646E+03  0.17200000000E+03 0.  1.
</event>
<event>
 4    1  0.3094855E-002  0.2701855E+03  0.7818608E-02  0.1101174E+00
          2   -1    0    0  502    0  0.00000000000E+00  0.00000000000E+00  0.17527941158E+04  0.17527941158E+04  0.00000000000E+00 0. -1.
         -2   -1    0    0    0  501 -0.00000000000E+00 -0.00000000000E+00 -0.48669435371E+02  0.48669435371E+02  0.00000000000E+00 0.  1.
          6    1    1    2  502    0  0.20675569080E+03  0.25851052218E+02  0.11941862291E+04  0.12243696102E+04  0.17200000000E+03 0.  1.
         -6    1    1    2    0  501 -0.20675569080E+03 -0.25851052218E+02  0.50993845135E+03  0.57709394100E+03  0.17200000000E+03 0.  1.
</event>
<event>
 4    1  0.3094855E-002  0.1740067E+03  0.7818608E-02  0.1173733E+00
          2   -1    0    0  502    0  0.00000000000E+00  0.00000000000E+00  0.10894306062E+04  0.10894306062E+04  0.00000000000E+00 0. -1.
         -2   -1    0    0    0  501 -0.00000000000E+00 -0.00000000000E+00 -0.28046186249E+02  0.28046186249E+02  0.00000000000E+00 0.  1.
          6    1    1    2  502    0 -0.25389057864E+02 -0.70523114945E+01  0.47758501389E+03  0.50829694554E+03  0.17200000000E+03 0. -1.
         -6    1    1    2    0  501  0.25389057864E+02  0.70523114945E+01  0.58379940602E+03  0.60917984686E+03  0.17200000000E+03 0. -1.
</event>
<event>
 4    1  0.3094855E-002  0.4263784E+03  0.7818608E-02  0.1035010E+00
         -1   -1    0    0    0  501 -0.00000000000E+00  0.00000000000E+00  0.68333884823E+03  0.68333884823E+03  0.00000000000E+00 0.  1.
          1   -1    0    0  502    0  0.00000000000E+00 -0.00000000000E+00 -0.33261291339E+03  0.33261291339E+03  0.00000000000E+00 0. -1.
          6    1    1    2  502    0  0.10342970314E+03  0.37618718092E+03 -0.51889103790E+02  0.42952412933E+03  0.17200000000E+03 0. -1.
         -6    1    1    2    0  501 -0.10342970314E+03 -0.37618718092E+03  0.40261503863E+03  0.58642763229E+03  0.17200000000E+03 0.  1.
</event>
<event>
 4    1  0.3094855E-002  0.1792188E+03  0.7818608E-02  0.1168561E+00
          1   -1    0    0  502    0  0.00000000000E+00  0.00000000000E+00  0.55200960391E+03  0.55200960391E+03  0.00000000000E+00 0. -1.
         -1   -1    0    0    0  501 -0.00000000000E+00 -0.00000000000E+00 -0.24245502066E+03  0.24245502066E+03  0.00000000000E+00 0.  1.
          6    1    1    2  502    0  0.48385464393E+02  0.13936525501E+02  0.50107915070E+03  0.53216510142E+03  0.17200000000E+03 0. -1.
         -6    1    1    2    0  501 -0.48385464393E+02 -0.13936525501E+02 -0.19152456745E+03  0.26229952315E+03  0.17200000000E+03 0.  1.
</event>
<event>
 4    1  0.3094855E-002  0.1731207E+03  0.7818608E-02  0.1174632E+00
         -1   -1    0    0    0  501 -0.00000000000E+00  0.00000000000E+00  0.27927041152E+02  0.27927041152E+02  0.00000000000E+00 0.  1.
          1   -1    0    0  502    0  0.00000000000E+00 -0.00000000000E+00 -0.11905748173E+04  0.11905748173E+04  0.00000000000E+00 0. -1.
          6    1    1    2  502    0  0.71398811211E+01  0.18325168765E+02 -0.77263454265E+03  0.79179222414E+03  0.17200000000E+03 0. -1.
         -6    1    1    2    0  501 -0.71398811211E+01 -0.18325168765E+02 -0.39001323351E+03  0.42670963433E+03  0.17200000000E+03 0.  1.
</event>
<event>
 4    1  0.3094855E-002  0.2048327E+03  0.7818608E-02  0.1145724E+00
          1   -1    0    0  502    0  0.00000000000E+00  0.00000000000E+00  0.96228969506E+02  0.96228969506E+02  0.00000000000E+00 0. -1.
         -1   -1    0    0    0  501 -0.00000000000E+00 -0.00000000000E+00 -0.79369545415E+03  0.79369545415E+03  0.00000000000E+00 0.  1.
          6    1    1    2  502    0  0.73553606333E+02  0.83440520977E+02 -0.50023790404E+02  0.21085263373E+03  0.17200000000E+03 0. -1.
         -6    1    1    2    0  501 -0.73553606333E+02 -0.83440520977E+02 -0.64744269424E+03  0.67907178993E+03  0.17200000000E+03 0.  1.
</event>
<event>
 4    1  0.3094855E-002  0.3597792E+03  0.7818608E-02  0.1058671E+00
          1   -1    0    0  502    0  0.00000000000E+00  0.00000000000E+00  0.23543483668E+03  0.23543483668E+03  0.00000000000E+00 0. -1.
         -1   -1    0    0    0  501 -0.00000000000E+00 -0.00000000000E+00 -0.70086481857E+03  0.70086481857E+03  0.00000000000E+00 0.  1.
          6    1    1    2  502    0  0.19052943490E+03  0.25210237154E+03 -0.15367054379E+02  0.36010723078E+03  0.17200000000E+03 0. -1.
         -6    1    1    2    0  501 -0.19052943490E+03 -0.25210237154E+03 -0.45006292751E+03  0.57619242447E+03  0.17200000000E+03 0.  1.
</event>
<event>
 4    1  0.3094855E-002  0.1944797E+03  0.7818608E-02  0.1154482E+00
          2   -1    0    0  502    0  0.00000000000E+00  0.00000000000E+00  0.72619029648E+03  0.72619029648E+03  0.00000000000E+00 0. -1.
         -2   -1    0    0    0  501 -0.00000000000E+00 -0.00000000000E+00 -0.52447962180E+02  0.52447962180E+02  0.00000000000E+00 0.  1.
          6    1    1    2  502    0  0.75563526576E+02 -0.50284441654E+02  0.30440735905E+03  0.36122875282E+03  0.17200000000E+03 0. -1.
         -6    1    1    2    0  501 -0.75563526576E+02  0.50284441654E+02  0.36933497525E+03  0.41740950584E+03  0.17200000000E+03 0.  1.
</event>
<event>
 4    1  0.3094855E-002  0.3718194E+03  0.7818608E-02  0.1053999E+00
         -2   -1    0    0    0  501 -0.00000000000E+00  0.00000000000E+00  0.62509107488E+02  0.62509107488E+02  0.00000000000E+00 0.  1.
          2   -1    0    0  502    0  0.00000000000E+00 -0.00000000000E+00 -0.22417253857E+04  0.22417253857E+04  0.00000000000E+00 0. -1.
          6    1    1    2  502    0 -0.26430343053E+03  0.19700093665E+03 -0.12230059637E+04  0.12782774580E+04  0.17200000000E+03 0. -1.
         -6    1    1    2    0  501  0.26430343053E+03 -0.19700093665E+03 -0.95621031452E+03  0.10259570352E+04  0.17200000000E+03 0.  1.
</event>
<event>
 4    1  0.3094855E-002  0.2486228E+03  0.7818608E-02  0.1114178E+00
         -1   -1    0    0    0  501 -0.00000000000E+00  0.00000000000E+00  0.51752911168E+03  0.51752911168E+03  0.00000000000E+00 0.  1.
          1   -1    0    0  502    0  0.00000000000E+00 -0.00000000000E+00 -0.12566452706E+04  0.12566452706E+04  0.00000000000E+00 0. -1.
          6    1    1    2  502    0  0.59617288058E+02  0.16933722985E+03 -0.12134358020E+04  0.12386443251E+04  0.17200000000E+03 0. -1.
         -6    1    1    2    0  501 -0.59617288058E+02 -0.16933722985E+03  0.47431964304E+03  0.53553005726E+03  0.17200000000E+03 0.  1.
</event>
<event>
 4    1  0.3094855E-002  0.1751479E+03  0.7818608E-02  0.1172583E+00
          3   -1    0    0  502    0  0.00000000000E+00  0.00000000000E+00  0.22840945754E+03  0.22840945754E+03  0.00000000000E+00 0. -1.
         -3   -1    0    0    0  501 -0.00000000000E+00 -0.00000000000E+00 -0.13458601855E+03  0.13458601855E+03  0.00000000000E+00 0.  1.
          6    1    1    2  502    0 -0.16322163656E+02  0.28746775900E+02  0.38634884366E+02  0.17935842451E+03  0.17200000000E+03 0.  1.
         -6    1    1    2    0  501  0.16322163656E+02 -0.28746775900E+02  0.55188554622E+02  0.18363705158E+03  0.17200000000E+03 0. -1.
</event>
<event>
 4    1  0.3094855E-002  0.4066516E+03  0.7818608E-02  0.1041500E+00
         -2   -1    0    0    0  501 -0.00000000000E+00  0.00000000000E+00  0.51844318107E+03  0.51844318107E+03  0.00000000000E+00 0.  1.
          2   -1    0    0  502    0  0.00000000000E+00 -0.00000000000E+00 -0.41650986024E+03  0.41650986024E+03  0.00000000000E+00 0. -1.
          6    1    1    2  502    0  0.35798794939E+03 -0.87327919715E+02 -0.17526221227E+03  0.44281190196E+03  0.17200000000E+03 0. -1.
         -6    1    1    2    0  501 -0.35798794939E+03  0.87327919715E+02  0.27719553309E+03  0.49214113935E+03  0.17200000000E+03 0.  1.
</event>
<event>
 4    1  0.3094855E-002  0.2524636E+03  0.7818608E-02  0.1111758E+00
          2   -1    0    0  502    0  0.00000000000E+00  0.00000000000E+00  0.93402678369E+03  0.93402678369E+03  0.00000000000E+00 0. -1.
         -2   -1    0    0    0  501 -0.00000000000E+00 -0.00000000000E+00 -0.93240778172E+02  0.93240778172E+02  0.00000000000E+00 0.  1.
          6    1    1    2  502    0  0.52112474106E+02  0.17730802891E+03  0.68636058503E+03  0.73131983410E+03  0.17200000000E+03 0. -1.
         -6    1    1    2    0  501 -0.52112474106E+02 -0.17730802891E+03  0.15442542049E+03  0.29594772776E+03  0.17200000000E+03 0.  1.
</event>
<event>
 4    1  0.3094855E-002  0.3317840E+03  0.7818608E-02  0.1070350E+00
          1   -1    0    0  502    0  0.00000000000E+00  0.00000000000E+00  0.64763637640E+03  0.64763637640E+03  0.00000000000E+00 0. -1.
         -1   -1    0    0    0  501 -0.00000000000E+00 -0.00000000000E+00 -0.17071623869E+03  0.17071623869E+03  0.00000000000E+00 0.  1.
          6    1    1    2  502    0 -0.26255858269E+03 -0.10751549973E+03  0.21145875291E+03  0.39344046082E+03  0.17200000000E+03 0. -1.
         -6    1    1    2    0  501  0.26255858269E+03  0.10751549973E+03  0.26546138479E+03  0.42491215427E+03  0.17200000000E+03 0. -1.
</event>
<event>
 4    1  0.3094855E-002  0.2527349E+03  0.7818608E-02  0.1111589E+00
         -1   -1    0    0    0  501 -0.00000000000E+00  0.00000000000E+00  0.65457950817E+02  0.65457950817E+02  0.00000000000E+00 0.  1.
          1   -1    0    0  502    0  0.00000000000E+00 -0.00000000000E+00 -0.98854146688E+03  0.98854146688E+03  0.00000000000E+00 0. -1.
          6    1    1    2  502    0  0.18060864132E+03 -0.40883407406E+02 -0.40174950114E+03  0.47463417069E+03  0.17200000000E+03 0. -1.
         -6    1    1    2    0  501 -0.18060864132E+03  0.40883407406E+02 -0.52133401492E+03  0.57936524701E+03  0.17200000000E+03 0.  1.
</event>
<event>
 4    1  0.3094855E-002  0.4897682E+03  0.7818608E-02  0.1016485E+00
         -2   -1    0    0    0  501 -0.00000000000E+00  0.00000000000E+00  0.13165724209E+04  0.13165724209E+04  0.00000000000E+00 0.  1.
          2   -1    0    0  502    0  0.00000000000E+00 -0.00000000000E+00 -0.19565544791E+03  0.19565544791E+03  0.00000000000E+00 0. -1.
          6    1    1    2  502    0  0.31741128538E+03 -0.33096664230E+03  0.36213603570E+03  0.60911029441E+03  0.17200000000E+03 0. -1.
         -6    1    1    2    0  501 -0.31741128538E+03  0.33096664230E+03  0.75878093731E+03  0.90311757443E+03  0.17200000000E+03 0.  1.
</event>
<event>
 4    1  0.3094855E-002  0.2616815E+03  0.7818608E-02  0.1106137E+00
          3   -1    0    0  502    0  0.00000000000E+00  0.00000000000E+00  0.10828310989E+04  0.10828310989E+04  0.00000000000E+00 0. -1.
         -3   -1    0    0    0  501 -0.00000000000E+00 -0.00000000000E+00 -0.66222326546E+02  0.66222326546E+02  0.00000000000E+00 0.  1.
          6    1    1    2  502    0 -0.66472394499E+02  0.18567341429E+03  0.63024705810E+03  0.68241376763E+03  0.17200000000E+03 0. -1.
         -6    1    1    2    0  501  0.66472394499E+02 -0.18567341429E+03  0.38636171424E+03  0.46663965780E+03  0.17200000000E+03 0.  1.
</event>
<event>
 4    1  0.3094855E-002  0.1880468E+03  0.7818608E-02  0.1160235E+00
          2   -1    0    0  502    0  0.00000000000E+00  0.00000000000E+00  0.46938786808E+03  0.46938786808E+03  0.00000000000E+00 0. -1.
         -2   -1    0    0    0  501 -0.00000000000E+00 -0.00000000000E+00 -0.76100450891E+02  0.76100450891E+02  0.00000000000E+00 0.  1.
          6    1    1    2  502    0  0.38260879098E+02  0.65678754628E+02  0.22398784056E+03  0.29245879436E+03  0.17200000000E+03 0. -1.
         -6    1    1    2    0  501 -0.38260879098E+02 -0.65678754628E+02  0.16929957663E+03  0.25302952461E+03  0.17200000000E+03 0.  1.
</event>
<event>
 4    1  0.3094855E-002  0.1900542E+03  0.7818608E-02  0.1158412E+00
         -2   -1    0    0    0  501 -0.00000000000E+00  0.00000000000E+00  0.46179270025E+03  0.46179270025E+03  0.00000000000E+00 0.  1.
          2   -1    0    0  502    0  0.00000000000E+00 -0.00000000000E+00 -0.90858321904E+02  0.90858321904E+02  0.00000000000E+00 0. -1.
          6    1    1    2  502    0  0.77292148110E+02  0.23717381027E+02  0.82401434807E+02  0.20714870692E+03  0.17200000000E+03 0. -1.
         -6    1    1    2    0  501 -0.77292148110E+02 -0.23717381027E+02  0.28853294354E+03  0.34550231523E+03  0.17200000000E+03 0.  1.
</event>
<event>
 4    1  0.3094855E-002  0.2160349E+03  0.7818608E-02  0.1136874E+00
          2   -1    0    0  502    0  0.00000000000E+00  0.00000000000E+00  0.24958948650E+04  0.24958948650E+04  0.00000000000E+00 0. -1.
         -2   -1    0    0    0  501 -0.00000000000E+00 -0.00000000000E+00 -0.20565073270E+02  0.20565073270E+02  0.00000000000E+00 0.  1.
          6    1    1    2  502    0  0.57337531126E+02  0.11747124484E+03  0.16166682265E+04  0.16310386998E+04  0.17200000000E+03 0. -1.
         -6    1    1    2    0  501 -0.57337531126E+02 -0.11747124484E+03  0.85866156527E+03  0.88542123846E+03  0.17200000000E+03 0.  1.
</event>
<event>
 4    1  0.3094855E-002  0.2068667E+03  0.7818608E-02  0.1144072E+00
          2   -1    0    0  502    0  0.00000000000E+00  0.00000000000E+00  0.22885717315E+04  0.22885717315E+04  0.00000000000E+00 0. -1.
         -2   -1    0    0    0  501 -0.00000000000E+00 -0.00000000000E+00 -0.29973608861E+02  0.29973608861E+02  0.00000000000E+00 0.  1.
          6    1    1    2  502    0 -0.15974758870E+02 -0.11381846185E+03  0.18402968213E+04  0.18518872065E+04  0.17200000000E+03 0. -1.
         -6    1    1    2    0  501  0.15974758870E+02  0.11381846185E+03  0.41830130133E+03  0.46665813383E+03  0.17200000000E+03 0.  1.
</event>
<event>
 4    1  0.3094855E-002  0.3297343E+03  0.7818608E-02  0.1071254E+00
          1   -1    0    0  502    0  0.00000000000E+00  0.00000000000E+00  0.70045529330E+03  0.70045529330E+03  0.00000000000E+00 0. -1.
         -1   -1    0    0    0  501 -0.00000000000E+00 -0.00000000000E+00 -0.15681889414E+03  0.15681889414E+03  0.00000000000E+00 0.  1.
          6    1    1    2  502    0  0.93899214106E+02  0.26518606190E+03  0.22853764563E+03  0.40119093373E+03  0.17200000000E+03 0. -1.
         -6    1    1    2    0  501 -0.93899214106E+02 -0.26518606190E+03  0.31509875354E+03  0.45608325371E+03  0.17200000000E+03 0. -1.
</event>
<event>
 4    1  0.3094855E-002  0.3155429E+03  0.7818608E-02  0.1077719E+00
         -2   -1    0    0    0  501 -0.00000000000E+00  0.00000000000E+00  0.84949500968E+02  0.84949500968E+02  0.00000000000E+00 0.  1.
          2   -1    0    0  502    0  0.00000000000E+00 -0.00000000000E+00 -0.20308230847E+04  0.20308230847E+04  0.00000000000E+00 0. -1.
          6    1    1    2  502    0  0.16385203305E+03 -0.20769169101E+03 -0.16608527996E+04  0.16905618442E+04  0.17200000000E+03 0. -1.
         -6    1    1    2    0  501 -0.16385203305E+03  0.20769169101E+03 -0.28502078416E+03  0.42521074146E+03  0.17200000000E+03 0.  1.
</event>
<event>
 4    1  0.3094855E-002  0.2252466E+03  0.7818608E-02  0.1130031E+00
          2   -1    0    0  502    0  0.00000000000E+00  0.00000000000E+00  0.16168169470E+03  0.16168169470E+03  0.00000000000E+00 0. -1.
         -2   -1    0    0    0  501 -0.00000000000E+00 -0.00000000000E+00 -0.31395327462E+03  0.31395327462E+03  0.00000000000E+00 0.  1.
          6    1    1    2  502    0 -0.14540637038E+03 -0.30055806045E+01 -0.70916240525E+02  0.23614647834E+03  0.17200000000E+03 0.  1.
         -6    1    1    2    0  501  0.14540637038E+03  0.30055806045E+01 -0.81355339402E+02  0.23948849098E+03  0.17200000000E+03 0.  1.
</event>
<event>
 4    1  0.3094855E-002  0.7433311E+03  0.7818608E-02  0.9645871E-01
          1   -1    0    0  502    0  0.00000000000E+00  0.00000000000E+00  0.19608663748E+04  0.19608663748E+04  0.00000000000E+00 0. -1.
         -1   -1    0    0    0  501 -0.00000000000E+00 -0.00000000000E+00 -0.42331525771E+03  0.42331525771E+03  0.00000000000E+00 0.  1.
          6    1    1    2  502    0  0.41746582022E+03 -0.59049076195E+03  0.14580677278E+04  0.16366131338E+04  0.17200000000E+03 0. -1.
         -6    1    1    2    0  501 -0.41746582022E+03  0.59049076195E+03  0.79483389279E+02  0.74756849865E+03  0.17200000000E+03 0.  1.
</event>
<event>
 4    1  0.3094855E-002  0.2019849E+03  0.7818608E-02  0.1148075E+00
         -2   -1    0    0    0  501 -0.00000000000E+00  0.00000000000E+00  0.55428264565E+02  0.55428264565E+02  0.00000000000E+00 0.  1.
          2   -1    0    0  502    0  0.00000000000E+00 -0.00000000000E+00 -0.12791213953E+04  0.12791213953E+04  0.00000000000E+00 0. -1.
          6    1    1    2  502    0 -0.10278981528E+03  0.25459039507E+02 -0.10466348133E+04  0.10659466878E+04  0.17200000000E+03 0. -1.
         -6    1    1    2    0  501  0.10278981528E+03 -0.25459039507E+02 -0.17705831736E+03  0.26860297199E+03  0.17200000000E+03 0.  1.
</event>
<event>
 4    1  0.3094855E-002  0.2248401E+03  0.7818608E-02  0.1130325E+00
          2   -1    0    0  502    0  0.00000000000E+00  0.00000000000E+00  0.95721491090E+03  0.95721491090E+03  0.00000000000E+00 0. -1.
         -2   -1    0    0    0  501 -0.00000000000E+00 -0.00000000000E+00 -0.52838250119E+02  0.52838250119E+02  0.00000000000E+00 0.  1.
          6    1    1    2  502    0 -0.84080936853E+02  0.11789600522E+03  0.44107562337E+03  0.49507653703E+03  0.17200000000E+03 0. -1.
         -6    1    1    2    0  501  0.84080936853E+02 -0.11789600522E+03  0.46330103742E+03  0.51497662399E+03  0.17200000000E+03 0.  1.
</event>
<event>
 4    1  0.3094855E-002  0.1959255E+03  0.7818608E-02  0.1153223E+00
          2   -1    0    0  502    0  0.00000000000E+00  0.00000000000E+00  0.67689462697E+03  0.67689462697E+03  0.00000000000E+00 0. -1.
         -2   -1    0    0    0  501 -0.00000000000E+00 -0.00000000000E+00 -0.12973046766E+03  0.12973046766E+03  0.00000000000E+00 0.  1.
          6    1    1    2  502    0 -0.92047761779E+02  0.18165955900E+02  0.57616374972E+03  0.60856508189E+03  0.17200000000E+03 0. -1.
         -6    1    1    2    0  501  0.92047761779E+02 -0.18165955900E+02 -0.28999590406E+02  0.19806001274E+03  0.17200000000E+03 0.  1.
</event>
<event>
 4    1  0.3094855E-002  0.1919546E+03  0.7818608E-02  0.1156710E+00
         -2   -1    0    0    0  501 -0.00000000000E+00  0.00000000000E+00  0.23325177374E+02  0.23325177374E+02  0.00000000000E+00 0.  1.
          2   -1    0    0  502    0  0.00000000000E+00 -0.00000000000E+00 -0.17178149505E+04  0.17178149505E+04  0.00000000000E+00 0. -1.
          6    1    1    2  502    0 -0.64708064211E+02  0.55456631961E+02 -0.10941045396E+04  0.11108156081E+04  0.17200000000E+03 0. -1.
         -6    1    1    2    0  501  0.64708064211E+02 -0.55456631961E+02 -0.60038523346E+03  0.63032451972E+03  0.17200000000E+03 0.  1.
</event>
<event>
 4    1  0.3094855E-002  0.2699458E+03  0.7818608E-02  0.1101311E+00
         -1   -1    0    0    0  501 -0.00000000000E+00  0.00000000000E+00  0.21604253959E+04  0.21604253959E+04  0.00000000000E+00 0.  1.
          1   -1    0    0  502    0  0.00000000000E+00 -0.00000000000E+00 -0.41890778816E+02  0.41890778816E+02  0.00000000000E+00 0. -1.
          6    1    1    2  502    0 -0.14821829826E+03 -0.14600705768E+03  0.57323909738E+03  0.63361959219E+03  0.17200000000E+03 0. -1.
         -6    1    1    2    0  501  0.14821829826E+03  0.14600705768E+03  0.15452955197E+04  0.15686965826E+04  0.17200000000E+03 0.  1.
</event>
<event>
 4    1  0.3094855E-002  0.3268424E+03  0.7818608E-02  0.1072543E+00
          2   -1    0    0  502    0  0.00000000000E+00  0.00000000000E+00  0.10382354869E+04  0.10382354869E+04  0.00000000000E+00 0. -1.
         -2   -1    0    0    0  501 -0.00000000000E+00 -0.00000000000E+00 -0.14566370688E+03  0.14566370688E+03  0.00000000000E+00 0.  1.
          6    1    1    2  502    0 -0.13548085587E+03 -0.24266627478E+03  0.12552010453E+03  0.35011609484E+03  0.17200000000E+03 0. -1.
         -6    1    1    2    0  501  0.13548085587E+03  0.24266627478E+03  0.76705167552E+03  0.83378309898E+03  0.17200000000E+03 0.  1.
</event>
<event>
 4    1  0.3094855E-002  0.5297151E+03  0.7818608E-02  0.1006301E+00
         -2   -1    0    0    0  501 -0.00000000000E+00  0.00000000000E+00  0.38063311281E+03  0.38063311281E+03  0.00000000000E+00 0.  1.
          2   -1    0    0  502    0  0.00000000000E+00 -0.00000000000E+00 -0.74170790225E+03  0.74170790225E+03  0.00000000000E+00 0. -1.
          6    1    1    2  502    0 -0.21293585907E+03  0.45351122399E+03 -0.13672978357E+03  0.54707690874E+03  0.17200000000E+03 0. -1.
         -6    1    1    2    0  501  0.21293585907E+03 -0.45351122399E+03 -0.22434500586E+03  0.57526410632E+03  0.17200000000E+03 0.  1.
</event>
<event>
 4    1  0.3094855E-002  0.1922842E+03  0.7818608E-02  0.1156417E+00
         -1   -1    0    0    0  501 -0.00000000000E+00  0.00000000000E+00  0.26416947310E+02  0.26416947310E+02  0.00000000000E+00 0.  1.
          1   -1    0    0  502    0  0.00000000000E+00 -0.00000000000E+00 -0.17550510883E+04  0.17550510883E+04  0.00000000000E+00 0. -1.
          6    1    1    2  502    0  0.81515989909E+02 -0.27283083353E+02 -0.12651760403E+04  0.12797045113E+04  0.17200000000E+03 0. -1.
         -6    1    1    2    0  501 -0.81515989909E+02  0.27283083353E+02 -0.46345810067E+03  0.50176352431E+03  0.17200000000E+03 0.  1.
</event>
<event>
 4    1  0.3094855E-002  0.2062616E+03  0.7818608E-02  0.1144561E+00
          2   -1    0    0  502    0  0.00000000000E+00  0.00000000000E+00  0.10047904489E+04  0.10047904489E+04  0.00000000000E+00 0. -1.
         -2   -1    0    0    0  501 -0.00000000000E+00 -0.00000000000E+00 -0.42542684422E+02  0.42542684422E+02  0.00000000000E+00 0.  1.
          6    1    1    2  502    0  0.85817698399E+02  0.74800977963E+02  0.44507057784E+03  0.49054223358E+03  0.17200000000E+03 0.  1.
         -6    1    1    2    0  501 -0.85817698399E+02 -0.74800977963E+02  0.51717718667E+03  0.55679089977E+03  0.17200000000E+03 0. -1.
</event>
<event>
 4    1  0.3094855E-002  0.2385301E+03  0.7818608E-02  0.1120776E+00
         -1   -1    0    0    0  501 -0.00000000000E+00  0.00000000000E+00  0.47488658160E+03  0.47488658160E+03  0.00000000000E+00 0.  1.
          1   -1    0    0  502    0  0.00000000000E+00 -0.00000000000E+00 -0.64221331047E+03  0.64221331047E+03  0.00000000000E+00 0. -1.
          6    1    1    2  502    0 -0.16370594413E+03  0.22648838692E+02 -0.58742481856E+03  0.63400672197E+03  0.17200000000E+03 0. -1.
         -6    1    1    2    0  501  0.16370594413E+03 -0.22648838692E+02  0.42009808969E+03  0.48309317010E+03  0.17200000000E+03 0.  1.
</event>
<event>
 4    1  0.3094855E-002  0.2130293E+03  0.7818608E-02  0.1139189E+00
          1   -1    0    0  502    0  0.00000000000E+00  0.00000000000E+00  0.72723358004E+02  0.72723358004E+02  0.00000000000E+00 0. -1.
         -1   -1    0    0    0  501 -0.00000000000E+00 -0.00000000000E+00 -0.73150837912E+03  0.73150837912E+03  0.00000000000E+00 0.  1.
          6    1    1    2  502    0 -0.94682372821E+02 -0.82660373857E+02 -0.48352848118E+03  0.52837607936E+03  0.17200000000E+03 0. -1.
         -6    1    1    2    0  501  0.94682372821E+02  0.82660373857E+02 -0.17525653994E+03  0.27585565776E+03  0.17200000000E+03 0.  1.
</event>
<event>
 4    1  0.3094855E-002  0.1726118E+03  0.7818608E-02  0.1175151E+00
          3   -1    0    0  502    0  0.00000000000E+00  0.00000000000E+00  0.84857021203E+02  0.84857021203E+02  0.00000000000E+00 0. -1.
         -3   -1    0    0    0  501 -0.00000000000E+00 -0.00000000000E+00 -0.35843700383E+03  0.35843700383E+03  0.00000000000E+00 0.  1.
          6    1    1    2  502    0 -0.12116308286E+02 -0.80028019311E+01 -0.16846186013E+03  0.24119338317E+03  0.17200000000E+03 0.  1.
         -6    1    1    2    0  501  0.12116308286E+02  0.80028019311E+01 -0.10511812250E+03  0.20210064187E+03  0.17200000000E+03 0. -1.
</event>
<event>
 4    1  0.3094855E-002  0.2224542E+03  0.7818608E-02  0.1132067E+00
          1   -1    0    0  502    0  0.00000000000E+00  0.00000000000E+00  0.12322747657E+04  0.12322747657E+04  0.00000000000E+00 0. -1.
         -1   -1    0    0    0  501 -0.00000000000E+00 -0.00000000000E+00 -0.41463760702E+02  0.41463760702E+02  0.00000000000E+00 0.  1.
          6    1    1    2  502    0 -0.38709251396E+02 -0.13565929684E+03  0.70841788326E+03  0.74252390418E+03  0.17200000000E+03 0.  1.
         -6    1    1    2    0  501  0.38709251396E+02  0.13565929684E+03  0.48239312178E+03  0.53121462226E+03  0.17200000000E+03 0.  1.
</event>
<event>
 4    1  0.3094855E-002  0.1880922E+03  0.7818608E-02  0.1160193E+00
         -1   -1    0    0    0  501 -0.00000000000E+00  0.00000000000E+00  0.25235183449E+03  0.25235183449E+03  0.00000000000E+00 0.  1.
          1   -1    0    0  502    0  0.00000000000E+00 -0.00000000000E+00 -0.15164389894E+03  0.15164389894E+03  0.00000000000E+00 0. -1.
          6    1    1    2  502    0  0.64940506851E+02  0.39716412130E+02 -0.51470997798E+01  0.18816257720E+03  0.17200000000E+03 0. -1.
         -6    1    1    2    0  501 -0.64940506851E+02 -0.39716412130E+02  0.10585503533E+03  0.21583315623E+03  0.17200000000E+03 0.  1.
</event>
<event>
 4    1  0.3094855E-002  0.2345216E+03  0.7818608E-02  0.1123497E+00
         -1   -1    0    0    0  501 -0.00000000000E+00  0.00000000000E+00  0.51701176740E+03  0.51701176740E+03  0.00000000000E+00 0.  1.
          1   -1    0    0  502    0  0.00000000000E+00 -0.00000000000E+00 -0.10901666516E+03  0.10901666516E+03  0.00000000000E+00 0. -1.
          6    1    1    2  502    0  0.13641309078E+03  0.82509563299E+02  0.15532972693E+03  0.28129643339E+03  0.17200000000E+03 0. -1.
         -6    1    1    2    0  501 -0.13641309078E+03 -0.82509563299E+02  0.25266537530E+03  0.34473199916E+03  0.17200000000E+03 0.  1.
</event>
<event>
 4    1  0.3094855E-002  0.1896006E+03  0.7818608E-02  0.1158822E+00
         -2   -1    0    0    0  501 -0.00000000000E+00  0.00000000000E+00  0.65049032354E+02  0.65049032354E+02  0.00000000000E+00 0.  1.
          2   -1    0    0  502    0  0.00000000000E+00 -0.00000000000E+00 -0.13151212690E+04  0.13151212690E+04  0.00000000000E+00 0. -1.
          6    1    1    2  502    0  0.49275337164E+02  0.62740277659E+02 -0.11504912852E+04  0.11660096906E+04  0.17200000000E+03 0. -1.
         -6    1    1    2    0  501 -0.49275337164E+02 -0.62740277659E+02 -0.99580951419E+02  0.21416061071E+03  0.17200000000E+03 0.  1.
</event>
<event>
 4    1  0.3094855E-002  0.6676715E+03  0.7818608E-02  0.9774174E-01
         -2   -1    0    0    0  501 -0.00000000000E+00  0.00000000000E+00  0.42778043603E+03  0.42778043603E+03  0.00000000000E+00 0.  1.
          2   -1    0    0  502    0  0.00000000000E+00 -0.00000000000E+00 -0.36164322072E+04  0.36164322072E+04  0.00000000000E+00 0. -1.
          6    1    1    2  502    0  0.54389200192E+03  0.34696204685E+03 -0.33003967579E+04  0.33672546579E+04  0.17200000000E+03 0. -1.
         -6    1    1    2    0  501 -0.54389200192E+03 -0.34696204685E+03  0.11174498681E+03  0.67695798524E+03  0.17200000000E+03 0. -1.
</event>
<event>
 4    1  0.3094855E-002  0.2102860E+03  0.7818608E-02  0.1141340E+00
          2   -1    0    0  502    0  0.00000000000E+00  0.00000000000E+00  0.33654667822E+03  0.33654667822E+03  0.00000000000E+00 0. -1.
         -2   -1    0    0    0  501 -0.00000000000E+00 -0.00000000000E+00 -0.13389643237E+03  0.13389643237E+03  0.00000000000E+00 0.  1.
          6    1    1    2  502    0 -0.11979821720E+03  0.16870248488E+02  0.69168325797E+02  0.22136954493E+03  0.17200000000E+03 0. -1.
         -6    1    1    2    0  501  0.11979821720E+03 -0.16870248488E+02  0.13348192005E+03  0.24907356566E+03  0.17200000000E+03 0. -1.
</event>
<event>
 4    1  0.3094855E-002  0.2158805E+03  0.7818608E-02  0.1136992E+00
         -2   -1    0    0    0  501 -0.00000000000E+00  0.00000000000E+00  0.57765657097E+02  0.57765657097E+02  0.00000000000E+00 0.  1.
          2   -1    0    0  502    0  0.00000000000E+00 -0.00000000000E+00 -0.12802931952E+04  0.12802931952E+04  0.00000000000E+00 0. -1.
          6    1    1    2  502    0  0.41346420754E+02 -0.12373700691E+03 -0.10181331272E+04  0.10407686766E+04  0.17200000000E+03 0. -1.
         -6    1    1    2    0  501 -0.41346420754E+02  0.12373700691E+03 -0.20439441092E+03  0.29729017576E+03  0.17200000000E+03 0.  1.
</event>
<event>
 4    1  0.3094855E-002  0.4050767E+03  0.7818608E-02  0.1042036E+00
         -1   -1    0    0    0  501 -0.00000000000E+00  0.00000000000E+00  0.34404109694E+03  0.34404109694E+03  0.00000000000E+00 0.  1.
          1   -1    0    0  502    0  0.00000000000E+00 -0.00000000000E+00 -0.62340666163E+03  0.62340666163E+03  0.00000000000E+00 0. -1.
          6    1    1    2  502    0 -0.27811160946E+03  0.23907544682E+03 -0.37414908852E+03  0.55142966644E+03  0.17200000000E+03 0. -1.
         -6    1    1    2    0  501  0.27811160946E+03 -0.23907544682E+03  0.94783523832E+02  0.41601809213E+03  0.17200000000E+03 0.  1.
</event>
<event>
 4    1  0.3094855E-002  0.2193072E+03  0.7818608E-02  0.1134401E+00
          2   -1    0    0  502    0  0.00000000000E+00  0.00000000000E+00  0.11254763122E+04  0.11254763122E+04  0.00000000000E+00 0. -1.
         -2   -1    0    0    0  501 -0.00000000000E+00 -0.00000000000E+00 -0.44019417650E+02  0.44019417650E+02  0.00000000000E+00 0.  1.
          6    1    1    2  502    0 -0.13329500511E+03 -0.27277876245E+02  0.64066819133E+03  0.67716421369E+03  0.17200000000E+03 0. -1.
         -6    1    1    2    0  501  0.13329500511E+03  0.27277876245E+02  0.44078870323E+03  0.49233151617E+03  0.17200000000E+03 0.  1.
</event>
<event>
 4    1  0.3094855E-002  0.1954991E+03  0.7818608E-02  0.1153593E+00
          1   -1    0    0  502    0  0.00000000000E+00  0.00000000000E+00  0.51041741514E+03  0.51041741514E+03  0.00000000000E+00 0. -1.
         -1   -1    0    0    0  501 -0.00000000000E+00 -0.00000000000E+00 -0.78419696645E+02  0.78419696645E+02  0.00000000000E+00 0.  1.
          6    1    1    2  502    0 -0.69877487066E+02  0.61261917956E+02  0.15344471560E+03  0.24852598765E+03  0.17200000000E+03 0.  1.
         -6    1    1    2    0  501  0.69877487066E+02 -0.61261917956E+02  0.27855300290E+03  0.34031112414E+03  0.17200000000E+03 0. -1.
</event>
<event>
 4    1  0.3094855E-002  0.1915729E+03  0.7818608E-02  0.1157050E+00
         -2   -1    0    0    0  501 -0.00000000000E+00  0.00000000000E+00  0.59840294192E+02  0.59840294192E+02  0.00000000000E+00 0.  1.
          2   -1    0    0  502    0  0.00000000000E+00 -0.00000000000E+00 -0.64006674784E+03  0.64006674784E+03  0.00000000000E+00 0. -1.
          6    1    1    2  502    0 -0.83677479804E+02  0.10689917860E+02 -0.36167419589E+03  0.40927792384E+03  0.17200000000E+03 0. -1.
         -6    1    1    2    0  501  0.83677479804E+02 -0.10689917860E+02 -0.21855225776E+03  0.29062911819E+03  0.17200000000E+03 0.  1.
</event>
<event>
 4    1  0.3094855E-002  0.2234234E+03  0.7818608E-02  0.1131356E+00
         -2   -1    0    0    0  501 -0.00000000000E+00  0.00000000000E+00  0.29028610571E+02  0.29028610571E+02  0.00000000000E+00 0.  1.
          2   -1    0    0  502    0  0.00000000000E+00 -0.00000000000E+00 -0.17222273772E+04  0.17222273772E+04  0.00000000000E+00 0. -1.
          6    1    1    2  502    0  0.14250812325E+03  0.50448665887E+01 -0.88070647754E+03  0.90860437785E+03  0.17200000000E+03 0.  1.
         -6    1    1    2    0  501 -0.14250812325E+03 -0.50448665887E+01 -0.81249228907E+03  0.84265160991E+03  0.17200000000E+03 0. -1.
</event>
<event>
 4    1  0.3094855E-002  0.5482511E+03  0.7818608E-02  0.1001900E+00
          2   -1    0    0  502    0  0.00000000000E+00  0.00000000000E+00  0.23676651368E+04  0.23676651368E+04  0.00000000000E+00 0. -1.
         -2   -1    0    0    0  501 -0.00000000000E+00 -0.00000000000E+00 -0.21443858283E+03  0.21443858283E+03  0.00000000000E+00 0.  1.
          6    1    1    2  502    0  0.51268534773E+03 -0.90271820890E+02  0.19012516388E+04  0.19787210672E+04  0.17200000000E+03 0. -1.
         -6    1    1    2    0  501 -0.51268534773E+03  0.90271820890E+02  0.25197491511E+03  0.60338265244E+03  0.17200000000E+03 0.  1.
</event>
<event>
 4    1  0.3094855E-002  0.1735791E+03  0.7818608E-02  0.1174166E+00
         -3   -1    0    0    0  501 -0.00000000000E+00  0.00000000000E+00  0.75316687450E+03  0.75316687450E+03  0.00000000000E+00 0.  1.
          3   -1    0    0  502    0  0.00000000000E+00 -0.00000000000E+00 -0.43279721706E+02  0.43279721706E+02  0.00000000000E+00 0. -1.
          6    1    1    2  502    0 -0.18751631777E+01  0.23285220311E+02  0.24538779839E+03  0.30057426590E+03  0.17200000000E+03 0. -1.
         -6    1    1    2    0  501  0.18751631777E+01 -0.23285220311E+02  0.46449935440E+03  0.49587233031E+03  0.17200000000E+03 0.  1.
</event>
<event>
 4    1  0.3094855E-002  0.2823643E+03  0.7818608E-02  0.1094405E+00
          1   -1    0    0  502    0  0.00000000000E+00  0.00000000000E+00  0.83296497680E+03  0.83296497680E+03  0.00000000000E+00 0. -1.
         -1   -1    0    0    0  501 -0.00000000000E+00 -0.00000000000E+00 -0.31919147482E+03  0.31919147482E+03  0.00000000000E+00 0.  1.
          6    1    1    2  502    0 -0.21892329969E+03 -0.47097616189E+02  0.73891110232E+03  0.79102415496E+03  0.17200000000E+03 0. -1.
         -6    1    1    2    0  501  0.21892329969E+03  0.47097616189E+02 -0.22513760035E+03  0.36113229665E+03  0.17200000000E+03 0.  1.
</event>
<event>
 4    1  0.3094855E-002  0.3519659E+03  0.7818608E-02  0.1061811E+00
          1   -1    0    0  502    0  0.00000000000E+00  0.00000000000E+00  0.29860046865E+04  0.29860046865E+04  0.00000000000E+00 0. -1.
         -1   -1    0    0    0  501 -0.00000000000E+00 -0.00000000000E+00 -0.41491725865E+02  0.41491725865E+02  0.00000000000E+00 0.  1.
          6    1    1    2  502    0  0.29572799269E+03 -0.82710167197E+02  0.14558970243E+04  0.14978371616E+04  0.17200000000E+03 0. -1.
         -6    1    1    2    0  501 -0.29572799269E+03  0.82710167197E+02  0.14886159363E+04  0.15296592507E+04  0.17200000000E+03 0.  1.
</event>
<event>
 4    1  0.3094855E-002  0.2024061E+03  0.7818608E-02  0.1147725E+00
          1   -1    0    0  502    0  0.00000000000E+00  0.00000000000E+00  0.99199850528E+03  0.99199850528E+03  0.00000000000E+00 0. -1.
         -1   -1    0    0    0  501 -0.00000000000E+00 -0.00000000000E+00 -0.44952721739E+02  0.44952721739E+02  0.00000000000E+00 0.  1.
          6    1    1    2  502    0 -0.10527840061E+03  0.17340212778E+02  0.62134430252E+03  0.65348065533E+03  0.17200000000E+03 0. -1.
         -6    1    1    2    0  501  0.10527840061E+03 -0.17340212778E+02  0.32570148102E+03  0.38347057169E+03  0.17200000000E+03 0. -1.
</event>
<event>
 4    1  0.3094855E-002  0.4236622E+03  0.7818608E-02  0.1035881E+00
          2   -1    0    0  502    0  0.00000000000E+00  0.00000000000E+00  0.85289311772E+03  0.85289311772E+03  0.00000000000E+00 0. -1.
         -2   -1    0    0    0  501 -0.00000000000E+00 -0.00000000000E+00 -0.22372386167E+03  0.22372386167E+03  0.00000000000E+00 0.  1.
          6    1    1    2  502    0  0.22878646387E+03  0.31234983063E+03  0.44571587968E+03  0.61494089809E+03  0.17200000000E+03 0. -1.
         -6    1    1    2    0  501 -0.22878646387E+03 -0.31234983063E+03  0.18345337637E+03  0.46167608130E+03  0.17200000000E+03 0.  1.
</event>
<event>
 4    1  0.3094855E-002  0.3032265E+03  0.7818608E-02  0.1083639E+00
          2   -1    0    0  502    0  0.00000000000E+00  0.00000000000E+00  0.24438884438E+04  0.24438884438E+04  0.00000000000E+00 0. -1.
         -2   -1    0    0    0  501 -0.00000000000E+00 -0.00000000000E+00 -0.95548895677E+02  0.95548895677E+02  0.00000000000E+00 0.  1.
          6    1    1    2  502    0 -0.24972101023E+03  0.13081254894E+01  0.21627939660E+04  0.21839468935E+04  0.17200000000E+03 0. -1.
         -6    1    1    2    0  501  0.24972101023E+03 -0.13081254894E+01  0.18554558209E+03  0.35549044597E+03  0.17200000000E+03 0.  1.
</event>
<event>
 4    1  0.3094855E-002  0.2877633E+03  0.7818608E-02  0.1091523E+00
         -2   -1    0    0    0  501 -0.00000000000E+00  0.00000000000E+00  0.27893790600E+02  0.27893790600E+02  0.00000000000E+00 0.  1.
          2   -1    0    0  502    0  0.00000000000E+00 -0.00000000000E+00 -0.39548037541E+04  0.39548037541E+04  0.00000000000E+00 0. -1.
          6    1    1    2  502    0  0.79199941447E+02  0.21668202758E+03 -0.29578309574E+04  0.29717960402E+04  0.17200000000E+03 0. -1.
         -6    1    1    2    0  501 -0.79199941447E+02 -0.21668202758E+03 -0.96907900612E+03  0.10109015045E+04  0.17200000000E+03 0.  1.
</event>
<event>
 4    1  0.3094855E-002  0.2131443E+03  0.7818608E-02  0.1139100E+00
         -1   -1    0    0    0  501 -0.00000000000E+00  0.00000000000E+00  0.82692876517E+02  0.82692876517E+02  0.00000000000E+00 0.  1.
          1   -1    0    0  502    0  0.00000000000E+00 -0.00000000000E+00 -0.67750460422E+03  0.67750460422E+03  0.00000000000E+00 0. -1.
          6    1    1    2  502    0  0.10604505017E+03  0.67830319670E+02 -0.46269426598E+03  0.50942760889E+03  0.17200000000E+03 0. -1.
         -6    1    1    2    0  501 -0.10604505017E+03 -0.67830319670E+02 -0.13211746172E+03  0.25076987184E+03  0.17200000000E+03 0.  1.
</event>
<event>
 4    1  0.3094855E-002  0.3174151E+03  0.7818608E-02  0.1076845E+00
          2   -1    0    0  502    0  0.00000000000E+00  0.00000000000E+00  0.20559330552E+04  0.20559330552E+04  0.00000000000E+00 0. -1.
         -2   -1    0    0    0  501 -0.00000000000E+00 -0.00000000000E+00 -0.18512156300E+03  0.18512156300E+03  0.00000000000E+00 0.  1.
          6    1    1    2  502    0  0.26449206033E+03  0.34818103980E+02  0.18962397851E+04  0.19226226028E+04  0.17200000000E+03 0. -1.
         -6    1    1    2    0  501 -0.26449206033E+03 -0.34818103980E+02 -0.25428292881E+02  0.31843201538E+03  0.17200000000E+03 0.  1.
</event>
<event>
 4    1  0.3094855E-002  0.1758224E+03  0.7818608E-02  0.1171908E+00
          2   -1    0    0  502    0  0.00000000000E+00  0.00000000000E+00  0.79909683136E+03  0.79909683136E+03  0.00000000000E+00 0. -1.
         -2   -1    0    0    0  501 -0.00000000000E+00 -0.00000000000E+00 -0.12724018444E+03  0.12724018444E+03  0.00000000000E+00 0.  1.
          6    1    1    2  502    0 -0.36400868417E+02 -0.21207084814E+01 -0.50467535299E+02  0.18292209474E+03  0.17200000000E+03 0.  1.
         -6    1    1    2    0  501  0.36400868417E+02  0.21207084814E+01  0.72232418222E+03  0.74341492106E+03  0.17200000000E+03 0. -1.
</event>
<event>
 4    1  0.3094855E-002  0.2421319E+03  0.7818608E-02  0.1118381E+00
         -1   -1    0    0    0  501 -0.00000000000E+00  0.00000000000E+00  0.20307762458E+03  0.20307762458E+03  0.00000000000E+00 0.  1.
          1   -1    0    0  502    0  0.00000000000E+00 -0.00000000000E+00 -0.35267132428E+03  0.35267132428E+03  0.00000000000E+00 0. -1.
          6    1    1    2  502    0  0.10384859513E+03 -0.13512703352E+03 -0.19314660245E+03  0.30973126406E+03  0.17200000000E+03 0. -1.
         -6    1    1    2    0  501 -0.10384859513E+03  0.13512703352E+03  0.43552902744E+02  0.24601768480E+03  0.17200000000E+03 0.  1.
</event>
<event>
 4    1  0.3094855E-002  0.2131335E+03  0.7818608E-02  0.1139108E+00
         -2   -1    0    0    0  501 -0.00000000000E+00  0.00000000000E+00  0.37042688972E+02  0.37042688972E+02  0.00000000000E+00 0.  1.
          2   -1    0    0  502    0  0.00000000000E+00 -0.00000000000E+00 -0.13120466824E+04  0.13120466824E+04  0.00000000000E+00 0. -1.
          6    1    1    2  502    0 -0.98770341425E+02 -0.78014906670E+02 -0.46507171733E+03  0.51158343236E+03  0.17200000000E+03 0. -1.
         -6    1    1    2    0  501  0.98770341425E+02  0.78014906670E+02 -0.80993227607E+03  0.83750593898E+03  0.17200000000E+03 0. -1.
</event>
<event>
 4    1  0.3094855E-002  0.3264621E+03  0.7818608E-02  0.1072713E+00
          2   -1    0    0  502    0  0.00000000000E+00  0.00000000000E+00  0.13469374052E+04  0.13469374052E+04  0.00000000000E+00 0. -1.
         -2   -1    0    0    0  501 -0.00000000000E+00 -0.00000000000E+00 -0.25219680684E+03  0.25219680684E+03  0.00000000000E+00 0.  1.
          6    1    1    2  502    0  0.16190542074E+02  0.27700432735E+03  0.12097351198E+04  0.12530110100E+04  0.17200000000E+03 0. -1.
         -6    1    1    2    0  501 -0.16190542074E+02 -0.27700432735E+03 -0.11499452146E+03  0.34612320204E+03  0.17200000000E+03 0.  1.
</event>
<event>
 4    1  0.3094855E-002  0.2440973E+03  0.7818608E-02  0.1117093E+00
         -1   -1    0    0    0  501 -0.00000000000E+00  0.00000000000E+00  0.15760379396E+03  0.15760379396E+03  0.00000000000E+00 0.  1.
          1   -1    0    0  502    0  0.00000000000E+00 -0.00000000000E+00 -0.54936938389E+03  0.54936938389E+03  0.00000000000E+00 0. -1.
          6    1    1    2  502    0  0.11936453808E+03 -0.12550545564E+03  0.15106485670E+01  0.24410201639E+03  0.17200000000E+03 0.  1.
         -6    1    1    2    0  501 -0.11936453808E+03  0.12550545564E+03 -0.39327623849E+03  0.46287116146E+03  0.17200000000E+03 0. -1.
</event>
<event>
 4    1  0.3094855E-002  0.2153860E+03  0.7818608E-02  0.1137370E+00
          2   -1    0    0  502    0  0.00000000000E+00  0.00000000000E+00  0.58651571131E+03  0.58651571131E+03  0.00000000000E+00 0. -1.
         -2   -1    0    0    0  501 -0.00000000000E+00 -0.00000000000E+00 -0.25523586195E+03  0.25523586195E+03  0.00000000000E+00 0.  1.
          6    1    1    2  502    0 -0.12953409059E+03 -0.52957768159E+01  0.51527239043E+03  0.55847718146E+03  0.17200000000E+03 0. -1.
         -6    1    1    2    0  501  0.12953409059E+03  0.52957768159E+01 -0.18399254107E+03  0.28327439179E+03  0.17200000000E+03 0.  1.
</event>
<event>
 4    1  0.3094855E-002  0.2130776E+03  0.7818608E-02  0.1139152E+00
          1   -1    0    0  502    0  0.00000000000E+00  0.00000000000E+00  0.94100690587E+03  0.94100690587E+03  0.00000000000E+00 0. -1.
         -1   -1    0    0    0  501 -0.00000000000E+00 -0.00000000000E+00 -0.81541148868E+02  0.81541148868E+02  0.00000000000E+00 0.  1.
          6    1    1    2  502    0 -0.82892640115E+02  0.94587980816E+02  0.75642612547E+03  0.78586421168E+03  0.17200000000E+03 0. -1.
         -6    1    1    2    0  501  0.82892640115E+02 -0.94587980816E+02  0.10303963153E+03  0.23668384306E+03  0.17200000000E+03 0.  1.
</event>
<event>
 4    1  0.3094855E-002  0.1988974E+03  0.7818608E-02  0.1150673E+00
         -1   -1    0    0    0  501 -0.00000000000E+00  0.00000000000E+00  0.88372056016E+02  0.88372056016E+02  0.00000000000E+00 0.  1.
          1   -1    0    0  502    0  0.00000000000E+00 -0.00000000000E+00 -0.47191045646E+03  0.47191045646E+03  0.00000000000E+00 0. -1.
          6    1    1    2  502    0 -0.82282366859E+02 -0.56619680753E+02 -0.12825750887E+03  0.23666466726E+03  0.17200000000E+03 0. -1.
         -6    1    1    2    0  501  0.82282366859E+02  0.56619680753E+02 -0.25528089157E+03  0.32361784522E+03  0.17200000000E+03 0. -1.
</event>
<event>
 4    1  0.3094855E-002  0.2421382E+03  0.7818608E-02  0.1118377E+00
         -2   -1    0    0    0  501 -0.00000000000E+00  0.00000000000E+00  0.26111595201E+03  0.26111595201E+03  0.00000000000E+00 0.  1.
          2   -1    0    0  502    0  0.00000000000E+00 -0.00000000000E+00 -0.56649645269E+03  0.56649645269E+03  0.00000000000E+00 0. -1.
          6    1    1    2  502    0  0.14492621885E+03  0.89684489898E+02 -0.47419244665E+03  0.53243721986E+03  0.17200000000E+03 0. -1.
         -6    1    1    2    0  501 -0.14492621885E+03 -0.89684489898E+02  0.16881194597E+03  0.29517518483E+03  0.17200000000E+03 0.  1.
</event>
<event>
 4    1  0.3094855E-002  0.2640971E+03  0.7818608E-02  0.1104706E+00
          2   -1    0    0  502    0  0.00000000000E+00  0.00000000000E+00  0.12475291447E+04  0.12475291447E+04  0.00000000000E+00 0. -1.
         -2   -1    0    0    0  501 -0.00000000000E+00 -0.00000000000E+00 -0.11316543978E+03  0.11316543978E+03  0.00000000000E+00 0.  1.
          6    1    1    2  502    0  0.21942843048E+02  0.19920292177E+03  0.10511183747E+04  0.10837883235E+04  0.17200000000E+03 0. -1.
         -6    1    1    2    0  501 -0.21942843048E+02 -0.19920292177E+03  0.83245330216E+02  0.27690626104E+03  0.17200000000E+03 0.  1.
</event>
<event>
 4    1  0.3094855E-002  0.1733866E+03  0.7818608E-02  0.1174361E+00
         -2   -1    0    0    0  501 -0.00000000000E+00  0.00000000000E+00  0.14373737864E+03  0.14373737864E+03  0.00000000000E+00 0.  1.
          2   -1    0    0  502    0  0.00000000000E+00 -0.00000000000E+00 -0.41845120084E+03  0.41845120084E+03  0.00000000000E+00 0. -1.
          6    1    1    2  502    0  0.19339993629E+02  0.10241342424E+02 -0.33615567794E+03  0.37823743900E+03  0.17200000000E+03 0. -1.
         -6    1    1    2    0  501 -0.19339993629E+02 -0.10241342424E+02  0.61441855738E+02  0.18395114048E+03  0.17200000000E+03 0.  1.
</event>
<event>
 4    1  0.3094855E-002  0.2785179E+03  0.7818608E-02  0.1096501E+00
          2   -1    0    0  502    0  0.00000000000E+00  0.00000000000E+00  0.73290502270E+03  0.73290502270E+03  0.00000000000E+00 0. -1.
         -2   -1    0    0    0  501 -0.00000000000E+00 -0.00000000000E+00 -0.10584379282E+03  0.10584379282E+03  0.00000000000E+00 0.  1.
          6    1    1    2  502    0  0.68455157337E+02  0.20809158846E+03  0.31186094207E+03  0.41812613521E+03  0.17200000000E+03 0. -1.
         -6    1    1    2    0  501 -0.68455157337E+02 -0.20809158846E+03  0.31520028781E+03  0.42062268031E+03  0.17200000000E+03 0.  1.
</event>
<event>
 4    1  0.3094855E-002  0.2615456E+03  0.7818608E-02  0.1106218E+00
         -1   -1    0    0    0  501 -0.00000000000E+00  0.00000000000E+00  0.26596155089E+03  0.26596155089E+03  0.00000000000E+00 0.  1.
          1   -1    0    0  502    0  0.00000000000E+00 -0.00000000000E+00 -0.25720308728E+03  0.25720308728E+03  0.00000000000E+00 0. -1.
          6    1    1    2  502    0  0.16618924904E+03  0.10584541522E+03  0.42627302652E+01  0.26158036870E+03  0.17200000000E+03 0. -1.
         -6    1    1    2    0  501 -0.16618924904E+03 -0.10584541522E+03  0.44957333402E+01  0.26158426947E+03  0.17200000000E+03 0. -1.
</event>
<event>
 4    1  0.3094855E-002  0.2374736E+03  0.7818608E-02  0.1121487E+00
         -1   -1    0    0    0  501 -0.00000000000E+00  0.00000000000E+00  0.46449307885E+03  0.46449307885E+03  0.00000000000E+00 0.  1.
          1   -1    0    0  502    0  0.00000000000E+00 -0.00000000000E+00 -0.21765386065E+03  0.21765386065E+03  0.00000000000E+00 0. -1.
          6    1    1    2  502    0 -0.14550090899E+03 -0.75094554573E+02 -0.10338569312E+03  0.25900252544E+03  0.17200000000E+03 0. -1.
         -6    1    1    2    0  501  0.14550090899E+03  0.75094554573E+02  0.35022491133E+03  0.42314441407E+03  0.17200000000E+03 0.  1.
</event>
<event>
 4    1  0.3094855E-002  0.1977468E+03  0.7818608E-02  0.1151654E+00
         -1   -1    0    0    0  501 -0.00000000000E+00  0.00000000000E+00  0.22586373567E+03  0.22586373567E+03  0.00000000000E+00 0.  1.
          1   -1    0    0  502    0  0.00000000000E+00 -0.00000000000E+00 -0.21723842344E+03  0.21723842344E+03  0.00000000000E+00 0. -1.
          6    1    1    2  502    0  0.48356343841E+02  0.84743385709E+02 -0.95518605587E+02  0.21960778999E+03  0.17200000000E+03 0. -1.
         -6    1    1    2    0  501 -0.48356343841E+02 -0.84743385709E+02  0.10414391781E+03  0.22349436912E+03  0.17200000000E+03 0.  1.
</event>
<event>
 4    1  0.3094855E-002  0.1995689E+03  0.7818608E-02  0.1150103E+00
         -1   -1    0    0    0  501 -0.00000000000E+00  0.00000000000E+00  0.17071287525E+04  0.17071287525E+04  0.00000000000E+00 0.  1.
          1   -1    0    0  502    0  0.00000000000E+00 -0.00000000000E+00 -0.23330585867E+02  0.23330585867E+02  0.00000000000E+00 0. -1.
          6    1    1    2  502    0 -0.19737222462E+02  0.99268213094E+02  0.84519478894E+03  0.86843650737E+03  0.17200000000E+03 0. -1.
         -6    1    1    2    0  501  0.19737222462E+02 -0.99268213094E+02  0.83860337768E+03  0.86202283098E+03  0.17200000000E+03 0.  1.
</event>
<event>
 4    1  0.3094855E-002  0.3298809E+03  0.7818608E-02  0.1071190E+00
          1   -1    0    0  502    0  0.00000000000E+00  0.00000000000E+00  0.25876972223E+04  0.25876972223E+04  0.00000000000E+00 0. -1.
         -1   -1    0    0    0  501 -0.00000000000E+00 -0.00000000000E+00 -0.43603772161E+02  0.43603772161E+02  0.00000000000E+00 0.  1.
          6    1    1    2  502    0  0.71032277546E+02 -0.27238180937E+03  0.15201304120E+04  0.15555121034E+04  0.17200000000E+03 0.  1.
         -6    1    1    2    0  501 -0.71032277546E+02  0.27238180937E+03  0.10239630382E+04  0.10757888911E+04  0.17200000000E+03 0. -1.
</event>
<event>
 4    1  0.3094855E-002  0.6361331E+03  0.7818608E-02  0.9833153E-01
          2   -1    0    0  502    0  0.00000000000E+00  0.00000000000E+00  0.30741988494E+03  0.30741988494E+03  0.00000000000E+00 0. -1.
         -2   -1    0    0    0  501 -0.00000000000E+00 -0.00000000000E+00 -0.13180846251E+04  0.13180846251E+04  0.00000000000E+00 0.  1.
          6    1    1    2  502    0  0.41964360490E+03  0.44607230786E+03 -0.47565784999E+03  0.79430198868E+03  0.17200000000E+03 0. -1.
         -6    1    1    2    0  501 -0.41964360490E+03 -0.44607230786E+03 -0.53500689013E+03  0.83120252132E+03  0.17200000000E+03 0.  1.
</event>
<event>
 4    1  0.3094855E-002  0.2338886E+03  0.7818608E-02  0.1123932E+00
          2   -1    0    0  502    0  0.00000000000E+00  0.00000000000E+00  0.15211744888E+04  0.15211744888E+04  0.00000000000E+00 0. -1.
         -2   -1    0    0    0  501 -0.00000000000E+00 -0.00000000000E+00 -0.56613273474E+02  0.56613273474E+02  0.00000000000E+00 0.  1.
          6    1    1    2  502    0  0.94489481666E+01 -0.15821063807E+03  0.12087521199E+04  0.12311724396E+04  0.17200000000E+03 0. -1.
         -6    1    1    2    0  501 -0.94489481666E+01  0.15821063807E+03  0.25580909542E+03  0.34661532269E+03  0.17200000000E+03 0.  1.
</event>
<event>
 4    1  0.3094855E-002  0.2364855E+03  0.7818608E-02  0.1122156E+00
         -2   -1    0    0    0  501 -0.00000000000E+00  0.00000000000E+00  0.66795415549E+02  0.66795415549E+02  0.00000000000E+00 0.  1.
          2   -1    0    0  502    0  0.00000000000E+00 -0.00000000000E+00 -0.12501546040E+04  0.12501546040E+04  0.00000000000E+00 0. -1.
          6    1    1    2  502    0 -0.77095345811E+02 -0.14282059489E+03 -0.21325897295E+03  0.31844120998E+03  0.17200000000E+03 0.  1.
         -6    1    1    2    0  501  0.77095345811E+02  0.14282059489E+03 -0.97010021551E+03  0.99850880958E+03  0.17200000000E+03 0. -1.
</event>
<event>
 4    1  0.3094855E-002  0.2023490E+03  0.7818608E-02  0.1147772E+00
          1   -1    0    0  502    0  0.00000000000E+00  0.00000000000E+00  0.44299854107E+03  0.44299854107E+03  0.00000000000E+00 0. -1.
         -1   -1    0    0    0  501 -0.00000000000E+00 -0.00000000000E+00 -0.16322453744E+03  0.16322453744E+03  0.00000000000E+00 0.  1.
          6    1    1    2  502    0 -0.74542118671E+02 -0.76187954713E+02 -0.59739451320E+02  0.21098325513E+03  0.17200000000E+03 0.  1.
         -6    1    1    2    0  501  0.74542118671E+02  0.76187954713E+02  0.33951345495E+03  0.39523982339E+03  0.17200000000E+03 0. -1.
</event>
<event>
 4    1  0.3094855E-002  0.1750674E+03  0.7818608E-02  0.1172664E+00
         -2   -1    0    0    0  501 -0.00000000000E+00  0.00000000000E+00  0.13874385636E+02  0.13874385636E+02  0.00000000000E+00 0.  1.
          2   -1    0    0  502    0  0.00000000000E+00 -0.00000000000E+00 -0.22090306771E+04  0.22090306771E+04  0.00000000000E+00 0. -1.
          6    1    1    2  502    0 -0.32053257979E+02  0.60989280349E+01 -0.11012539421E+04  0.11150824424E+04  0.17200000000E+03 0. -1.
         -6    1    1    2    0  501  0.32053257979E+02 -0.60989280349E+01 -0.10939023494E+04  0.11078226204E+04  0.17200000000E+03 0.  1.
</event>
<event>
 4    1  0.3094855E-002  0.2090098E+03  0.7818608E-02  0.1142353E+00
          2   -1    0    0  502    0  0.00000000000E+00  0.00000000000E+00  0.23312198961E+04  0.23312198961E+04  0.00000000000E+00 0. -1.
         -2   -1    0    0    0  501 -0.00000000000E+00 -0.00000000000E+00 -0.21025521801E+02  0.21025521801E+02  0.00000000000E+00 0.  1.
          6    1    1    2  502    0  0.11873199010E+03  0.19492839924E+01  0.15429370395E+04  0.15570291562E+04  0.17200000000E+03 0. -1.
         -6    1    1    2    0  501 -0.11873199010E+03 -0.19492839924E+01  0.76725733479E+03  0.79521626176E+03  0.17200000000E+03 0.  1.
</event>
<event>
 4    1  0.3094855E-002  0.3425497E+03  0.7818608E-02  0.1065715E+00
         -1   -1    0    0    0  501 -0.00000000000E+00  0.00000000000E+00  0.40272319789E+03  0.40272319789E+03  0.00000000000E+00 0.  1.
          1   -1    0    0  502    0  0.00000000000E+00 -0.00000000000E+00 -0.29819132864E+03  0.29819132864E+03  0.00000000000E+00 0. -1.
          6    1    1    2  502    0 -0.82174840636E+01  0.29612288198E+03 -0.75098638681E+00  0.34255051052E+03  0.17200000000E+03 0.  1.
         -6    1    1    2    0  501  0.82174840636E+01 -0.29612288198E+03  0.10528285564E+03  0.35836401601E+03  0.17200000000E+03 0. -1.
</event>
<event>
 4    1  0.3094855E-002  0.1798506E+03  0.7818608E-02  0.1167948E+00
          2   -1    0    0  502    0  0.00000000000E+00  0.00000000000E+00  0.11844918067E+04  0.11844918067E+04  0.00000000000E+00 0. -1.
         -2   -1    0    0    0  501 -0.00000000000E+00 -0.00000000000E+00 -0.38388654140E+02  0.38388654140E+02  0.00000000000E+00 0.  1.
          6    1    1    2  502    0  0.38913666555E+02  0.35326701968E+02  0.90154965490E+03  0.91931389067E+03  0.17200000000E+03 0. -1.
         -6    1    1    2    0  501 -0.38913666555E+02 -0.35326701968E+02  0.24455349771E+03  0.30356657022E+03  0.17200000000E+03 0.  1.
</event>
<event>
 4    1  0.3094855E-002  0.1921733E+03  0.7818608E-02  0.1156516E+00
          1   -1    0    0  502    0  0.00000000000E+00  0.00000000000E+00  0.13803330952E+04  0.13803330952E+04  0.00000000000E+00 0. -1.
         -1   -1    0    0    0  501 -0.00000000000E+00 -0.00000000000E+00 -0.32413852540E+02  0.32413852540E+02  0.00000000000E+00 0.  1.
          6    1    1    2  502    0  0.80652489657E+02 -0.29013229943E+02  0.96910729909E+03  0.98797750417E+03  0.17200000000E+03 0. -1.
         -6    1    1    2    0  501 -0.80652489657E+02  0.29013229943E+02  0.37881194359E+03  0.42476944359E+03  0.17200000000E+03 0.  1.
</event>
<event>
 4    1  0.3094855E-002  0.3254696E+03  0.7818608E-02  0.1073159E+00
         -2   -1    0    0    0  501 -0.00000000000E+00  0.00000000000E+00  0.54064135858E+02  0.54064135858E+02  0.00000000000E+00 0.  1.
          2   -1    0    0  502    0  0.00000000000E+00 -0.00000000000E+00 -0.19593536808E+04  0.19593536808E+04  0.00000000000E+00 0. -1.
          6    1    1    2  502    0  0.18914093894E+03 -0.20142537566E+03 -0.95098814793E+03  0.10051412509E+04  0.17200000000E+03 0. -1.
         -6    1    1    2    0  501 -0.18914093894E+03  0.20142537566E+03 -0.95430139706E+03  0.10082765658E+04  0.17200000000E+03 0.  1.
</event>
<event>
 4    1  0.3094855E-002  0.3455088E+03  0.7818608E-02  0.1064474E+00
          2   -1    0    0  502    0  0.00000000000E+00  0.00000000000E+00  0.95863618575E+03  0.95863618575E+03  0.00000000000E+00 0. -1.
         -2   -1    0    0    0  501 -0.00000000000E+00 -0.00000000000E+00 -0.41260559274E+03  0.41260559274E+03  0.00000000000E+00 0.  1.
          6    1    1    2  502    0  0.34675059138E+02  0.29764064500E+03  0.84590603629E+03  0.91374686622E+03  0.17200000000E+03 0. -1.
         -6    1    1    2    0  501 -0.34675059138E+02 -0.29764064500E+03 -0.29987544328E+03  0.45749491228E+03  0.17200000000E+03 0.  1.
</event>
<event>
 4    1  0.3094855E-002  0.9478637E+03  0.7818608E-02  0.9367651E-01
          1   -1    0    0  502    0  0.00000000000E+00  0.00000000000E+00  0.66909541276E+03  0.66909541276E+03  0.00000000000E+00 0. -1.
         -1   -1    0    0    0  501 -0.00000000000E+00 -0.00000000000E+00 -0.13640833230E+04  0.13640833230E+04  0.00000000000E+00 0.  1.
          6    1    1    2  502    0  0.64162622260E+03  0.67614896780E+03 -0.22044126687E+03  0.97315979588E+03  0.17200000000E+03 0. -1.
         -6    1    1    2    0  501 -0.64162622260E+03 -0.67614896780E+03 -0.47454664337E+03  0.10600189399E+04  0.17200000000E+03 0.  1.
</event>
<event>
 4    1  0.3094855E-002  0.3163679E+03  0.7818608E-02  0.1077333E+00
         -1   -1    0    0    0  501 -0.00000000000E+00  0.00000000000E+00  0.32845169095E+03  0.32845169095E+03  0.00000000000E+00 0.  1.
          1   -1    0    0  502    0  0.00000000000E+00 -0.00000000000E+00 -0.36797678397E+03  0.36797678397E+03  0.00000000000E+00 0. -1.
          6    1    1    2  502    0  0.36446491083E+02 -0.26301389997E+03  0.12460181207E+03  0.34002098444E+03  0.17200000000E+03 0. -1.
         -6    1    1    2    0  501 -0.36446491083E+02  0.26301389997E+03 -0.16412690510E+03  0.35640749047E+03  0.17200000000E+03 0.  1.
</event>
<event>
 4    1  0.3094855E-002  0.2209075E+03  0.7818608E-02  0.1133208E+00
         -2   -1    0    0    0  501 -0.00000000000E+00  0.00000000000E+00  0.16088182549E+03  0.16088182549E+03  0.00000000000E+00 0.  1.
          2   -1    0    0  502    0  0.00000000000E+00 -0.00000000000E+00 -0.32321411085E+03  0.32321411085E+03  0.00000000000E+00 0. -1.
          6    1    1    2  502    0  0.11472010752E+03 -0.77816455554E+02 -0.14120350604E+03  0.26218034622E+03  0.17200000000E+03 0. -1.
         -6    1    1    2    0  501 -0.11472010752E+03  0.77816455554E+02 -0.21128779317E+02  0.22191559012E+03  0.17200000000E+03 0. -1.
</event>
<event>
 4    1  0.3094855E-002  0.2024041E+03  0.7818608E-02  0.1147726E+00
         -2   -1    0    0    0  501 -0.00000000000E+00  0.00000000000E+00  0.38736006390E+02  0.38736006390E+02  0.00000000000E+00 0.  1.
          2   -1    0    0  502    0  0.00000000000E+00 -0.00000000000E+00 -0.22065766568E+04  0.22065766568E+04  0.00000000000E+00 0. -1.
          6    1    1    2  502    0 -0.86204858145E+02  0.62865973043E+02 -0.18940264381E+04  0.19048106353E+04  0.17200000000E+03 0. -1.
         -6    1    1    2    0  501  0.86204858145E+02 -0.62865973043E+02 -0.27381421232E+03  0.34050202790E+03  0.17200000000E+03 0.  1.
</event>
<event>
 4    1  0.3094855E-002  0.2113634E+03  0.7818608E-02  0.1140491E+00
          2   -1    0    0  502    0  0.00000000000E+00  0.00000000000E+00  0.48958574014E+03  0.48958574014E+03  0.00000000000E+00 0. -1.
         -2   -1    0    0    0  501 -0.00000000000E+00 -0.00000000000E+00 -0.11642236948E+03  0.11642236948E+03  0.00000000000E+00 0.  1.
          6    1    1    2  502    0  0.12200722329E+03  0.14308124738E+02  0.45686536674E+02  0.21624464063E+03  0.17200000000E+03 0.  1.
         -6    1    1    2    0  501 -0.12200722329E+03 -0.14308124738E+02  0.32747683398E+03  0.38976346899E+03  0.17200000000E+03 0. -1.
</event>
<event>
 4    1  0.3094855E-002  0.1866209E+03  0.7818608E-02  0.1161545E+00
          1   -1    0    0  502    0  0.00000000000E+00  0.00000000000E+00  0.51868711248E+02  0.51868711248E+02  0.00000000000E+00 0. -1.
         -1   -1    0    0    0  501 -0.00000000000E+00 -0.00000000000E+00 -0.73104600542E+03  0.73104600542E+03  0.00000000000E+00 0.  1.
          6    1    1    2  502    0  0.20960596430E+02 -0.69310882666E+02 -0.22782161070E+03  0.29449962879E+03  0.17200000000E+03 0. -1.
         -6    1    1    2    0  501 -0.20960596430E+02  0.69310882666E+02 -0.45135568347E+03  0.48841508787E+03  0.17200000000E+03 0.  1.
</event>
<event>
 4    1  0.3094855E-002  0.2798331E+03  0.7818608E-02  0.1095780E+00
         -2   -1    0    0    0  501 -0.00000000000E+00  0.00000000000E+00  0.11246197170E+03  0.11246197170E+03  0.00000000000E+00 0.  1.
          2   -1    0    0  502    0  0.00000000000E+00 -0.00000000000E+00 -0.92021604574E+03  0.92021604574E+03  0.00000000000E+00 0. -1.
          6    1    1    2  502    0  0.79106011617E+02  0.20606987346E+03 -0.65858283265E+03  0.71556823664E+03  0.17200000000E+03 0. -1.
         -6    1    1    2    0  501 -0.79106011617E+02 -0.20606987346E+03 -0.14917124138E+03  0.31710978080E+03  0.17200000000E+03 0.  1.
</event>
<event>
 4    1  0.3094855E-002  0.1906435E+03  0.7818608E-02  0.1157882E+00
          1   -1    0    0  502    0  0.00000000000E+00  0.00000000000E+00  0.14770553996E+03  0.14770553996E+03  0.00000000000E+00 0. -1.
         -1   -1    0    0    0  501 -0.00000000000E+00 -0.00000000000E+00 -0.26043730712E+03  0.26043730712E+03  0.00000000000E+00 0.  1.
          6    1    1    2  502    0  0.79697840771E+02  0.20228960716E+02 -0.84240086009E+01  0.19082955902E+03  0.17200000000E+03 0.  1.
         -6    1    1    2    0  501 -0.79697840771E+02 -0.20228960716E+02 -0.10430775856E+03  0.21731328807E+03  0.17200000000E+03 0.  1.
</event>
<event>
 4    1  0.3094855E-002  0.2001010E+03  0.7818608E-02  0.1149654E+00
          1   -1    0    0  502    0  0.00000000000E+00  0.00000000000E+00  0.44009334429E+02  0.44009334429E+02  0.00000000000E+00 0. -1.
         -1   -1    0    0    0  501 -0.00000000000E+00 -0.00000000000E+00 -0.11203771572E+04  0.11203771572E+04  0.00000000000E+00 0.  1.
          6    1    1    2  502    0 -0.93347694602E+02 -0.41744773804E+02 -0.28579302852E+03  0.34888117372E+03  0.17200000000E+03 0. -1.
         -6    1    1    2    0  501  0.93347694602E+02  0.41744773804E+02 -0.79057479423E+03  0.81550531788E+03  0.17200000000E+03 0.  1.
</event>
<event>
 4    1  0.3094855E-002  0.2260516E+03  0.7818608E-02  0.1129450E+00
         -1   -1    0    0    0  501 -0.00000000000E+00  0.00000000000E+00  0.20802910326E+02  0.20802910326E+02  0.00000000000E+00 0.  1.
          1   -1    0    0  502    0  0.00000000000E+00 -0.00000000000E+00 -0.28909527602E+04  0.28909527602E+04  0.00000000000E+00 0. -1.
          6    1    1    2  502    0 -0.37823662823E+02  0.14172047297E+03 -0.19995547697E+04  0.20122918771E+04  0.17200000000E+03 0. -1.
         -6    1    1    2    0  501  0.37823662823E+02 -0.14172047297E+03 -0.87059508027E+03  0.89946379345E+03  0.17200000000E+03 0.  1.
</event>
<event>
 4    1  0.3094855E-002  0.2874869E+03  0.7818608E-02  0.1091669E+00
          2   -1    0    0  502    0  0.00000000000E+00  0.00000000000E+00  0.10367982399E+04  0.10367982399E+04  0.00000000000E+00 0. -1.
         -2   -1    0    0    0  501 -0.00000000000E+00 -0.00000000000E+00 -0.82397446516E+02  0.82397446516E+02  0.00000000000E+00 0.  1.
          6    1    1    2  502    0 -0.10066771671E+03 -0.20719732739E+03  0.57816226176E+03  0.64569367550E+03  0.17200000000E+03 0. -1.
         -6    1    1    2    0  501  0.10066771671E+03  0.20719732739E+03  0.37623853167E+03  0.47350201095E+03  0.17200000000E+03 0.  1.
</event>
<event>
 4    1  0.3094855E-002  0.1820239E+03  0.7818608E-02  0.1165859E+00
          1   -1    0    0  502    0  0.00000000000E+00  0.00000000000E+00  0.90064612518E+03  0.90064612518E+03  0.00000000000E+00 0. -1.
         -1   -1    0    0    0  501 -0.00000000000E+00 -0.00000000000E+00 -0.36819936651E+02  0.36819936651E+02  0.00000000000E+00 0.  1.
          6    1    1    2  502    0  0.59567914907E+02 -0.61399077627E+00  0.44577918954E+03  0.48150991609E+03  0.17200000000E+03 0.  1.
         -6    1    1    2    0  501 -0.59567914907E+02  0.61399077627E+00  0.41804699900E+03  0.45595614574E+03  0.17200000000E+03 0.  1.
</event>
<event>
 4    1  0.3094855E-002  0.2786350E+03  0.7818608E-02  0.1096437E+00
          2   -1    0    0  502    0  0.00000000000E+00  0.00000000000E+00  0.95765368561E+03  0.95765368561E+03  0.00000000000E+00 0. -1.
         -2   -1    0    0    0  501 -0.00000000000E+00 -0.00000000000E+00 -0.83313647989E+02  0.83313647989E+02  0.00000000000E+00 0.  1.
          6    1    1    2  502    0 -0.17412748282E+03  0.13316559292E+03  0.52257412906E+03  0.59221716944E+03  0.17200000000E+03 0. -1.
         -6    1    1    2    0  501  0.17412748282E+03 -0.13316559292E+03  0.35176590856E+03  0.44875016416E+03  0.17200000000E+03 0.  1.
</event>
<event>
 4    1  0.3094855E-002  0.2177198E+03  0.7818608E-02  0.1135594E+00
          1   -1    0    0  502    0  0.00000000000E+00  0.00000000000E+00  0.16890995599E+03  0.16890995599E+03  0.00000000000E+00 0. -1.
         -1   -1    0    0    0  501 -0.00000000000E+00 -0.00000000000E+00 -0.29621240382E+03  0.29621240382E+03  0.00000000000E+00 0.  1.
          6    1    1    2  502    0  0.12410181798E+03  0.49159626618E+02 -0.10318635344E+02  0.21796422723E+03  0.17200000000E+03 0.  1.
         -6    1    1    2    0  501 -0.12410181798E+03 -0.49159626618E+02 -0.11698381249E+03  0.24715813258E+03  0.17200000000E+03 0.  1.
</event>
<event>
 4    1  0.3094855E-002  0.2303989E+03  0.7818608E-02  0.1126359E+00
         -3   -1    0    0    0  501 -0.00000000000E+00  0.00000000000E+00  0.38089041836E+03  0.38089041836E+03  0.00000000000E+00 0.  1.
          3   -1    0    0  502    0  0.00000000000E+00 -0.00000000000E+00 -0.31367971896E+03  0.31367971896E+03  0.00000000000E+00 0. -1.
          6    1    1    2  502    0 -0.15143849196E+03  0.23791081682E+02  0.29249052180E+03  0.37233632345E+03  0.17200000000E+03 0.  1.
         -6    1    1    2    0  501  0.15143849196E+03 -0.23791081682E+02 -0.22527982240E+03  0.32223381386E+03  0.17200000000E+03 0.  1.
</event>
<event>
 4    1  0.3094855E-002  0.2136048E+03  0.7818608E-02  0.1138743E+00
          2   -1    0    0  502    0  0.00000000000E+00  0.00000000000E+00  0.18004674438E+04  0.18004674438E+04  0.00000000000E+00 0. -1.
         -2   -1    0    0    0  501 -0.00000000000E+00 -0.00000000000E+00 -0.32948908696E+02  0.32948908696E+02  0.00000000000E+00 0.  1.
          6    1    1    2  502    0 -0.12665966019E+03  0.58357503375E+00  0.13242346081E+04  0.13413516718E+04  0.17200000000E+03 0.  1.
         -6    1    1    2    0  501  0.12665966019E+03 -0.58357503375E+00  0.44328392703E+03  0.49206468075E+03  0.17200000000E+03 0.  1.
</event>
<event>
 4    1  0.3094855E-002  0.1846304E+03  0.7818608E-02  0.1163395E+00
         -2   -1    0    0    0  501 -0.00000000000E+00  0.00000000000E+00  0.73624626442E+02  0.73624626442E+02  0.00000000000E+00 0.  1.
          2   -1    0    0  502    0  0.00000000000E+00 -0.00000000000E+00 -0.47660398604E+03  0.47660398604E+03  0.00000000000E+00 0. -1.
          6    1    1    2  502    0  0.62754732595E+02 -0.23795808898E+02 -0.24796529642E+03  0.30915236569E+03  0.17200000000E+03 0. -1.
         -6    1    1    2    0  501 -0.62754732595E+02  0.23795808898E+02 -0.15501406318E+03  0.24107624679E+03  0.17200000000E+03 0.  1.
</event>
<event>
 4    1  0.3094855E-002  0.2382265E+03  0.7818608E-02  0.1120980E+00
          2   -1    0    0  502    0  0.00000000000E+00  0.00000000000E+00  0.15238400087E+04  0.15238400087E+04  0.00000000000E+00 0. -1.
         -2   -1    0    0    0  501 -0.00000000000E+00 -0.00000000000E+00 -0.37442610268E+02  0.37442610268E+02  0.00000000000E+00 0.  1.
          6    1    1    2  502    0 -0.72309920119E+02  0.14811867773E+03  0.68615325284E+03  0.72633198582E+03  0.17200000000E+03 0.  1.
         -6    1    1    2    0  501  0.72309920119E+02 -0.14811867773E+03  0.80024414557E+03  0.83495063312E+03  0.17200000000E+03 0.  1.
</event>
<event>
 4    1  0.3094855E-002  0.3763945E+03  0.7818608E-02  0.1052274E+00
          2   -1    0    0  502    0  0.00000000000E+00  0.00000000000E+00  0.74018066831E+03  0.74018066831E+03  0.00000000000E+00 0. -1.
         -2   -1    0    0    0  501 -0.00000000000E+00 -0.00000000000E+00 -0.21453891872E+03  0.21453891872E+03  0.00000000000E+00 0.  1.
          6    1    1    2  502    0 -0.26346825007E+03  0.20657525930E+03  0.10606080186E+03  0.39105210681E+03  0.17200000000E+03 0. -1.
         -6    1    1    2    0  501  0.26346825007E+03 -0.20657525930E+03  0.41958094773E+03  0.56366748021E+03  0.17200000000E+03 0.  1.
</event>
<event>
 4    1  0.3094855E-002  0.1946060E+03  0.7818608E-02  0.1154371E+00
         -1   -1    0    0    0  501 -0.00000000000E+00  0.00000000000E+00  0.11774273787E+03  0.11774273787E+03  0.00000000000E+00 0.  1.
          1   -1    0    0  502    0  0.00000000000E+00 -0.00000000000E+00 -0.43803532190E+03  0.43803532190E+03  0.00000000000E+00 0. -1.
          6    1    1    2  502    0 -0.85927239155E+02  0.30066622941E+02 -0.30338923067E+03  0.36043933960E+03  0.17200000000E+03 0. -1.
         -6    1    1    2    0  501  0.85927239155E+02 -0.30066622941E+02 -0.16903353353E+02  0.19533872017E+03  0.17200000000E+03 0.  1.
</event>
<event>
 4    1  0.3094855E-002  0.1962977E+03  0.7818608E-02  0.1152901E+00
         -2   -1    0    0    0  501 -0.00000000000E+00  0.00000000000E+00  0.10136623253E+04  0.10136623253E+04  0.00000000000E+00 0.  1.
          2   -1    0    0  502    0  0.00000000000E+00 -0.00000000000E+00 -0.15814295442E+03  0.15814295442E+03  0.00000000000E+00 0. -1.
          6    1    1    2  502    0 -0.35162886493E+02 -0.87819981358E+02 -0.82892761177E+02  0.21308211461E+03  0.17200000000E+03 0. -1.
         -6    1    1    2    0  501  0.35162886493E+02  0.87819981358E+02  0.93841213203E+03  0.95872316507E+03  0.17200000000E+03 0.  1.
</event>
<event>
 4    1  0.3094855E-002  0.1998192E+03  0.7818608E-02  0.1149892E+00
          1   -1    0    0  502    0  0.00000000000E+00  0.00000000000E+00  0.55448501630E+03  0.55448501630E+03  0.00000000000E+00 0. -1.
         -1   -1    0    0    0  501 -0.00000000000E+00 -0.00000000000E+00 -0.21423125337E+03  0.21423125337E+03  0.00000000000E+00 0.  1.
          6    1    1    2  502    0 -0.94715527372E+02  0.37049929127E+02  0.48329601081E+03  0.52297491569E+03  0.17200000000E+03 0. -1.
         -6    1    1    2    0  501  0.94715527372E+02 -0.37049929127E+02 -0.14304224788E+03  0.24574135397E+03  0.17200000000E+03 0.  1.
</event>
<event>
 4    1  0.3094855E-002  0.1928267E+03  0.7818608E-02  0.1155936E+00
          2   -1    0    0  502    0  0.00000000000E+00  0.00000000000E+00  0.67648939090E+03  0.67648939090E+03  0.00000000000E+00 0. -1.
         -2   -1    0    0    0  501 -0.00000000000E+00 -0.00000000000E+00 -0.12955569934E+03  0.12955569934E+03  0.00000000000E+00 0.  1.
          6    1    1    2  502    0  0.69319514243E+02  0.52848452281E+02  0.57927431606E+03  0.61052509138E+03  0.17200000000E+03 0. -1.
         -6    1    1    2    0  501 -0.69319514243E+02 -0.52848452281E+02 -0.32340624498E+02  0.19551999887E+03  0.17200000000E+03 0.  1.
</event>
<event>
 4    1  0.3094855E-002  0.1835017E+03  0.7818608E-02  0.1164456E+00
          1   -1    0    0  502    0  0.00000000000E+00  0.00000000000E+00  0.30003909774E+03  0.30003909774E+03  0.00000000000E+00 0. -1.
         -1   -1    0    0    0  501 -0.00000000000E+00 -0.00000000000E+00 -0.12055468909E+03  0.12055468909E+03  0.00000000000E+00 0.  1.
          6    1    1    2  502    0  0.65958945590E+01  0.63603289795E+02  0.14500954855E+03  0.23388170828E+03  0.17200000000E+03 0. -1.
         -6    1    1    2    0  501 -0.65958945590E+01 -0.63603289795E+02  0.34474860099E+02  0.18671207855E+03  0.17200000000E+03 0.  1.
</event>
<event>
 4    1  0.3094855E-002  0.2673041E+03  0.7818608E-02  0.1102833E+00
         -1   -1    0    0    0  501 -0.00000000000E+00  0.00000000000E+00  0.60607160414E+03  0.60607160414E+03  0.00000000000E+00 0.  1.
          1   -1    0    0  502    0  0.00000000000E+00 -0.00000000000E+00 -0.13293377426E+03  0.13293377426E+03  0.00000000000E+00 0. -1.
          6    1    1    2  502    0 -0.49221910382E+02 -0.19860689042E+03  0.11227852139E+03  0.28992750775E+03  0.17200000000E+03 0. -1.
         -6    1    1    2    0  501  0.49221910382E+02  0.19860689042E+03  0.36085930849E+03  0.44907787065E+03  0.17200000000E+03 0.  1.
</event>
<event>
 4    1  0.3094855E-002  0.2003130E+03  0.7818608E-02  0.1149475E+00
         -1   -1    0    0    0  501 -0.00000000000E+00  0.00000000000E+00  0.36808609358E+02  0.36808609358E+02  0.00000000000E+00 0.  1.
          1   -1    0    0  502    0  0.00000000000E+00 -0.00000000000E+00 -0.16115129056E+04  0.16115129056E+04  0.00000000000E+00 0. -1.
          6    1    1    2  502    0 -0.10234859744E+03  0.81285285116E+01 -0.12561473661E+04  0.12720186767E+04  0.17200000000E+03 0. -1.
         -6    1    1    2    0  501  0.10234859744E+03 -0.81285285116E+01 -0.31855693008E+03  0.37630283825E+03  0.17200000000E+03 0.  1.
</event>
<event>
 4    1  0.3094855E-002  0.1966764E+03  0.7818608E-02  0.1152574E+00
         -3   -1    0    0    0  501 -0.00000000000E+00  0.00000000000E+00  0.13796459636E+03  0.13796459636E+03  0.00000000000E+00 0.  1.
          3   -1    0    0  502    0  0.00000000000E+00 -0.00000000000E+00 -0.58462647826E+03  0.58462647826E+03  0.00000000000E+00 0. -1.
          6    1    1    2  502    0 -0.78756500516E+02 -0.53805302108E+02  0.37308945918E+02  0.20018380143E+03  0.17200000000E+03 0.  1.
         -6    1    1    2    0  501  0.78756500516E+02  0.53805302108E+02 -0.48397082781E+03  0.52240727319E+03  0.17200000000E+03 0. -1.
</event>
<event>
 4    1  0.3094855E-002  0.2893756E+03  0.7818608E-02  0.1090676E+00
         -1   -1    0    0    0  501 -0.00000000000E+00  0.00000000000E+00  0.40005453762E+03  0.40005453762E+03  0.00000000000E+00 0.  1.
          1   -1    0    0  502    0  0.00000000000E+00 -0.00000000000E+00 -0.21800174192E+03  0.21800174192E+03  0.00000000000E+00 0. -1.
          6    1    1    2  502    0 -0.77837773635E+02 -0.21930695069E+03  0.29346466618E+02  0.29085988505E+03  0.17200000000E+03 0. -1.
         -6    1    1    2    0  501  0.77837773635E+02  0.21930695069E+03  0.15270632908E+03  0.32719639449E+03  0.17200000000E+03 0.  1.
</event>
<event>
 4    1  0.3094855E-002  0.2199819E+03  0.7818608E-02  0.1133897E+00
          1   -1    0    0  502    0  0.00000000000E+00  0.00000000000E+00  0.61445521091E+03  0.61445521091E+03  0.00000000000E+00 0. -1.
         -1   -1    0    0    0  501 -0.00000000000E+00 -0.00000000000E+00 -0.10082717219E+03  0.10082717219E+03  0.00000000000E+00 0.  1.
          6    1    1    2  502    0 -0.38608396034E+00  0.13714190103E+03  0.42414300991E+03  0.47779634043E+03  0.17200000000E+03 0. -1.
         -6    1    1    2    0  501  0.38608396034E+00 -0.13714190103E+03  0.89485028820E+02  0.23748604267E+03  0.17200000000E+03 0.  1.
</event>
<event>
 4    1  0.3094855E-002  0.2026299E+03  0.7818608E-02  0.1147539E+00
          2   -1    0    0  502    0  0.00000000000E+00  0.00000000000E+00  0.15102904938E+04  0.15102904938E+04  0.00000000000E+00 0. -1.
         -2   -1    0    0    0  501 -0.00000000000E+00 -0.00000000000E+00 -0.31716873371E+02  0.31716873371E+02  0.00000000000E+00 0.  1.
          6    1    1    2  502    0 -0.10199144381E+03  0.32750907927E+02  0.10306927824E+04  0.10504220524E+04  0.17200000000E+03 0. -1.
         -6    1    1    2    0  501  0.10199144381E+03 -0.32750907927E+02  0.44788083807E+03  0.49158531476E+03  0.17200000000E+03 0.  1.
</event>
<event>
 4    1  0.3094855E-002  0.5076786E+03  0.7818608E-02  0.1011794E+00
         -1   -1    0    0    0  501 -0.00000000000E+00  0.00000000000E+00  0.67800287974E+03  0.67800287974E+03  0.00000000000E+00 0.  1.
          1   -1    0    0  502    0  0.00000000000E+00 -0.00000000000E+00 -0.42145969790E+03  0.42145969790E+03  0.00000000000E+00 0. -1.
          6    1    1    2  502    0 -0.47306595376E+03  0.66046624896E+02 -0.43851475024E+02  0.50956894051E+03  0.17200000000E+03 0. -1.
         -6    1    1    2    0  501  0.47306595376E+03 -0.66046624896E+02  0.30039465686E+03  0.58989363714E+03  0.17200000000E+03 0.  1.
</event>
<event>
 4    1  0.3094855E-002  0.3211981E+03  0.7818608E-02  0.1075099E+00
         -1   -1    0    0    0  501 -0.00000000000E+00  0.00000000000E+00  0.10324932672E+04  0.10324932672E+04  0.00000000000E+00 0.  1.
          1   -1    0    0  502    0  0.00000000000E+00 -0.00000000000E+00 -0.11268007028E+03  0.11268007028E+03  0.00000000000E+00 0. -1.
          6    1    1    2  502    0 -0.10714201587E+03  0.24920836413E+03  0.26723415693E+03  0.41783048590E+03  0.17200000000E+03 0. -1.
         -6    1    1    2    0  501  0.10714201587E+03 -0.24920836413E+03  0.65257903996E+03  0.72734285156E+03  0.17200000000E+03 0.  1.
</event>
<event>
 4    1  0.3094855E-002  0.2437668E+03  0.7818608E-02  0.1117309E+00
         -2   -1    0    0    0  501 -0.00000000000E+00  0.00000000000E+00  0.14714798763E+03  0.14714798763E+03  0.00000000000E+00 0.  1.
          2   -1    0    0  502    0  0.00000000000E+00 -0.00000000000E+00 -0.84096620337E+03  0.84096620337E+03  0.00000000000E+00 0. -1.
          6    1    1    2  502    0 -0.13962873009E+03 -0.10169603651E+03 -0.70311242933E+03  0.74417024556E+03  0.17200000000E+03 0. -1.
         -6    1    1    2    0  501  0.13962873009E+03  0.10169603651E+03  0.92942135822E+01  0.24394394543E+03  0.17200000000E+03 0.  1.
</event>
<event>
 4    1  0.3094855E-002  0.3432841E+03  0.7818608E-02  0.1065406E+00
          1   -1    0    0  502    0  0.00000000000E+00  0.00000000000E+00  0.14634432706E+04  0.14634432706E+04  0.00000000000E+00 0. -1.
         -1   -1    0    0    0  501 -0.00000000000E+00 -0.00000000000E+00 -0.13688649944E+03  0.13688649944E+03  0.00000000000E+00 0.  1.
          6    1    1    2  502    0  0.46301184864E+02  0.29345559938E+03  0.11767185894E+04  0.12257694021E+04  0.17200000000E+03 0. -1.
         -6    1    1    2    0  501 -0.46301184864E+02 -0.29345559938E+03  0.14983818181E+03  0.37456036797E+03  0.17200000000E+03 0.  1.
</event>
<event>
 4    1  0.3094855E-002  0.2262624E+03  0.7818608E-02  0.1129298E+00
          1   -1    0    0  502    0  0.00000000000E+00  0.00000000000E+00  0.28132919781E+03  0.28132919781E+03  0.00000000000E+00 0. -1.
         -1   -1    0    0    0  501 -0.00000000000E+00 -0.00000000000E+00 -0.20729010702E+03  0.20729010702E+03  0.00000000000E+00 0.  1.
          6    1    1    2  502    0  0.14650579709E+03 -0.12113869974E+02 -0.48358636707E+02  0.23137253979E+03  0.17200000000E+03 0. -1.
         -6    1    1    2    0  501 -0.14650579709E+03  0.12113869974E+02  0.12239772750E+03  0.25724676504E+03  0.17200000000E+03 0.  1.
</event>
<event>
 4    1  0.3094855E-002  0.1881720E+03  0.7818608E-02  0.1160120E+00
          2   -1    0    0  502    0  0.00000000000E+00  0.00000000000E+00  0.29072569785E+04  0.29072569785E+04  0.00000000000E+00 0. -1.
         -2   -1    0    0    0  501 -0.00000000000E+00 -0.00000000000E+00 -0.64171771744E+02  0.64171771744E+02  0.00000000000E+00 0.  1.
          6    1    1    2  502    0 -0.13534820056E+02  0.75110110629E+02  0.27588554545E+04  0.27652652927E+04  0.17200000000E+03 0. -1.
         -6    1    1    2    0  501  0.13534820056E+02 -0.75110110629E+02  0.84229752267E+02  0.20616345758E+03  0.17200000000E+03 0.  1.
</event>
<event>
 4    1  0.3094855E-002  0.1761045E+03  0.7818608E-02  0.1171627E+00
          2   -1    0    0  502    0  0.00000000000E+00  0.00000000000E+00  0.20719464324E+03  0.20719464324E+03  0.00000000000E+00 0. -1.
         -2   -1    0    0    0  501 -0.00000000000E+00 -0.00000000000E+00 -0.16246531214E+03  0.16246531214E+03  0.00000000000E+00 0.  1.
          6    1    1    2  502    0 -0.21428725470E+01 -0.37738391656E+02 -0.29486350402E+02  0.17855593792E+03  0.17200000000E+03 0.  1.
         -6    1    1    2    0  501  0.21428725470E+01  0.37738391656E+02  0.74215681495E+02  0.19110401745E+03  0.17200000000E+03 0. -1.
</event>
<event>
 4    1  0.3094855E-002  0.3171941E+03  0.7818608E-02  0.1076948E+00
          2   -1    0    0  502    0  0.00000000000E+00  0.00000000000E+00  0.40732162107E+03  0.40732162107E+03  0.00000000000E+00 0. -1.
         -2   -1    0    0    0  501 -0.00000000000E+00 -0.00000000000E+00 -0.24850758169E+03  0.24850758169E+03  0.00000000000E+00 0.  1.
          6    1    1    2  502    0 -0.26490922127E+03  0.29175251563E+02  0.10487160762E+03  0.33408104541E+03  0.17200000000E+03 0. -1.
         -6    1    1    2    0  501  0.26490922127E+03 -0.29175251563E+02  0.53942431758E+02  0.32174815735E+03  0.17200000000E+03 0.  1.
</event>
<event>
 4    1  0.3094855E-002  0.1996499E+03  0.7818608E-02  0.1150035E+00
          4   -1    0    0  502    0  0.00000000000E+00  0.00000000000E+00  0.50655329817E+02  0.50655329817E+02  0.00000000000E+00 0. -1.
         -4   -1    0    0    0  501 -0.00000000000E+00 -0.00000000000E+00 -0.98932723124E+03  0.98932723124E+03  0.00000000000E+00 0.  1.
          6    1    1    2  502    0 -0.95032481251E+02 -0.35283343424E+02 -0.23411657769E+03  0.30768597428E+03  0.17200000000E+03 0. -1.
         -6    1    1    2    0  501  0.95032481251E+02  0.35283343424E+02 -0.70455532373E+03  0.73229658678E+03  0.17200000000E+03 0.  1.
</event>
<event>
 4    1  0.3094855E-002  0.2764897E+03  0.7818608E-02  0.1097622E+00
          1   -1    0    0  502    0  0.00000000000E+00  0.00000000000E+00  0.14455610839E+03  0.14455610839E+03  0.00000000000E+00 0. -1.
         -1   -1    0    0    0  501 -0.00000000000E+00 -0.00000000000E+00 -0.53297522786E+03  0.53297522786E+03  0.00000000000E+00 0.  1.
          6    1    1    2  502    0 -0.17115810965E+03  0.13254219310E+03 -0.16435678211E+03  0.32165149351E+03  0.17200000000E+03 0. -1.
         -6    1    1    2    0  501  0.17115810965E+03 -0.13254219310E+03 -0.22406233735E+03  0.35587984274E+03  0.17200000000E+03 0.  1.
</event>
<event>
 4    1  0.3094855E-002  0.5112174E+03  0.7818608E-02  0.1010892E+00
          2   -1    0    0  502    0  0.00000000000E+00  0.00000000000E+00  0.13319569620E+04  0.13319569620E+04  0.00000000000E+00 0. -1.
         -2   -1    0    0    0  501 -0.00000000000E+00 -0.00000000000E+00 -0.21778561099E+03  0.21778561099E+03  0.00000000000E+00 0.  1.
          6    1    1    2  502    0 -0.46667726513E+03  0.11820119716E+03  0.80097744990E+03  0.95021474838E+03  0.17200000000E+03 0. -1.
         -6    1    1    2    0  501  0.46667726513E+03 -0.11820119716E+03  0.31319390113E+03  0.59952782463E+03  0.17200000000E+03 0.  1.
</event>
<event>
 4    1  0.3094855E-002  0.1945355E+03  0.7818608E-02  0.1154433E+00
          2   -1    0    0  502    0  0.00000000000E+00  0.00000000000E+00  0.13129466198E+04  0.13129466198E+04  0.00000000000E+00 0. -1.
         -2   -1    0    0    0  501 -0.00000000000E+00 -0.00000000000E+00 -0.30546717518E+02  0.30546717518E+02  0.00000000000E+00 0.  1.
          6    1    1    2  502    0  0.56405905635E+02 -0.71263017447E+02  0.48166276951E+03  0.51946421183E+03  0.17200000000E+03 0.  1.
         -6    1    1    2    0  501 -0.56405905635E+02  0.71263017447E+02  0.80073713281E+03  0.82402912553E+03  0.17200000000E+03 0. -1.
</event>
<event>
 4    1  0.3094855E-002  0.3227085E+03  0.7818608E-02  0.1074409E+00
         -1   -1    0    0    0  501 -0.00000000000E+00  0.00000000000E+00  0.10797662054E+03  0.10797662054E+03  0.00000000000E+00 0.  1.
          1   -1    0    0  502    0  0.00000000000E+00 -0.00000000000E+00 -0.17038651299E+04  0.17038651299E+04  0.00000000000E+00 0. -1.
          6    1    1    2  502    0 -0.62719355034E+01  0.27297885092E+03 -0.13947175457E+04  0.14315648161E+04  0.17200000000E+03 0. -1.
         -6    1    1    2    0  501  0.62719355034E+01 -0.27297885092E+03 -0.20117096366E+03  0.38027693441E+03  0.17200000000E+03 0.  1.
</event>
<event>
 4    1  0.3094855E-002  0.2024248E+03  0.7818608E-02  0.1147709E+00
          1   -1    0    0  502    0  0.00000000000E+00  0.00000000000E+00  0.33538410659E+03  0.33538410659E+03  0.00000000000E+00 0. -1.
         -1   -1    0    0    0  501 -0.00000000000E+00 -0.00000000000E+00 -0.45895963014E+03  0.45895963014E+03  0.00000000000E+00 0.  1.
          6    1    1    2  502    0 -0.10388781228E+03 -0.24476568328E+02  0.27843779406E+03  0.34424320632E+03  0.17200000000E+03 0. -1.
         -6    1    1    2    0  501  0.10388781228E+03  0.24476568328E+02 -0.40201331761E+03  0.45010053040E+03  0.17200000000E+03 0.  1.
</event>
<event>
 4    1  0.3094855E-002  0.2761657E+03  0.7818608E-02  0.1097802E+00
          2   -1    0    0  502    0  0.00000000000E+00  0.00000000000E+00  0.38117883585E+03  0.38117883585E+03  0.00000000000E+00 0. -1.
         -2   -1    0    0    0  501 -0.00000000000E+00 -0.00000000000E+00 -0.28139682042E+03  0.28139682042E+03  0.00000000000E+00 0.  1.
          6    1    1    2  502    0  0.53468032072E+02  0.20934344003E+03 -0.12819400025E+03  0.30446873080E+03  0.17200000000E+03 0. -1.
         -6    1    1    2    0  501 -0.53468032072E+02 -0.20934344003E+03  0.22797601568E+03  0.35810692546E+03  0.17200000000E+03 0. -1.
</event>
<event>
 4    1  0.3094855E-002  0.1814854E+03  0.7818608E-02  0.1166373E+00
         -3   -1    0    0    0  501 -0.00000000000E+00  0.00000000000E+00  0.39916000803E+03  0.39916000803E+03  0.00000000000E+00 0.  1.
          3   -1    0    0  502    0  0.00000000000E+00 -0.00000000000E+00 -0.13835708781E+03  0.13835708781E+03  0.00000000000E+00 0. -1.
          6    1    1    2  502    0  0.50411946395E+02 -0.28488501441E+02 -0.40340303682E+02  0.18591476314E+03  0.17200000000E+03 0. -1.
         -6    1    1    2    0  501 -0.50411946395E+02  0.28488501441E+02  0.30114322390E+03  0.35160233269E+03  0.17200000000E+03 0.  1.
</event>
<event>
 4    1  0.3094855E-002  0.2872280E+03  0.7818608E-02  0.1091805E+00
         -1   -1    0    0    0  501 -0.00000000000E+00  0.00000000000E+00  0.62206899009E+02  0.62206899009E+02  0.00000000000E+00 0.  1.
          1   -1    0    0  502    0  0.00000000000E+00 -0.00000000000E+00 -0.13273682670E+04  0.13273682670E+04  0.00000000000E+00 0. -1.
          6    1    1    2  502    0 -0.22766731180E+03 -0.32917170477E+02 -0.65302850518E+03  0.71340463522E+03  0.17200000000E+03 0. -1.
         -6    1    1    2    0  501  0.22766731180E+03  0.32917170477E+02 -0.61213286283E+03  0.67617053081E+03  0.17200000000E+03 0.  1.
</event>
<event>
 4    1  0.3094855E-002  0.9624735E+03  0.7818608E-02  0.9350689E-01
          2   -1    0    0  502    0  0.00000000000E+00  0.00000000000E+00  0.90737904941E+03  0.90737904941E+03  0.00000000000E+00 0. -1.
         -2   -1    0    0    0  501 -0.00000000000E+00 -0.00000000000E+00 -0.10326619156E+04  0.10326619156E+04  0.00000000000E+00 0.  1.
          6    1    1    2  502    0 -0.21834484867E+03  0.92146450940E+03  0.40824093653E+02  0.96333894433E+03  0.17200000000E+03 0. -1.
         -6    1    1    2    0  501  0.21834484867E+03 -0.92146450940E+03 -0.16610695981E+03  0.97670202064E+03  0.17200000000E+03 0.  1.
</event>
<event>
 4    1  0.3094855E-002  0.2582436E+03  0.7818608E-02  0.1108203E+00
          2   -1    0    0  502    0  0.00000000000E+00  0.00000000000E+00  0.44928830835E+03  0.44928830835E+03  0.00000000000E+00 0. -1.
         -2   -1    0    0    0  501 -0.00000000000E+00 -0.00000000000E+00 -0.21577139524E+03  0.21577139524E+03  0.00000000000E+00 0.  1.
          6    1    1    2  502    0 -0.80099933139E+02 -0.17518491958E+03  0.30252229719E+03  0.39775557273E+03  0.17200000000E+03 0. -1.
         -6    1    1    2    0  501  0.80099933139E+02  0.17518491958E+03 -0.69005384084E+02  0.26730413085E+03  0.17200000000E+03 0.  1.
</event>
<event>
 4    1  0.3094855E-002  0.1727542E+03  0.7818608E-02  0.1175006E+00
          2   -1    0    0  502    0  0.00000000000E+00  0.00000000000E+00  0.91688000462E+03  0.91688000462E+03  0.00000000000E+00 0. -1.
         -2   -1    0    0    0  501 -0.00000000000E+00 -0.00000000000E+00 -0.45441314772E+02  0.45441314772E+02  0.00000000000E+00 0.  1.
          6    1    1    2  502    0  0.12952999476E+02 -0.96039740761E+01  0.69200313031E+03  0.71324073697E+03  0.17200000000E+03 0. -1.
         -6    1    1    2    0  501 -0.12952999476E+02  0.96039740761E+01  0.17943555954E+03  0.24908058242E+03  0.17200000000E+03 0.  1.
</event>
<event>
 4    1  0.3094855E-002  0.1828972E+03  0.7818608E-02  0.1165028E+00
          2   -1    0    0  502    0  0.00000000000E+00  0.00000000000E+00  0.99767148164E+03  0.99767148164E+03  0.00000000000E+00 0. -1.
         -2   -1    0    0    0  501 -0.00000000000E+00 -0.00000000000E+00 -0.34230122985E+02  0.34230122985E+02  0.00000000000E+00 0.  1.
          6    1    1    2  502    0  0.42897408398E+02  0.45024254898E+02  0.55553884788E+03  0.58487159503E+03  0.17200000000E+03 0. -1.
         -6    1    1    2    0  501 -0.42897408398E+02 -0.45024254898E+02  0.40790251078E+03  0.44703000959E+03  0.17200000000E+03 0.  1.
</event>
<event>
 4    1  0.3094855E-002  0.2126852E+03  0.7818608E-02  0.1139457E+00
         -2   -1    0    0    0  501 -0.00000000000E+00  0.00000000000E+00  0.42503382645E+03  0.42503382645E+03  0.00000000000E+00 0.  1.
          2   -1    0    0  502    0  0.00000000000E+00 -0.00000000000E+00 -0.11679182803E+03  0.11679182803E+03  0.00000000000E+00 0. -1.
          6    1    1    2  502    0 -0.88398904143E+00 -0.12510084324E+03  0.73414600042E+02  0.22499934648E+03  0.17200000000E+03 0. -1.
         -6    1    1    2    0  501  0.88398904143E+00  0.12510084324E+03  0.23482739838E+03  0.31682630801E+03  0.17200000000E+03 0.  1.
</event>
<event>
 4    1  0.3094855E-002  0.1958729E+03  0.7818608E-02  0.1153268E+00
         -1   -1    0    0    0  501 -0.00000000000E+00  0.00000000000E+00  0.65669006248E+03  0.65669006248E+03  0.00000000000E+00 0.  1.
          1   -1    0    0  502    0  0.00000000000E+00 -0.00000000000E+00 -0.58557576622E+02  0.58557576622E+02  0.00000000000E+00 0. -1.
          6    1    1    2  502    0 -0.52601701985E+02  0.77558113570E+02  0.31617203683E+03  0.37192869869E+03  0.17200000000E+03 0.  1.
         -6    1    1    2    0  501  0.52601701985E+02 -0.77558113570E+02  0.28196044902E+03  0.34331894041E+03  0.17200000000E+03 0. -1.
</event>
<event>
 4    1  0.3094855E-002  0.1728944E+03  0.7818608E-02  0.1174863E+00
         -2   -1    0    0    0  501 -0.00000000000E+00  0.00000000000E+00  0.49697705836E+02  0.49697705836E+02  0.00000000000E+00 0.  1.
          2   -1    0    0  502    0  0.00000000000E+00 -0.00000000000E+00 -0.12515615043E+04  0.12515615043E+04  0.00000000000E+00 0. -1.
          6    1    1    2  502    0  0.11745331531E+02 -0.13058093520E+02 -0.10698420938E+04  0.10837225532E+04  0.17200000000E+03 0. -1.
         -6    1    1    2    0  501 -0.11745331531E+02  0.13058093520E+02 -0.13202170469E+03  0.21753665698E+03  0.17200000000E+03 0.  1.
</event>
<event>
 4    1  0.3094855E-002  0.4604841E+03  0.7818608E-02  0.1024641E+00
         -1   -1    0    0    0  501 -0.00000000000E+00  0.00000000000E+00  0.26786383325E+03  0.26786383325E+03  0.00000000000E+00 0.  1.
          1   -1    0    0  502    0  0.00000000000E+00 -0.00000000000E+00 -0.80230481416E+03  0.80230481416E+03  0.00000000000E+00 0. -1.
          6    1    1    2  502    0  0.38900652198E+03  0.17645266827E+03 -0.20546254144E+03  0.50424247562E+03  0.17200000000E+03 0. -1.
         -6    1    1    2    0  501 -0.38900652198E+03 -0.17645266827E+03 -0.32897843947E+03  0.56592617179E+03  0.17200000000E+03 0.  1.
</event>
<event>
 4    1  0.3094855E-002  0.1766766E+03  0.7818608E-02  0.1171059E+00
         -2   -1    0    0    0  501 -0.00000000000E+00  0.00000000000E+00  0.62872756122E+03  0.62872756122E+03  0.00000000000E+00 0.  1.
          2   -1    0    0  502    0  0.00000000000E+00 -0.00000000000E+00 -0.50352570004E+02  0.50352570004E+02  0.00000000000E+00 0. -1.
          6    1    1    2  502    0 -0.31441540766E+02  0.25338657146E+02  0.32937228924E+03  0.37376559894E+03  0.17200000000E+03 0. -1.
         -6    1    1    2    0  501  0.31441540766E+02 -0.25338657146E+02  0.24900270197E+03  0.30531453228E+03  0.17200000000E+03 0. -1.
</event>
<event>
 4    1  0.3094855E-002  0.2432974E+03  0.7818608E-02  0.1117615E+00
         -2   -1    0    0    0  501 -0.00000000000E+00  0.00000000000E+00  0.43413257390E+02  0.43413257390E+02  0.00000000000E+00 0.  1.
          2   -1    0    0  502    0  0.00000000000E+00 -0.00000000000E+00 -0.13786043842E+04  0.13786043842E+04  0.00000000000E+00 0. -1.
          6    1    1    2  502    0 -0.12162803258E+03  0.12172204800E+03 -0.59315329077E+03  0.64111189478E+03  0.17200000000E+03 0. -1.
         -6    1    1    2    0  501  0.12162803258E+03 -0.12172204800E+03 -0.74203783602E+03  0.78090574679E+03  0.17200000000E+03 0.  1.
</event>
<event>
 4    1  0.3094855E-002  0.3120456E+03  0.7818608E-02  0.1079369E+00
         -2   -1    0    0    0  501 -0.00000000000E+00  0.00000000000E+00  0.33377029940E+02  0.33377029940E+02  0.00000000000E+00 0.  1.
          2   -1    0    0  502    0  0.00000000000E+00 -0.00000000000E+00 -0.42154657293E+04  0.42154657293E+04  0.00000000000E+00 0. -1.
          6    1    1    2  502    0 -0.21238021121E+03 -0.15060920661E+03 -0.32699377687E+04  0.32847930678E+04  0.17200000000E+03 0. -1.
         -6    1    1    2    0  501  0.21238021121E+03  0.15060920661E+03 -0.91215093071E+03  0.96404969147E+03  0.17200000000E+03 0.  1.
</event>
<event>
 4    1  0.3094855E-002  0.2124655E+03  0.7818608E-02  0.1139628E+00
         -2   -1    0    0    0  501 -0.00000000000E+00  0.00000000000E+00  0.97659453788E+02  0.97659453788E+02  0.00000000000E+00 0.  1.
          2   -1    0    0  502    0  0.00000000000E+00 -0.00000000000E+00 -0.95299821327E+03  0.95299821327E+03  0.00000000000E+00 0. -1.
          6    1    1    2  502    0  0.94601401901E+02 -0.81290509206E+02 -0.80465206361E+03  0.83222984542E+03  0.17200000000E+03 0. -1.
         -6    1    1    2    0  501 -0.94601401901E+02  0.81290509206E+02 -0.50686695871E+02  0.21842782164E+03  0.17200000000E+03 0.  1.
</event>
<event>
 4    1  0.3094855E-002  0.2353246E+03  0.7818608E-02  0.1122947E+00
          1   -1    0    0  502    0  0.00000000000E+00  0.00000000000E+00  0.11666823666E+04  0.11666823666E+04  0.00000000000E+00 0. -1.
         -1   -1    0    0    0  501 -0.00000000000E+00 -0.00000000000E+00 -0.51610981519E+02  0.51610981519E+02  0.00000000000E+00 0.  1.
          6    1    1    2  502    0 -0.15462120990E+03  0.43427449783E+02  0.38490585722E+03  0.45114319331E+03  0.17200000000E+03 0.  1.
         -6    1    1    2    0  501  0.15462120990E+03 -0.43427449783E+02  0.73016552785E+03  0.76715015480E+03  0.17200000000E+03 0. -1.
</event>
<event>
 4    1  0.3094855E-002  0.9106159E+03  0.7818608E-02  0.9412408E-01
          1   -1    0    0  502    0  0.00000000000E+00  0.00000000000E+00  0.15472675607E+04  0.15472675607E+04  0.00000000000E+00 0. -1.
         -1   -1    0    0    0  501 -0.00000000000E+00 -0.00000000000E+00 -0.54254618878E+03  0.54254618878E+03  0.00000000000E+00 0.  1.
          6    1    1    2  502    0 -0.65859779475E+03 -0.60488529371E+03  0.38693916235E+03  0.98941557960E+03  0.17200000000E+03 0. -1.
         -6    1    1    2    0  501  0.65859779475E+03  0.60488529371E+03  0.61778220955E+03  0.11003981699E+04  0.17200000000E+03 0.  1.
</event>
<event>
 4    1  0.3094855E-002  0.3148384E+03  0.7818608E-02  0.1078050E+00
          1   -1    0    0  502    0  0.00000000000E+00  0.00000000000E+00  0.39916086956E+03  0.39916086956E+03  0.00000000000E+00 0. -1.
         -1   -1    0    0    0  501 -0.00000000000E+00 -0.00000000000E+00 -0.25030494525E+03  0.25030494525E+03  0.00000000000E+00 0.  1.
          6    1    1    2  502    0 -0.25593299669E+03 -0.63541648725E+02  0.10327979716E+03  0.33134567511E+03  0.17200000000E+03 0. -1.
         -6    1    1    2    0  501  0.25593299669E+03  0.63541648725E+02  0.45576127154E+02  0.31812013970E+03  0.17200000000E+03 0. -1.
</event>
<event>
 4    1  0.3094855E-002  0.5467468E+03  0.7818608E-02  0.1002250E+00
          2   -1    0    0  502    0  0.00000000000E+00  0.00000000000E+00  0.57427960670E+03  0.57427960670E+03  0.00000000000E+00 0. -1.
         -2   -1    0    0    0  501 -0.00000000000E+00 -0.00000000000E+00 -0.52053934377E+03  0.52053934377E+03  0.00000000000E+00 0.  1.
          6    1    1    2  502    0 -0.46347482597E+03  0.23353628421E+03  0.25130432251E+02  0.54732408039E+03  0.17200000000E+03 0. -1.
         -6    1    1    2    0  501  0.46347482597E+03 -0.23353628421E+03  0.28609830676E+02  0.54749487008E+03  0.17200000000E+03 0.  1.
</event>
<event>
 4    1  0.3094855E-002  0.1878078E+03  0.7818608E-02  0.1160453E+00
         -2   -1    0    0    0  501 -0.00000000000E+00  0.00000000000E+00  0.54726269164E+02  0.54726269164E+02  0.00000000000E+00 0.  1.
          2   -1    0    0  502    0  0.00000000000E+00 -0.00000000000E+00 -0.80559713932E+03  0.80559713932E+03  0.00000000000E+00 0. -1.
          6    1    1    2  502    0 -0.23063500884E+02 -0.71804325976E+02 -0.56778859060E+03  0.59804320071E+03  0.17200000000E+03 0. -1.
         -6    1    1    2    0  501  0.23063500884E+02  0.71804325976E+02 -0.18308227956E+03  0.26228020777E+03  0.17200000000E+03 0.  1.
</event>
<event>
 4    1  0.3094855E-002  0.2507333E+03  0.7818608E-02  0.1112842E+00
          1   -1    0    0  502    0  0.00000000000E+00  0.00000000000E+00  0.86620873408E+03  0.86620873408E+03  0.00000000000E+00 0. -1.
         -1   -1    0    0    0  501 -0.00000000000E+00 -0.00000000000E+00 -0.88272827925E+02  0.88272827925E+02  0.00000000000E+00 0.  1.
          6    1    1    2  502    0 -0.85190289843E+02 -0.16132519168E+03  0.59020605208E+03  0.64125688056E+03  0.17200000000E+03 0. -1.
         -6    1    1    2    0  501  0.85190289843E+02  0.16132519168E+03  0.18772985407E+03  0.31322468144E+03  0.17200000000E+03 0.  1.
</event>
<event>
 4    1  0.3094855E-002  0.1925816E+03  0.7818608E-02  0.1156153E+00
         -1   -1    0    0    0  501 -0.00000000000E+00  0.00000000000E+00  0.65151092305E+02  0.65151092305E+02  0.00000000000E+00 0.  1.
          1   -1    0    0  502    0  0.00000000000E+00 -0.00000000000E+00 -0.19501481934E+04  0.19501481934E+04  0.00000000000E+00 0. -1.
          6    1    1    2  502    0 -0.68186319468E+02 -0.53425701249E+02 -0.17904198872E+04  0.18007473594E+04  0.17200000000E+03 0. -1.
         -6    1    1    2    0  501  0.68186319468E+02  0.53425701249E+02 -0.94577213898E+02  0.21455192636E+03  0.17200000000E+03 0.  1.
</event>
<event>
 4    1  0.3094855E-002  0.1793473E+03  0.7818608E-02  0.1168436E+00
          2   -1    0    0  502    0  0.00000000000E+00  0.00000000000E+00  0.78640684127E+03  0.78640684127E+03  0.00000000000E+00 0. -1.
         -2   -1    0    0    0  501 -0.00000000000E+00 -0.00000000000E+00 -0.41267163912E+02  0.41267163912E+02  0.00000000000E+00 0.  1.
          6    1    1    2  502    0  0.42846236179E+02 -0.27306674710E+02  0.33363032582E+03  0.37878047567E+03  0.17200000000E+03 0. -1.
         -6    1    1    2    0  501 -0.42846236179E+02  0.27306674710E+02  0.41150935153E+03  0.44889352951E+03  0.17200000000E+03 0.  1.
</event>
<event>
 4    1  0.3094855E-002  0.1809561E+03  0.7818608E-02  0.1166881E+00
         -2   -1    0    0    0  501 -0.00000000000E+00  0.00000000000E+00  0.41345033732E+02  0.41345033732E+02  0.00000000000E+00 0.  1.
          2   -1    0    0  502    0  0.00000000000E+00 -0.00000000000E+00 -0.80733569884E+03  0.80733569884E+03  0.00000000000E+00 0. -1.
          6    1    1    2  502    0 -0.42698674160E+02 -0.36577695804E+02 -0.44148707591E+03  0.47713304517E+03  0.17200000000E+03 0. -1.
         -6    1    1    2    0  501  0.42698674160E+02  0.36577695804E+02 -0.32450358921E+03  0.37154768740E+03  0.17200000000E+03 0.  1.
</event>
<event>
 4    1  0.3094855E-002  0.2061516E+03  0.7818608E-02  0.1144650E+00
          1   -1    0    0  502    0  0.00000000000E+00  0.00000000000E+00  0.35075872214E+02  0.35075872214E+02  0.00000000000E+00 0. -1.
         -1   -1    0    0    0  501 -0.00000000000E+00 -0.00000000000E+00 -0.12139448211E+04  0.12139448211E+04  0.00000000000E+00 0.  1.
          6    1    1    2  502    0  0.18737721440E+02  0.11208653258E+03 -0.61678684208E+03  0.65032645768E+03  0.17200000000E+03 0. -1.
         -6    1    1    2    0  501 -0.18737721440E+02 -0.11208653258E+03 -0.56208210676E+03  0.59869423559E+03  0.17200000000E+03 0.  1.
</event>
<event>
 4    1  0.3094855E-002  0.2775960E+03  0.7818608E-02  0.1097009E+00
         -3   -1    0    0    0  501 -0.00000000000E+00  0.00000000000E+00  0.76239817294E+02  0.76239817294E+02  0.00000000000E+00 0.  1.
          3   -1    0    0  502    0  0.00000000000E+00 -0.00000000000E+00 -0.45755081602E+04  0.45755081602E+04  0.00000000000E+00 0. -1.
          6    1    1    2  502    0 -0.21764128769E+03  0.10381894027E+02 -0.43025987488E+04  0.43115444456E+04  0.17200000000E+03 0. -1.
         -6    1    1    2    0  501  0.21764128769E+03 -0.10381894027E+02 -0.19666959416E+03  0.34020353187E+03  0.17200000000E+03 0.  1.
</event>
<event>
 4    1  0.3094855E-002  0.1775019E+03  0.7818608E-02  0.1170243E+00
         -1   -1    0    0    0  501 -0.00000000000E+00  0.00000000000E+00  0.41584976206E+02  0.41584976206E+02  0.00000000000E+00 0.  1.
          1   -1    0    0  502    0  0.00000000000E+00 -0.00000000000E+00 -0.84623830887E+03  0.84623830887E+03  0.00000000000E+00 0. -1.
          6    1    1    2  502    0  0.11524465493E+02  0.42309828289E+02 -0.54595291683E+03  0.57408320152E+03  0.17200000000E+03 0. -1.
         -6    1    1    2    0  501 -0.11524465493E+02 -0.42309828289E+02 -0.25870041583E+03  0.31374008355E+03  0.17200000000E+03 0.  1.
</event>
<event>
 4    1  0.3094855E-002  0.5518167E+03  0.7818608E-02  0.1001074E+00
         -2   -1    0    0    0  501 -0.00000000000E+00  0.00000000000E+00  0.25627810801E+03  0.25627810801E+03  0.00000000000E+00 0.  1.
          2   -1    0    0  502    0  0.00000000000E+00 -0.00000000000E+00 -0.12715212996E+04  0.12715212996E+04  0.00000000000E+00 0. -1.
          6    1    1    2  502    0 -0.25085591947E+03  0.46042262943E+03 -0.70320565257E+03  0.89386793198E+03  0.17200000000E+03 0. -1.
         -6    1    1    2    0  501  0.25085591947E+03 -0.46042262943E+03 -0.31203753901E+03  0.63393147562E+03  0.17200000000E+03 0.  1.
</event>
<event>
 4    1  0.3094855E-002  0.3942221E+03  0.7818608E-02  0.1045799E+00
          2   -1    0    0  502    0  0.00000000000E+00  0.00000000000E+00  0.85534888199E+03  0.85534888199E+03  0.00000000000E+00 0. -1.
         -2   -1    0    0    0  501 -0.00000000000E+00 -0.00000000000E+00 -0.19350827844E+03  0.19350827844E+03  0.00000000000E+00 0.  1.
          6    1    1    2  502    0  0.13884303641E+01  0.35471837542E+03  0.46050548643E+03  0.60619828162E+03  0.17200000000E+03 0. -1.
         -6    1    1    2    0  501 -0.13884303641E+01 -0.35471837542E+03  0.20133511712E+03  0.44265887881E+03  0.17200000000E+03 0.  1.
</event>
<event>
 4    1  0.3094855E-002  0.4520203E+03  0.7818608E-02  0.1027121E+00
         -2   -1    0    0    0  501 -0.00000000000E+00  0.00000000000E+00  0.33349510826E+03  0.33349510826E+03  0.00000000000E+00 0.  1.
          2   -1    0    0  502    0  0.00000000000E+00 -0.00000000000E+00 -0.84000938852E+03  0.84000938852E+03  0.00000000000E+00 0. -1.
          6    1    1    2  502    0 -0.39997793248E+03 -0.12147427139E+03  0.51989105402E+02  0.45500023314E+03  0.17200000000E+03 0. -1.
         -6    1    1    2    0  501  0.39997793248E+03  0.12147427139E+03 -0.55850338566E+03  0.71850426364E+03  0.17200000000E+03 0. -1.
</event>
<event>
 4    1  0.3094855E-002  0.4228723E+03  0.7818608E-02  0.1036136E+00
          1   -1    0    0  502    0  0.00000000000E+00  0.00000000000E+00  0.52601756144E+03  0.52601756144E+03  0.00000000000E+00 0. -1.
         -1   -1    0    0    0  501 -0.00000000000E+00 -0.00000000000E+00 -0.34474839361E+03  0.34474839361E+03  0.00000000000E+00 0.  1.
          6    1    1    2  502    0 -0.38416443224E+03 -0.40677465559E+02  0.39282671005E+02  0.42469294254E+03  0.17200000000E+03 0. -1.
         -6    1    1    2    0  501  0.38416443224E+03  0.40677465559E+02  0.14198649683E+03  0.44607301250E+03  0.17200000000E+03 0.  1.
</event>
<event>
 4    1  0.3094855E-002  0.1769126E+03  0.7818608E-02  0.1170825E+00
          1   -1    0    0  502    0  0.00000000000E+00  0.00000000000E+00  0.35248205884E+02  0.35248205884E+02  0.00000000000E+00 0. -1.
         -1   -1    0    0    0  501 -0.00000000000E+00 -0.00000000000E+00 -0.93732779918E+03  0.93732779918E+03  0.00000000000E+00 0.  1.
          6    1    1    2  502    0  0.33516730354E+02  0.24304104858E+02 -0.33940836840E+03  0.38274809114E+03  0.17200000000E+03 0. -1.
         -6    1    1    2    0  501 -0.33516730354E+02 -0.24304104858E+02 -0.56267122490E+03  0.58982791393E+03  0.17200000000E+03 0.  1.
</event>
<event>
 4    1  0.3094855E-002  0.1843416E+03  0.7818608E-02  0.1163666E+00
         -2   -1    0    0    0  501 -0.00000000000E+00  0.00000000000E+00  0.95012047123E+02  0.95012047123E+02  0.00000000000E+00 0.  1.
          2   -1    0    0  502    0  0.00000000000E+00 -0.00000000000E+00 -0.35770317613E+03  0.35770317613E+03  0.00000000000E+00 0. -1.
          6    1    1    2  502    0 -0.49654948746E+02 -0.43956809130E+02 -0.12880062384E+03  0.22488089227E+03  0.17200000000E+03 0. -1.
         -6    1    1    2    0  501  0.49654948746E+02  0.43956809130E+02 -0.13389050517E+03  0.22783433099E+03  0.17200000000E+03 0.  1.
</event>
<event>
 4    1  0.3094855E-002  0.2368083E+03  0.7818608E-02  0.1121937E+00
         -2   -1    0    0    0  501 -0.00000000000E+00  0.00000000000E+00  0.10131455172E+03  0.10131455172E+03  0.00000000000E+00 0.  1.
          2   -1    0    0  502    0  0.00000000000E+00 -0.00000000000E+00 -0.61393765537E+03  0.61393765537E+03  0.00000000000E+00 0. -1.
          6    1    1    2  502    0 -0.11118023703E+03  0.11888289705E+03 -0.36851344120E+03  0.43804148738E+03  0.17200000000E+03 0. -1.
         -6    1    1    2    0  501  0.11118023703E+03 -0.11888289705E+03 -0.14410966245E+03  0.27721071972E+03  0.17200000000E+03 0.  1.
</event>
<event>
 4    1  0.3094855E-002  0.2802524E+03  0.7818608E-02  0.1095551E+00
         -2   -1    0    0    0  501 -0.00000000000E+00  0.00000000000E+00  0.12160234516E+03  0.12160234516E+03  0.00000000000E+00 0.  1.
          2   -1    0    0  502    0  0.00000000000E+00 -0.00000000000E+00 -0.11423109890E+04  0.11423109890E+04  0.00000000000E+00 0. -1.
          6    1    1    2  502    0 -0.36985320530E+01  0.22123232030E+03 -0.92695631331E+03  0.96839528369E+03  0.17200000000E+03 0. -1.
         -6    1    1    2    0  501  0.36985320530E+01 -0.22123232030E+03 -0.93752330567E+02  0.29551805050E+03  0.17200000000E+03 0.  1.
</event>
<event>
 4    1  0.3094855E-002  0.2409586E+03  0.7818608E-02  0.1119156E+00
          1   -1    0    0  502    0  0.00000000000E+00  0.00000000000E+00  0.55574578126E+03  0.55574578126E+03  0.00000000000E+00 0. -1.
         -1   -1    0    0    0  501 -0.00000000000E+00 -0.00000000000E+00 -0.12348351210E+03  0.12348351210E+03  0.00000000000E+00 0.  1.
          6    1    1    2  502    0  0.85827913228E+01  0.16853300022E+03  0.34938086760E+03  0.42441492329E+03  0.17200000000E+03 0. -1.
         -6    1    1    2    0  501 -0.85827913228E+01 -0.16853300022E+03  0.82881401559E+02  0.25481437007E+03  0.17200000000E+03 0.  1.
</event>
<event>
 4    1  0.3094855E-002  0.2548512E+03  0.7818608E-02  0.1110277E+00
         -2   -1    0    0    0  501 -0.00000000000E+00  0.00000000000E+00  0.25799708516E+02  0.25799708516E+02  0.00000000000E+00 0.  1.
          2   -1    0    0  502    0  0.00000000000E+00 -0.00000000000E+00 -0.25597073829E+04  0.25597073829E+04  0.00000000000E+00 0. -1.
          6    1    1    2  502    0  0.93765890612E+02 -0.16301255447E+03 -0.14330806729E+04  0.14555649591E+04  0.17200000000E+03 0. -1.
         -6    1    1    2    0  501 -0.93765890612E+02  0.16301255447E+03 -0.11008270015E+04  0.11299421323E+04  0.17200000000E+03 0. -1.
</event>
<event>
 4    1  0.3094855E-002  0.1898675E+03  0.7818608E-02  0.1158581E+00
          2   -1    0    0  502    0  0.00000000000E+00  0.00000000000E+00  0.17320956051E+04  0.17320956051E+04  0.00000000000E+00 0. -1.
         -2   -1    0    0    0  501 -0.00000000000E+00 -0.00000000000E+00 -0.30412765158E+02  0.30412765158E+02  0.00000000000E+00 0.  1.
          6    1    1    2  502    0 -0.52376046569E+02 -0.61011718312E+02  0.13459598623E+04  0.13592857061E+04  0.17200000000E+03 0. -1.
         -6    1    1    2    0  501  0.52376046569E+02  0.61011718312E+02  0.35572297763E+03  0.40322266410E+03  0.17200000000E+03 0.  1.
</event>
<event>
 4    1  0.3094855E-002  0.1773158E+03  0.7818608E-02  0.1170426E+00
         -2   -1    0    0    0  501 -0.00000000000E+00  0.00000000000E+00  0.37856468753E+02  0.37856468753E+02  0.00000000000E+00 0.  1.
          2   -1    0    0  502    0  0.00000000000E+00 -0.00000000000E+00 -0.93143470764E+03  0.93143470764E+03  0.00000000000E+00 0. -1.
          6    1    1    2  502    0  0.27353614220E+02  0.33296548838E+02 -0.60630604128E+03  0.63170237934E+03  0.17200000000E+03 0. -1.
         -6    1    1    2    0  501 -0.27353614220E+02 -0.33296548838E+02 -0.28727219761E+03  0.33758879705E+03  0.17200000000E+03 0.  1.
</event>
<event>
 4    1  0.3094855E-002  0.2794752E+03  0.7818608E-02  0.1095976E+00
         -2   -1    0    0    0  501 -0.00000000000E+00  0.00000000000E+00  0.80903855169E+02  0.80903855169E+02  0.00000000000E+00 0.  1.
          2   -1    0    0  502    0  0.00000000000E+00 -0.00000000000E+00 -0.11039965383E+04  0.11039965383E+04  0.00000000000E+00 0. -1.
          6    1    1    2  502    0 -0.20430621147E+03 -0.82348994728E+02 -0.72144480575E+03  0.77368533185E+03  0.17200000000E+03 0. -1.
         -6    1    1    2    0  501  0.20430621147E+03  0.82348994728E+02 -0.30164787741E+03  0.41121506165E+03  0.17200000000E+03 0.  1.
</event>
<event>
 4    1  0.3094855E-002  0.1978405E+03  0.7818608E-02  0.1151574E+00
         -1   -1    0    0    0  501 -0.00000000000E+00  0.00000000000E+00  0.74992020573E+02  0.74992020573E+02  0.00000000000E+00 0.  1.
          1   -1    0    0  502    0  0.00000000000E+00 -0.00000000000E+00 -0.82304770412E+03  0.82304770412E+03  0.00000000000E+00 0. -1.
          6    1    1    2  502    0 -0.86143492298E+02 -0.46218477310E+02 -0.10243478770E+03  0.22278629814E+03  0.17200000000E+03 0.  1.
         -6    1    1    2    0  501  0.86143492298E+02  0.46218477310E+02 -0.64562089585E+03  0.67525342655E+03  0.17200000000E+03 0. -1.
</event>
<event>
 4    1  0.3094855E-002  0.1768255E+03  0.7818608E-02  0.1170911E+00
         -1   -1    0    0    0  501 -0.00000000000E+00  0.00000000000E+00  0.12376490797E+03  0.12376490797E+03  0.00000000000E+00 0.  1.
          1   -1    0    0  502    0  0.00000000000E+00 -0.00000000000E+00 -0.49470647286E+03  0.49470647286E+03  0.00000000000E+00 0. -1.
          6    1    1    2  502    0  0.49949438406E+01 -0.40722351119E+02 -0.40178659199E+03  0.43897576795E+03  0.17200000000E+03 0. -1.
         -6    1    1    2    0  501 -0.49949438406E+01  0.40722351119E+02  0.30845027100E+02  0.17949561288E+03  0.17200000000E+03 0.  1.
</event>
<event>
 4    1  0.3094855E-002  0.2359687E+03  0.7818608E-02  0.1122508E+00
         -1   -1    0    0    0  501 -0.00000000000E+00  0.00000000000E+00  0.12220962944E+03  0.12220962944E+03  0.00000000000E+00 0.  1.
          1   -1    0    0  502    0  0.00000000000E+00 -0.00000000000E+00 -0.46056012167E+03  0.46056012167E+03  0.00000000000E+00 0. -1.
          6    1    1    2  502    0 -0.69144503036E+02 -0.14600097701E+03 -0.13899949759E+03  0.27386512724E+03  0.17200000000E+03 0. -1.
         -6    1    1    2    0  501  0.69144503036E+02  0.14600097701E+03 -0.19935099463E+03  0.30890462387E+03  0.17200000000E+03 0.  1.
</event>
<event>
 4    1  0.3094855E-002  0.3601021E+03  0.7818608E-02  0.1058543E+00
          2   -1    0    0  502    0  0.00000000000E+00  0.00000000000E+00  0.71522055671E+03  0.71522055671E+03  0.00000000000E+00 0. -1.
         -2   -1    0    0    0  501 -0.00000000000E+00 -0.00000000000E+00 -0.22013680048E+03  0.22013680048E+03  0.00000000000E+00 0.  1.
          6    1    1    2  502    0 -0.61270117293E+02 -0.31037960898E+03  0.44396443810E+03  0.57164495208E+03  0.17200000000E+03 0. -1.
         -6    1    1    2    0  501  0.61270117293E+02  0.31037960898E+03  0.51119318132E+02  0.36371240511E+03  0.17200000000E+03 0.  1.
</event>
<event>
 4    1  0.3094855E-002  0.1762012E+03  0.7818608E-02  0.1171531E+00
          1   -1    0    0  502    0  0.00000000000E+00  0.00000000000E+00  0.62178539748E+03  0.62178539748E+03  0.00000000000E+00 0. -1.
         -1   -1    0    0    0  501 -0.00000000000E+00 -0.00000000000E+00 -0.50031571753E+02  0.50031571753E+02  0.00000000000E+00 0.  1.
          6    1    1    2  502    0  0.38183256492E+02 -0.22135508223E+01  0.30087769813E+03  0.34867499210E+03  0.17200000000E+03 0. -1.
         -6    1    1    2    0  501 -0.38183256492E+02  0.22135508223E+01  0.27087612760E+03  0.32314197714E+03  0.17200000000E+03 0. -1.
</event>
<event>
 4    1  0.3094855E-002  0.1958156E+03  0.7818608E-02  0.1153318E+00
          1   -1    0    0  502    0  0.00000000000E+00  0.00000000000E+00  0.39304253043E+03  0.39304253043E+03  0.00000000000E+00 0. -1.
         -1   -1    0    0    0  501 -0.00000000000E+00 -0.00000000000E+00 -0.10867316075E+03  0.10867316075E+03  0.00000000000E+00 0.  1.
          6    1    1    2  502    0  0.91156422771E+02 -0.21219043477E+02  0.22241884315E+03  0.29633407332E+03  0.17200000000E+03 0. -1.
         -6    1    1    2    0  501 -0.91156422771E+02  0.21219043477E+02  0.61950526527E+02  0.20538161786E+03  0.17200000000E+03 0.  1.
</event>
<event>
 4    1  0.3094855E-002  0.4057937E+03  0.7818608E-02  0.1041792E+00
         -2   -1    0    0    0  501 -0.00000000000E+00  0.00000000000E+00  0.11436475794E+03  0.11436475794E+03  0.00000000000E+00 0.  1.
          2   -1    0    0  502    0  0.00000000000E+00 -0.00000000000E+00 -0.15362000724E+04  0.15362000724E+04  0.00000000000E+00 0. -1.
          6    1    1    2  502    0 -0.17346181006E+03 -0.32403013036E+03 -0.91759662550E+03  0.10033205331E+04  0.17200000000E+03 0. -1.
         -6    1    1    2    0  501  0.17346181006E+03  0.32403013036E+03 -0.50423868898E+03  0.64724429731E+03  0.17200000000E+03 0.  1.
</event>
<event>
 4    1  0.3094855E-002  0.5112804E+03  0.7818608E-02  0.1010876E+00
         -2   -1    0    0    0  501 -0.00000000000E+00  0.00000000000E+00  0.12204380647E+03  0.12204380647E+03  0.00000000000E+00 0.  1.
          2   -1    0    0  502    0  0.00000000000E+00 -0.00000000000E+00 -0.21681010840E+04  0.21681010840E+04  0.00000000000E+00 0. -1.
          6    1    1    2  502    0 -0.47277518937E+03 -0.91144078825E+02 -0.11488682592E+04  0.12574998608E+04  0.17200000000E+03 0. -1.
         -6    1    1    2    0  501  0.47277518937E+03  0.91144078825E+02 -0.89718901837E+03  0.10326450297E+04  0.17200000000E+03 0.  1.
</event>
<event>
 4    1  0.3094855E-002  0.3540068E+03  0.7818608E-02  0.1060982E+00
         -2   -1    0    0    0  501 -0.00000000000E+00  0.00000000000E+00  0.23859483558E+03  0.23859483558E+03  0.00000000000E+00 0.  1.
          2   -1    0    0  502    0  0.00000000000E+00 -0.00000000000E+00 -0.83026493279E+03  0.83026493279E+03  0.00000000000E+00 0. -1.
          6    1    1    2  502    0  0.30606897835E+03  0.45371358492E+02 -0.61976148451E+03  0.71374020299E+03  0.17200000000E+03 0. -1.
         -6    1    1    2    0  501 -0.30606897835E+03 -0.45371358492E+02  0.28091387306E+02  0.35511956538E+03  0.17200000000E+03 0.  1.
</event>
<event>
 4    1  0.3094855E-002  0.2568891E+03  0.7818608E-02  0.1109027E+00
          2   -1    0    0  502    0  0.00000000000E+00  0.00000000000E+00  0.57272383481E+03  0.57272383481E+03  0.00000000000E+00 0. -1.
         -2   -1    0    0    0  501 -0.00000000000E+00 -0.00000000000E+00 -0.12821438473E+03  0.12821438473E+03  0.00000000000E+00 0.  1.
          6    1    1    2  502    0 -0.10891212662E+03  0.15667218519E+03  0.33380687966E+03  0.42121141704E+03  0.17200000000E+03 0. -1.
         -6    1    1    2    0  501  0.10891212662E+03 -0.15667218519E+03  0.11070257043E+03  0.27972680250E+03  0.17200000000E+03 0.  1.
</event>
<event>
 4    1  0.3094855E-002  0.2172574E+03  0.7818608E-02  0.1135944E+00
          2   -1    0    0  502    0  0.00000000000E+00  0.00000000000E+00  0.26345268890E+03  0.26345268890E+03  0.00000000000E+00 0. -1.
         -2   -1    0    0    0  501 -0.00000000000E+00 -0.00000000000E+00 -0.18980594138E+03  0.18980594138E+03  0.00000000000E+00 0.  1.
          6    1    1    2  502    0 -0.10960212459E+03  0.74860880643E+02 -0.16843620352E+02  0.21790934976E+03  0.17200000000E+03 0.  1.
         -6    1    1    2    0  501  0.10960212459E+03 -0.74860880643E+02  0.90490367874E+02  0.23534928052E+03  0.17200000000E+03 0. -1.
</event>
<event>
 4    1  0.3094855E-002  0.2149671E+03  0.7818608E-02  0.1137692E+00
          2   -1    0    0  502    0  0.00000000000E+00  0.00000000000E+00  0.95806841703E+02  0.95806841703E+02  0.00000000000E+00 0. -1.
         -2   -1    0    0    0  501 -0.00000000000E+00 -0.00000000000E+00 -0.48311254789E+03  0.48311254789E+03  0.00000000000E+00 0.  1.
          6    1    1    2  502    0  0.98805578149E+02  0.82851192423E+02 -0.18203012783E+03  0.28168391825E+03  0.17200000000E+03 0. -1.
         -6    1    1    2    0  501 -0.98805578149E+02 -0.82851192423E+02 -0.20527557836E+03  0.29723547135E+03  0.17200000000E+03 0. -1.
</event>
<event>
 4    1  0.3094855E-002  0.7882774E+03  0.7818608E-02  0.9577142E-01
         -1   -1    0    0    0  501 -0.00000000000E+00  0.00000000000E+00  0.86993122613E+03  0.86993122613E+03  0.00000000000E+00 0.  1.
          1   -1    0    0  502    0  0.00000000000E+00 -0.00000000000E+00 -0.78255498123E+03  0.78255498123E+03  0.00000000000E+00 0. -1.
          6    1    1    2  502    0  0.60434589806E+03  0.47598659776E+03 -0.20034940015E+03  0.81333946657E+03  0.17200000000E+03 0. -1.
         -6    1    1    2    0  501 -0.60434589806E+03 -0.47598659776E+03  0.28772564506E+03  0.83914674079E+03  0.17200000000E+03 0.  1.
</event>
<event>
 4    1  0.3094855E-002  0.3081269E+03  0.7818608E-02  0.1081247E+00
          2   -1    0    0  502    0  0.00000000000E+00  0.00000000000E+00  0.59825461776E+03  0.59825461776E+03  0.00000000000E+00 0. -1.
         -2   -1    0    0    0  501 -0.00000000000E+00 -0.00000000000E+00 -0.19532144510E+03  0.19532144510E+03  0.00000000000E+00 0.  1.
          6    1    1    2  502    0  0.23644616524E+03 -0.97218299411E+02  0.37328095306E+03  0.48402567774E+03  0.17200000000E+03 0. -1.
         -6    1    1    2    0  501 -0.23644616524E+03  0.97218299411E+02  0.29652219600E+02  0.30955038512E+03  0.17200000000E+03 0.  1.
</event>
<event>
 4    1  0.3094855E-002  0.1907405E+03  0.7818608E-02  0.1157795E+00
          3   -1    0    0  502    0  0.00000000000E+00  0.00000000000E+00  0.22428011888E+02  0.22428011888E+02  0.00000000000E+00 0. -1.
         -3   -1    0    0    0  501 -0.00000000000E+00 -0.00000000000E+00 -0.16610808325E+04  0.16610808325E+04  0.00000000000E+00 0.  1.
          6    1    1    2  502    0 -0.60420220511E+02 -0.56101097606E+02 -0.94816712122E+03  0.96716225420E+03  0.17200000000E+03 0. -1.
         -6    1    1    2    0  501  0.60420220511E+02  0.56101097606E+02 -0.69048569935E+03  0.71634659014E+03  0.17200000000E+03 0.  1.
</event>
<event>
 4    1  0.3094855E-002  0.1747276E+03  0.7818608E-02  0.1173005E+00
          2   -1    0    0  502    0  0.00000000000E+00  0.00000000000E+00  0.24427054203E+03  0.24427054203E+03  0.00000000000E+00 0. -1.
         -2   -1    0    0    0  501 -0.00000000000E+00 -0.00000000000E+00 -0.12517315653E+03  0.12517315653E+03  0.00000000000E+00 0.  1.
          6    1    1    2  502    0 -0.35865681293E+01  0.30543182894E+02  0.66741917879E+02  0.18704072576E+03  0.17200000000E+03 0. -1.
         -6    1    1    2    0  501  0.35865681293E+01 -0.30543182894E+02  0.52355467624E+02  0.18240297279E+03  0.17200000000E+03 0.  1.
</event>
<event>
 4    1  0.3094855E-002  0.1793156E+03  0.7818608E-02  0.1168467E+00
          1   -1    0    0  502    0  0.00000000000E+00  0.00000000000E+00  0.12344061397E+03  0.12344061397E+03  0.00000000000E+00 0. -1.
         -1   -1    0    0    0  501 -0.00000000000E+00 -0.00000000000E+00 -0.30016249314E+03  0.30016249314E+03  0.00000000000E+00 0.  1.
          6    1    1    2  502    0  0.20008432148E+02  0.46580466101E+02 -0.16536942997E+03  0.24392852549E+03  0.17200000000E+03 0.  1.
         -6    1    1    2    0  501 -0.20008432148E+02 -0.46580466101E+02 -0.11352449209E+02  0.17967458163E+03  0.17200000000E+03 0. -1.
</event>
<event>
 4    1  0.3094855E-002  0.2252862E+03  0.7818608E-02  0.1130002E+00
         -2   -1    0    0    0  501 -0.00000000000E+00  0.00000000000E+00  0.51569176306E+02  0.51569176306E+02  0.00000000000E+00 0.  1.
          2   -1    0    0  502    0  0.00000000000E+00 -0.00000000000E+00 -0.98455301006E+03  0.98455301006E+03  0.00000000000E+00 0. -1.
          6    1    1    2  502    0 -0.13401903864E+03  0.56645849529E+02 -0.45654090284E+03  0.50910062949E+03  0.17200000000E+03 0.  1.
         -6    1    1    2    0  501  0.13401903864E+03 -0.56645849529E+02 -0.47644293092E+03  0.52702155687E+03  0.17200000000E+03 0. -1.
</event>
<event>
 4    1  0.3094855E-002  0.1765995E+03  0.7818608E-02  0.1171135E+00
          2   -1    0    0  502    0  0.00000000000E+00  0.00000000000E+00  0.28427514007E+03  0.28427514007E+03  0.00000000000E+00 0. -1.
         -2   -1    0    0    0  501 -0.00000000000E+00 -0.00000000000E+00 -0.13179284387E+03  0.13179284387E+03  0.00000000000E+00 0.  1.
          6    1    1    2  502    0  0.40031700846E+02  0.92839034180E+00 -0.89178701810E+01  0.17682456670E+03  0.17200000000E+03 0.  1.
         -6    1    1    2    0  501 -0.40031700846E+02 -0.92839034180E+00  0.16140016638E+03  0.23924341723E+03  0.17200000000E+03 0. -1.
</event>
<event>
 4    1  0.3094855E-002  0.1981615E+03  0.7818608E-02  0.1151300E+00
          2   -1    0    0  502    0  0.00000000000E+00  0.00000000000E+00  0.51249712463E+03  0.51249712463E+03  0.00000000000E+00 0. -1.
         -2   -1    0    0    0  501 -0.00000000000E+00 -0.00000000000E+00 -0.11578216338E+03  0.11578216338E+03  0.00000000000E+00 0.  1.
          6    1    1    2  502    0 -0.97593676092E+02 -0.12627001432E+02  0.38105410606E+03  0.42949994007E+03  0.17200000000E+03 0. -1.
         -6    1    1    2    0  501  0.97593676092E+02  0.12627001432E+02  0.15660855191E+02  0.19877934793E+03  0.17200000000E+03 0.  1.
</event>
<event>
 4    1  0.3094855E-002  0.1914376E+03  0.7818608E-02  0.1157171E+00
         -1   -1    0    0    0  501 -0.00000000000E+00  0.00000000000E+00  0.11490878463E+04  0.11490878463E+04  0.00000000000E+00 0.  1.
          1   -1    0    0  502    0  0.00000000000E+00 -0.00000000000E+00 -0.88524294393E+02  0.88524294393E+02  0.00000000000E+00 0. -1.
          6    1    1    2  502    0  0.41923098125E+02 -0.72847779876E+02  0.35344744530E+02  0.19467304938E+03  0.17200000000E+03 0. -1.
         -6    1    1    2    0  501 -0.41923098125E+02  0.72847779876E+02  0.10252188074E+04  0.10429390914E+04  0.17200000000E+03 0.  1.
</event>
<event>
 4    1  0.3094855E-002  0.2096108E+03  0.7818608E-02  0.1141875E+00
          2   -1    0    0  502    0  0.00000000000E+00  0.00000000000E+00  0.12191904210E+04  0.12191904210E+04  0.00000000000E+00 0. -1.
         -2   -1    0    0    0  501 -0.00000000000E+00 -0.00000000000E+00 -0.97700872522E+02  0.97700872522E+02  0.00000000000E+00 0.  1.
          6    1    1    2  502    0 -0.10027717676E+03  0.65552969424E+02  0.10838438748E+04  0.11039267408E+04  0.17200000000E+03 0. -1.
         -6    1    1    2    0  501  0.10027717676E+03 -0.65552969424E+02  0.37645673631E+02  0.21296455274E+03  0.17200000000E+03 0.  1.
</event>
<event>
 4    1  0.3094855E-002  0.2225365E+03  0.7818608E-02  0.1132006E+00
         -2   -1    0    0    0  501 -0.00000000000E+00  0.00000000000E+00  0.21906004392E+02  0.21906004392E+02  0.00000000000E+00 0.  1.
          2   -1    0    0  502    0  0.00000000000E+00 -0.00000000000E+00 -0.26916816394E+04  0.26916816394E+04  0.00000000000E+00 0. -1.
          6    1    1    2  502    0  0.12241813606E+03 -0.70372677581E+02 -0.18778134844E+04  0.18909537266E+04  0.17200000000E+03 0. -1.
         -6    1    1    2    0  501 -0.12241813606E+03  0.70372677581E+02 -0.79196215054E+03  0.82263391717E+03  0.17200000000E+03 0.  1.
</event>
<event>
 4    1  0.3094855E-002  0.3675585E+03  0.7818608E-02  0.1055630E+00
          1   -1    0    0  502    0  0.00000000000E+00  0.00000000000E+00  0.10410075236E+04  0.10410075236E+04  0.00000000000E+00 0. -1.
         -1   -1    0    0    0  501 -0.00000000000E+00 -0.00000000000E+00 -0.13019999035E+03  0.13019999035E+03  0.00000000000E+00 0.  1.
          6    1    1    2  502    0  0.28877763594E+03  0.14873721190E+03  0.48876504227E+03  0.61154766598E+03  0.17200000000E+03 0. -1.
         -6    1    1    2    0  501 -0.28877763594E+03 -0.14873721190E+03  0.42204249098E+03  0.55965984796E+03  0.17200000000E+03 0.  1.
</event>
<event>
 4    1  0.3094855E-002  0.2409957E+03  0.7818608E-02  0.1119131E+00
         -1   -1    0    0    0  501 -0.00000000000E+00  0.00000000000E+00  0.52122911753E+02  0.52122911753E+02  0.00000000000E+00 0.  1.
          1   -1    0    0  502    0  0.00000000000E+00 -0.00000000000E+00 -0.11158283699E+04  0.11158283699E+04  0.00000000000E+00 0. -1.
          6    1    1    2  502    0 -0.25730541317E+01 -0.16878475673E+03 -0.55368761161E+03  0.60386164471E+03  0.17200000000E+03 0. -1.
         -6    1    1    2    0  501  0.25730541317E+01  0.16878475673E+03 -0.51001784654E+03  0.56408963694E+03  0.17200000000E+03 0.  1.
</event>
<event>
 4    1  0.3094855E-002  0.1849861E+03  0.7818608E-02  0.1163063E+00
         -2   -1    0    0    0  501 -0.00000000000E+00  0.00000000000E+00  0.26928709782E+03  0.26928709782E+03  0.00000000000E+00 0.  1.
          2   -1    0    0  502    0  0.00000000000E+00 -0.00000000000E+00 -0.13156365472E+03  0.13156365472E+03  0.00000000000E+00 0. -1.
          6    1    1    2  502    0 -0.67241508433E+02 -0.10697491873E+02  0.10587922450E+03  0.21314377066E+03  0.17200000000E+03 0. -1.
         -6    1    1    2    0  501  0.67241508433E+02  0.10697491873E+02  0.31844218605E+02  0.18770698188E+03  0.17200000000E+03 0. -1.
</event>
<event>
 4    1  0.3094855E-002  0.3023020E+03  0.7818608E-02  0.1084095E+00
          1   -1    0    0  502    0  0.00000000000E+00  0.00000000000E+00  0.23348010866E+03  0.23348010866E+03  0.00000000000E+00 0. -1.
         -1   -1    0    0    0  501 -0.00000000000E+00 -0.00000000000E+00 -0.46524347488E+03  0.46524347488E+03  0.00000000000E+00 0.  1.
          6    1    1    2  502    0  0.24339254501E+03 -0.50622026850E+02  0.23293248877E+02  0.30319811347E+03  0.17200000000E+03 0. -1.
         -6    1    1    2    0  501 -0.24339254501E+03  0.50622026850E+02 -0.25505661510E+03  0.39552547007E+03  0.17200000000E+03 0.  1.
</event>
<event>
 4    1  0.3094855E-002  0.1878332E+03  0.7818608E-02  0.1160430E+00
         -2   -1    0    0    0  501 -0.00000000000E+00  0.00000000000E+00  0.85921892463E+02  0.85921892463E+02  0.00000000000E+00 0.  1.
          2   -1    0    0  502    0  0.00000000000E+00 -0.00000000000E+00 -0.46460305133E+03  0.46460305133E+03  0.00000000000E+00 0. -1.
          6    1    1    2  502    0  0.28109613087E+02 -0.70051223350E+02 -0.28316828528E+03  0.33980229845E+03  0.17200000000E+03 0. -1.
         -6    1    1    2    0  501 -0.28109613087E+02  0.70051223350E+02 -0.95512873583E+02  0.21072264534E+03  0.17200000000E+03 0.  1.
</event>
<event>
 4    1  0.3094855E-002  0.2449337E+03  0.7818608E-02  0.1116549E+00
         -2   -1    0    0    0  501 -0.00000000000E+00  0.00000000000E+00  0.67543782563E+03  0.67543782563E+03  0.00000000000E+00 0.  1.
          2   -1    0    0  502    0  0.00000000000E+00 -0.00000000000E+00 -0.10115712512E+04  0.10115712512E+04  0.00000000000E+00 0. -1.
          6    1    1    2  502    0 -0.17279373121E+03 -0.23469938356E+02 -0.97368898228E+03  0.10040232795E+04  0.17200000000E+03 0. -1.
         -6    1    1    2    0  501  0.17279373121E+03  0.23469938356E+02  0.63755555668E+03  0.68298579737E+03  0.17200000000E+03 0.  1.
</event>
<event>
 4    1  0.3094855E-002  0.2062898E+03  0.7818608E-02  0.1144538E+00
         -1   -1    0    0    0  501 -0.00000000000E+00  0.00000000000E+00  0.37179322128E+03  0.37179322128E+03  0.00000000000E+00 0.  1.
          1   -1    0    0  502    0  0.00000000000E+00 -0.00000000000E+00 -0.11626835648E+03  0.11626835648E+03  0.00000000000E+00 0. -1.
          6    1    1    2  502    0  0.30991400282E+02 -0.10959474643E+03  0.15819568557E+03  0.25996413266E+03  0.17200000000E+03 0. -1.
         -6    1    1    2    0  501 -0.30991400282E+02  0.10959474643E+03  0.97329179224E+02  0.22809744511E+03  0.17200000000E+03 0.  1.
</event>
<event>
 4    1  0.3094855E-002  0.2304894E+03  0.7818608E-02  0.1126296E+00
          2   -1    0    0  502    0  0.00000000000E+00  0.00000000000E+00  0.18597632751E+04  0.18597632751E+04  0.00000000000E+00 0. -1.
         -2   -1    0    0    0  501 -0.00000000000E+00 -0.00000000000E+00 -0.30101190000E+02  0.30101190000E+02  0.00000000000E+00 0.  1.
          6    1    1    2  502    0 -0.12164015046E+02  0.15294906909E+03  0.11282518691E+04  0.11515544543E+04  0.17200000000E+03 0. -1.
         -6    1    1    2    0  501  0.12164015046E+02 -0.15294906909E+03  0.70141021601E+03  0.73831001085E+03  0.17200000000E+03 0.  1.
</event>
<event>
 4    1  0.3094855E-002  0.2332281E+03  0.7818608E-02  0.1124388E+00
          1   -1    0    0  502    0  0.00000000000E+00  0.00000000000E+00  0.12028702383E+03  0.12028702383E+03  0.00000000000E+00 0. -1.
         -1   -1    0    0    0  501 -0.00000000000E+00 -0.00000000000E+00 -0.46253282013E+03  0.46253282013E+03  0.00000000000E+00 0.  1.
          6    1    1    2  502    0  0.93112366286E+02 -0.12704892239E+03 -0.12759460348E+03  0.26584906296E+03  0.17200000000E+03 0. -1.
         -6    1    1    2    0  501 -0.93112366286E+02  0.12704892239E+03 -0.21465119282E+03  0.31697078101E+03  0.17200000000E+03 0. -1.
</event>
<event>
 4    1  0.3094855E-002  0.4871066E+03  0.7818608E-02  0.1017200E+00
          2   -1    0    0  502    0  0.00000000000E+00  0.00000000000E+00  0.98686321948E+03  0.98686321948E+03  0.00000000000E+00 0. -1.
         -2   -1    0    0    0  501 -0.00000000000E+00 -0.00000000000E+00 -0.37890814149E+03  0.37890814149E+03  0.00000000000E+00 0.  1.
          6    1    1    2  502    0  0.45167884590E+03 -0.60622191757E+02  0.71680594750E+03  0.86665079262E+03  0.17200000000E+03 0. -1.
         -6    1    1    2    0  501 -0.45167884590E+03  0.60622191757E+02 -0.10885086951E+03  0.49912056836E+03  0.17200000000E+03 0.  1.
</event>
<event>
 4    1  0.3094855E-002  0.1856663E+03  0.7818608E-02  0.1162429E+00
          4   -1    0    0  502    0  0.00000000000E+00  0.00000000000E+00  0.48090217158E+02  0.48090217158E+02  0.00000000000E+00 0. -1.
         -4   -1    0    0    0  501 -0.00000000000E+00 -0.00000000000E+00 -0.11063247116E+04  0.11063247116E+04  0.00000000000E+00 0.  1.
          6    1    1    2  502    0  0.63649297504E+02 -0.28926772553E+02 -0.18662761204E+03  0.26325245833E+03  0.17200000000E+03 0. -1.
         -6    1    1    2    0  501 -0.63649297504E+02  0.28926772553E+02 -0.87160688239E+03  0.89116247041E+03  0.17200000000E+03 0.  1.
</event>
<event>
 4    1  0.3094855E-002  0.1947445E+03  0.7818608E-02  0.1154250E+00
          1   -1    0    0  502    0  0.00000000000E+00  0.00000000000E+00  0.70164409665E+03  0.70164409665E+03  0.00000000000E+00 0. -1.
         -1   -1    0    0    0  501 -0.00000000000E+00 -0.00000000000E+00 -0.95812269601E+02  0.95812269601E+02  0.00000000000E+00 0.  1.
          6    1    1    2  502    0  0.41538522906E+02 -0.81338594028E+02  0.39678925984E+02  0.19874564884E+03  0.17200000000E+03 0.  1.
         -6    1    1    2    0  501 -0.41538522906E+02  0.81338594028E+02  0.56615290106E+03  0.59871071741E+03  0.17200000000E+03 0. -1.
</event>
<event>
 4    1  0.3094855E-002  0.1902445E+03  0.7818608E-02  0.1158241E+00
         -1   -1    0    0    0  501 -0.00000000000E+00  0.00000000000E+00  0.10378218637E+04  0.10378218637E+04  0.00000000000E+00 0.  1.
          1   -1    0    0  502    0  0.00000000000E+00 -0.00000000000E+00 -0.97267504365E+02  0.97267504365E+02  0.00000000000E+00 0. -1.
          6    1    1    2  502    0  0.78794015491E+02 -0.20012138893E+02  0.15722722874E+02  0.19089312873E+03  0.17200000000E+03 0. -1.
         -6    1    1    2    0  501 -0.78794015491E+02  0.20012138893E+02  0.92483163644E+03  0.94419623932E+03  0.17200000000E+03 0.  1.
</event>
<event>
 4    1  0.3094855E-002  0.4664331E+03  0.7818608E-02  0.1022932E+00
         -2   -1    0    0    0  501 -0.00000000000E+00  0.00000000000E+00  0.55609151685E+03  0.55609151685E+03  0.00000000000E+00 0.  1.
          2   -1    0    0  502    0  0.00000000000E+00 -0.00000000000E+00 -0.53953464527E+03  0.53953464527E+03  0.00000000000E+00 0. -1.
          6    1    1    2  502    0  0.31715652570E+03 -0.29561384249E+03 -0.27893171630E+03  0.54347282179E+03  0.17200000000E+03 0. -1.
         -6    1    1    2    0  501 -0.31715652570E+03  0.29561384249E+03  0.29548858788E+03  0.55215334033E+03  0.17200000000E+03 0.  1.
</event>
<event>
 4    1  0.3094855E-002  0.2491541E+03  0.7818608E-02  0.1113841E+00
         -2   -1    0    0    0  501 -0.00000000000E+00  0.00000000000E+00  0.16920044277E+03  0.16920044277E+03  0.00000000000E+00 0.  1.
          2   -1    0    0  502    0  0.00000000000E+00 -0.00000000000E+00 -0.42450777390E+03  0.42450777390E+03  0.00000000000E+00 0. -1.
          6    1    1    2  502    0 -0.13567777066E+03 -0.11868155721E+03 -0.18287620240E+02  0.24982435135E+03  0.17200000000E+03 0.  1.
         -6    1    1    2    0  501  0.13567777066E+03  0.11868155721E+03 -0.23701971089E+03  0.34388386531E+03  0.17200000000E+03 0. -1.
</event>
<event>
 4    1  0.3094855E-002  0.2014253E+03  0.7818608E-02  0.1148542E+00
         -2   -1    0    0    0  501 -0.00000000000E+00  0.00000000000E+00  0.31822897333E+02  0.31822897333E+02  0.00000000000E+00 0.  1.
          2   -1    0    0  502    0  0.00000000000E+00 -0.00000000000E+00 -0.19869822238E+04  0.19869822238E+04  0.00000000000E+00 0. -1.
          6    1    1    2  502    0 -0.10413504187E+03 -0.12002400234E+02 -0.37332301588E+03  0.42419599096E+03  0.17200000000E+03 0.  1.
         -6    1    1    2    0  501  0.10413504187E+03  0.12002400234E+02 -0.15818363105E+04  0.15946091301E+04  0.17200000000E+03 0. -1.
</event>
<event>
 4    1  0.3094855E-002  0.2479143E+03  0.7818608E-02  0.1114630E+00
          4   -1    0    0  502    0  0.00000000000E+00  0.00000000000E+00  0.25895444338E+03  0.25895444338E+03  0.00000000000E+00 0. -1.
         -4   -1    0    0    0  501 -0.00000000000E+00 -0.00000000000E+00 -0.29353978247E+03  0.29353978247E+03  0.00000000000E+00 0.  1.
          6    1    1    2  502    0  0.17628734224E+03  0.28289533819E+02  0.10357566105E+03  0.26868093032E+03  0.17200000000E+03 0. -1.
         -6    1    1    2    0  501 -0.17628734224E+03 -0.28289533819E+02 -0.13816100014E+03  0.28381329553E+03  0.17200000000E+03 0.  1.
</event>
<event>
 4    1  0.3094855E-002  0.1906659E+03  0.7818608E-02  0.1157862E+00
          1   -1    0    0  502    0  0.00000000000E+00  0.00000000000E+00  0.68692498234E+02  0.68692498234E+02  0.00000000000E+00 0. -1.
         -1   -1    0    0    0  501 -0.00000000000E+00 -0.00000000000E+00 -0.67194351614E+03  0.67194351614E+03  0.00000000000E+00 0.  1.
          6    1    1    2  502    0 -0.43848680774E+02 -0.69618787115E+02 -0.13095622579E+03  0.23130718838E+03  0.17200000000E+03 0. -1.
         -6    1    1    2    0  501  0.43848680774E+02  0.69618787115E+02 -0.47229479212E+03  0.50932882599E+03  0.17200000000E+03 0.  1.
</event>
<event>
 4    1  0.3094855E-002  0.3343917E+03  0.7818608E-02  0.1069210E+00
          2   -1    0    0  502    0  0.00000000000E+00  0.00000000000E+00  0.22813010891E+03  0.22813010891E+03  0.00000000000E+00 0. -1.
         -2   -1    0    0    0  501 -0.00000000000E+00 -0.00000000000E+00 -0.70910773147E+03  0.70910773147E+03  0.00000000000E+00 0.  1.
          6    1    1    2  502    0 -0.17686348447E+03 -0.22572803202E+03  0.19913265579E+02  0.33498414101E+03  0.17200000000E+03 0. -1.
         -6    1    1    2    0  501  0.17686348447E+03  0.22572803202E+03 -0.50089088815E+03  0.60225369937E+03  0.17200000000E+03 0.  1.
</event>
<event>
 4    1  0.3094855E-002  0.1747257E+03  0.7818608E-02  0.1173007E+00
          1   -1    0    0  502    0  0.00000000000E+00  0.00000000000E+00  0.40191999931E+03  0.40191999931E+03  0.00000000000E+00 0. -1.
         -1   -1    0    0    0  501 -0.00000000000E+00 -0.00000000000E+00 -0.77727969358E+02  0.77727969358E+02  0.00000000000E+00 0.  1.
          6    1    1    2  502    0  0.20831047293E+02  0.22608209749E+02  0.12590678125E+03  0.21536383458E+03  0.17200000000E+03 0.  1.
         -6    1    1    2    0  501 -0.20831047293E+02 -0.22608209749E+02  0.19828524870E+03  0.26428413409E+03  0.17200000000E+03 0. -1.
</event>
<event>
 4    1  0.3094855E-002  0.2335787E+03  0.7818608E-02  0.1124146E+00
          1   -1    0    0  502    0  0.00000000000E+00  0.00000000000E+00  0.90448145195E+03  0.90448145195E+03  0.00000000000E+00 0. -1.
         -1   -1    0    0    0  501 -0.00000000000E+00 -0.00000000000E+00 -0.76902605552E+02  0.76902605552E+02  0.00000000000E+00 0.  1.
          6    1    1    2  502    0  0.87690505613E+02  0.13147394131E+03  0.64164240382E+03  0.68283526301E+03  0.17200000000E+03 0. -1.
         -6    1    1    2    0  501 -0.87690505613E+02 -0.13147394131E+03  0.18593644257E+03  0.29854879450E+03  0.17200000000E+03 0.  1.
</event>
<event>
 4    1  0.3094855E-002  0.1882037E+03  0.7818608E-02  0.1160092E+00
         -2   -1    0    0    0  501 -0.00000000000E+00  0.00000000000E+00  0.33311913110E+02  0.33311913110E+02  0.00000000000E+00 0.  1.
          2   -1    0    0  502    0  0.00000000000E+00 -0.00000000000E+00 -0.15679427392E+04  0.15679427392E+04  0.00000000000E+00 0. -1.
          6    1    1    2  502    0 -0.33765596120E+02  0.68531196271E+02 -0.31310587444E+03  0.36531620406E+03  0.17200000000E+03 0.  1.
         -6    1    1    2    0  501  0.33765596120E+02 -0.68531196271E+02 -0.12215249516E+04  0.12359384482E+04  0.17200000000E+03 0. -1.
</event>
<event>
 4    1  0.3094855E-002  0.1930932E+03  0.7818608E-02  0.1155701E+00
          3   -1    0    0  502    0  0.00000000000E+00  0.00000000000E+00  0.32209397354E+02  0.32209397354E+02  0.00000000000E+00 0. -1.
         -3   -1    0    0    0  501 -0.00000000000E+00 -0.00000000000E+00 -0.12429234532E+04  0.12429234532E+04  0.00000000000E+00 0.  1.
          6    1    1    2  502    0  0.78437788510E+02  0.39350969242E+02 -0.77242218514E+03  0.79619157088E+03  0.17200000000E+03 0.  1.
         -6    1    1    2    0  501 -0.78437788510E+02 -0.39350969242E+02 -0.43829187071E+03  0.47894127968E+03  0.17200000000E+03 0. -1.
</event>
<event>
 4    1  0.3094855E-002  0.2307862E+03  0.7818608E-02  0.1126088E+00
         -2   -1    0    0    0  501 -0.00000000000E+00  0.00000000000E+00  0.12995703111E+03  0.12995703111E+03  0.00000000000E+00 0.  1.
          2   -1    0    0  502    0  0.00000000000E+00 -0.00000000000E+00 -0.43331768938E+03  0.43331768938E+03  0.00000000000E+00 0. -1.
          6    1    1    2  502    0  0.87106394177E+02  0.12684930139E+03 -0.21722937336E+03  0.31693985205E+03  0.17200000000E+03 0. -1.
         -6    1    1    2    0  501 -0.87106394177E+02 -0.12684930139E+03 -0.86131284922E+02  0.24633486844E+03  0.17200000000E+03 0.  1.
</event>
<event>
 4    1  0.3094855E-002  0.7749484E+03  0.7818608E-02  0.9597003E-01
         -1   -1    0    0    0  501 -0.00000000000E+00  0.00000000000E+00  0.33284669899E+03  0.33284669899E+03  0.00000000000E+00 0.  1.
          1   -1    0    0  502    0  0.00000000000E+00 -0.00000000000E+00 -0.18106307146E+04  0.18106307146E+04  0.00000000000E+00 0. -1.
          6    1    1    2  502    0 -0.72499763842E+03  0.21293070068E+03 -0.67536578412E+03  0.10279416332E+04  0.17200000000E+03 0. -1.
         -6    1    1    2    0  501  0.72499763842E+03 -0.21293070068E+03 -0.80241823153E+03  0.11155357804E+04  0.17200000000E+03 0.  1.
</event>
<event>
 4    1  0.3094855E-002  0.1722377E+03  0.7818608E-02  0.1175534E+00
          2   -1    0    0  502    0  0.00000000000E+00  0.00000000000E+00  0.32348473685E+04  0.32348473685E+04  0.00000000000E+00 0. -1.
         -2   -1    0    0    0  501 -0.00000000000E+00 -0.00000000000E+00 -0.31487939571E+02  0.31487939571E+02  0.00000000000E+00 0.  1.
          6    1    1    2  502    0  0.30893215266E+01  0.85015884770E+01  0.29766042672E+04  0.29815832680E+04  0.17200000000E+03 0. -1.
         -6    1    1    2    0  501 -0.30893215266E+01 -0.85015884770E+01  0.22675516173E+03  0.28475204000E+03  0.17200000000E+03 0.  1.
</event>
<event>
 4    1  0.3094855E-002  0.2804954E+03  0.7818608E-02  0.1095419E+00
         -2   -1    0    0    0  501 -0.00000000000E+00  0.00000000000E+00  0.49992032039E+03  0.49992032039E+03  0.00000000000E+00 0.  1.
          2   -1    0    0  502    0  0.00000000000E+00 -0.00000000000E+00 -0.16929184541E+03  0.16929184541E+03  0.00000000000E+00 0. -1.
          6    1    1    2  502    0  0.17683558996E+03  0.13350226009E+03  0.25407015943E+03  0.37845650376E+03  0.17200000000E+03 0. -1.
         -6    1    1    2    0  501 -0.17683558996E+03 -0.13350226009E+03  0.76558315560E+02  0.29075566204E+03  0.17200000000E+03 0.  1.
</event>
<event>
 4    1  0.3094855E-002  0.2778041E+03  0.7818608E-02  0.1096894E+00
         -1   -1    0    0    0  501 -0.00000000000E+00  0.00000000000E+00  0.63902897718E+03  0.63902897718E+03  0.00000000000E+00 0.  1.
          1   -1    0    0  502    0  0.00000000000E+00 -0.00000000000E+00 -0.12560509385E+03  0.12560509385E+03  0.00000000000E+00 0. -1.
          6    1    1    2  502    0 -0.20213148949E+03  0.82060822724E+02  0.33172751356E+03  0.43268725533E+03  0.17200000000E+03 0. -1.
         -6    1    1    2    0  501  0.20213148949E+03 -0.82060822724E+02  0.18169636977E+03  0.33194681571E+03  0.17200000000E+03 0.  1.
</event>
<event>
 4    1  0.3094855E-002  0.3020319E+03  0.7818608E-02  0.1084229E+00
         -1   -1    0    0    0  501 -0.00000000000E+00  0.00000000000E+00  0.49061039063E+03  0.49061039063E+03  0.00000000000E+00 0.  1.
          1   -1    0    0  502    0  0.00000000000E+00 -0.00000000000E+00 -0.38464827461E+03  0.38464827461E+03  0.00000000000E+00 0. -1.
          6    1    1    2  502    0 -0.14908094195E+03 -0.19852993781E+03 -0.26156508176E+03  0.39954919028E+03  0.17200000000E+03 0. -1.
         -6    1    1    2    0  501  0.14908094195E+03  0.19852993781E+03  0.36752719778E+03  0.47570947496E+03  0.17200000000E+03 0.  1.
</event>
<event>
 4    1  0.3094855E-002  0.2632723E+03  0.7818608E-02  0.1105193E+00
          1   -1    0    0  502    0  0.00000000000E+00  0.00000000000E+00  0.37112876590E+03  0.37112876590E+03  0.00000000000E+00 0. -1.
         -1   -1    0    0    0  501 -0.00000000000E+00 -0.00000000000E+00 -0.48253848529E+03  0.48253848529E+03  0.00000000000E+00 0.  1.
          6    1    1    2  502    0  0.19707092738E+03  0.29855319607E+02  0.27847123483E+03  0.38322124048E+03  0.17200000000E+03 0.  1.
         -6    1    1    2    0  501 -0.19707092738E+03 -0.29855319607E+02 -0.38988095422E+03  0.47044601071E+03  0.17200000000E+03 0.  1.
</event>
<event>
 4    1  0.3094855E-002  0.1793564E+03  0.7818608E-02  0.1168427E+00
          2   -1    0    0  502    0  0.00000000000E+00  0.00000000000E+00  0.66705118592E+03  0.66705118592E+03  0.00000000000E+00 0. -1.
         -2   -1    0    0    0  501 -0.00000000000E+00 -0.00000000000E+00 -0.10270787057E+03  0.10270787057E+03  0.00000000000E+00 0.  1.
          6    1    1    2  502    0  0.42369440958E+00  0.50838302559E+02  0.56249026669E+03  0.59039310010E+03  0.17200000000E+03 0. -1.
         -6    1    1    2    0  501 -0.42369440958E+00 -0.50838302559E+02  0.18530486565E+01  0.17936595639E+03  0.17200000000E+03 0.  1.
</event>
<event>
 4    1  0.3094855E-002  0.1858259E+03  0.7818608E-02  0.1162281E+00
         -2   -1    0    0    0  501 -0.00000000000E+00  0.00000000000E+00  0.17151418168E+02  0.17151418168E+02  0.00000000000E+00 0.  1.
          2   -1    0    0  502    0  0.00000000000E+00 -0.00000000000E+00 -0.20221482759E+04  0.20221482759E+04  0.00000000000E+00 0. -1.
          6    1    1    2  502    0 -0.45531208788E+02 -0.53611368809E+02 -0.93512075021E+03  0.95340552092E+03  0.17200000000E+03 0. -1.
         -6    1    1    2    0  501  0.45531208788E+02  0.53611368809E+02 -0.10698761075E+04  0.10858941731E+04  0.17200000000E+03 0.  1.
</event>
<event>
 4    1  0.3094855E-002  0.5258255E+03  0.7818608E-02  0.1007250E+00
          2   -1    0    0  502    0  0.00000000000E+00  0.00000000000E+00  0.39717161359E+03  0.39717161359E+03  0.00000000000E+00 0. -1.
         -2   -1    0    0    0  501 -0.00000000000E+00 -0.00000000000E+00 -0.70849586085E+03  0.70849586085E+03  0.00000000000E+00 0.  1.
          6    1    1    2  502    0 -0.43423588470E+03  0.24155263918E+03 -0.82695911262E+02  0.53228854468E+03  0.17200000000E+03 0. -1.
         -6    1    1    2    0  501  0.43423588470E+03 -0.24155263918E+03 -0.22862833600E+03  0.57337892975E+03  0.17200000000E+03 0.  1.
</event>
<event>
 4    1  0.3094855E-002  0.2501834E+03  0.7818608E-02  0.1113189E+00
         -2   -1    0    0    0  501 -0.00000000000E+00  0.00000000000E+00  0.13771303401E+03  0.13771303401E+03  0.00000000000E+00 0.  1.
          2   -1    0    0  502    0  0.00000000000E+00 -0.00000000000E+00 -0.11093414473E+04  0.11093414473E+04  0.00000000000E+00 0. -1.
          6    1    1    2  502    0  0.17244237761E+01  0.18167219043E+03 -0.96487214336E+03  0.99677982095E+03  0.17200000000E+03 0. -1.
         -6    1    1    2    0  501 -0.17244237761E+01 -0.18167219043E+03 -0.67562698829E+01  0.25027466032E+03  0.17200000000E+03 0.  1.
</event>
<event>
 4    1  0.3094855E-002  0.3121623E+03  0.7818608E-02  0.1079314E+00
         -1   -1    0    0    0  501 -0.00000000000E+00  0.00000000000E+00  0.23813349670E+03  0.23813349670E+03  0.00000000000E+00 0.  1.
          1   -1    0    0  502    0  0.00000000000E+00 -0.00000000000E+00 -0.41104834422E+03  0.41104834422E+03  0.00000000000E+00 0. -1.
          6    1    1    2  502    0  0.23923243232E+03 -0.10309769445E+03 -0.64717622157E+02  0.31880034801E+03  0.17200000000E+03 0. -1.
         -6    1    1    2    0  501 -0.23923243232E+03  0.10309769445E+03 -0.10819722536E+03  0.33038149290E+03  0.17200000000E+03 0.  1.
</event>
<event>
 4    1  0.3094855E-002  0.5987059E+03  0.7818608E-02  0.9908095E-01
         -2   -1    0    0    0  501 -0.00000000000E+00  0.00000000000E+00  0.31471032675E+03  0.31471032675E+03  0.00000000000E+00 0.  1.
          2   -1    0    0  502    0  0.00000000000E+00 -0.00000000000E+00 -0.18099394590E+04  0.18099394590E+04  0.00000000000E+00 0. -1.
          6    1    1    2  502    0 -0.52814343868E+03  0.22344858011E+03 -0.13944197357E+04  0.15175161149E+04  0.17200000000E+03 0. -1.
         -6    1    1    2    0  501  0.52814343868E+03 -0.22344858011E+03 -0.10080939651E+03  0.60713367078E+03  0.17200000000E+03 0.  1.
</event>
<event>
 4    1  0.3094855E-002  0.2291379E+03  0.7818608E-02  0.1127248E+00
          2   -1    0    0  502    0  0.00000000000E+00  0.00000000000E+00  0.17170564995E+04  0.17170564995E+04  0.00000000000E+00 0. -1.
         -2   -1    0    0    0  501 -0.00000000000E+00 -0.00000000000E+00 -0.50584848349E+02  0.50584848349E+02  0.00000000000E+00 0.  1.
          6    1    1    2  502    0 -0.79398866868E+02  0.12890301357E+03  0.27740428658E+03  0.35980175817E+03  0.17200000000E+03 0.  1.
         -6    1    1    2    0  501  0.79398866868E+02 -0.12890301357E+03  0.13890673646E+04  0.14078395897E+04  0.17200000000E+03 0. -1.
</event>
<event>
 4    1  0.3094855E-002  0.2498437E+03  0.7818608E-02  0.1113404E+00
         -2   -1    0    0    0  501 -0.00000000000E+00  0.00000000000E+00  0.46411596741E+02  0.46411596741E+02  0.00000000000E+00 0.  1.
          2   -1    0    0  502    0  0.00000000000E+00 -0.00000000000E+00 -0.13493377330E+04  0.13493377330E+04  0.00000000000E+00 0. -1.
          6    1    1    2  502    0  0.14869566825E+03  0.10357347898E+03 -0.61172498932E+03  0.66077933523E+03  0.17200000000E+03 0. -1.
         -6    1    1    2    0  501 -0.14869566825E+03 -0.10357347898E+03 -0.69120114694E+03  0.73496999451E+03  0.17200000000E+03 0.  1.
</event>
<event>
 4    1  0.3094855E-002  0.3750015E+03  0.7818608E-02  0.1052797E+00
         -2   -1    0    0    0  501 -0.00000000000E+00  0.00000000000E+00  0.61675986928E+03  0.61675986928E+03  0.00000000000E+00 0.  1.
          2   -1    0    0  502    0  0.00000000000E+00 -0.00000000000E+00 -0.22922658653E+03  0.22922658653E+03  0.00000000000E+00 0. -1.
          6    1    1    2  502    0  0.33223533255E+03  0.25725536029E+02  0.16292426366E+03  0.40886481273E+03  0.17200000000E+03 0. -1.
         -6    1    1    2    0  501 -0.33223533255E+03 -0.25725536029E+02  0.22460901908E+03  0.43712164308E+03  0.17200000000E+03 0.  1.
</event>
<event>
 4    1  0.3094855E-002  0.1976283E+03  0.7818608E-02  0.1151756E+00
          1   -1    0    0  502    0  0.00000000000E+00  0.00000000000E+00  0.88282070081E+03  0.88282070081E+03  0.00000000000E+00 0. -1.
         -1   -1    0    0    0  501 -0.00000000000E+00 -0.00000000000E+00 -0.52668745129E+02  0.52668745129E+02  0.00000000000E+00 0.  1.
          6    1    1    2  502    0 -0.12168439481E+02 -0.96565335070E+02  0.22797061609E+03  0.30170770069E+03  0.17200000000E+03 0.  1.
         -6    1    1    2    0  501  0.12168439481E+02  0.96565335070E+02  0.60218133959E+03  0.63378174525E+03  0.17200000000E+03 0. -1.
</event>
<event>
 4    1  0.3094855E-002  0.4888723E+03  0.7818608E-02  0.1016725E+00
         -1   -1    0    0    0  501 -0.00000000000E+00  0.00000000000E+00  0.33954985415E+03  0.33954985415E+03  0.00000000000E+00 0.  1.
          1   -1    0    0  502    0  0.00000000000E+00 -0.00000000000E+00 -0.10127262726E+04  0.10127262726E+04  0.00000000000E+00 0. -1.
          6    1    1    2  502    0  0.24480608182E+03  0.38662911898E+03 -0.70998749837E+03  0.86201991925E+03  0.17200000000E+03 0. -1.
         -6    1    1    2    0  501 -0.24480608182E+03 -0.38662911898E+03  0.36811079974E+02  0.49025620745E+03  0.17200000000E+03 0. -1.
</event>
<event>
 4    1  0.3094855E-002  0.2296274E+03  0.7818608E-02  0.1126902E+00
         -2   -1    0    0    0  501 -0.00000000000E+00  0.00000000000E+00  0.31934464773E+03  0.31934464773E+03  0.00000000000E+00 0.  1.
          2   -1    0    0  502    0  0.00000000000E+00 -0.00000000000E+00 -0.32525582010E+03  0.32525582010E+03  0.00000000000E+00 0. -1.
          6    1    1    2  502    0  0.31677148294E+02  0.14879953701E+03 -0.22910655853E+03  0.32437410362E+03  0.17200000000E+03 0. -1.
         -6    1    1    2    0  501 -0.31677148294E+02 -0.14879953701E+03  0.22319538616E+03  0.32022636422E+03  0.17200000000E+03 0.  1.
</event>
<event>
 4    1  0.3094855E-002  0.2163055E+03  0.7818608E-02  0.1136668E+00
          1   -1    0    0  502    0  0.00000000000E+00  0.00000000000E+00  0.44042835849E+03  0.44042835849E+03  0.00000000000E+00 0. -1.
         -1   -1    0    0    0  501 -0.00000000000E+00 -0.00000000000E+00 -0.11599027208E+03  0.11599027208E+03  0.00000000000E+00 0.  1.
          6    1    1    2  502    0  0.97495534552E+02 -0.87742101596E+02  0.24290976189E+03  0.32525867870E+03  0.17200000000E+03 0. -1.
         -6    1    1    2    0  501 -0.97495534552E+02  0.87742101596E+02  0.81528324512E+02  0.23115995187E+03  0.17200000000E+03 0.  1.
</event>
<event>
 4    1  0.3094855E-002  0.2118506E+03  0.7818608E-02  0.1140109E+00
          2   -1    0    0  502    0  0.00000000000E+00  0.00000000000E+00  0.78099715214E+03  0.78099715214E+03  0.00000000000E+00 0. -1.
         -2   -1    0    0    0  501 -0.00000000000E+00 -0.00000000000E+00 -0.65264426502E+02  0.65264426502E+02  0.00000000000E+00 0.  1.
          6    1    1    2  502    0 -0.49372529747E+02  0.11339770756E+03  0.50413232222E+03  0.54683643357E+03  0.17200000000E+03 0. -1.
         -6    1    1    2    0  501  0.49372529747E+02 -0.11339770756E+03  0.21160040342E+03  0.29942514507E+03  0.17200000000E+03 0.  1.
</event>
<event>
 4    1  0.3094855E-002  0.2719739E+03  0.7818608E-02  0.1100155E+00
          2   -1    0    0  502    0  0.00000000000E+00  0.00000000000E+00  0.12526778821E+04  0.12526778821E+04  0.00000000000E+00 0. -1.
         -2   -1    0    0    0  501 -0.00000000000E+00 -0.00000000000E+00 -0.19185050024E+03  0.19185050024E+03  0.00000000000E+00 0.  1.
          6    1    1    2  502    0  0.16723241789E+03  0.12813701355E+03  0.11313322051E+04  0.11635644951E+04  0.17200000000E+03 0. -1.
         -6    1    1    2    0  501 -0.16723241789E+03 -0.12813701355E+03 -0.70504823285E+02  0.28096388725E+03  0.17200000000E+03 0.  1.
</event>
<event>
 4    1  0.3094855E-002  0.2030230E+03  0.7818608E-02  0.1147213E+00
          2   -1    0    0  502    0  0.00000000000E+00  0.00000000000E+00  0.15184287018E+03  0.15184287018E+03  0.00000000000E+00 0. -1.
         -2   -1    0    0    0  501 -0.00000000000E+00 -0.00000000000E+00 -0.28917602105E+03  0.28917602105E+03  0.00000000000E+00 0.  1.
          6    1    1    2  502    0 -0.37946951471E+02  0.10096714462E+03 -0.14077690803E+02  0.20351048326E+03  0.17200000000E+03 0.  1.
         -6    1    1    2    0  501  0.37946951471E+02 -0.10096714462E+03 -0.12325546006E+03  0.23750840797E+03  0.17200000000E+03 0. -1.
</event>
<event>
 4    1  0.3094855E-002  0.2369181E+03  0.7818608E-02  0.1121863E+00
         -1   -1    0    0    0  501 -0.00000000000E+00  0.00000000000E+00  0.39332704522E+03  0.39332704522E+03  0.00000000000E+00 0.  1.
          1   -1    0    0  502    0  0.00000000000E+00 -0.00000000000E+00 -0.14313307090E+03  0.14313307090E+03  0.00000000000E+00 0. -1.
          6    1    1    2  502    0  0.94763528166E+02  0.13253698313E+03  0.11044743730E+03  0.26139780905E+03  0.17200000000E+03 0.  1.
         -6    1    1    2    0  501 -0.94763528166E+02 -0.13253698313E+03  0.13974653702E+03  0.27506230708E+03  0.17200000000E+03 0. -1.
</event>
<event>
 4    1  0.3094855E-002  0.1979956E+03  0.7818608E-02  0.1151441E+00
         -2   -1    0    0    0  501 -0.00000000000E+00  0.00000000000E+00  0.13735921858E+03  0.13735921858E+03  0.00000000000E+00 0.  1.
          2   -1    0    0  502    0  0.00000000000E+00 -0.00000000000E+00 -0.28557433948E+03  0.28557433948E+03  0.00000000000E+00 0. -1.
          6    1    1    2  502    0 -0.11809172603E+02  0.97359226631E+02 -0.68877678958E+02  0.20963399110E+03  0.17200000000E+03 0. -1.
         -6    1    1    2    0  501  0.11809172603E+02 -0.97359226631E+02 -0.79337441948E+02  0.21329956695E+03  0.17200000000E+03 0. -1.
</event>
<event>
 4    1  0.3094855E-002  0.2014601E+03  0.7818608E-02  0.1148513E+00
         -1   -1    0    0    0  501 -0.00000000000E+00  0.00000000000E+00  0.10748560411E+04  0.10748560411E+04  0.00000000000E+00 0.  1.
          1   -1    0    0  502    0  0.00000000000E+00 -0.00000000000E+00 -0.60744098776E+03  0.60744098776E+03  0.00000000000E+00 0. -1.
          6    1    1    2  502    0 -0.92325879142E+02  0.49780662338E+02 -0.58087789609E+03  0.61482136631E+03  0.17200000000E+03 0. -1.
         -6    1    1    2    0  501  0.92325879142E+02 -0.49780662338E+02  0.10482929494E+04  0.10674756626E+04  0.17200000000E+03 0.  1.
</event>
<event>
 4    1  0.3094855E-002  0.1834746E+03  0.7818608E-02  0.1164482E+00
          2   -1    0    0  502    0  0.00000000000E+00  0.00000000000E+00  0.20283056676E+03  0.20283056676E+03  0.00000000000E+00 0. -1.
         -2   -1    0    0    0  501 -0.00000000000E+00 -0.00000000000E+00 -0.65918027760E+03  0.65918027760E+03  0.00000000000E+00 0.  1.
          6    1    1    2  502    0 -0.42434108630E+01 -0.63725457625E+02  0.14464456966E+03  0.23363431259E+03  0.17200000000E+03 0. -1.
         -6    1    1    2    0  501  0.42434108630E+01  0.63725457625E+02 -0.60099428050E+03  0.62837653177E+03  0.17200000000E+03 0.  1.
</event>
<event>
 4    1  0.3094855E-002  0.2380082E+03  0.7818608E-02  0.1121127E+00
         -3   -1    0    0    0  501 -0.00000000000E+00  0.00000000000E+00  0.12855987408E+03  0.12855987408E+03  0.00000000000E+00 0.  1.
          3   -1    0    0  502    0  0.00000000000E+00 -0.00000000000E+00 -0.53259963782E+03  0.53259963782E+03  0.00000000000E+00 0. -1.
          6    1    1    2  502    0  0.53913162994E+02  0.15542603109E+03 -0.33938867644E+03  0.41452690381E+03  0.17200000000E+03 0. -1.
         -6    1    1    2    0  501 -0.53913162994E+02 -0.15542603109E+03 -0.64651087300E+02  0.24663260809E+03  0.17200000000E+03 0.  1.
</event>
<event>
 4    1  0.3094855E-002  0.3764371E+03  0.7818608E-02  0.1052259E+00
          1   -1    0    0  502    0  0.00000000000E+00  0.00000000000E+00  0.11374427951E+04  0.11374427951E+04  0.00000000000E+00 0. -1.
         -1   -1    0    0    0  501 -0.00000000000E+00 -0.00000000000E+00 -0.27228572516E+03  0.27228572516E+03  0.00000000000E+00 0.  1.
          6    1    1    2  502    0 -0.14140295592E+03 -0.30352278702E+03  0.95172368828E+03  0.10234660996E+04  0.17200000000E+03 0. -1.
         -6    1    1    2    0  501  0.14140295592E+03  0.30352278702E+03 -0.86566618364E+02  0.38626242064E+03  0.17200000000E+03 0.  1.
</event>
<event>
 4    1  0.3094855E-002  0.2454855E+03  0.7818608E-02  0.1116192E+00
          2   -1    0    0  502    0  0.00000000000E+00  0.00000000000E+00  0.30471910551E+04  0.30471910551E+04  0.00000000000E+00 0. -1.
         -2   -1    0    0    0  501 -0.00000000000E+00 -0.00000000000E+00 -0.21264140349E+02  0.21264140349E+02  0.00000000000E+00 0.  1.
          6    1    1    2  502    0  0.15862884842E+03 -0.74269891145E+02  0.19187502182E+04  0.19343902212E+04  0.17200000000E+03 0. -1.
         -6    1    1    2    0  501 -0.15862884842E+03  0.74269891145E+02  0.11071766965E+04  0.11340649742E+04  0.17200000000E+03 0.  1.
</event>
<event>
 4    1  0.3094855E-002  0.2050805E+03  0.7818608E-02  0.1145522E+00
         -3   -1    0    0    0  501 -0.00000000000E+00  0.00000000000E+00  0.21806549351E+03  0.21806549351E+03  0.00000000000E+00 0.  1.
          3   -1    0    0  502    0  0.00000000000E+00 -0.00000000000E+00 -0.31792996776E+03  0.31792996776E+03  0.00000000000E+00 0. -1.
          6    1    1    2  502    0  0.11032951011E+03  0.17361692550E+02  0.11815186182E+03  0.23668099125E+03  0.17200000000E+03 0.  1.
         -6    1    1    2    0  501 -0.11032951011E+03 -0.17361692550E+02 -0.21801633607E+03  0.29931447002E+03  0.17200000000E+03 0. -1.
</event>
<event>
 4    1  0.3094855E-002  0.1993409E+03  0.7818608E-02  0.1150296E+00
         -2   -1    0    0    0  501 -0.00000000000E+00  0.00000000000E+00  0.45873519441E+03  0.45873519441E+03  0.00000000000E+00 0.  1.
          2   -1    0    0  502    0  0.00000000000E+00 -0.00000000000E+00 -0.48468601368E+03  0.48468601368E+03  0.00000000000E+00 0. -1.
          6    1    1    2  502    0  0.64683037278E+02 -0.77258720379E+02 -0.44046108127E+03  0.48346951227E+03  0.17200000000E+03 0. -1.
         -6    1    1    2    0  501 -0.64683037278E+02  0.77258720379E+02  0.41451026199E+03  0.45995169581E+03  0.17200000000E+03 0.  1.
</event>
<event>
 4    1  0.3094855E-002  0.1902525E+03  0.7818608E-02  0.1158234E+00
         -2   -1    0    0    0  501 -0.00000000000E+00  0.00000000000E+00  0.55633921678E+02  0.55633921678E+02  0.00000000000E+00 0.  1.
          2   -1    0    0  502    0  0.00000000000E+00 -0.00000000000E+00 -0.67004801674E+03  0.67004801674E+03  0.00000000000E+00 0. -1.
          6    1    1    2  502    0  0.81138652774E+02 -0.53430552691E+01 -0.36900592837E+03  0.41516431011E+03  0.17200000000E+03 0.  1.
         -6    1    1    2    0  501 -0.81138652774E+02  0.53430552691E+01 -0.24540816669E+03  0.31051762831E+03  0.17200000000E+03 0.  1.
</event>
<event>
 4    1  0.3094855E-002  0.3543158E+03  0.7818608E-02  0.1060857E+00
         -1   -1    0    0    0  501 -0.00000000000E+00  0.00000000000E+00  0.53407414062E+03  0.53407414062E+03  0.00000000000E+00 0.  1.
          1   -1    0    0  502    0  0.00000000000E+00 -0.00000000000E+00 -0.50478697028E+03  0.50478697028E+03  0.00000000000E+00 0. -1.
          6    1    1    2  502    0 -0.26575520577E+03  0.15915357360E+03 -0.36505176426E+03  0.50872633112E+03  0.17200000000E+03 0. -1.
         -6    1    1    2    0  501  0.26575520577E+03 -0.15915357360E+03  0.39433893460E+03  0.53013477977E+03  0.17200000000E+03 0.  1.
</event>
<event>
 4    1  0.3094855E-002  0.4502726E+03  0.7818608E-02  0.1027641E+00
          2   -1    0    0  502    0  0.00000000000E+00  0.00000000000E+00  0.75491767425E+03  0.75491767425E+03  0.00000000000E+00 0. -1.
         -2   -1    0    0    0  501 -0.00000000000E+00 -0.00000000000E+00 -0.28089408514E+03  0.28089408514E+03  0.00000000000E+00 0.  1.
          6    1    1    2  502    0 -0.39915846212E+03 -0.11761783963E+03  0.12851363678E+03  0.46825333840E+03  0.17200000000E+03 0. -1.
         -6    1    1    2    0  501  0.39915846212E+03  0.11761783963E+03  0.34550995233E+03  0.56755842099E+03  0.17200000000E+03 0.  1.
</event>
<event>
 4    1  0.3094855E-002  0.1769611E+03  0.7818608E-02  0.1170777E+00
         -2   -1    0    0    0  501 -0.00000000000E+00  0.00000000000E+00  0.12264132079E+02  0.12264132079E+02  0.00000000000E+00 0.  1.
          2   -1    0    0  502    0  0.00000000000E+00 -0.00000000000E+00 -0.25677449015E+04  0.25677449015E+04  0.00000000000E+00 0. -1.
          6    1    1    2  502    0  0.91195727433E+01 -0.40596551129E+02 -0.11813242731E+04  0.11945050376E+04  0.17200000000E+03 0.  1.
         -6    1    1    2    0  501 -0.91195727433E+01  0.40596551129E+02 -0.13741564963E+04  0.13855039960E+04  0.17200000000E+03 0.  1.
</event>
<event>
 4    1  0.3094855E-002  0.2112685E+03  0.7818608E-02  0.1140565E+00
          2   -1    0    0  502    0  0.00000000000E+00  0.00000000000E+00  0.35593010174E+03  0.35593010174E+03  0.00000000000E+00 0. -1.
         -2   -1    0    0    0  501 -0.00000000000E+00 -0.00000000000E+00 -0.19364966204E+03  0.19364966204E+03  0.00000000000E+00 0.  1.
          6    1    1    2  502    0  0.11397338362E+03 -0.45392034134E+02  0.24427105343E+03  0.32295931088E+03  0.17200000000E+03 0. -1.
         -6    1    1    2    0  501 -0.11397338362E+03  0.45392034134E+02 -0.81990613735E+02  0.22662045291E+03  0.17200000000E+03 0.  1.
</event>
<event>
 4    1  0.3094855E-002  0.2115965E+03  0.7818608E-02  0.1140308E+00
         -1   -1    0    0    0  501 -0.00000000000E+00  0.00000000000E+00  0.18066858047E+03  0.18066858047E+03  0.00000000000E+00 0.  1.
          1   -1    0    0  502    0  0.00000000000E+00 -0.00000000000E+00 -0.28195380491E+03  0.28195380491E+03  0.00000000000E+00 0. -1.
          6    1    1    2  502    0  0.77464209533E+02  0.95856054875E+02  0.29840930020E+02  0.21369035570E+03  0.17200000000E+03 0.  1.
         -6    1    1    2    0  501 -0.77464209533E+02 -0.95856054875E+02 -0.13112615446E+03  0.24893202968E+03  0.17200000000E+03 0. -1.
</event>
<event>
 4    1  0.3094855E-002  0.1729635E+03  0.7818608E-02  0.1174792E+00
         -2   -1    0    0    0  501 -0.00000000000E+00  0.00000000000E+00  0.63091910587E+02  0.63091910587E+02  0.00000000000E+00 0.  1.
          2   -1    0    0  502    0  0.00000000000E+00 -0.00000000000E+00 -0.49098659386E+03  0.49098659386E+03  0.00000000000E+00 0. -1.
          6    1    1    2  502    0  0.14036200097E+02 -0.11633757386E+02 -0.26521713809E+03  0.31663305191E+03  0.17200000000E+03 0.  1.
         -6    1    1    2    0  501 -0.14036200097E+02  0.11633757386E+02 -0.16267754518E+03  0.23744545254E+03  0.17200000000E+03 0.  1.
</event>
<event>
 4    1  0.3094855E-002  0.1803677E+03  0.7818608E-02  0.1167448E+00
          2   -1    0    0  502    0  0.00000000000E+00  0.00000000000E+00  0.48891903654E+03  0.48891903654E+03  0.00000000000E+00 0. -1.
         -2   -1    0    0    0  501 -0.00000000000E+00 -0.00000000000E+00 -0.14832921023E+03  0.14832921023E+03  0.00000000000E+00 0.  1.
          6    1    1    2  502    0  0.45991400072E+02  0.28866897747E+02 -0.66304803564E+02  0.19216876344E+03  0.17200000000E+03 0.  1.
         -6    1    1    2    0  501 -0.45991400072E+02 -0.28866897747E+02  0.40689462987E+03  0.44507948333E+03  0.17200000000E+03 0. -1.
</event>
<event>
 4    1  0.3094855E-002  0.1914934E+03  0.7818608E-02  0.1157121E+00
          2   -1    0    0  502    0  0.00000000000E+00  0.00000000000E+00  0.12697887265E+04  0.12697887265E+04  0.00000000000E+00 0. -1.
         -2   -1    0    0    0  501 -0.00000000000E+00 -0.00000000000E+00 -0.38964727838E+02  0.38964727838E+02  0.00000000000E+00 0.  1.
          6    1    1    2  502    0 -0.63435356040E+02 -0.55332410511E+02  0.94834302384E+03  0.96748344219E+03  0.17200000000E+03 0. -1.
         -6    1    1    2    0  501  0.63435356040E+02  0.55332410511E+02  0.28248097478E+03  0.34127001210E+03  0.17200000000E+03 0.  1.
</event>
<event>
 4    1  0.3094855E-002  0.1760714E+03  0.7818608E-02  0.1171660E+00
          2   -1    0    0  502    0  0.00000000000E+00  0.00000000000E+00  0.30204040083E+03  0.30204040083E+03  0.00000000000E+00 0. -1.
         -2   -1    0    0    0  501 -0.00000000000E+00 -0.00000000000E+00 -0.12092300808E+03  0.12092300808E+03  0.00000000000E+00 0.  1.
          6    1    1    2  502    0 -0.37570391256E+02  0.23690370585E+01  0.17279302871E+03  0.24669531290E+03  0.17200000000E+03 0. -1.
         -6    1    1    2    0  501  0.37570391256E+02 -0.23690370585E+01  0.83243640419E+01  0.17626809601E+03  0.17200000000E+03 0.  1.
</event>
<event>
 4    1  0.3094855E-002  0.2193705E+03  0.7818608E-02  0.1134353E+00
          1   -1    0    0  502    0  0.00000000000E+00  0.00000000000E+00  0.10723129170E+03  0.10723129170E+03  0.00000000000E+00 0. -1.
         -1   -1    0    0    0  501 -0.00000000000E+00 -0.00000000000E+00 -0.45093613567E+03  0.45093613567E+03  0.00000000000E+00 0.  1.
          6    1    1    2  502    0  0.84907312320E+02  0.10644331786E+03 -0.15256150225E+03  0.26720487191E+03  0.17200000000E+03 0.  1.
         -6    1    1    2    0  501 -0.84907312320E+02 -0.10644331786E+03 -0.19114334172E+03  0.29096255547E+03  0.17200000000E+03 0.  1.
</event>
<event>
 4    1  0.3094855E-002  0.2570046E+03  0.7818608E-02  0.1108956E+00
         -4   -1    0    0    0  501 -0.00000000000E+00  0.00000000000E+00  0.67263375392E+03  0.67263375392E+03  0.00000000000E+00 0.  1.
          4   -1    0    0  502    0  0.00000000000E+00 -0.00000000000E+00 -0.10318659398E+03  0.10318659398E+03  0.00000000000E+00 0. -1.
          6    1    1    2  502    0 -0.10513007952E+03 -0.15942090014E+03  0.37001478147E+03  0.45051336886E+03  0.17200000000E+03 0. -1.
         -6    1    1    2    0  501  0.10513007952E+03  0.15942090014E+03  0.19943237848E+03  0.32530697903E+03  0.17200000000E+03 0.  1.
</event>
<event>
 4    1  0.3094855E-002  0.2977095E+03  0.7818608E-02  0.1086391E+00
         -2   -1    0    0    0  501 -0.00000000000E+00  0.00000000000E+00  0.15337304594E+03  0.15337304594E+03  0.00000000000E+00 0.  1.
          2   -1    0    0  502    0  0.00000000000E+00 -0.00000000000E+00 -0.10858324991E+04  0.10858324991E+04  0.00000000000E+00 0. -1.
          6    1    1    2  502    0  0.23799614123E+03  0.49038451087E+02 -0.89001345105E+03  0.93848541596E+03  0.17200000000E+03 0. -1.
         -6    1    1    2    0  501 -0.23799614123E+03 -0.49038451087E+02 -0.42446002102E+02  0.30072012906E+03  0.17200000000E+03 0.  1.
</event>
<event>
 4    1  0.3094855E-002  0.1833953E+03  0.7818608E-02  0.1164557E+00
          2   -1    0    0  502    0  0.00000000000E+00  0.00000000000E+00  0.22221399083E+04  0.22221399083E+04  0.00000000000E+00 0. -1.
         -2   -1    0    0    0  501 -0.00000000000E+00 -0.00000000000E+00 -0.27227372003E+02  0.27227372003E+02  0.00000000000E+00 0.  1.
          6    1    1    2  502    0 -0.12001317099E+02 -0.62496333862E+02  0.18469521257E+04  0.18560350153E+04  0.17200000000E+03 0. -1.
         -6    1    1    2    0  501  0.12001317099E+02  0.62496333862E+02  0.34796041061E+03  0.39333226503E+03  0.17200000000E+03 0.  1.
</event>
<event>
 4    1  0.3094855E-002  0.2052664E+03  0.7818608E-02  0.1145370E+00
          2   -1    0    0  502    0  0.00000000000E+00  0.00000000000E+00  0.19989998817E+03  0.19989998817E+03  0.00000000000E+00 0. -1.
         -2   -1    0    0    0  501 -0.00000000000E+00 -0.00000000000E+00 -0.24419267716E+03  0.24419267716E+03  0.00000000000E+00 0.  1.
          6    1    1    2  502    0  0.84573078260E+02  0.73468867424E+02  0.59993468981E+02  0.21385391361E+03  0.17200000000E+03 0. -1.
         -6    1    1    2    0  501 -0.84573078260E+02 -0.73468867424E+02 -0.10428615797E+03  0.23023875172E+03  0.17200000000E+03 0.  1.
</event>
<event>
 4    1  0.3094855E-002  0.2712025E+03  0.7818608E-02  0.1100593E+00
          1   -1    0    0  502    0  0.00000000000E+00  0.00000000000E+00  0.23811136571E+03  0.23811136571E+03  0.00000000000E+00 0. -1.
         -1   -1    0    0    0  501 -0.00000000000E+00 -0.00000000000E+00 -0.76089163777E+03  0.76089163777E+03  0.00000000000E+00 0.  1.
          6    1    1    2  502    0 -0.38736385009E+02  0.20607346168E+03  0.12359527143E+03  0.29803786715E+03  0.17200000000E+03 0. -1.
         -6    1    1    2    0  501  0.38736385009E+02 -0.20607346168E+03 -0.64637554349E+03  0.70096513633E+03  0.17200000000E+03 0.  1.
</event>
<event>
 4    1  0.3094855E-002  0.4071722E+03  0.7818608E-02  0.1041324E+00
          2   -1    0    0  502    0  0.00000000000E+00  0.00000000000E+00  0.11186322336E+04  0.11186322336E+04  0.00000000000E+00 0. -1.
         -2   -1    0    0    0  501 -0.00000000000E+00 -0.00000000000E+00 -0.23534026573E+03  0.23534026573E+03  0.00000000000E+00 0.  1.
          6    1    1    2  502    0 -0.31784116784E+03  0.18756919923E+03  0.85357609062E+03  0.94571737583E+03  0.17200000000E+03 0. -1.
         -6    1    1    2    0  501  0.31784116784E+03 -0.18756919923E+03  0.29715877213E+02  0.40825512346E+03  0.17200000000E+03 0.  1.
</event>
<event>
 4    1  0.3094855E-002  0.2484141E+03  0.7818608E-02  0.1114311E+00
         -1   -1    0    0    0  501 -0.00000000000E+00  0.00000000000E+00  0.77569514155E+02  0.77569514155E+02  0.00000000000E+00 0.  1.
          1   -1    0    0  502    0  0.00000000000E+00 -0.00000000000E+00 -0.13341567642E+04  0.13341567642E+04  0.00000000000E+00 0. -1.
          6    1    1    2  502    0 -0.62794953361E+02 -0.16787601737E+03 -0.10767884768E+04  0.11050714851E+04  0.17200000000E+03 0. -1.
         -6    1    1    2    0  501  0.62794953361E+02  0.16787601737E+03 -0.17979877324E+03  0.30665479326E+03  0.17200000000E+03 0.  1.
</event>
<event>
 4    1  0.3094855E-002  0.1733240E+03  0.7818608E-02  0.1174425E+00
          1   -1    0    0  502    0  0.00000000000E+00  0.00000000000E+00  0.17149424399E+04  0.17149424399E+04  0.00000000000E+00 0. -1.
         -1   -1    0    0    0  501 -0.00000000000E+00 -0.00000000000E+00 -0.22590456505E+02  0.22590456505E+02  0.00000000000E+00 0.  1.
          6    1    1    2  502    0  0.21379001980E+02 -0.37105287328E+00  0.43447803347E+03  0.46777383528E+03  0.17200000000E+03 0.  1.
         -6    1    1    2    0  501 -0.21379001980E+02  0.37105287328E+00  0.12578739499E+04  0.12697590611E+04  0.17200000000E+03 0. -1.
</event>
<event>
 4    1  0.3094855E-002  0.3271386E+03  0.7818608E-02  0.1072410E+00
         -1   -1    0    0    0  501 -0.00000000000E+00  0.00000000000E+00  0.19403807004E+03  0.19403807004E+03  0.00000000000E+00 0.  1.
          1   -1    0    0  502    0  0.00000000000E+00 -0.00000000000E+00 -0.91511157405E+03  0.91511157405E+03  0.00000000000E+00 0. -1.
          6    1    1    2  502    0 -0.26796664125E+03  0.75030373444E+02 -0.10979489991E+02  0.32732281766E+03  0.17200000000E+03 0.  1.
         -6    1    1    2    0  501  0.26796664125E+03 -0.75030373444E+02 -0.71009401403E+03  0.78182682642E+03  0.17200000000E+03 0. -1.
</event>
<event>
 4    1  0.3094855E-002  0.3018869E+03  0.7818608E-02  0.1084301E+00
          2   -1    0    0  502    0  0.00000000000E+00  0.00000000000E+00  0.14998333249E+03  0.14998333249E+03  0.00000000000E+00 0. -1.
         -2   -1    0    0    0  501 -0.00000000000E+00 -0.00000000000E+00 -0.61171891506E+03  0.61171891506E+03  0.00000000000E+00 0.  1.
          6    1    1    2  502    0  0.18677446181E+03  0.16330037825E+03 -0.19976437745E+03  0.36199657404E+03  0.17200000000E+03 0. -1.
         -6    1    1    2    0  501 -0.18677446181E+03 -0.16330037825E+03 -0.26197120512E+03  0.39970567351E+03  0.17200000000E+03 0. -1.
</event>
<event>
 4    1  0.3094855E-002  0.2611293E+03  0.7818608E-02  0.1106467E+00
          2   -1    0    0  502    0  0.00000000000E+00  0.00000000000E+00  0.46117249865E+03  0.46117249865E+03  0.00000000000E+00 0. -1.
         -2   -1    0    0    0  501 -0.00000000000E+00 -0.00000000000E+00 -0.18625051008E+03  0.18625051008E+03  0.00000000000E+00 0.  1.
          6    1    1    2  502    0 -0.18044267837E+03 -0.77749308169E+02  0.28443037556E+03  0.38612064648E+03  0.17200000000E+03 0. -1.
         -6    1    1    2    0  501  0.18044267837E+03  0.77749308169E+02 -0.95083869919E+01  0.26130236225E+03  0.17200000000E+03 0.  1.
</event>
<event>
 4    1  0.3094855E-002  0.3505995E+03  0.7818608E-02  0.1062369E+00
         -2   -1    0    0    0  501 -0.00000000000E+00  0.00000000000E+00  0.65353390173E+03  0.65353390173E+03  0.00000000000E+00 0.  1.
          2   -1    0    0  502    0  0.00000000000E+00 -0.00000000000E+00 -0.34914251288E+03  0.34914251288E+03  0.00000000000E+00 0. -1.
          6    1    1    2  502    0  0.18432074200E+03  0.24364287674E+03  0.49269779887E+03  0.60470745681E+03  0.17200000000E+03 0.  1.
         -6    1    1    2    0  501 -0.18432074200E+03 -0.24364287674E+03 -0.18830641001E+03  0.39796895779E+03  0.17200000000E+03 0. -1.
</event>
<event>
 4    1  0.3094855E-002  0.1906957E+03  0.7818608E-02  0.1157835E+00
          1   -1    0    0  502    0  0.00000000000E+00  0.00000000000E+00  0.21939213521E+03  0.21939213521E+03  0.00000000000E+00 0. -1.
         -1   -1    0    0    0  501 -0.00000000000E+00 -0.00000000000E+00 -0.17282986512E+03  0.17282986512E+03  0.00000000000E+00 0.  1.
          6    1    1    2  502    0  0.73783139903E+02 -0.36563810799E+02  0.62965432444E+02  0.20082208463E+03  0.17200000000E+03 0. -1.
         -6    1    1    2    0  501 -0.73783139903E+02  0.36563810799E+02 -0.16403162349E+02  0.19139991570E+03  0.17200000000E+03 0.  1.
</event>
<event>
 4    1  0.3094855E-002  0.1752330E+03  0.7818608E-02  0.1172498E+00
         -1   -1    0    0    0  501 -0.00000000000E+00  0.00000000000E+00  0.68813047317E+03  0.68813047317E+03  0.00000000000E+00 0.  1.
          1   -1    0    0  502    0  0.00000000000E+00 -0.00000000000E+00 -0.83979599833E+02  0.83979599833E+02  0.00000000000E+00 0. -1.
          6    1    1    2  502    0  0.22936293748E+02  0.24423731217E+02  0.37792005731E+02  0.17926189755E+03  0.17200000000E+03 0. -1.
         -6    1    1    2    0  501 -0.22936293748E+02 -0.24423731217E+02  0.56635886761E+03  0.59284817545E+03  0.17200000000E+03 0.  1.
</event>
<event>
 4    1  0.3094855E-002  0.2421094E+03  0.7818608E-02  0.1118396E+00
         -2   -1    0    0    0  501 -0.00000000000E+00  0.00000000000E+00  0.26340637161E+03  0.26340637161E+03  0.00000000000E+00 0.  1.
          2   -1    0    0  502    0  0.00000000000E+00 -0.00000000000E+00 -0.22566973851E+03  0.22566973851E+03  0.00000000000E+00 0. -1.
          6    1    1    2  502    0  0.63642713109E+02 -0.15805868955E+03  0.47692771460E+02  0.24676212174E+03  0.17200000000E+03 0. -1.
         -6    1    1    2    0  501 -0.63642713109E+02  0.15805868955E+03 -0.99561383626E+01  0.24231398838E+03  0.17200000000E+03 0.  1.
</event>
<event>
 4    1  0.3094855E-002  0.2862121E+03  0.7818608E-02  0.1092344E+00
          1   -1    0    0  502    0  0.00000000000E+00  0.00000000000E+00  0.98206402558E+03  0.98206402558E+03  0.00000000000E+00 0. -1.
         -1   -1    0    0    0  501 -0.00000000000E+00 -0.00000000000E+00 -0.15961801279E+03  0.15961801279E+03  0.00000000000E+00 0.  1.
          6    1    1    2  502    0 -0.22623972849E+03 -0.33896296800E+02  0.80564819132E+03  0.85497741599E+03  0.17200000000E+03 0. -1.
         -6    1    1    2    0  501  0.22623972849E+03  0.33896296800E+02  0.16797821466E+02  0.28670462237E+03  0.17200000000E+03 0.  1.
</event>
<event>
 4    1  0.3094855E-002  0.2490584E+03  0.7818608E-02  0.1113901E+00
         -2   -1    0    0    0  501 -0.00000000000E+00  0.00000000000E+00  0.52354839795E+02  0.52354839795E+02  0.00000000000E+00 0.  1.
          2   -1    0    0  502    0  0.00000000000E+00 -0.00000000000E+00 -0.31458382681E+04  0.31458382681E+04  0.00000000000E+00 0. -1.
          6    1    1    2  502    0  0.67707115292E+02  0.16691867683E+03 -0.28092939303E+04  0.28203124800E+04  0.17200000000E+03 0. -1.
         -6    1    1    2    0  501 -0.67707115292E+02 -0.16691867683E+03 -0.28418949795E+03  0.37788062782E+03  0.17200000000E+03 0.  1.
</event>
<event>
 4    1  0.3094855E-002  0.2064232E+03  0.7818608E-02  0.1144430E+00
          2   -1    0    0  502    0  0.00000000000E+00  0.00000000000E+00  0.40365175058E+03  0.40365175058E+03  0.00000000000E+00 0. -1.
         -2   -1    0    0    0  501 -0.00000000000E+00 -0.00000000000E+00 -0.11793148714E+03  0.11793148714E+03  0.00000000000E+00 0.  1.
          6    1    1    2  502    0 -0.11350980758E+03  0.11918082778E+02  0.22731886079E+03  0.30705761933E+03  0.17200000000E+03 0. -1.
         -6    1    1    2    0  501  0.11350980758E+03 -0.11918082778E+02  0.58401402645E+02  0.21452561839E+03  0.17200000000E+03 0.  1.
</event>
<event>
 4    1  0.3094855E-002  0.1811876E+03  0.7818608E-02  0.1166659E+00
          1   -1    0    0  502    0  0.00000000000E+00  0.00000000000E+00  0.32924864194E+03  0.32924864194E+03  0.00000000000E+00 0. -1.
         -1   -1    0    0    0  501 -0.00000000000E+00 -0.00000000000E+00 -0.11602851879E+03  0.11602851879E+03  0.00000000000E+00 0.  1.
          6    1    1    2  502    0  0.34554379432E+02 -0.45287158392E+02  0.19010816553E+03  0.26262148894E+03  0.17200000000E+03 0. -1.
         -6    1    1    2    0  501 -0.34554379432E+02  0.45287158392E+02  0.23111957625E+02  0.18265567179E+03  0.17200000000E+03 0. -1.
</event>
<event>
 4    1  0.3094855E-002  0.3961436E+03  0.7818608E-02  0.1045123E+00
          1   -1    0    0  502    0  0.00000000000E+00  0.00000000000E+00  0.50183778586E+03  0.50183778586E+03  0.00000000000E+00 0. -1.
         -1   -1    0    0    0  501 -0.00000000000E+00 -0.00000000000E+00 -0.33323504281E+03  0.33323504281E+03  0.00000000000E+00 0.  1.
          6    1    1    2  502    0 -0.33929697131E+03  0.11055900595E+03  0.18792536681E+03  0.43845828995E+03  0.17200000000E+03 0. -1.
         -6    1    1    2    0  501  0.33929697131E+03 -0.11055900595E+03 -0.19322623765E+02  0.39661453872E+03  0.17200000000E+03 0.  1.
</event>
<event>
 4    1  0.3094855E-002  0.2397830E+03  0.7818608E-02  0.1119937E+00
          2   -1    0    0  502    0  0.00000000000E+00  0.00000000000E+00  0.28400830064E+04  0.28400830064E+04  0.00000000000E+00 0. -1.
         -2   -1    0    0    0  501 -0.00000000000E+00 -0.00000000000E+00 -0.25551089852E+02  0.25551089852E+02  0.00000000000E+00 0.  1.
          6    1    1    2  502    0  0.16679403053E+03  0.95729320613E+01  0.20602404970E+04  0.20741472453E+04  0.17200000000E+03 0. -1.
         -6    1    1    2    0  501 -0.16679403053E+03 -0.95729320613E+01  0.75429141958E+03  0.79148685099E+03  0.17200000000E+03 0.  1.
</event>
<event>
 4    1  0.3094855E-002  0.2216587E+03  0.7818608E-02  0.1132652E+00
          2   -1    0    0  502    0  0.00000000000E+00  0.00000000000E+00  0.79205977161E+03  0.79205977161E+03  0.00000000000E+00 0. -1.
         -2   -1    0    0    0  501 -0.00000000000E+00 -0.00000000000E+00 -0.98886926959E+02  0.98886926959E+02  0.00000000000E+00 0.  1.
          6    1    1    2  502    0  0.91603956898E+02 -0.10562805518E+03  0.61854555076E+03  0.65706253075E+03  0.17200000000E+03 0. -1.
         -6    1    1    2    0  501 -0.91603956898E+02  0.10562805518E+03  0.74627293894E+02  0.23388416781E+03  0.17200000000E+03 0.  1.
</event>
<event>
 4    1  0.3094855E-002  0.2089515E+03  0.7818608E-02  0.1142399E+00
          1   -1    0    0  502    0  0.00000000000E+00  0.00000000000E+00  0.86080886347E+03  0.86080886347E+03  0.00000000000E+00 0. -1.
         -1   -1    0    0    0  501 -0.00000000000E+00 -0.00000000000E+00 -0.66626137790E+02  0.66626137790E+02  0.00000000000E+00 0.  1.
          6    1    1    2  502    0 -0.28543477931E+02 -0.11516075372E+03  0.62366300252E+03  0.65773571443E+03  0.17200000000E+03 0. -1.
         -6    1    1    2    0  501  0.28543477931E+02  0.11516075372E+03  0.17051972317E+03  0.26969928683E+03  0.17200000000E+03 0.  1.
</event>
<event>
 4    1  0.3094855E-002  0.1826307E+03  0.7818608E-02  0.1165281E+00
          1   -1    0    0  502    0  0.00000000000E+00  0.00000000000E+00  0.20155325323E+04  0.20155325323E+04  0.00000000000E+00 0. -1.
         -1   -1    0    0    0  501 -0.00000000000E+00 -0.00000000000E+00 -0.16630228885E+02  0.16630228885E+02  0.00000000000E+00 0.  1.
          6    1    1    2  502    0 -0.16495883480E+02 -0.59142786061E+02  0.10706941230E+04  0.10861583165E+04  0.17200000000E+03 0.  1.
         -6    1    1    2    0  501  0.16495883480E+02  0.59142786061E+02  0.92820818037E+03  0.94600444471E+03  0.17200000000E+03 0. -1.
</event>
<event>
 4    1  0.3094855E-002  0.1791018E+03  0.7818608E-02  0.1168675E+00
          1   -1    0    0  502    0  0.00000000000E+00  0.00000000000E+00  0.13239323333E+04  0.13239323333E+04  0.00000000000E+00 0. -1.
         -1   -1    0    0    0  501 -0.00000000000E+00 -0.00000000000E+00 -0.42300517942E+02  0.42300517942E+02  0.00000000000E+00 0.  1.
          6    1    1    2  502    0 -0.49933844491E+02 -0.26748583172E+00  0.10873144801E+04  0.11019665326E+04  0.17200000000E+03 0. -1.
         -6    1    1    2    0  501  0.49933844491E+02  0.26748583172E+00  0.19431733523E+03  0.26426631860E+03  0.17200000000E+03 0.  1.
</event>
<event>
 4    1  0.3094855E-002  0.2323676E+03  0.7818608E-02  0.1124984E+00
         -2   -1    0    0    0  501 -0.00000000000E+00  0.00000000000E+00  0.46829202569E+02  0.46829202569E+02  0.00000000000E+00 0.  1.
          2   -1    0    0  502    0  0.00000000000E+00 -0.00000000000E+00 -0.12535845484E+04  0.12535845484E+04  0.00000000000E+00 0. -1.
          6    1    1    2  502    0  0.12785660096E+02 -0.15571515279E+03 -0.78754483345E+03  0.82110994794E+03  0.17200000000E+03 0. -1.
         -6    1    1    2    0  501 -0.12785660096E+02  0.15571515279E+03 -0.41921051242E+03  0.47930380307E+03  0.17200000000E+03 0.  1.
</event>
<event>
 4    1  0.3094855E-002  0.1978299E+03  0.7818608E-02  0.1151583E+00
         -1   -1    0    0    0  501 -0.00000000000E+00  0.00000000000E+00  0.58845139211E+03  0.58845139211E+03  0.00000000000E+00 0.  1.
          1   -1    0    0  502    0  0.00000000000E+00 -0.00000000000E+00 -0.21791566869E+03  0.21791566869E+03  0.00000000000E+00 0. -1.
          6    1    1    2  502    0  0.97737789845E+02 -0.64034795045E-01 -0.15080434789E+03  0.24875415777E+03  0.17200000000E+03 0. -1.
         -6    1    1    2    0  501 -0.97737789845E+02  0.64034795045E-01  0.52134007131E+03  0.55761290303E+03  0.17200000000E+03 0.  1.
</event>
<event>
 4    1  0.3094855E-002  0.3214984E+03  0.7818608E-02  0.1074962E+00
          1   -1    0    0  502    0  0.00000000000E+00  0.00000000000E+00  0.83939779885E+02  0.83939779885E+02  0.00000000000E+00 0. -1.
         -1   -1    0    0    0  501 -0.00000000000E+00 -0.00000000000E+00 -0.13856476622E+04  0.13856476622E+04  0.00000000000E+00 0.  1.
          6    1    1    2  502    0  0.79929995708E+02 -0.25959274434E+03 -0.40567338780E+03  0.51762157480E+03  0.17200000000E+03 0. -1.
         -6    1    1    2    0  501 -0.79929995708E+02  0.25959274434E+03 -0.89603449454E+03  0.95196586732E+03  0.17200000000E+03 0. -1.
</event>
<event>
 4    1  0.3094855E-002  0.1959514E+03  0.7818608E-02  0.1153200E+00
         -2   -1    0    0    0  501 -0.00000000000E+00  0.00000000000E+00  0.17934709428E+03  0.17934709428E+03  0.00000000000E+00 0.  1.
          2   -1    0    0  502    0  0.00000000000E+00 -0.00000000000E+00 -0.32164275743E+03  0.32164275743E+03  0.00000000000E+00 0. -1.
          6    1    1    2  502    0  0.41098135963E+02 -0.84403134932E+02 -0.21599729529E+03  0.29163637897E+03  0.17200000000E+03 0. -1.
         -6    1    1    2    0  501 -0.41098135963E+02  0.84403134932E+02  0.73701632136E+02  0.20935347273E+03  0.17200000000E+03 0.  1.
</event>
<event>
 4    1  0.3094855E-002  0.2404922E+03  0.7818608E-02  0.1119465E+00
          1   -1    0    0  502    0  0.00000000000E+00  0.00000000000E+00  0.18680133353E+04  0.18680133353E+04  0.00000000000E+00 0. -1.
         -1   -1    0    0    0  501 -0.00000000000E+00 -0.00000000000E+00 -0.33037436545E+02  0.33037436545E+02  0.00000000000E+00 0.  1.
          6    1    1    2  502    0 -0.16433118364E+03  0.35323885201E+02  0.67921953647E+03  0.72053847469E+03  0.17200000000E+03 0. -1.
         -6    1    1    2    0  501  0.16433118364E+03 -0.35323885201E+02  0.11557563623E+04  0.11805122972E+04  0.17200000000E+03 0.  1.
</event>
<event>
 4    1  0.3094855E-002  0.3685663E+03  0.7818608E-02  0.1055243E+00
         -1   -1    0    0    0  501 -0.00000000000E+00  0.00000000000E+00  0.43237922427E+03  0.43237922427E+03  0.00000000000E+00 0.  1.
          1   -1    0    0  502    0  0.00000000000E+00 -0.00000000000E+00 -0.35638176656E+03  0.35638176656E+03  0.00000000000E+00 0. -1.
          6    1    1    2  502    0  0.21410722987E+03  0.24579511070E+03 -0.97728747491E+02  0.38130309521E+03  0.17200000000E+03 0. -1.
         -6    1    1    2    0  501 -0.21410722987E+03 -0.24579511070E+03  0.17372620520E+03  0.40745789562E+03  0.17200000000E+03 0.  1.
</event>
<event>
 4    1  0.3094855E-002  0.6189007E+03  0.7818608E-02  0.9866951E-01
         -2   -1    0    0    0  501 -0.00000000000E+00  0.00000000000E+00  0.52380131495E+03  0.52380131495E+03  0.00000000000E+00 0.  1.
          2   -1    0    0  502    0  0.00000000000E+00 -0.00000000000E+00 -0.80808935380E+03  0.80808935380E+03  0.00000000000E+00 0. -1.
          6    1    1    2  502    0  0.32351967637E+03  0.49878757519E+03 -0.34747565981E+03  0.70977275259E+03  0.17200000000E+03 0. -1.
         -6    1    1    2    0  501 -0.32351967637E+03 -0.49878757519E+03  0.63187620953E+02  0.62211791616E+03  0.17200000000E+03 0.  1.
</event>
<event>
 4    1  0.3094855E-002  0.2193496E+03  0.7818608E-02  0.1134369E+00
          2   -1    0    0  502    0  0.00000000000E+00  0.00000000000E+00  0.46070757172E+03  0.46070757172E+03  0.00000000000E+00 0. -1.
         -2   -1    0    0    0  501 -0.00000000000E+00 -0.00000000000E+00 -0.14099936101E+03  0.14099936101E+03  0.00000000000E+00 0.  1.
          6    1    1    2  502    0  0.15273456497E+01 -0.13611735658E+03  0.31305874988E+03  0.38225652176E+03  0.17200000000E+03 0. -1.
         -6    1    1    2    0  501 -0.15273456497E+01  0.13611735658E+03  0.66494608252E+01  0.21945041097E+03  0.17200000000E+03 0.  1.
</event>
<event>
 4    1  0.3094855E-002  0.3934498E+03  0.7818608E-02  0.1046072E+00
         -1   -1    0    0    0  501 -0.00000000000E+00  0.00000000000E+00  0.12295828689E+03  0.12295828689E+03  0.00000000000E+00 0.  1.
          1   -1    0    0  502    0  0.00000000000E+00 -0.00000000000E+00 -0.12590093449E+04  0.12590093449E+04  0.00000000000E+00 0. -1.
          6    1    1    2  502    0  0.79229142525E+02  0.34487893146E+03 -0.57101511523E+03  0.69344141512E+03  0.17200000000E+03 0. -1.
         -6    1    1    2    0  501 -0.79229142525E+02 -0.34487893146E+03 -0.56503594277E+03  0.68852621664E+03  0.17200000000E+03 0. -1.
</event>
<event>
 4    1  0.3094855E-002  0.1765372E+03  0.7818608E-02  0.1171197E+00
          2   -1    0    0  502    0  0.00000000000E+00  0.00000000000E+00  0.74744887171E+01  0.74744887171E+01  0.00000000000E+00 0. -1.
         -2   -1    0    0    0  501 -0.00000000000E+00 -0.00000000000E+00 -0.50083976027E+04  0.50083976027E+04  0.00000000000E+00 0.  1.
          6    1    1    2  502    0  0.12263651538E+02 -0.37828396878E+02 -0.14740912530E+04  0.14846246687E+04  0.17200000000E+03 0. -1.
         -6    1    1    2    0  501 -0.12263651538E+02  0.37828396878E+02 -0.35268318610E+04  0.35312474227E+04  0.17200000000E+03 0.  1.
</event>
<event>
 4    1  0.3094855E-002  0.2416612E+03  0.7818608E-02  0.1118691E+00
          1   -1    0    0  502    0  0.00000000000E+00  0.00000000000E+00  0.25909388800E+03  0.25909388800E+03  0.00000000000E+00 0. -1.
         -1   -1    0    0    0  501 -0.00000000000E+00 -0.00000000000E+00 -0.22934442442E+03  0.22934442442E+03  0.00000000000E+00 0.  1.
          6    1    1    2  502    0 -0.53562754040E+02 -0.16108119490E+03  0.46896953067E+02  0.24616954356E+03  0.17200000000E+03 0. -1.
         -6    1    1    2    0  501  0.53562754040E+02  0.16108119490E+03 -0.17147489488E+02  0.24226876886E+03  0.17200000000E+03 0.  1.
</event>
<event>
 4    1  0.3094855E-002  0.3041935E+03  0.7818608E-02  0.1083163E+00
         -2   -1    0    0    0  501 -0.00000000000E+00  0.00000000000E+00  0.30287162769E+03  0.30287162769E+03  0.00000000000E+00 0.  1.
          2   -1    0    0  502    0  0.00000000000E+00 -0.00000000000E+00 -0.30789676699E+03  0.30789676699E+03  0.00000000000E+00 0. -1.
          6    1    1    2  502    0 -0.23994328347E+03 -0.73327346729E+02 -0.29337271447E+02  0.30560489944E+03  0.17200000000E+03 0. -1.
         -6    1    1    2    0  501  0.23994328347E+03  0.73327346729E+02  0.24312132149E+02  0.30516349525E+03  0.17200000000E+03 0.  1.
</event>
<event>
 4    1  0.3094855E-002  0.1890539E+03  0.7818608E-02  0.1159317E+00
          2   -1    0    0  502    0  0.00000000000E+00  0.00000000000E+00  0.45186864801E+03  0.45186864801E+03  0.00000000000E+00 0. -1.
         -2   -1    0    0    0  501 -0.00000000000E+00 -0.00000000000E+00 -0.81369030833E+02  0.81369030833E+02  0.00000000000E+00 0.  1.
          6    1    1    2  502    0  0.78467356024E+02 -0.50857169033E+00  0.14069617338E+03  0.23566246585E+03  0.17200000000E+03 0.  1.
         -6    1    1    2    0  501 -0.78467356024E+02  0.50857169033E+00  0.22980344379E+03  0.29757521299E+03  0.17200000000E+03 0. -1.
</event>
<event>
 4    1  0.3094855E-002  0.2375506E+03  0.7818608E-02  0.1121435E+00
          2   -1    0    0  502    0  0.00000000000E+00  0.00000000000E+00  0.11684042976E+04  0.11684042976E+04  0.00000000000E+00 0. -1.
         -2   -1    0    0    0  501 -0.00000000000E+00 -0.00000000000E+00 -0.88918293212E+02  0.88918293212E+02  0.00000000000E+00 0.  1.
          6    1    1    2  502    0 -0.15598411461E+03  0.50152068273E+02  0.96465472790E+03  0.99347320951E+03  0.17200000000E+03 0. -1.
         -6    1    1    2    0  501  0.15598411461E+03 -0.50152068273E+02  0.11483127652E+03  0.26384938133E+03  0.17200000000E+03 0.  1.
</event>
<event>
 4    1  0.3094855E-002  0.1998036E+03  0.7818608E-02  0.1149905E+00
         -2   -1    0    0    0  501 -0.00000000000E+00  0.00000000000E+00  0.48300170142E+02  0.48300170142E+02  0.00000000000E+00 0.  1.
          2   -1    0    0  502    0  0.00000000000E+00 -0.00000000000E+00 -0.95079166143E+03  0.95079166143E+03  0.00000000000E+00 0. -1.
          6    1    1    2  502    0 -0.85731510848E+02  0.54658907083E+02 -0.27065180541E+03  0.33641326943E+03  0.17200000000E+03 0.  1.
         -6    1    1    2    0  501  0.85731510848E+02 -0.54658907083E+02 -0.63183968588E+03  0.66267856215E+03  0.17200000000E+03 0.  1.
</event>
<event>
 4    1  0.3094855E-002  0.1784468E+03  0.7818608E-02  0.1169315E+00
          3   -1    0    0  502    0  0.00000000000E+00  0.00000000000E+00  0.19512358779E+03  0.19512358779E+03  0.00000000000E+00 0. -1.
         -3   -1    0    0    0  501 -0.00000000000E+00 -0.00000000000E+00 -0.19668728977E+03  0.19668728977E+03  0.00000000000E+00 0.  1.
          6    1    1    2  502    0  0.46151885423E+02 -0.11368778775E+02 -0.81622361158E+02  0.19622807011E+03  0.17200000000E+03 0.  1.
         -6    1    1    2    0  501 -0.46151885423E+02  0.11368778775E+02  0.80058659180E+02  0.19558280745E+03  0.17200000000E+03 0.  1.
</event>
<event>
 4    1  0.3094855E-002  0.2541759E+03  0.7818608E-02  0.1110694E+00
          2   -1    0    0  502    0  0.00000000000E+00  0.00000000000E+00  0.58258416770E+03  0.58258416770E+03  0.00000000000E+00 0. -1.
         -2   -1    0    0    0  501 -0.00000000000E+00 -0.00000000000E+00 -0.71377310408E+03  0.71377310408E+03  0.00000000000E+00 0.  1.
          6    1    1    2  502    0  0.85695044748E+01  0.18694367177E+03  0.53010822417E+03  0.58789463525E+03  0.17200000000E+03 0. -1.
         -6    1    1    2    0  501 -0.85695044748E+01 -0.18694367177E+03 -0.66129716055E+03  0.70846263654E+03  0.17200000000E+03 0.  1.
</event>
<event>
 4    1  0.3094855E-002  0.2132004E+03  0.7818608E-02  0.1139056E+00
         -3   -1    0    0    0  501 -0.00000000000E+00  0.00000000000E+00  0.26889315063E+03  0.26889315063E+03  0.00000000000E+00 0.  1.
          3   -1    0    0  502    0  0.00000000000E+00 -0.00000000000E+00 -0.16961200145E+03  0.16961200145E+03  0.00000000000E+00 0. -1.
          6    1    1    2  502    0 -0.68325077499E+02 -0.10584004533E+03  0.62342727060E+02  0.22212844714E+03  0.17200000000E+03 0.  1.
         -6    1    1    2    0  501  0.68325077499E+02  0.10584004533E+03  0.36938422127E+02  0.21637670494E+03  0.17200000000E+03 0. -1.
</event>
<event>
 4    1  0.3094855E-002  0.2072753E+03  0.7818608E-02  0.1143742E+00
          1   -1    0    0  502    0  0.00000000000E+00  0.00000000000E+00  0.73790515261E+03  0.73790515261E+03  0.00000000000E+00 0. -1.
         -1   -1    0    0    0  501 -0.00000000000E+00 -0.00000000000E+00 -0.70306360716E+02  0.70306360716E+02  0.00000000000E+00 0.  1.
          6    1    1    2  502    0 -0.15909912035E+02  0.11456839680E+03  0.50132909719E+03  0.54248862342E+03  0.17200000000E+03 0. -1.
         -6    1    1    2    0  501  0.15909912035E+02 -0.11456839680E+03  0.16626969470E+03  0.26572288991E+03  0.17200000000E+03 0.  1.
</event>
<event>
 4    1  0.3094855E-002  0.1909642E+03  0.7818608E-02  0.1157595E+00
         -1   -1    0    0    0  501 -0.00000000000E+00  0.00000000000E+00  0.13856335515E+03  0.13856335515E+03  0.00000000000E+00 0.  1.
          1   -1    0    0  502    0  0.00000000000E+00 -0.00000000000E+00 -0.26354791431E+03  0.26354791431E+03  0.00000000000E+00 0. -1.
          6    1    1    2  502    0  0.24662512749E+02  0.79215398295E+02 -0.69988491117E+02  0.20338561343E+03  0.17200000000E+03 0.  1.
         -6    1    1    2    0  501 -0.24662512749E+02 -0.79215398295E+02 -0.54996068042E+02  0.19872565602E+03  0.17200000000E+03 0. -1.
</event>
<event>
 4    1  0.3094855E-002  0.2587721E+03  0.7818608E-02  0.1107883E+00
         -1   -1    0    0    0  501 -0.00000000000E+00  0.00000000000E+00  0.98842264898E+02  0.98842264898E+02  0.00000000000E+00 0.  1.
          1   -1    0    0  502    0  0.00000000000E+00 -0.00000000000E+00 -0.77744851017E+03  0.77744851017E+03  0.00000000000E+00 0. -1.
          6    1    1    2  502    0  0.13120412923E+03  0.14200159369E+03 -0.49642223324E+03  0.55981962255E+03  0.17200000000E+03 0. -1.
         -6    1    1    2    0  501 -0.13120412923E+03 -0.14200159369E+03 -0.18218401203E+03  0.31647115252E+03  0.17200000000E+03 0.  1.
</event>
<event>
 4    1  0.3094855E-002  0.5604009E+03  0.7818608E-02  0.9991148E-01
         -2   -1    0    0    0  501 -0.00000000000E+00  0.00000000000E+00  0.55571818521E+03  0.55571818521E+03  0.00000000000E+00 0.  1.
          2   -1    0    0  502    0  0.00000000000E+00 -0.00000000000E+00 -0.11483511146E+04  0.11483511146E+04  0.00000000000E+00 0. -1.
          6    1    1    2  502    0 -0.17194079955E+03  0.50487776824E+03 -0.90352670371E+03  0.10632072722E+04  0.17200000000E+03 0. -1.
         -6    1    1    2    0  501  0.17194079955E+03 -0.50487776824E+03  0.31089377436E+03  0.64086202755E+03  0.17200000000E+03 0.  1.
</event>
<event>
 4    1  0.3094855E-002  0.3305829E+03  0.7818608E-02  0.1070879E+00
          1   -1    0    0  502    0  0.00000000000E+00  0.00000000000E+00  0.71211658698E+03  0.71211658698E+03  0.00000000000E+00 0. -1.
         -1   -1    0    0    0  501 -0.00000000000E+00 -0.00000000000E+00 -0.22449090146E+03  0.22449090146E+03  0.00000000000E+00 0.  1.
          6    1    1    2  502    0  0.17936554238E+03  0.21801165800E+03  0.50722521426E+03  0.60544405093E+03  0.17200000000E+03 0. -1.
         -6    1    1    2    0  501 -0.17936554238E+03 -0.21801165800E+03 -0.19599528738E+02  0.33116343751E+03  0.17200000000E+03 0.  1.
</event>
<event>
 4    1  0.3094855E-002  0.2071658E+03  0.7818608E-02  0.1143830E+00
         -2   -1    0    0    0  501 -0.00000000000E+00  0.00000000000E+00  0.31880361675E+02  0.31880361675E+02  0.00000000000E+00 0.  1.
          2   -1    0    0  502    0  0.00000000000E+00 -0.00000000000E+00 -0.14840951663E+04  0.14840951663E+04  0.00000000000E+00 0. -1.
          6    1    1    2  502    0 -0.70278616849E+02 -0.91622071490E+02 -0.95714826379E+03  0.97931123084E+03  0.17200000000E+03 0. -1.
         -6    1    1    2    0  501  0.70278616849E+02  0.91622071490E+02 -0.49506654086E+03  0.53666429717E+03  0.17200000000E+03 0.  1.
</event>
<event>
 4    1  0.3094855E-002  0.2404899E+03  0.7818608E-02  0.1119467E+00
         -2   -1    0    0    0  501 -0.00000000000E+00  0.00000000000E+00  0.82423028772E+02  0.82423028772E+02  0.00000000000E+00 0.  1.
          2   -1    0    0  502    0  0.00000000000E+00 -0.00000000000E+00 -0.70495529543E+03  0.70495529543E+03  0.00000000000E+00 0. -1.
          6    1    1    2  502    0 -0.49445333608E+02  0.16064411929E+03 -0.33806194846E+03  0.41487498729E+03  0.17200000000E+03 0. -1.
         -6    1    1    2    0  501  0.49445333608E+02 -0.16064411929E+03 -0.28447031819E+03  0.37250333691E+03  0.17200000000E+03 0.  1.
</event>
<event>
 4    1  0.3094855E-002  0.2636630E+03  0.7818608E-02  0.1104962E+00
         -1   -1    0    0    0  501 -0.00000000000E+00  0.00000000000E+00  0.40981079575E+03  0.40981079575E+03  0.00000000000E+00 0.  1.
          1   -1    0    0  502    0  0.00000000000E+00 -0.00000000000E+00 -0.21664889608E+03  0.21664889608E+03  0.00000000000E+00 0. -1.
          6    1    1    2  502    0  0.18693320059E+03 -0.70641203510E+02 -0.49333606147E+02  0.26823871050E+03  0.17200000000E+03 0. -1.
         -6    1    1    2    0  501 -0.18693320059E+03  0.70641203510E+02  0.24249550582E+03  0.35822098132E+03  0.17200000000E+03 0.  1.
</event>
<event>
 4    1  0.3094855E-002  0.1917431E+03  0.7818608E-02  0.1156898E+00
          3   -1    0    0  502    0  0.00000000000E+00  0.00000000000E+00  0.46296109263E+03  0.46296109263E+03  0.00000000000E+00 0. -1.
         -3   -1    0    0    0  501 -0.00000000000E+00 -0.00000000000E+00 -0.22763223162E+03  0.22763223162E+03  0.00000000000E+00 0.  1.
          6    1    1    2  502    0 -0.80877636275E+02 -0.25302963388E+02  0.39629375550E+03  0.44024331074E+03  0.17200000000E+03 0. -1.
         -6    1    1    2    0  501  0.80877636275E+02  0.25302963388E+02 -0.16096489449E+03  0.25035001351E+03  0.17200000000E+03 0.  1.
</event>
<event>
 4    1  0.3094855E-002  0.2664803E+03  0.7818608E-02  0.1103311E+00
         -1   -1    0    0    0  501 -0.00000000000E+00  0.00000000000E+00  0.76090724400E+03  0.76090724400E+03  0.00000000000E+00 0.  1.
          1   -1    0    0  502    0  0.00000000000E+00 -0.00000000000E+00 -0.11317993970E+03  0.11317993970E+03  0.00000000000E+00 0. -1.
          6    1    1    2  502    0 -0.17725809694E+03  0.10003659732E+03  0.14081223751E+03  0.30139648300E+03  0.17200000000E+03 0. -1.
         -6    1    1    2    0  501  0.17725809694E+03 -0.10003659732E+03  0.50691506679E+03  0.57269070070E+03  0.17200000000E+03 0.  1.
</event>
<event>
 4    1  0.3094855E-002  0.4858982E+03  0.7818608E-02  0.1017527E+00
         -2   -1    0    0    0  501 -0.00000000000E+00  0.00000000000E+00  0.20113811315E+03  0.20113811315E+03  0.00000000000E+00 0.  1.
          2   -1    0    0  502    0  0.00000000000E+00 -0.00000000000E+00 -0.19775985745E+04  0.19775985745E+04  0.00000000000E+00 0. -1.
          6    1    1    2  502    0  0.40744879399E+03 -0.20124249573E+03 -0.15827390406E+04  0.16556448690E+04  0.17200000000E+03 0. -1.
         -6    1    1    2    0  501 -0.40744879399E+03  0.20124249573E+03 -0.19372142075E+03  0.52309181858E+03  0.17200000000E+03 0.  1.
</event>
<event>
 4    1  0.3094855E-002  0.2789595E+03  0.7818608E-02  0.1096259E+00
         -1   -1    0    0    0  501 -0.00000000000E+00  0.00000000000E+00  0.59894804678E+02  0.59894804678E+02  0.00000000000E+00 0.  1.
          1   -1    0    0  502    0  0.00000000000E+00 -0.00000000000E+00 -0.14567193972E+04  0.14567193972E+04  0.00000000000E+00 0. -1.
          6    1    1    2  502    0  0.86877814371E+02 -0.20170930485E+03 -0.44909433566E+03  0.52868149260E+03  0.17200000000E+03 0. -1.
         -6    1    1    2    0  501 -0.86877814371E+02  0.20170930485E+03 -0.94773025684E+03  0.98793270926E+03  0.17200000000E+03 0. -1.
</event>
<event>
 4    1  0.3094855E-002  0.4675432E+03  0.7818608E-02  0.1022616E+00
          2   -1    0    0  502    0  0.00000000000E+00  0.00000000000E+00  0.14485287948E+04  0.14485287948E+04  0.00000000000E+00 0. -1.
         -2   -1    0    0    0  501 -0.00000000000E+00 -0.00000000000E+00 -0.17928520364E+03  0.17928520364E+03  0.00000000000E+00 0.  1.
          6    1    1    2  502    0  0.45086381251E+02 -0.43241167146E+03  0.95842155128E+03  0.10663810320E+04  0.17200000000E+03 0. -1.
         -6    1    1    2    0  501 -0.45086381251E+02  0.43241167146E+03  0.31082203991E+03  0.56143296651E+03  0.17200000000E+03 0.  1.
</event>
<event>
 4    1  0.3094855E-002  0.2375415E+03  0.7818608E-02  0.1121441E+00
          2   -1    0    0  502    0  0.00000000000E+00  0.00000000000E+00  0.26510970607E+03  0.26510970607E+03  0.00000000000E+00 0. -1.
         -2   -1    0    0    0  501 -0.00000000000E+00 -0.00000000000E+00 -0.30718466262E+03  0.30718466262E+03  0.00000000000E+00 0.  1.
          6    1    1    2  502    0 -0.10856657578E+02  0.16347511497E+03  0.13754241342E+03  0.27448842547E+03  0.17200000000E+03 0. -1.
         -6    1    1    2    0  501  0.10856657578E+02 -0.16347511497E+03 -0.17961736996E+03  0.29780594323E+03  0.17200000000E+03 0.  1.
</event>
<event>
 4    1  0.3094855E-002  0.2560602E+03  0.7818608E-02  0.1109534E+00
          1   -1    0    0  502    0  0.00000000000E+00  0.00000000000E+00  0.13127484288E+04  0.13127484288E+04  0.00000000000E+00 0. -1.
         -1   -1    0    0    0  501 -0.00000000000E+00 -0.00000000000E+00 -0.59582560606E+02  0.59582560606E+02  0.00000000000E+00 0.  1.
          6    1    1    2  502    0 -0.49657336955E+02  0.18307644534E+03  0.90252958138E+03  0.93815056426E+03  0.17200000000E+03 0. -1.
         -6    1    1    2    0  501  0.49657336955E+02 -0.18307644534E+03  0.35063628684E+03  0.43418042517E+03  0.17200000000E+03 0. -1.
</event>
<event>
 4    1  0.3094855E-002  0.3245175E+03  0.7818608E-02  0.1073589E+00
         -2   -1    0    0    0  501 -0.00000000000E+00  0.00000000000E+00  0.23495463374E+03  0.23495463374E+03  0.00000000000E+00 0.  1.
          2   -1    0    0  502    0  0.00000000000E+00 -0.00000000000E+00 -0.46528254552E+03  0.46528254552E+03  0.00000000000E+00 0. -1.
          6    1    1    2  502    0  0.74467406489E+01 -0.27508568246E+03 -0.18220901012E+03  0.37217161365E+03  0.17200000000E+03 0. -1.
         -6    1    1    2    0  501 -0.74467406489E+01  0.27508568246E+03 -0.48118901652E+02  0.32806556561E+03  0.17200000000E+03 0.  1.
</event>
<event>
 4    1  0.3094855E-002  0.2070184E+03  0.7818608E-02  0.1143949E+00
          1   -1    0    0  502    0  0.00000000000E+00  0.00000000000E+00  0.30290065594E+03  0.30290065594E+03  0.00000000000E+00 0. -1.
         -1   -1    0    0    0  501 -0.00000000000E+00 -0.00000000000E+00 -0.18815633537E+03  0.18815633537E+03  0.00000000000E+00 0.  1.
          6    1    1    2  502    0  0.45771403112E+02  0.10572422060E+03  0.17965241543E+03  0.27410148218E+03  0.17200000000E+03 0.  1.
         -6    1    1    2    0  501 -0.45771403112E+02 -0.10572422060E+03 -0.64908094854E+02  0.21695550913E+03  0.17200000000E+03 0.  1.
</event>
<event>
 4    1  0.3094855E-002  0.1939519E+03  0.7818608E-02  0.1154945E+00
         -2   -1    0    0    0  501 -0.00000000000E+00  0.00000000000E+00  0.39147155989E+02  0.39147155989E+02  0.00000000000E+00 0.  1.
          2   -1    0    0  502    0  0.00000000000E+00 -0.00000000000E+00 -0.96504863984E+03  0.96504863984E+03  0.00000000000E+00 0. -1.
          6    1    1    2  502    0 -0.80219644560E+02 -0.39976685070E+02 -0.43011389739E+03  0.47182124947E+03  0.17200000000E+03 0. -1.
         -6    1    1    2    0  501  0.80219644560E+02  0.39976685070E+02 -0.49578758646E+03  0.53237454636E+03  0.17200000000E+03 0.  1.
</event>
<event>
 4    1  0.3094855E-002  0.2101841E+03  0.7818608E-02  0.1141420E+00
         -2   -1    0    0    0  501 -0.00000000000E+00  0.00000000000E+00  0.30995670760E+02  0.30995670760E+02  0.00000000000E+00 0.  1.
          2   -1    0    0  502    0  0.00000000000E+00 -0.00000000000E+00 -0.17663381540E+04  0.17663381540E+04  0.00000000000E+00 0. -1.
          6    1    1    2  502    0  0.11906735701E+03  0.20403557068E+02 -0.12625643153E+04  0.12799398387E+04  0.17200000000E+03 0. -1.
         -6    1    1    2    0  501 -0.11906735701E+03 -0.20403557068E+02 -0.47277816803E+03  0.51739398606E+03  0.17200000000E+03 0.  1.
</event>
<event>
 4    1  0.3094855E-002  0.1729801E+03  0.7818608E-02  0.1174775E+00
          2   -1    0    0  502    0  0.00000000000E+00  0.00000000000E+00  0.69915091246E+03  0.69915091246E+03  0.00000000000E+00 0. -1.
         -2   -1    0    0    0  501 -0.00000000000E+00 -0.00000000000E+00 -0.15609340284E+03  0.15609340284E+03  0.00000000000E+00 0.  1.
          6    1    1    2  502    0 -0.18387612976E+02 -0.27603910301E-01  0.63584161084E+03  0.65895118116E+03  0.17200000000E+03 0. -1.
         -6    1    1    2    0  501  0.18387612976E+02  0.27603910301E-01 -0.92784101217E+02  0.19629313414E+03  0.17200000000E+03 0.  1.
</event>
<event>
 4    1  0.3094855E-002  0.8630007E+03  0.7818608E-02  0.9473052E-01
         -1   -1    0    0    0  501 -0.00000000000E+00  0.00000000000E+00  0.34622997786E+03  0.34622997786E+03  0.00000000000E+00 0.  1.
          1   -1    0    0  502    0  0.00000000000E+00 -0.00000000000E+00 -0.21519394113E+04  0.21519394113E+04  0.00000000000E+00 0. -1.
          6    1    1    2  502    0 -0.34087576895E+03  0.77394444490E+03 -0.87797319604E+03  0.12311000067E+04  0.17200000000E+03 0. -1.
         -6    1    1    2    0  501  0.34087576895E+03 -0.77394444490E+03 -0.92773623737E+03  0.12670693824E+04  0.17200000000E+03 0.  1.
</event>
<event>
 4    1  0.3094855E-002  0.2753739E+03  0.7818608E-02  0.1098243E+00
          1   -1    0    0  502    0  0.00000000000E+00  0.00000000000E+00  0.12184000386E+03  0.12184000386E+03  0.00000000000E+00 0. -1.
         -1   -1    0    0    0  501 -0.00000000000E+00 -0.00000000000E+00 -0.66528766935E+03  0.66528766935E+03  0.00000000000E+00 0.  1.
          6    1    1    2  502    0 -0.14467449098E+03 -0.15911027639E+03 -0.37167264307E+03  0.46257036438E+03  0.17200000000E+03 0.  1.
         -6    1    1    2    0  501  0.14467449098E+03  0.15911027639E+03 -0.17177502242E+03  0.32455730884E+03  0.17200000000E+03 0.  1.
</event>
<event>
 4    1  0.3094855E-002  0.2661696E+03  0.7818608E-02  0.1103492E+00
         -1   -1    0    0    0  501 -0.00000000000E+00  0.00000000000E+00  0.12502670853E+03  0.12502670853E+03  0.00000000000E+00 0.  1.
          1   -1    0    0  502    0  0.00000000000E+00 -0.00000000000E+00 -0.60518635418E+03  0.60518635418E+03  0.00000000000E+00 0. -1.
          6    1    1    2  502    0 -0.13343157498E+03  0.15316097673E+03 -0.33221288514E+03  0.42568964170E+03  0.17200000000E+03 0. -1.
         -6    1    1    2    0  501  0.13343157498E+03 -0.15316097673E+03 -0.14794676051E+03  0.30452342101E+03  0.17200000000E+03 0.  1.
</event>
<event>
 4    1  0.3094855E-002  0.1781717E+03  0.7818608E-02  0.1169584E+00
         -3   -1    0    0    0  501 -0.00000000000E+00  0.00000000000E+00  0.46719720334E+03  0.46719720334E+03  0.00000000000E+00 0.  1.
          3   -1    0    0  502    0  0.00000000000E+00 -0.00000000000E+00 -0.87890586106E+02  0.87890586106E+02  0.00000000000E+00 0. -1.
          6    1    1    2  502    0 -0.26722972912E+01 -0.46411405544E+02  0.32185901674E+03  0.36788365877E+03  0.17200000000E+03 0.  1.
         -6    1    1    2    0  501  0.26722972912E+01  0.46411405544E+02  0.57447600494E+02  0.18720413067E+03  0.17200000000E+03 0. -1.
</event>
<event>
 4    1  0.3094855E-002  0.3507741E+03  0.7818608E-02  0.1062298E+00
          2   -1    0    0  502    0  0.00000000000E+00  0.00000000000E+00  0.23590256306E+04  0.23590256306E+04  0.00000000000E+00 0. -1.
         -2   -1    0    0    0  501 -0.00000000000E+00 -0.00000000000E+00 -0.13795496596E+03  0.13795496596E+03  0.00000000000E+00 0.  1.
          6    1    1    2  502    0  0.29463824750E+03  0.81527910657E+02  0.20951175722E+04  0.21242787337E+04  0.17200000000E+03 0. -1.
         -6    1    1    2    0  501 -0.29463824750E+03 -0.81527910657E+02  0.12595309250E+03  0.37270186291E+03  0.17200000000E+03 0.  1.
</event>
<event>
 4    1  0.3094855E-002  0.2359792E+03  0.7818608E-02  0.1122501E+00
          2   -1    0    0  502    0  0.00000000000E+00  0.00000000000E+00  0.19562762734E+04  0.19562762734E+04  0.00000000000E+00 0. -1.
         -2   -1    0    0    0  501 -0.00000000000E+00 -0.00000000000E+00 -0.30634048194E+02  0.30634048194E+02  0.00000000000E+00 0.  1.
          6    1    1    2  502    0 -0.93936831036E+02 -0.13144593936E+03  0.12271482949E+04  0.12496315861E+04  0.17200000000E+03 0. -1.
         -6    1    1    2    0  501  0.93936831036E+02  0.13144593936E+03  0.69849393032E+03  0.73727873555E+03  0.17200000000E+03 0. -1.
</event>
<event>
 4    1  0.3094855E-002  0.3516728E+03  0.7818608E-02  0.1061931E+00
          1   -1    0    0  502    0  0.00000000000E+00  0.00000000000E+00  0.71528478937E+03  0.71528478937E+03  0.00000000000E+00 0. -1.
         -1   -1    0    0    0  501 -0.00000000000E+00 -0.00000000000E+00 -0.17794431748E+03  0.17794431748E+03  0.00000000000E+00 0.  1.
          6    1    1    2  502    0  0.28050892179E+03  0.12411475697E+03  0.34385546819E+03  0.49184378730E+03  0.17200000000E+03 0. -1.
         -6    1    1    2    0  501 -0.28050892179E+03 -0.12411475697E+03  0.19348500370E+03  0.40138531956E+03  0.17200000000E+03 0.  1.
</event>
<event>
 4    1  0.3094855E-002  0.2428621E+03  0.7818608E-02  0.1117901E+00
         -2   -1    0    0    0  501 -0.00000000000E+00  0.00000000000E+00  0.17798264710E+03  0.17798264710E+03  0.00000000000E+00 0.  1.
          2   -1    0    0  502    0  0.00000000000E+00 -0.00000000000E+00 -0.36957110496E+03  0.36957110496E+03  0.00000000000E+00 0. -1.
          6    1    1    2  502    0 -0.32186207121E+02  0.16841036821E+03 -0.77985568091E+01  0.24298728678E+03  0.17200000000E+03 0.  1.
         -6    1    1    2    0  501  0.32186207121E+02 -0.16841036821E+03 -0.18378990105E+03  0.30456646528E+03  0.17200000000E+03 0. -1.
</event>
<event>
 4    1  0.3094855E-002  0.3764633E+03  0.7818608E-02  0.1052249E+00
         -2   -1    0    0    0  501 -0.00000000000E+00  0.00000000000E+00  0.24757096880E+03  0.24757096880E+03  0.00000000000E+00 0.  1.
          2   -1    0    0  502    0  0.00000000000E+00 -0.00000000000E+00 -0.10839980721E+04  0.10839980721E+04  0.00000000000E+00 0. -1.
          6    1    1    2  502    0  0.33269873219E+03  0.38107589892E+02 -0.87557351975E+03  0.95307587489E+03  0.17200000000E+03 0. -1.
         -6    1    1    2    0  501 -0.33269873219E+03 -0.38107589892E+02  0.39146416437E+02  0.37849316603E+03  0.17200000000E+03 0.  1.
</event>
<event>
 4    1  0.3094855E-002  0.1983523E+03  0.7818608E-02  0.1151137E+00
          1   -1    0    0  502    0  0.00000000000E+00  0.00000000000E+00  0.18114635653E+03  0.18114635653E+03  0.00000000000E+00 0. -1.
         -1   -1    0    0    0  501 -0.00000000000E+00 -0.00000000000E+00 -0.24465059680E+03  0.24465059680E+03  0.00000000000E+00 0.  1.
          6    1    1    2  502    0  0.87860854839E+02 -0.45167364897E+02 -0.10307601307E+03  0.22353586991E+03  0.17200000000E+03 0. -1.
         -6    1    1    2    0  501 -0.87860854839E+02  0.45167364897E+02  0.39571772801E+02  0.20226108342E+03  0.17200000000E+03 0. -1.
</event>
<event>
 4    1  0.3094855E-002  0.2350327E+03  0.7818608E-02  0.1123147E+00
         -2   -1    0    0    0  501 -0.00000000000E+00  0.00000000000E+00  0.21594562171E+03  0.21594562171E+03  0.00000000000E+00 0.  1.
          2   -1    0    0  502    0  0.00000000000E+00 -0.00000000000E+00 -0.30505077274E+03  0.30505077274E+03  0.00000000000E+00 0. -1.
          6    1    1    2  502    0 -0.13469969033E+03 -0.86674021144E+02  0.60110743604E+02  0.24259780298E+03  0.17200000000E+03 0.  1.
         -6    1    1    2    0  501  0.13469969033E+03  0.86674021144E+02 -0.14921589464E+03  0.27839859146E+03  0.17200000000E+03 0. -1.
</event>
<event>
 4    1  0.3094855E-002  0.4111774E+03  0.7818608E-02  0.1039977E+00
         -1   -1    0    0    0  501 -0.00000000000E+00  0.00000000000E+00  0.10837452628E+03  0.10837452628E+03  0.00000000000E+00 0.  1.
          1   -1    0    0  502    0  0.00000000000E+00 -0.00000000000E+00 -0.17468118437E+04  0.17468118437E+04  0.00000000000E+00 0. -1.
          6    1    1    2  502    0  0.13598577067E+03 -0.34783718931E+03 -0.51589308720E+03  0.65970638735E+03  0.17200000000E+03 0. -1.
         -6    1    1    2    0  501 -0.13598577067E+03  0.34783718931E+03 -0.11225442303E+04  0.11954799827E+04  0.17200000000E+03 0.  1.
</event>
<event>
 4    1  0.3094855E-002  0.2632076E+03  0.7818608E-02  0.1105231E+00
         -2   -1    0    0    0  501 -0.00000000000E+00  0.00000000000E+00  0.58392709090E+02  0.58392709090E+02  0.00000000000E+00 0.  1.
          2   -1    0    0  502    0  0.00000000000E+00 -0.00000000000E+00 -0.13949794542E+04  0.13949794542E+04  0.00000000000E+00 0. -1.
          6    1    1    2  502    0  0.30536371860E+01  0.19921077547E+03 -0.94927520265E+03  0.98508967517E+03  0.17200000000E+03 0. -1.
         -6    1    1    2    0  501 -0.30536371860E+01 -0.19921077547E+03 -0.38731154251E+03  0.46828248816E+03  0.17200000000E+03 0.  1.
</event>
<event>
 4    1  0.3094855E-002  0.1768434E+03  0.7818608E-02  0.1170893E+00
          1   -1    0    0  502    0  0.00000000000E+00  0.00000000000E+00  0.44841736771E+02  0.44841736771E+02  0.00000000000E+00 0. -1.
         -1   -1    0    0    0  501 -0.00000000000E+00 -0.00000000000E+00 -0.84393036312E+03  0.84393036312E+03  0.00000000000E+00 0.  1.
          6    1    1    2  502    0  0.81435682671E+01 -0.40289648421E+02 -0.21438752012E+03  0.27791290408E+03  0.17200000000E+03 0. -1.
         -6    1    1    2    0  501 -0.81435682671E+01  0.40289648421E+02 -0.58470110623E+03  0.61085919581E+03  0.17200000000E+03 0.  1.
</event>
<event>
 4    1  0.3094855E-002  0.2675369E+03  0.7818608E-02  0.1102698E+00
          1   -1    0    0  502    0  0.00000000000E+00  0.00000000000E+00  0.14345217172E+04  0.14345217172E+04  0.00000000000E+00 0. -1.
         -1   -1    0    0    0  501 -0.00000000000E+00 -0.00000000000E+00 -0.51331526656E+02  0.51331526656E+02  0.00000000000E+00 0.  1.
          6    1    1    2  502    0  0.15721440252E+03  0.13143679952E+03  0.56732866767E+03  0.62724621783E+03  0.17200000000E+03 0. -1.
         -6    1    1    2    0  501 -0.15721440252E+03 -0.13143679952E+03  0.81586152288E+03  0.85860702603E+03  0.17200000000E+03 0.  1.
</event>
<event>
 4    1  0.3094855E-002  0.2262736E+03  0.7818608E-02  0.1129290E+00
          1   -1    0    0  502    0  0.00000000000E+00  0.00000000000E+00  0.19731539337E+03  0.19731539337E+03  0.00000000000E+00 0. -1.
         -1   -1    0    0    0  501 -0.00000000000E+00 -0.00000000000E+00 -0.28856785842E+03  0.28856785842E+03  0.00000000000E+00 0.  1.
          6    1    1    2  502    0 -0.95267853995E+02 -0.11198113429E+03  0.31503346142E+02  0.22845612108E+03  0.17200000000E+03 0. -1.
         -6    1    1    2    0  501  0.95267853995E+02  0.11198113429E+03 -0.12275581119E+03  0.25742713071E+03  0.17200000000E+03 0.  1.
</event>
<event>
 4    1  0.3094855E-002  0.3012933E+03  0.7818608E-02  0.1084596E+00
          1   -1    0    0  502    0  0.00000000000E+00  0.00000000000E+00  0.38779032036E+03  0.38779032036E+03  0.00000000000E+00 0. -1.
         -1   -1    0    0    0  501 -0.00000000000E+00 -0.00000000000E+00 -0.38680366883E+03  0.38680366883E+03  0.00000000000E+00 0.  1.
          6    1    1    2  502    0 -0.23957245120E+03  0.61633688374E+02  0.24384727338E+03  0.38760697059E+03  0.17200000000E+03 0. -1.
         -6    1    1    2    0  501  0.23957245120E+03 -0.61633688374E+02 -0.24286062185E+03  0.38698701860E+03  0.17200000000E+03 0.  1.
</event>
<event>
 4    1  0.3094855E-002  0.2151660E+03  0.7818608E-02  0.1137539E+00
          2   -1    0    0  502    0  0.00000000000E+00  0.00000000000E+00  0.12065112994E+04  0.12065112994E+04  0.00000000000E+00 0. -1.
         -2   -1    0    0    0  501 -0.00000000000E+00 -0.00000000000E+00 -0.39130949604E+02  0.39130949604E+02  0.00000000000E+00 0.  1.
          6    1    1    2  502    0 -0.12508520539E+03  0.32650949857E+02  0.49695883834E+03  0.54153899226E+03  0.17200000000E+03 0.  1.
         -6    1    1    2    0  501  0.12508520539E+03 -0.32650949857E+02  0.67042151144E+03  0.70410325673E+03  0.17200000000E+03 0. -1.
</event>
<event>
 4    1  0.3094855E-002  0.3743978E+03  0.7818608E-02  0.1053024E+00
         -4   -1    0    0    0  501 -0.00000000000E+00  0.00000000000E+00  0.20315181620E+03  0.20315181620E+03  0.00000000000E+00 0.  1.
          4   -1    0    0  502    0  0.00000000000E+00 -0.00000000000E+00 -0.69494523359E+03  0.69494523359E+03  0.00000000000E+00 0. -1.
          6    1    1    2  502    0 -0.19398757325E+03 -0.27010834055E+03 -0.20799662582E+03  0.42829463055E+03  0.17200000000E+03 0. -1.
         -6    1    1    2    0  501  0.19398757325E+03  0.27010834055E+03 -0.28379679158E+03  0.46980241924E+03  0.17200000000E+03 0.  1.
</event>
<event>
 4    1  0.3094855E-002  0.3632319E+03  0.7818608E-02  0.1057311E+00
         -1   -1    0    0    0  501 -0.00000000000E+00  0.00000000000E+00  0.11092535079E+03  0.11092535079E+03  0.00000000000E+00 0.  1.
          1   -1    0    0  502    0  0.00000000000E+00 -0.00000000000E+00 -0.18447894513E+04  0.18447894513E+04  0.00000000000E+00 0. -1.
          6    1    1    2  502    0 -0.14375876030E+03 -0.28580905630E+03 -0.14497642360E+04  0.14945747682E+04  0.17200000000E+03 0. -1.
         -6    1    1    2    0  501  0.14375876030E+03  0.28580905630E+03 -0.28409986452E+03  0.46114003388E+03  0.17200000000E+03 0.  1.
</event>
<event>
 4    1  0.3094855E-002  0.3170952E+03  0.7818608E-02  0.1076994E+00
         -3   -1    0    0    0  501 -0.00000000000E+00  0.00000000000E+00  0.32372992166E+03  0.32372992166E+03  0.00000000000E+00 0.  1.
          3   -1    0    0  502    0  0.00000000000E+00 -0.00000000000E+00 -0.31381287612E+03  0.31381287612E+03  0.00000000000E+00 0. -1.
          6    1    1    2  502    0  0.85511267106E+02 -0.25229583619E+03 -0.27313819012E+02  0.31826939920E+03  0.17200000000E+03 0. -1.
         -6    1    1    2    0  501 -0.85511267106E+02  0.25229583619E+03  0.37230864554E+02  0.31927339857E+03  0.17200000000E+03 0.  1.
</event>
<event>
 4    1  0.3094855E-002  0.2576889E+03  0.7818608E-02  0.1108540E+00
          2   -1    0    0  502    0  0.00000000000E+00  0.00000000000E+00  0.13828670335E+04  0.13828670335E+04  0.00000000000E+00 0. -1.
         -2   -1    0    0    0  501 -0.00000000000E+00 -0.00000000000E+00 -0.48858357489E+02  0.48858357489E+02  0.00000000000E+00 0.  1.
          6    1    1    2  502    0  0.18184884197E+03  0.61242080927E+02  0.76084467946E+03  0.80329833815E+03  0.17200000000E+03 0. -1.
         -6    1    1    2    0  501 -0.18184884197E+03 -0.61242080927E+02  0.57316399655E+03  0.62842705284E+03  0.17200000000E+03 0.  1.
</event>
<event>
 4    1  0.3094855E-002  0.2333590E+03  0.7818608E-02  0.1124298E+00
         -1   -1    0    0    0  501 -0.00000000000E+00  0.00000000000E+00  0.22028254773E+03  0.22028254773E+03  0.00000000000E+00 0.  1.
          1   -1    0    0  502    0  0.00000000000E+00 -0.00000000000E+00 -0.25556590388E+03  0.25556590388E+03  0.00000000000E+00 0. -1.
          6    1    1    2  502    0 -0.11117518897E+03 -0.11185919304E+03 -0.60658890897E+02  0.24111387922E+03  0.17200000000E+03 0. -1.
         -6    1    1    2    0  501  0.11117518897E+03  0.11185919304E+03  0.25375534739E+02  0.23473457239E+03  0.17200000000E+03 0. -1.
</event>
<event>
 4    1  0.3094855E-002  0.4156751E+03  0.7818608E-02  0.1038483E+00
          2   -1    0    0  502    0  0.00000000000E+00  0.00000000000E+00  0.98583850552E+03  0.98583850552E+03  0.00000000000E+00 0. -1.
         -2   -1    0    0    0  501 -0.00000000000E+00 -0.00000000000E+00 -0.23336152863E+03  0.23336152863E+03  0.00000000000E+00 0.  1.
          6    1    1    2  502    0  0.28438447745E+03  0.24965429839E+03  0.68039334980E+03  0.79732108349E+03  0.17200000000E+03 0. -1.
         -6    1    1    2    0  501 -0.28438447745E+03 -0.24965429839E+03  0.72083627082E+02  0.42187895066E+03  0.17200000000E+03 0.  1.
</event>
<event>
 4    1  0.3094855E-002  0.1791157E+03  0.7818608E-02  0.1168662E+00
         -1   -1    0    0    0  501 -0.00000000000E+00  0.00000000000E+00  0.37132090601E+02  0.37132090601E+02  0.00000000000E+00 0.  1.
          1   -1    0    0  502    0  0.00000000000E+00 -0.00000000000E+00 -0.87282485298E+03  0.87282485298E+03  0.00000000000E+00 0. -1.
          6    1    1    2  502    0  0.13361011086E+02  0.48165618480E+02 -0.37211958507E+03  0.41298356991E+03  0.17200000000E+03 0.  1.
         -6    1    1    2    0  501 -0.13361011086E+02 -0.48165618480E+02 -0.46357317730E+03  0.49697337367E+03  0.17200000000E+03 0.  1.
</event>
<event>
 4    1  0.3094855E-002  0.3921785E+03  0.7818608E-02  0.1046522E+00
         -1   -1    0    0    0  501 -0.00000000000E+00  0.00000000000E+00  0.11072474115E+04  0.11072474115E+04  0.00000000000E+00 0.  1.
          1   -1    0    0  502    0  0.00000000000E+00 -0.00000000000E+00 -0.22796596814E+03  0.22796596814E+03  0.00000000000E+00 0. -1.
          6    1    1    2  502    0  0.35244306649E+03  0.19628418762E+01  0.22362722306E+02  0.39281555368E+03  0.17200000000E+03 0. -1.
         -6    1    1    2    0  501 -0.35244306649E+03 -0.19628418762E+01  0.85691872102E+03  0.94239782592E+03  0.17200000000E+03 0.  1.
</event>
<event>
 4    1  0.3094855E-002  0.3411174E+03  0.7818608E-02  0.1066321E+00
          1   -1    0    0  502    0  0.00000000000E+00  0.00000000000E+00  0.13957667637E+04  0.13957667637E+04  0.00000000000E+00 0. -1.
         -1   -1    0    0    0  501 -0.00000000000E+00 -0.00000000000E+00 -0.14739884890E+03  0.14739884890E+03  0.00000000000E+00 0.  1.
          6    1    1    2  502    0  0.11753487184E+03  0.27011600001E+03  0.11327331884E+04  0.11829816464E+04  0.17200000000E+03 0. -1.
         -6    1    1    2    0  501 -0.11753487184E+03 -0.27011600001E+03  0.11563472637E+03  0.36018396620E+03  0.17200000000E+03 0.  1.
</event>
<event>
 4    1  0.3094855E-002  0.3508429E+03  0.7818608E-02  0.1062270E+00
         -2   -1    0    0    0  501 -0.00000000000E+00  0.00000000000E+00  0.19265683573E+03  0.19265683573E+03  0.00000000000E+00 0.  1.
          2   -1    0    0  502    0  0.00000000000E+00 -0.00000000000E+00 -0.86990613153E+03  0.86990613153E+03  0.00000000000E+00 0. -1.
          6    1    1    2  502    0  0.85610063569E+02 -0.29356032211E+03 -0.61239665994E+03  0.70577646235E+03  0.17200000000E+03 0. -1.
         -6    1    1    2    0  501 -0.85610063569E+02  0.29356032211E+03 -0.64852635863E+02  0.35678650490E+03  0.17200000000E+03 0.  1.
</event>
<event>
 4    1  0.3094855E-002  0.1730728E+03  0.7818608E-02  0.1174681E+00
         -2   -1    0    0    0  501 -0.00000000000E+00  0.00000000000E+00  0.23074368629E+02  0.23074368629E+02  0.00000000000E+00 0.  1.
          2   -1    0    0  502    0  0.00000000000E+00 -0.00000000000E+00 -0.14137169854E+04  0.14137169854E+04  0.00000000000E+00 0. -1.
          6    1    1    2  502    0 -0.19207599265E+02  0.11223327367E+01 -0.48992951412E+03  0.51960092408E+03  0.17200000000E+03 0.  1.
         -6    1    1    2    0  501  0.19207599265E+02 -0.11223327367E+01 -0.90071310263E+03  0.91719042992E+03  0.17200000000E+03 0. -1.
</event>
<event>
 4    1  0.3094855E-002  0.4513030E+03  0.7818608E-02  0.1027334E+00
         -2   -1    0    0    0  501 -0.00000000000E+00  0.00000000000E+00  0.23153087306E+03  0.23153087306E+03  0.00000000000E+00 0.  1.
          2   -1    0    0  502    0  0.00000000000E+00 -0.00000000000E+00 -0.88941024293E+03  0.88941024293E+03  0.00000000000E+00 0. -1.
          6    1    1    2  502    0 -0.29994847418E+03  0.29003676122E+03 -0.27033461435E+03  0.52607529284E+03  0.17200000000E+03 0.  1.
         -6    1    1    2    0  501  0.29994847418E+03 -0.29003676122E+03 -0.38754475552E+03  0.59486582315E+03  0.17200000000E+03 0.  1.
</event>
<event>
 4    1  0.3094855E-002  0.2500613E+03  0.7818608E-02  0.1113266E+00
         -2   -1    0    0    0  501 -0.00000000000E+00  0.00000000000E+00  0.70267282164E+02  0.70267282164E+02  0.00000000000E+00 0.  1.
          2   -1    0    0  502    0  0.00000000000E+00 -0.00000000000E+00 -0.10501073205E+04  0.10501073205E+04  0.00000000000E+00 0. -1.
          6    1    1    2  502    0 -0.12225337710E+03 -0.13416686068E+03 -0.70872733194E+03  0.75154844538E+03  0.17200000000E+03 0. -1.
         -6    1    1    2    0  501  0.12225337710E+03  0.13416686068E+03 -0.27111270635E+03  0.36882615724E+03  0.17200000000E+03 0.  1.
</event>
<event>
 4    1  0.3094855E-002  0.1835462E+03  0.7818608E-02  0.1164415E+00
          2   -1    0    0  502    0  0.00000000000E+00  0.00000000000E+00  0.10775243299E+04  0.10775243299E+04  0.00000000000E+00 0. -1.
         -2   -1    0    0    0  501 -0.00000000000E+00 -0.00000000000E+00 -0.46851470898E+02  0.46851470898E+02  0.00000000000E+00 0.  1.
          6    1    1    2  502    0  0.19991025820E+02 -0.60873241363E+02  0.83959291837E+03  0.85942158525E+03  0.17200000000E+03 0. -1.
         -6    1    1    2    0  501 -0.19991025820E+02  0.60873241363E+02  0.19107994067E+03  0.26495421558E+03  0.17200000000E+03 0.  1.
</event>
<event>
 4    1  0.3094855E-002  0.1776361E+03  0.7818608E-02  0.1170111E+00
         -2   -1    0    0    0  501 -0.00000000000E+00  0.00000000000E+00  0.12476390895E+03  0.12476390895E+03  0.00000000000E+00 0.  1.
          2   -1    0    0  502    0  0.00000000000E+00 -0.00000000000E+00 -0.38950912534E+03  0.38950912534E+03  0.00000000000E+00 0. -1.
          6    1    1    2  502    0  0.60455209861E+01  0.43977804249E+02 -0.28464522869E+03  0.33552570961E+03  0.17200000000E+03 0. -1.
         -6    1    1    2    0  501 -0.60455209861E+01 -0.43977804249E+02  0.19900012304E+02  0.17874732468E+03  0.17200000000E+03 0.  1.
</event>
<event>
 4    1  0.3094855E-002  0.4464113E+03  0.7818608E-02  0.1028798E+00
          1   -1    0    0  502    0  0.00000000000E+00  0.00000000000E+00  0.18359770240E+04  0.18359770240E+04  0.00000000000E+00 0. -1.
         -1   -1    0    0    0  501 -0.00000000000E+00 -0.00000000000E+00 -0.18641239532E+03  0.18641239532E+03  0.00000000000E+00 0.  1.
          6    1    1    2  502    0 -0.36759046491E+03 -0.18594704493E+03  0.14783339203E+04  0.15442649492E+04  0.17200000000E+03 0. -1.
         -6    1    1    2    0  501  0.36759046491E+03  0.18594704493E+03  0.17123070836E+03  0.47812447009E+03  0.17200000000E+03 0.  1.
</event>
<event>
 4    1  0.3094855E-002  0.1848080E+03  0.7818608E-02  0.1163229E+00
          3   -1    0    0  502    0  0.00000000000E+00  0.00000000000E+00  0.24421828780E+03  0.24421828780E+03  0.00000000000E+00 0. -1.
         -3   -1    0    0    0  501 -0.00000000000E+00 -0.00000000000E+00 -0.14002029606E+03  0.14002029606E+03  0.00000000000E+00 0.  1.
          6    1    1    2  502    0 -0.31008494891E+02 -0.60070691541E+02  0.58792015125E+02  0.19393430790E+03  0.17200000000E+03 0. -1.
         -6    1    1    2    0  501  0.31008494891E+02  0.60070691541E+02  0.45405976612E+02  0.19030427596E+03  0.17200000000E+03 0.  1.
</event>
<event>
 4    1  0.3094855E-002  0.3290806E+03  0.7818608E-02  0.1071544E+00
         -2   -1    0    0    0  501 -0.00000000000E+00  0.00000000000E+00  0.60317210291E+03  0.60317210291E+03  0.00000000000E+00 0.  1.
          2   -1    0    0  502    0  0.00000000000E+00 -0.00000000000E+00 -0.33281296236E+03  0.33281296236E+03  0.00000000000E+00 0. -1.
          6    1    1    2  502    0 -0.26515822348E+03 -0.91657659462E+02 -0.18241307033E+03  0.37625594779E+03  0.17200000000E+03 0. -1.
         -6    1    1    2    0  501  0.26515822348E+03  0.91657659462E+02  0.45277221088E+03  0.55972911749E+03  0.17200000000E+03 0.  1.
</event>
<event>
 4    1  0.3094855E-002  0.2983976E+03  0.7818608E-02  0.1086044E+00
          2   -1    0    0  502    0  0.00000000000E+00  0.00000000000E+00  0.11356447093E+04  0.11356447093E+04  0.00000000000E+00 0. -1.
         -2   -1    0    0    0  501 -0.00000000000E+00 -0.00000000000E+00 -0.18168029075E+03  0.18168029075E+03  0.00000000000E+00 0.  1.
          6    1    1    2  502    0 -0.24354691932E+03  0.11917323320E+02  0.97358090540E+03  0.10182833122E+04  0.17200000000E+03 0. -1.
         -6    1    1    2    0  501  0.24354691932E+03 -0.11917323320E+02 -0.19616486879E+02  0.29904168784E+03  0.17200000000E+03 0.  1.
</event>
<event>
 4    1  0.3094855E-002  0.2897403E+03  0.7818608E-02  0.1090485E+00
         -2   -1    0    0    0  501 -0.00000000000E+00  0.00000000000E+00  0.40369136270E+03  0.40369136270E+03  0.00000000000E+00 0.  1.
          2   -1    0    0  502    0  0.00000000000E+00 -0.00000000000E+00 -0.63117309526E+03  0.63117309526E+03  0.00000000000E+00 0. -1.
          6    1    1    2  502    0 -0.19423631000E+03 -0.12898723533E+03 -0.53744391384E+03  0.61056974337E+03  0.17200000000E+03 0. -1.
         -6    1    1    2    0  501  0.19423631000E+03  0.12898723533E+03  0.30996218128E+03  0.42429471459E+03  0.17200000000E+03 0.  1.
</event>
<event>
 4    1  0.3094855E-002  0.3193584E+03  0.7818608E-02  0.1075945E+00
         -1   -1    0    0    0  501 -0.00000000000E+00  0.00000000000E+00  0.17391843576E+04  0.17391843576E+04  0.00000000000E+00 0.  1.
          1   -1    0    0  502    0  0.00000000000E+00 -0.00000000000E+00 -0.65072741801E+02  0.65072741801E+02  0.00000000000E+00 0. -1.
          6    1    1    2  502    0 -0.23541726950E+03 -0.13032450811E+03  0.11206447758E+04  0.11652615507E+04  0.17200000000E+03 0. -1.
         -6    1    1    2    0  501  0.23541726950E+03  0.13032450811E+03  0.55346684008E+03  0.63899554870E+03  0.17200000000E+03 0.  1.
</event>
<event>
 4    1  0.3094855E-002  0.2126080E+03  0.7818608E-02  0.1139517E+00
         -2   -1    0    0    0  501 -0.00000000000E+00  0.00000000000E+00  0.12087023078E+03  0.12087023078E+03  0.00000000000E+00 0.  1.
          2   -1    0    0  502    0  0.00000000000E+00 -0.00000000000E+00 -0.37404744264E+03  0.37404744264E+03  0.00000000000E+00 0. -1.
          6    1    1    2  502    0  0.11908152099E+03 -0.37917536884E+02 -0.13009018113E+03  0.24925008219E+03  0.17200000000E+03 0. -1.
         -6    1    1    2    0  501 -0.11908152099E+03  0.37917536884E+02 -0.12308703073E+03  0.24566759122E+03  0.17200000000E+03 0.  1.
</event>
<event>
 4    1  0.3094855E-002  0.2041677E+03  0.7818608E-02  0.1146270E+00
         -1   -1    0    0    0  501 -0.00000000000E+00  0.00000000000E+00  0.13402183085E+03  0.13402183085E+03  0.00000000000E+00 0.  1.
          1   -1    0    0  502    0  0.00000000000E+00 -0.00000000000E+00 -0.31300417892E+03  0.31300417892E+03  0.00000000000E+00 0. -1.
          6    1    1    2  502    0 -0.86032181916E+02 -0.68548473976E+02 -0.71727491894E+02  0.21640069940E+03  0.17200000000E+03 0. -1.
         -6    1    1    2    0  501  0.86032181916E+02  0.68548473976E+02 -0.10725485618E+03  0.23062531037E+03  0.17200000000E+03 0.  1.
</event>
<event>
 4    1  0.3094855E-002  0.3654163E+03  0.7818608E-02  0.1056460E+00
          4   -1    0    0  502    0  0.00000000000E+00  0.00000000000E+00  0.49592753368E+02  0.49592753368E+02  0.00000000000E+00 0. -1.
         -4   -1    0    0    0  501 -0.00000000000E+00 -0.00000000000E+00 -0.27423852296E+04  0.27423852296E+04  0.00000000000E+00 0.  1.
          6    1    1    2  502    0  0.15355488924E+03 -0.28348890640E+03 -0.15346541426E+04  0.15775590010E+04  0.17200000000E+03 0. -1.
         -6    1    1    2    0  501 -0.15355488924E+03  0.28348890640E+03 -0.11581383336E+04  0.12144189819E+04  0.17200000000E+03 0.  1.
</event>
<event>
 4    1  0.3094855E-002  0.2731803E+03  0.7818608E-02  0.1099473E+00
         -2   -1    0    0    0  501 -0.00000000000E+00  0.00000000000E+00  0.57699480434E+02  0.57699480434E+02  0.00000000000E+00 0.  1.
          2   -1    0    0  502    0  0.00000000000E+00 -0.00000000000E+00 -0.17007731520E+04  0.17007731520E+04  0.00000000000E+00 0. -1.
          6    1    1    2  502    0  0.19241125628E+03 -0.89562034641E+02 -0.12518537346E+04  0.12813138657E+04  0.17200000000E+03 0. -1.
         -6    1    1    2    0  501 -0.19241125628E+03  0.89562034641E+02 -0.39121993696E+03  0.47715876673E+03  0.17200000000E+03 0. -1.
</event>
<event>
 4    1  0.3094855E-002  0.4033210E+03  0.7818608E-02  0.1042636E+00
          2   -1    0    0  502    0  0.00000000000E+00  0.00000000000E+00  0.18232235973E+04  0.18232235973E+04  0.00000000000E+00 0. -1.
         -2   -1    0    0    0  501 -0.00000000000E+00 -0.00000000000E+00 -0.14805543195E+03  0.14805543195E+03  0.00000000000E+00 0.  1.
          6    1    1    2  502    0  0.33608928259E+03  0.14187261594E+03  0.14589189695E+04  0.15136420992E+04  0.17200000000E+03 0. -1.
         -6    1    1    2    0  501 -0.33608928259E+03 -0.14187261594E+03  0.21624919590E+03  0.45763693006E+03  0.17200000000E+03 0.  1.
</event>
<event>
 4    1  0.3094855E-002  0.2168856E+03  0.7818608E-02  0.1136227E+00
          1   -1    0    0  502    0  0.00000000000E+00  0.00000000000E+00  0.17951294525E+04  0.17951294525E+04  0.00000000000E+00 0. -1.
         -1   -1    0    0    0  501 -0.00000000000E+00 -0.00000000000E+00 -0.47431664690E+02  0.47431664690E+02  0.00000000000E+00 0.  1.
          6    1    1    2  502    0 -0.10819473114E+03  0.75823785979E+02  0.14901743690E+04  0.15058748276E+04  0.17200000000E+03 0. -1.
         -6    1    1    2    0  501  0.10819473114E+03 -0.75823785979E+02  0.25752341882E+03  0.33668628960E+03  0.17200000000E+03 0.  1.
</event>
<event>
 4    1  0.3094855E-002  0.1989000E+03  0.7818608E-02  0.1150670E+00
         -1   -1    0    0    0  501 -0.00000000000E+00  0.00000000000E+00  0.30724210968E+02  0.30724210968E+02  0.00000000000E+00 0.  1.
          1   -1    0    0  502    0  0.00000000000E+00 -0.00000000000E+00 -0.13890046817E+04  0.13890046817E+04  0.00000000000E+00 0. -1.
          6    1    1    2  502    0  0.68922684818E+02  0.72297025741E+02 -0.87092036788E+03  0.89334398951E+03  0.17200000000E+03 0. -1.
         -6    1    1    2    0  501 -0.68922684818E+02 -0.72297025741E+02 -0.48736010283E+03  0.52638490313E+03  0.17200000000E+03 0.  1.
</event>
<event>
 4    1  0.3094855E-002  0.2768598E+03  0.7818608E-02  0.1097417E+00
         -1   -1    0    0    0  501 -0.00000000000E+00  0.00000000000E+00  0.73977920744E+03  0.73977920744E+03  0.00000000000E+00 0.  1.
          1   -1    0    0  502    0  0.00000000000E+00 -0.00000000000E+00 -0.95372729099E+03  0.95372729099E+03  0.00000000000E+00 0. -1.
          6    1    1    2  502    0 -0.46689138483E+02 -0.21186660539E+03 -0.90640915772E+03  0.94774938424E+03  0.17200000000E+03 0. -1.
         -6    1    1    2    0  501  0.46689138483E+02  0.21186660539E+03  0.69246107417E+03  0.74575711419E+03  0.17200000000E+03 0.  1.
</event>
<event>
 4    1  0.3094855E-002  0.5672855E+03  0.7818608E-02  0.9975704E-01
          1   -1    0    0  502    0  0.00000000000E+00  0.00000000000E+00  0.17745666548E+04  0.17745666548E+04  0.00000000000E+00 0. -1.
         -1   -1    0    0    0  501 -0.00000000000E+00 -0.00000000000E+00 -0.24116311162E+03  0.24116311162E+03  0.00000000000E+00 0.  1.
          6    1    1    2  502    0  0.41426630733E+03  0.34729269491E+03  0.12686455114E+04  0.13897029262E+04  0.17200000000E+03 0. -1.
         -6    1    1    2    0  501 -0.41426630733E+03 -0.34729269491E+03  0.26475803172E+03  0.62602684023E+03  0.17200000000E+03 0.  1.
</event>
<event>
 4    1  0.3094855E-002  0.1795531E+03  0.7818608E-02  0.1168236E+00
         -2   -1    0    0    0  501 -0.00000000000E+00  0.00000000000E+00  0.77175610240E+02  0.77175610240E+02  0.00000000000E+00 0.  1.
          2   -1    0    0  502    0  0.00000000000E+00 -0.00000000000E+00 -0.44745003486E+03  0.44745003486E+03  0.00000000000E+00 0. -1.
          6    1    1    2  502    0 -0.46240259905E+02 -0.22741185770E+02 -0.25273000147E+03  0.31001899427E+03  0.17200000000E+03 0. -1.
         -6    1    1    2    0  501  0.46240259905E+02  0.22741185770E+02 -0.11754442315E+03  0.21460665083E+03  0.17200000000E+03 0. -1.
</event>
<event>
 4    1  0.3094855E-002  0.2009539E+03  0.7818608E-02  0.1148937E+00
          2   -1    0    0  502    0  0.00000000000E+00  0.00000000000E+00  0.32238640794E+03  0.32238640794E+03  0.00000000000E+00 0. -1.
         -2   -1    0    0    0  501 -0.00000000000E+00 -0.00000000000E+00 -0.17417284330E+03  0.17417284330E+03  0.00000000000E+00 0.  1.
          6    1    1    2  502    0 -0.99445141449E+02  0.30151859589E+02  0.20567697325E+03  0.28755084441E+03  0.17200000000E+03 0. -1.
         -6    1    1    2    0  501  0.99445141449E+02 -0.30151859589E+02 -0.57463408621E+02  0.20900840683E+03  0.17200000000E+03 0.  1.
</event>
<event>
 4    1  0.3094855E-002  0.3243085E+03  0.7818608E-02  0.1073683E+00
         -1   -1    0    0    0  501 -0.00000000000E+00  0.00000000000E+00  0.37753747569E+03  0.37753747569E+03  0.00000000000E+00 0.  1.
          1   -1    0    0  502    0  0.00000000000E+00 -0.00000000000E+00 -0.29050645042E+03  0.29050645042E+03  0.00000000000E+00 0. -1.
          6    1    1    2  502    0 -0.22989129579E+03 -0.15080442439E+03  0.11118235839E+03  0.34283742374E+03  0.17200000000E+03 0. -1.
         -6    1    1    2    0  501  0.22989129579E+03  0.15080442439E+03 -0.24151333116E+02  0.32520650238E+03  0.17200000000E+03 0.  1.
</event>
<event>
 4    1  0.3094855E-002  0.3479670E+03  0.7818608E-02  0.1063453E+00
          2   -1    0    0  502    0  0.00000000000E+00  0.00000000000E+00  0.87500064238E+03  0.87500064238E+03  0.00000000000E+00 0. -1.
         -2   -1    0    0    0  501 -0.00000000000E+00 -0.00000000000E+00 -0.15701057302E+03  0.15701057302E+03  0.00000000000E+00 0.  1.
          6    1    1    2  502    0 -0.14074413486E+03  0.26774641388E+03  0.53675073130E+03  0.63967366773E+03  0.17200000000E+03 0. -1.
         -6    1    1    2    0  501  0.14074413486E+03 -0.26774641388E+03  0.18123933806E+03  0.39233754766E+03  0.17200000000E+03 0.  1.
</event>
<event>
 4    1  0.3094855E-002  0.2052843E+03  0.7818608E-02  0.1145356E+00
         -1   -1    0    0    0  501 -0.00000000000E+00  0.00000000000E+00  0.54880175604E+02  0.54880175604E+02  0.00000000000E+00 0.  1.
          1   -1    0    0  502    0  0.00000000000E+00 -0.00000000000E+00 -0.77006828297E+03  0.77006828297E+03  0.00000000000E+00 0. -1.
          6    1    1    2  502    0 -0.11128239931E+03  0.13185895899E+02 -0.37955897306E+03  0.43151669061E+03  0.17200000000E+03 0. -1.
         -6    1    1    2    0  501  0.11128239931E+03 -0.13185895899E+02 -0.33562913431E+03  0.39343176797E+03  0.17200000000E+03 0.  1.
</event>
<event>
 4    1  0.3094855E-002  0.2899728E+03  0.7818608E-02  0.1090363E+00
         -2   -1    0    0    0  501 -0.00000000000E+00  0.00000000000E+00  0.51852566198E+02  0.51852566198E+02  0.00000000000E+00 0.  1.
          2   -1    0    0  502    0  0.00000000000E+00 -0.00000000000E+00 -0.16673255707E+04  0.16673255707E+04  0.00000000000E+00 0. -1.
          6    1    1    2  502    0  0.22448688861E+03 -0.64077184921E+02 -0.95008358593E+03  0.99334941940E+03  0.17200000000E+03 0. -1.
         -6    1    1    2    0  501 -0.22448688861E+03  0.64077184921E+02 -0.66538941857E+03  0.72582871748E+03  0.17200000000E+03 0. -1.
</event>
<event>
 4    1  0.3094855E-002  0.3213235E+03  0.7818608E-02  0.1075042E+00
          1   -1    0    0  502    0  0.00000000000E+00  0.00000000000E+00  0.20123003574E+04  0.20123003574E+04  0.00000000000E+00 0. -1.
         -1   -1    0    0    0  501 -0.00000000000E+00 -0.00000000000E+00 -0.58947259051E+02  0.58947259051E+02  0.00000000000E+00 0.  1.
          6    1    1    2  502    0 -0.22798927723E+03  0.14726057139E+03  0.13494732916E+04  0.13872011214E+04  0.17200000000E+03 0. -1.
         -6    1    1    2    0  501  0.22798927723E+03 -0.14726057139E+03  0.60387980675E+03  0.68404649507E+03  0.17200000000E+03 0.  1.
</event>
<event>
 4    1  0.3094855E-002  0.7208087E+03  0.7818608E-02  0.9682294E-01
          2   -1    0    0  502    0  0.00000000000E+00  0.00000000000E+00  0.36904997057E+04  0.36904997057E+04  0.00000000000E+00 0. -1.
         -2   -1    0    0    0  501 -0.00000000000E+00 -0.00000000000E+00 -0.25943429627E+03  0.25943429627E+03  0.00000000000E+00 0.  1.
          6    1    1    2  502    0  0.69296127917E+03  0.98923734387E+02  0.30511425340E+04  0.31351293438E+04  0.17200000000E+03 0. -1.
         -6    1    1    2    0  501 -0.69296127917E+03 -0.98923734387E+02  0.37992287541E+03  0.81480465813E+03  0.17200000000E+03 0.  1.
</event>
<event>
 4    1  0.3094855E-002  0.4030888E+03  0.7818608E-02  0.1042715E+00
         -2   -1    0    0    0  501 -0.00000000000E+00  0.00000000000E+00  0.14286334888E+03  0.14286334888E+03  0.00000000000E+00 0.  1.
          2   -1    0    0  502    0  0.00000000000E+00 -0.00000000000E+00 -0.11374603063E+04  0.11374603063E+04  0.00000000000E+00 0. -1.
          6    1    1    2  502    0 -0.32021708504E+03 -0.17423441080E+03 -0.49005989072E+03  0.63453865757E+03  0.17200000000E+03 0. -1.
         -6    1    1    2    0  501  0.32021708504E+03  0.17423441080E+03 -0.50453706667E+03  0.64578499758E+03  0.17200000000E+03 0.  1.
</event>
<event>
 4    1  0.3094855E-002  0.2802306E+03  0.7818608E-02  0.1095563E+00
          2   -1    0    0  502    0  0.00000000000E+00  0.00000000000E+00  0.12145885803E+04  0.12145885803E+04  0.00000000000E+00 0. -1.
         -2   -1    0    0    0  501 -0.00000000000E+00 -0.00000000000E+00 -0.79544157518E+02  0.79544157518E+02  0.00000000000E+00 0.  1.
          6    1    1    2  502    0 -0.37179596453E+02 -0.21808907391E+03  0.84747219394E+03  0.89260197516E+03  0.17200000000E+03 0. -1.
         -6    1    1    2    0  501  0.37179596453E+02  0.21808907391E+03  0.28757222879E+03  0.40153076261E+03  0.17200000000E+03 0.  1.
</event>
<event>
 4    1  0.3094855E-002  0.2291648E+03  0.7818608E-02  0.1127229E+00
         -1   -1    0    0    0  501 -0.00000000000E+00  0.00000000000E+00  0.62319716780E+02  0.62319716780E+02  0.00000000000E+00 0.  1.
          1   -1    0    0  502    0  0.00000000000E+00 -0.00000000000E+00 -0.87228078696E+03  0.87228078696E+03  0.00000000000E+00 0. -1.
          6    1    1    2  502    0  0.11034406243E+03 -0.10371448260E+03 -0.31891875328E+03  0.39271577153E+03  0.17200000000E+03 0.  1.
         -6    1    1    2    0  501 -0.11034406243E+03  0.10371448260E+03 -0.49104231689E+03  0.54188473220E+03  0.17200000000E+03 0. -1.
</event>
<event>
 4    1  0.3094855E-002  0.2270589E+03  0.7818608E-02  0.1128727E+00
          1   -1    0    0  502    0  0.00000000000E+00  0.00000000000E+00  0.80773991448E+03  0.80773991448E+03  0.00000000000E+00 0. -1.
         -1   -1    0    0    0  501 -0.00000000000E+00 -0.00000000000E+00 -0.64542380588E+02  0.64542380588E+02  0.00000000000E+00 0.  1.
          6    1    1    2  502    0 -0.14697312062E+03 -0.19252412450E+02  0.41751024394E+03  0.47525841114E+03  0.17200000000E+03 0.  1.
         -6    1    1    2    0  501  0.14697312062E+03  0.19252412450E+02  0.32568728995E+03  0.39702388392E+03  0.17200000000E+03 0.  1.
</event>
<event>
 4    1  0.3094855E-002  0.1727429E+03  0.7818608E-02  0.1175017E+00
          1   -1    0    0  502    0  0.00000000000E+00  0.00000000000E+00  0.30306838718E+03  0.30306838718E+03  0.00000000000E+00 0. -1.
         -1   -1    0    0    0  501 -0.00000000000E+00 -0.00000000000E+00 -0.12201349744E+03  0.12201349744E+03  0.00000000000E+00 0.  1.
          6    1    1    2  502    0 -0.13919617856E+02  0.78958993166E+01  0.18391021299E+03  0.25231541259E+03  0.17200000000E+03 0. -1.
         -6    1    1    2    0  501  0.13919617856E+02 -0.78958993166E+01 -0.28553232499E+01  0.17276647203E+03  0.17200000000E+03 0.  1.
</event>
<event>
 4    1  0.3094855E-002  0.4599437E+03  0.7818608E-02  0.1024798E+00
         -2   -1    0    0    0  501 -0.00000000000E+00  0.00000000000E+00  0.18916383965E+03  0.18916383965E+03  0.00000000000E+00 0.  1.
          2   -1    0    0  502    0  0.00000000000E+00 -0.00000000000E+00 -0.12721536365E+04  0.12721536365E+04  0.00000000000E+00 0. -1.
          6    1    1    2  502    0  0.39672282895E+03  0.15676491943E+03 -0.79556380320E+03  0.91895049264E+03  0.17200000000E+03 0. -1.
         -6    1    1    2    0  501 -0.39672282895E+03 -0.15676491943E+03 -0.28742599368E+03  0.54236698353E+03  0.17200000000E+03 0.  1.
</event>
<event>
 4    1  0.3094855E-002  0.2656167E+03  0.7818608E-02  0.1103815E+00
          2   -1    0    0  502    0  0.00000000000E+00  0.00000000000E+00  0.12549569161E+04  0.12549569161E+04  0.00000000000E+00 0. -1.
         -2   -1    0    0    0  501 -0.00000000000E+00 -0.00000000000E+00 -0.56218885685E+02  0.56218885685E+02  0.00000000000E+00 0.  1.
          6    1    1    2  502    0  0.73301924160E+01 -0.20227332609E+03  0.59991669520E+03  0.65608861547E+03  0.17200000000E+03 0.  1.
         -6    1    1    2    0  501 -0.73301924160E+01  0.20227332609E+03  0.59882133526E+03  0.65508718636E+03  0.17200000000E+03 0. -1.
</event>
<event>
 4    1  0.3094855E-002  0.2132482E+03  0.7818608E-02  0.1139019E+00
          2   -1    0    0  502    0  0.00000000000E+00  0.00000000000E+00  0.36846307036E+04  0.36846307036E+04  0.00000000000E+00 0. -1.
         -2   -1    0    0    0  501 -0.00000000000E+00 -0.00000000000E+00 -0.50788708274E+02  0.50788708274E+02  0.00000000000E+00 0.  1.
          6    1    1    2  502    0 -0.12505645725E+03  0.15864080196E+02  0.34419338193E+04  0.34485334858E+04  0.17200000000E+03 0. -1.
         -6    1    1    2    0  501  0.12505645725E+03 -0.15864080196E+02  0.19190817609E+03  0.28688592609E+03  0.17200000000E+03 0.  1.
</event>
<event>
 4    1  0.3094855E-002  0.2895859E+03  0.7818608E-02  0.1090566E+00
         -1   -1    0    0    0  501 -0.00000000000E+00  0.00000000000E+00  0.83918244860E+02  0.83918244860E+02  0.00000000000E+00 0.  1.
          1   -1    0    0  502    0  0.00000000000E+00 -0.00000000000E+00 -0.17029291593E+04  0.17029291593E+04  0.00000000000E+00 0. -1.
          6    1    1    2  502    0 -0.23172942012E+03 -0.24030354745E+02 -0.13837929104E+04  0.14137690055E+04  0.17200000000E+03 0. -1.
         -6    1    1    2    0  501  0.23172942012E+03  0.24030354745E+02 -0.23521800402E+03  0.37307839862E+03  0.17200000000E+03 0.  1.
</event>
<event>
 4    1  0.3094855E-002  0.5536441E+03  0.7818608E-02  0.1000654E+00
          2   -1    0    0  502    0  0.00000000000E+00  0.00000000000E+00  0.11173291680E+04  0.11173291680E+04  0.00000000000E+00 0. -1.
         -2   -1    0    0    0  501 -0.00000000000E+00 -0.00000000000E+00 -0.27878786702E+03  0.27878786702E+03  0.00000000000E+00 0.  1.
          6    1    1    2  502    0 -0.70053249982E+01  0.52620213724E+03  0.50749871841E+03  0.75105040643E+03  0.17200000000E+03 0. -1.
         -6    1    1    2    0  501  0.70053249982E+01 -0.52620213724E+03  0.33104258252E+03  0.64506662854E+03  0.17200000000E+03 0.  1.
</event>
<event>
 4    1  0.3094855E-002  0.1883412E+03  0.7818608E-02  0.1159966E+00
         -2   -1    0    0    0  501 -0.00000000000E+00  0.00000000000E+00  0.55513502384E+02  0.55513502384E+02  0.00000000000E+00 0.  1.
          2   -1    0    0  502    0  0.00000000000E+00 -0.00000000000E+00 -0.65686690385E+03  0.65686690385E+03  0.00000000000E+00 0. -1.
          6    1    1    2  502    0  0.65958423904E+02  0.39215782390E+02 -0.24191028982E+03  0.30658274510E+03  0.17200000000E+03 0. -1.
         -6    1    1    2    0  501 -0.65958423904E+02 -0.39215782390E+02 -0.35944311165E+03  0.40579766113E+03  0.17200000000E+03 0.  1.
</event>
<event>
 4    1  0.3094855E-002  0.2404641E+03  0.7818608E-02  0.1119484E+00
          1   -1    0    0  502    0  0.00000000000E+00  0.00000000000E+00  0.14831416721E+03  0.14831416721E+03  0.00000000000E+00 0. -1.
         -1   -1    0    0    0  501 -0.00000000000E+00 -0.00000000000E+00 -0.39108782544E+03  0.39108782544E+03  0.00000000000E+00 0.  1.
          6    1    1    2  502    0 -0.44423931594E+02  0.16206633135E+03 -0.10632583028E+03  0.26292235287E+03  0.17200000000E+03 0. -1.
         -6    1    1    2    0  501  0.44423931594E+02 -0.16206633135E+03 -0.13644782796E+03  0.27647963978E+03  0.17200000000E+03 0.  1.
</event>
<event>
 4    1  0.3094855E-002  0.2646847E+03  0.7818608E-02  0.1104361E+00
         -1   -1    0    0    0  501 -0.00000000000E+00  0.00000000000E+00  0.35189990208E+02  0.35189990208E+02  0.00000000000E+00 0.  1.
          1   -1    0    0  502    0  0.00000000000E+00 -0.00000000000E+00 -0.20993267626E+04  0.20993267626E+04  0.00000000000E+00 0. -1.
          6    1    1    2  502    0 -0.69251540218E+02 -0.18888675545E+03 -0.12746726705E+04  0.13018634334E+04  0.17200000000E+03 0. -1.
         -6    1    1    2    0  501  0.69251540218E+02  0.18888675545E+03 -0.78946410188E+03  0.83265331943E+03  0.17200000000E+03 0.  1.
</event>
<event>
 4    1  0.3094855E-002  0.1884786E+03  0.7818608E-02  0.1159841E+00
          2   -1    0    0  502    0  0.00000000000E+00  0.00000000000E+00  0.87942711700E+03  0.87942711700E+03  0.00000000000E+00 0. -1.
         -2   -1    0    0    0  501 -0.00000000000E+00 -0.00000000000E+00 -0.51314074291E+02  0.51314074291E+02  0.00000000000E+00 0.  1.
          6    1    1    2  502    0 -0.31064944992E+02 -0.70534830463E+02  0.62873059566E+03  0.65637363981E+03  0.17200000000E+03 0. -1.
         -6    1    1    2    0  501  0.31064944992E+02  0.70534830463E+02  0.19938244705E+03  0.27436755148E+03  0.17200000000E+03 0.  1.
</event>
<event>
 4    1  0.3094855E-002  0.2518413E+03  0.7818608E-02  0.1112147E+00
          1   -1    0    0  502    0  0.00000000000E+00  0.00000000000E+00  0.69334201474E+03  0.69334201474E+03  0.00000000000E+00 0. -1.
         -1   -1    0    0    0  501 -0.00000000000E+00 -0.00000000000E+00 -0.92348737253E+02  0.92348737253E+02  0.00000000000E+00 0.  1.
          6    1    1    2  502    0 -0.17736247567E+03 -0.48811640156E+02  0.33869059294E+03  0.42206082705E+03  0.17200000000E+03 0. -1.
         -6    1    1    2    0  501  0.17736247567E+03  0.48811640156E+02  0.26230268456E+03  0.36362992494E+03  0.17200000000E+03 0. -1.
</event>
<event>
 4    1  0.3094855E-002  0.2192489E+03  0.7818608E-02  0.1134444E+00
          2   -1    0    0  502    0  0.00000000000E+00  0.00000000000E+00  0.10703746818E+04  0.10703746818E+04  0.00000000000E+00 0. -1.
         -2   -1    0    0    0  501 -0.00000000000E+00 -0.00000000000E+00 -0.49961060993E+02  0.49961060993E+02  0.00000000000E+00 0.  1.
          6    1    1    2  502    0 -0.57821817934E+02 -0.12305578912E+03  0.68832621348E+03  0.72240090395E+03  0.17200000000E+03 0. -1.
         -6    1    1    2    0  501  0.57821817934E+02  0.12305578912E+03  0.33208740736E+03  0.39793483888E+03  0.17200000000E+03 0.  1.
</event>
<event>
 4    1  0.3094855E-002  0.1813957E+03  0.7818608E-02  0.1166459E+00
          1   -1    0    0  502    0  0.00000000000E+00  0.00000000000E+00  0.16510412773E+04  0.16510412773E+04  0.00000000000E+00 0. -1.
         -1   -1    0    0    0  501 -0.00000000000E+00 -0.00000000000E+00 -0.19931087086E+02  0.19931087086E+02  0.00000000000E+00 0.  1.
          6    1    1    2  502    0  0.57611276525E+02 -0.11521460986E+01  0.80804222832E+03  0.82815253991E+03  0.17200000000E+03 0. -1.
         -6    1    1    2    0  501 -0.57611276525E+02  0.11521460986E+01  0.82306796193E+03  0.84281982451E+03  0.17200000000E+03 0.  1.
</event>
<event>
 4    1  0.3094855E-002  0.1862697E+03  0.7818608E-02  0.1161869E+00
         -1   -1    0    0    0  501 -0.00000000000E+00  0.00000000000E+00  0.51501082345E+03  0.51501082345E+03  0.00000000000E+00 0.  1.
          1   -1    0    0  502    0  0.00000000000E+00 -0.00000000000E+00 -0.43715671295E+03  0.43715671295E+03  0.00000000000E+00 0. -1.
          6    1    1    2  502    0 -0.35542232574E+02  0.62041576572E+02 -0.39893801693E+03  0.44028166992E+03  0.17200000000E+03 0. -1.
         -6    1    1    2    0  501  0.35542232574E+02 -0.62041576572E+02  0.47679212743E+03  0.51188586648E+03  0.17200000000E+03 0.  1.
</event>
<event>
 4    1  0.3094855E-002  0.1994704E+03  0.7818608E-02  0.1150187E+00
         -2   -1    0    0    0  501 -0.00000000000E+00  0.00000000000E+00  0.49660246046E+02  0.49660246046E+02  0.00000000000E+00 0.  1.
          2   -1    0    0  502    0  0.00000000000E+00 -0.00000000000E+00 -0.11461004714E+04  0.11461004714E+04  0.00000000000E+00 0. -1.
          6    1    1    2  502    0 -0.10081816965E+03 -0.63356048363E+01 -0.87619571786E+03  0.89861414367E+03  0.17200000000E+03 0. -1.
         -6    1    1    2    0  501  0.10081816965E+03  0.63356048363E+01 -0.22024450749E+03  0.29714657376E+03  0.17200000000E+03 0.  1.
</event>
<event>
 4    1  0.3094855E-002  0.2813895E+03  0.7818608E-02  0.1094932E+00
          1   -1    0    0  502    0  0.00000000000E+00  0.00000000000E+00  0.90083376216E+03  0.90083376216E+03  0.00000000000E+00 0. -1.
         -1   -1    0    0    0  501 -0.00000000000E+00 -0.00000000000E+00 -0.98237799686E+02  0.98237799686E+02  0.00000000000E+00 0.  1.
          6    1    1    2  502    0 -0.38066111244E+02 -0.21942433806E+03  0.56337311336E+03  0.62973751184E+03  0.17200000000E+03 0. -1.
         -6    1    1    2    0  501  0.38066111244E+02  0.21942433806E+03  0.23922284912E+03  0.36933405001E+03  0.17200000000E+03 0.  1.
</event>
<event>
 4    1  0.3094855E-002  0.3408423E+03  0.7818608E-02  0.1066438E+00
         -2   -1    0    0    0  501 -0.00000000000E+00  0.00000000000E+00  0.21257287861E+03  0.21257287861E+03  0.00000000000E+00 0.  1.
          2   -1    0    0  502    0  0.00000000000E+00 -0.00000000000E+00 -0.58280590426E+03  0.58280590426E+03  0.00000000000E+00 0. -1.
          6    1    1    2  502    0 -0.28116953679E+03 -0.86793867354E+02 -0.85872808499E+02  0.35149341825E+03  0.17200000000E+03 0. -1.
         -6    1    1    2    0  501  0.28116953679E+03  0.86793867354E+02 -0.28436021715E+03  0.44388536462E+03  0.17200000000E+03 0.  1.
</event>
<event>
 4    1  0.3094855E-002  0.3338714E+03  0.7818608E-02  0.1069437E+00
         -2   -1    0    0    0  501 -0.00000000000E+00  0.00000000000E+00  0.46453547206E+02  0.46453547206E+02  0.00000000000E+00 0.  1.
          2   -1    0    0  502    0  0.00000000000E+00 -0.00000000000E+00 -0.30276901224E+04  0.30276901224E+04  0.00000000000E+00 0. -1.
          6    1    1    2  502    0 -0.26328935429E+03  0.11209306205E+03 -0.21906986498E+04  0.22159942945E+04  0.17200000000E+03 0. -1.
         -6    1    1    2    0  501  0.26328935429E+03 -0.11209306205E+03 -0.79053792531E+03  0.85814937510E+03  0.17200000000E+03 0.  1.
</event>
<event>
 4    1  0.3094855E-002  0.3193668E+03  0.7818608E-02  0.1075941E+00
         -2   -1    0    0    0  501 -0.00000000000E+00  0.00000000000E+00  0.35928656276E+03  0.35928656276E+03  0.00000000000E+00 0.  1.
          2   -1    0    0  502    0  0.00000000000E+00 -0.00000000000E+00 -0.29582749131E+03  0.29582749131E+03  0.00000000000E+00 0. -1.
          6    1    1    2  502    0  0.19389351454E+03  0.18659164051E+03 -0.34091121164E+02  0.32118116357E+03  0.17200000000E+03 0. -1.
         -6    1    1    2    0  501 -0.19389351454E+03 -0.18659164051E+03  0.97550192614E+02  0.33393289051E+03  0.17200000000E+03 0.  1.
</event>
<event>
 4    1  0.3094855E-002  0.2050717E+03  0.7818608E-02  0.1145529E+00
          2   -1    0    0  502    0  0.00000000000E+00  0.00000000000E+00  0.17390408846E+04  0.17390408846E+04  0.00000000000E+00 0. -1.
         -2   -1    0    0    0  501 -0.00000000000E+00 -0.00000000000E+00 -0.75619956739E+02  0.75619956739E+02  0.00000000000E+00 0.  1.
          6    1    1    2  502    0  0.80007830171E+02 -0.77904645837E+02  0.15800297345E+04  0.15932822564E+04  0.17200000000E+03 0. -1.
         -6    1    1    2    0  501 -0.80007830171E+02  0.77904645837E+02  0.83391193372E+02  0.22137858493E+03  0.17200000000E+03 0.  1.
</event>
<event>
 4    1  0.3094855E-002  0.2400805E+03  0.7818608E-02  0.1119739E+00
          2   -1    0    0  502    0  0.00000000000E+00  0.00000000000E+00  0.22622716251E+04  0.22622716251E+04  0.00000000000E+00 0. -1.
         -2   -1    0    0    0  501 -0.00000000000E+00 -0.00000000000E+00 -0.40540185382E+02  0.40540185382E+02  0.00000000000E+00 0.  1.
          6    1    1    2  502    0  0.14073593672E+03  0.90818691944E+02  0.18126869613E+04  0.18285165185E+04  0.17200000000E+03 0. -1.
         -6    1    1    2    0  501 -0.14073593672E+03 -0.90818691944E+02  0.40904447842E+03  0.47429529200E+03  0.17200000000E+03 0.  1.
</event>
<event>
 4    1  0.3094855E-002  0.2045942E+03  0.7818608E-02  0.1145920E+00
         -1   -1    0    0    0  501 -0.00000000000E+00  0.00000000000E+00  0.55755910588E+03  0.55755910588E+03  0.00000000000E+00 0.  1.
          1   -1    0    0  502    0  0.00000000000E+00 -0.00000000000E+00 -0.10908608448E+03  0.10908608448E+03  0.00000000000E+00 0. -1.
          6    1    1    2  502    0 -0.10945505110E+03 -0.17157567090E+02  0.38117877451E+02  0.20811478300E+03  0.17200000000E+03 0. -1.
         -6    1    1    2    0  501  0.10945505110E+03  0.17157567090E+02  0.41035514395E+03  0.45853040737E+03  0.17200000000E+03 0.  1.
</event>
<event>
 4    1  0.3094855E-002  0.1492054E+04  0.7818608E-02  0.8889754E-01
          2   -1    0    0  502    0  0.00000000000E+00  0.00000000000E+00  0.34967780901E+04  0.34967780901E+04  0.00000000000E+00 0. -1.
         -2   -1    0    0    0  501 -0.00000000000E+00 -0.00000000000E+00 -0.65168726440E+03  0.65168726440E+03  0.00000000000E+00 0.  1.
          6    1    1    2  502    0  0.14809860984E+04  0.57643421261E+02  0.11074728102E+04  0.18581503204E+04  0.17200000000E+03 0. -1.
         -6    1    1    2    0  501 -0.14809860984E+04 -0.57643421261E+02  0.17376180155E+04  0.22903150341E+04  0.17200000000E+03 0.  1.
</event>
<event>
 4    1  0.3094855E-002  0.1829299E+03  0.7818608E-02  0.1164997E+00
         -2   -1    0    0    0  501 -0.00000000000E+00  0.00000000000E+00  0.11068215077E+03  0.11068215077E+03  0.00000000000E+00 0.  1.
          2   -1    0    0  502    0  0.00000000000E+00 -0.00000000000E+00 -0.31380320699E+03  0.31380320699E+03  0.00000000000E+00 0. -1.
          6    1    1    2  502    0  0.41231115808E+02  0.46683544103E+02 -0.60990475465E+02  0.19282944873E+03  0.17200000000E+03 0.  1.
         -6    1    1    2    0  501 -0.41231115808E+02 -0.46683544103E+02 -0.14213058075E+03  0.23165590902E+03  0.17200000000E+03 0. -1.
</event>
<event>
 4    1  0.3094855E-002  0.2740573E+03  0.7818608E-02  0.1098980E+00
         -1   -1    0    0    0  501 -0.00000000000E+00  0.00000000000E+00  0.18154285693E+03  0.18154285693E+03  0.00000000000E+00 0.  1.
          1   -1    0    0  502    0  0.00000000000E+00 -0.00000000000E+00 -0.10280492737E+04  0.10280492737E+04  0.00000000000E+00 0. -1.
          6    1    1    2  502    0  0.44116984257E+02  0.20875125086E+03 -0.89077688022E+03  0.93198221194E+03  0.17200000000E+03 0. -1.
         -6    1    1    2    0  501 -0.44116984257E+02 -0.20875125086E+03  0.44270463429E+02  0.27760991871E+03  0.17200000000E+03 0.  1.
</event>
<event>
 4    1  0.3094855E-002  0.2917580E+03  0.7818608E-02  0.1089435E+00
         -2   -1    0    0    0  501 -0.00000000000E+00  0.00000000000E+00  0.12580409910E+03  0.12580409910E+03  0.00000000000E+00 0.  1.
          2   -1    0    0  502    0  0.00000000000E+00 -0.00000000000E+00 -0.80986186682E+03  0.80986186682E+03  0.00000000000E+00 0. -1.
          6    1    1    2  502    0 -0.59980198200E+02 -0.22790586722E+03 -0.15227487439E+03  0.32910537197E+03  0.17200000000E+03 0.  1.
         -6    1    1    2    0  501  0.59980198200E+02  0.22790586722E+03 -0.53178289334E+03  0.60656059395E+03  0.17200000000E+03 0. -1.
</event>
<event>
 4    1  0.3094855E-002  0.2610565E+03  0.7818608E-02  0.1106510E+00
         -1   -1    0    0    0  501 -0.00000000000E+00  0.00000000000E+00  0.10566206322E+03  0.10566206322E+03  0.00000000000E+00 0.  1.
          1   -1    0    0  502    0  0.00000000000E+00 -0.00000000000E+00 -0.70255815432E+03  0.70255815432E+03  0.00000000000E+00 0. -1.
          6    1    1    2  502    0  0.18876743243E+03 -0.54160311026E+02 -0.41413043934E+03  0.48954520079E+03  0.17200000000E+03 0. -1.
         -6    1    1    2    0  501 -0.18876743243E+03  0.54160311026E+02 -0.18276565176E+03  0.31867501675E+03  0.17200000000E+03 0.  1.
</event>
<event>
 4    1  0.3094855E-002  0.1734024E+03  0.7818608E-02  0.1174345E+00
         -1   -1    0    0    0  501 -0.00000000000E+00  0.00000000000E+00  0.68254709332E+02  0.68254709332E+02  0.00000000000E+00 0.  1.
          1   -1    0    0  502    0  0.00000000000E+00 -0.00000000000E+00 -0.47235115260E+03  0.47235115260E+03  0.00000000000E+00 0. -1.
          6    1    1    2  502    0  0.18428462512E+02 -0.12032226129E+02 -0.27220387303E+03  0.32274344484E+03  0.17200000000E+03 0. -1.
         -6    1    1    2    0  501 -0.18428462512E+02  0.12032226129E+02 -0.13189257024E+03  0.21786241709E+03  0.17200000000E+03 0.  1.
</event>
<event>
 4    1  0.3094855E-002  0.1230552E+04  0.7818608E-02  0.9086526E-01
         -2   -1    0    0    0  501 -0.00000000000E+00  0.00000000000E+00  0.22148809119E+04  0.22148809119E+04  0.00000000000E+00 0.  1.
          2   -1    0    0  502    0  0.00000000000E+00 -0.00000000000E+00 -0.11782585638E+04  0.11782585638E+04  0.00000000000E+00 0. -1.
          6    1    1    2  502    0 -0.76441865619E+03  0.94886223682E+03 -0.58087463024E+03  0.13607625665E+04  0.17200000000E+03 0. -1.
         -6    1    1    2    0  501  0.76441865619E+03 -0.94886223682E+03  0.16174969783E+04  0.20323769093E+04  0.17200000000E+03 0.  1.
</event>
<event>
 4    1  0.3094855E-002  0.2284376E+03  0.7818608E-02  0.1127744E+00
          1   -1    0    0  502    0  0.00000000000E+00  0.00000000000E+00  0.14622567592E+04  0.14622567592E+04  0.00000000000E+00 0. -1.
         -1   -1    0    0    0  501 -0.00000000000E+00 -0.00000000000E+00 -0.66321781189E+02  0.66321781189E+02  0.00000000000E+00 0.  1.
          6    1    1    2  502    0 -0.11638491225E+03 -0.95154112118E+02  0.12174083547E+04  0.12386552607E+04  0.17200000000E+03 0. -1.
         -6    1    1    2    0  501  0.11638491225E+03  0.95154112118E+02  0.17852662331E+03  0.28992327965E+03  0.17200000000E+03 0.  1.
</event>
<event>
 4    1  0.3094855E-002  0.2317696E+03  0.7818608E-02  0.1125400E+00
         -1   -1    0    0    0  501 -0.00000000000E+00  0.00000000000E+00  0.16032236261E+03  0.16032236261E+03  0.00000000000E+00 0.  1.
          1   -1    0    0  502    0  0.00000000000E+00 -0.00000000000E+00 -0.49251443673E+03  0.49251443673E+03  0.00000000000E+00 0. -1.
          6    1    1    2  502    0 -0.14108012524E+03  0.65034865758E+02 -0.35065990731E+03  0.42033261365E+03  0.17200000000E+03 0. -1.
         -6    1    1    2    0  501  0.14108012524E+03 -0.65034865758E+02  0.18467833196E+02  0.23250418569E+03  0.17200000000E+03 0.  1.
</event>
<event>
 4    1  0.3094855E-002  0.2572514E+03  0.7818608E-02  0.1108806E+00
         -2   -1    0    0    0  501 -0.00000000000E+00  0.00000000000E+00  0.54448250047E+02  0.54448250047E+02  0.00000000000E+00 0.  1.
          2   -1    0    0  502    0  0.00000000000E+00 -0.00000000000E+00 -0.17954344290E+04  0.17954344290E+04  0.00000000000E+00 0. -1.
          6    1    1    2  502    0 -0.25654749572E+02  0.18956817403E+03 -0.13961998267E+04  0.14197014528E+04  0.17200000000E+03 0. -1.
         -6    1    1    2    0  501  0.25654749572E+02 -0.18956817403E+03 -0.34478635222E+03  0.43018122629E+03  0.17200000000E+03 0.  1.
</event>
<event>
 4    1  0.3094855E-002  0.2008467E+03  0.7818608E-02  0.1149027E+00
         -3   -1    0    0    0  501 -0.00000000000E+00  0.00000000000E+00  0.87141888817E+02  0.87141888817E+02  0.00000000000E+00 0.  1.
          3   -1    0    0  502    0  0.00000000000E+00 -0.00000000000E+00 -0.47132952857E+03  0.47132952857E+03  0.00000000000E+00 0. -1.
          6    1    1    2  502    0  0.53049149391E+02 -0.89113277437E+02 -0.15478653773E+03  0.25357101713E+03  0.17200000000E+03 0.  1.
         -6    1    1    2    0  501 -0.53049149391E+02  0.89113277437E+02 -0.22940110203E+03  0.30490040026E+03  0.17200000000E+03 0.  1.
</event>
<event>
 4    1  0.3094855E-002  0.1897224E+03  0.7818608E-02  0.1158712E+00
          2   -1    0    0  502    0  0.00000000000E+00  0.00000000000E+00  0.58365926857E+03  0.58365926857E+03  0.00000000000E+00 0. -1.
         -2   -1    0    0    0  501 -0.00000000000E+00 -0.00000000000E+00 -0.62344394354E+02  0.62344394354E+02  0.00000000000E+00 0.  1.
          6    1    1    2  502    0 -0.52235034885E+02  0.60680244423E+02  0.29423773277E+03  0.35010060600E+03  0.17200000000E+03 0. -1.
         -6    1    1    2    0  501  0.52235034885E+02 -0.60680244423E+02  0.22707714145E+03  0.29590305693E+03  0.17200000000E+03 0. -1.
</event>
<event>
 4    1  0.3094855E-002  0.4146097E+03  0.7818608E-02  0.1038835E+00
          3   -1    0    0  502    0  0.00000000000E+00  0.00000000000E+00  0.11141700133E+03  0.11141700133E+03  0.00000000000E+00 0. -1.
         -3   -1    0    0    0  501 -0.00000000000E+00 -0.00000000000E+00 -0.15430626283E+04  0.15430626283E+04  0.00000000000E+00 0.  1.
          6    1    1    2  502    0 -0.28557267472E+03  0.24650644772E+03 -0.70641627674E+03  0.81910019983E+03  0.17200000000E+03 0. -1.
         -6    1    1    2    0  501  0.28557267472E+03 -0.24650644772E+03 -0.72522935025E+03  0.83537942983E+03  0.17200000000E+03 0.  1.
</event>
<event>
 4    1  0.3094855E-002  0.2399507E+03  0.7818608E-02  0.1119826E+00
         -2   -1    0    0    0  501 -0.00000000000E+00  0.00000000000E+00  0.26052883658E+02  0.26052883658E+02  0.00000000000E+00 0.  1.
          2   -1    0    0  502    0  0.00000000000E+00 -0.00000000000E+00 -0.22364928513E+04  0.22364928513E+04  0.00000000000E+00 0. -1.
          6    1    1    2  502    0 -0.68305416605E+02  0.15273086077E+03 -0.98204748946E+03  0.10109369997E+04  0.17200000000E+03 0.  1.
         -6    1    1    2    0  501  0.68305416605E+02 -0.15273086077E+03 -0.12283924782E+04  0.12516087353E+04  0.17200000000E+03 0. -1.
</event>
<event>
 4    1  0.3094855E-002  0.2534717E+03  0.7818608E-02  0.1111130E+00
         -2   -1    0    0    0  501 -0.00000000000E+00  0.00000000000E+00  0.67715265998E+02  0.67715265998E+02  0.00000000000E+00 0.  1.
          2   -1    0    0  502    0  0.00000000000E+00 -0.00000000000E+00 -0.16681718119E+04  0.16681718119E+04  0.00000000000E+00 0. -1.
          6    1    1    2  502    0 -0.90889517494E+02  0.16249003526E+03 -0.13701946771E+04  0.13934422733E+04  0.17200000000E+03 0. -1.
         -6    1    1    2    0  501  0.90889517494E+02 -0.16249003526E+03 -0.23026186878E+03  0.34244480455E+03  0.17200000000E+03 0.  1.
</event>
<event>
 4    1  0.3094855E-002  0.3548081E+03  0.7818608E-02  0.1060659E+00
          1   -1    0    0  502    0  0.00000000000E+00  0.00000000000E+00  0.30792996304E+04  0.30792996304E+04  0.00000000000E+00 0. -1.
         -1   -1    0    0    0  501 -0.00000000000E+00 -0.00000000000E+00 -0.49306445493E+02  0.49306445493E+02  0.00000000000E+00 0.  1.
          6    1    1    2  502    0  0.30750553774E+03 -0.41774848900E+02  0.21615917565E+04  0.21905176821E+04  0.17200000000E+03 0. -1.
         -6    1    1    2    0  501 -0.30750553774E+03  0.41774848900E+02  0.86840142837E+03  0.93808839378E+03  0.17200000000E+03 0.  1.
</event>
<event>
 4    1  0.3094855E-002  0.1893822E+03  0.7818608E-02  0.1159020E+00
          2   -1    0    0  502    0  0.00000000000E+00  0.00000000000E+00  0.44024288691E+03  0.44024288691E+03  0.00000000000E+00 0. -1.
         -2   -1    0    0    0  501 -0.00000000000E+00 -0.00000000000E+00 -0.17752305938E+03  0.17752305938E+03  0.00000000000E+00 0.  1.
          6    1    1    2  502    0 -0.37708301786E+02  0.69711433597E+02  0.35856981689E+03  0.40550944944E+03  0.17200000000E+03 0. -1.
         -6    1    1    2    0  501  0.37708301786E+02 -0.69711433597E+02 -0.95849989360E+02  0.21225649686E+03  0.17200000000E+03 0.  1.
</event>
<event>
 4    1  0.3094855E-002  0.3516832E+03  0.7818608E-02  0.1061926E+00
          4   -1    0    0  502    0  0.00000000000E+00  0.00000000000E+00  0.14528250050E+03  0.14528250050E+03  0.00000000000E+00 0. -1.
         -4   -1    0    0    0  501 -0.00000000000E+00 -0.00000000000E+00 -0.17182164795E+04  0.17182164795E+04  0.00000000000E+00 0.  1.
          6    1    1    2  502    0 -0.58797046359E+02 -0.30106470240E+03 -0.12463872588E+03  0.37311641572E+03  0.17200000000E+03 0. -1.
         -6    1    1    2    0  501  0.58797046359E+02  0.30106470240E+03 -0.14482952531E+04  0.14903825643E+04  0.17200000000E+03 0.  1.
</event>
<event>
 4    1  0.3094855E-002  0.1721460E+03  0.7818608E-02  0.1175628E+00
         -2   -1    0    0    0  501 -0.00000000000E+00  0.00000000000E+00  0.90753144640E+02  0.90753144640E+02  0.00000000000E+00 0.  1.
          2   -1    0    0  502    0  0.00000000000E+00 -0.00000000000E+00 -0.35659322041E+03  0.35659322041E+03  0.00000000000E+00 0. -1.
          6    1    1    2  502    0  0.24757922597E+01 -0.66423302118E+01 -0.67982575207E+02  0.18508344234E+03  0.17200000000E+03 0.  1.
         -6    1    1    2    0  501 -0.24757922597E+01  0.66423302118E+01 -0.19785750057E+03  0.26226292271E+03  0.17200000000E+03 0. -1.
</event>
<event>
 4    1  0.3094855E-002  0.1848675E+03  0.7818608E-02  0.1163174E+00
          1   -1    0    0  502    0  0.00000000000E+00  0.00000000000E+00  0.20158403178E+04  0.20158403178E+04  0.00000000000E+00 0. -1.
         -1   -1    0    0    0  501 -0.00000000000E+00 -0.00000000000E+00 -0.24428525079E+02  0.24428525079E+02  0.00000000000E+00 0.  1.
          6    1    1    2  502    0  0.47319492821E+02  0.48506284001E+02  0.15600041295E+04  0.15709197554E+04  0.17200000000E+03 0. -1.
         -6    1    1    2    0  501 -0.47319492821E+02 -0.48506284001E+02  0.43140766320E+03  0.46934908741E+03  0.17200000000E+03 0.  1.
</event>
<event>
 4    1  0.3094855E-002  0.2478330E+03  0.7818608E-02  0.1114682E+00
          2   -1    0    0  502    0  0.00000000000E+00  0.00000000000E+00  0.24057739686E+04  0.24057739686E+04  0.00000000000E+00 0. -1.
         -2   -1    0    0    0  501 -0.00000000000E+00 -0.00000000000E+00 -0.10025939559E+03  0.10025939559E+03  0.00000000000E+00 0.  1.
          6    1    1    2  502    0  0.38930432455E+02  0.17413097438E+03  0.22345347124E+04  0.22482363211E+04  0.17200000000E+03 0. -1.
         -6    1    1    2    0  501 -0.38930432455E+02 -0.17413097438E+03  0.70979860678E+02  0.25779704310E+03  0.17200000000E+03 0.  1.
</event>
<event>
 4    1  0.3094855E-002  0.1941470E+03  0.7818608E-02  0.1154773E+00
         -1   -1    0    0    0  501 -0.00000000000E+00  0.00000000000E+00  0.12057705977E+04  0.12057705977E+04  0.00000000000E+00 0.  1.
          1   -1    0    0  502    0  0.00000000000E+00 -0.00000000000E+00 -0.33150808073E+02  0.33150808073E+02  0.00000000000E+00 0. -1.
          6    1    1    2  502    0 -0.82339095469E+02 -0.36460031916E+02  0.73422973922E+03  0.75946452881E+03  0.17200000000E+03 0.  1.
         -6    1    1    2    0  501  0.82339095469E+02  0.36460031916E+02  0.43839005042E+03  0.47945687697E+03  0.17200000000E+03 0.  1.
</event>
<event>
 4    1  0.3094855E-002  0.2590618E+03  0.7818608E-02  0.1107708E+00
          2   -1    0    0  502    0  0.00000000000E+00  0.00000000000E+00  0.33937517143E+03  0.33937517143E+03  0.00000000000E+00 0. -1.
         -2   -1    0    0    0  501 -0.00000000000E+00 -0.00000000000E+00 -0.20498982264E+03  0.20498982264E+03  0.00000000000E+00 0.  1.
          6    1    1    2  502    0  0.24949404384E+02 -0.19211076534E+03  0.11832769458E+03  0.28480600809E+03  0.17200000000E+03 0. -1.
         -6    1    1    2    0  501 -0.24949404384E+02  0.19211076534E+03  0.16057654202E+02  0.25955898597E+03  0.17200000000E+03 0.  1.
</event>
<event>
 4    1  0.3094855E-002  0.1859679E+03  0.7818608E-02  0.1162149E+00
          3   -1    0    0  502    0  0.00000000000E+00  0.00000000000E+00  0.15457989803E+03  0.15457989803E+03  0.00000000000E+00 0. -1.
         -3   -1    0    0    0  501 -0.00000000000E+00 -0.00000000000E+00 -0.49724133600E+03  0.49724133600E+03  0.00000000000E+00 0.  1.
          6    1    1    2  502    0 -0.70147475905E+02  0.89104291042E+01  0.70383977668E+02  0.19884156617E+03  0.17200000000E+03 0. -1.
         -6    1    1    2    0  501  0.70147475905E+02 -0.89104291042E+01 -0.41304541564E+03  0.45297966787E+03  0.17200000000E+03 0.  1.
</event>
<event>
 4    1  0.3094855E-002  0.1825590E+03  0.7818608E-02  0.1165349E+00
         -1   -1    0    0    0  501 -0.00000000000E+00  0.00000000000E+00  0.17730636744E+03  0.17730636744E+03  0.00000000000E+00 0.  1.
          1   -1    0    0  502    0  0.00000000000E+00 -0.00000000000E+00 -0.41309394202E+03  0.41309394202E+03  0.00000000000E+00 0. -1.
          6    1    1    2  502    0  0.49679439499E+02 -0.35717489219E+02 -0.33581810124E+03  0.38223236763E+03  0.17200000000E+03 0. -1.
         -6    1    1    2    0  501 -0.49679439499E+02  0.35717489219E+02  0.10003052666E+03  0.20816794184E+03  0.17200000000E+03 0.  1.
</event>
<event>
 4    1  0.3094855E-002  0.2390303E+03  0.7818608E-02  0.1120440E+00
          3   -1    0    0  502    0  0.00000000000E+00  0.00000000000E+00  0.51288673878E+03  0.51288673878E+03  0.00000000000E+00 0. -1.
         -3   -1    0    0    0  501 -0.00000000000E+00 -0.00000000000E+00 -0.18292099785E+03  0.18292099785E+03  0.00000000000E+00 0.  1.
          6    1    1    2  502    0 -0.16046544805E+03  0.42453761429E+02  0.38252574162E+03  0.45106698491E+03  0.17200000000E+03 0. -1.
         -6    1    1    2    0  501  0.16046544805E+03 -0.42453761429E+02 -0.52560000691E+02  0.24474075172E+03  0.17200000000E+03 0.  1.
</event>
<event>
 4    1  0.3094855E-002  0.1818779E+03  0.7818608E-02  0.1165998E+00
          1   -1    0    0  502    0  0.00000000000E+00  0.00000000000E+00  0.93708353564E+03  0.93708353564E+03  0.00000000000E+00 0. -1.
         -1   -1    0    0    0  501 -0.00000000000E+00 -0.00000000000E+00 -0.35309421753E+02  0.35309421753E+02  0.00000000000E+00 0.  1.
          6    1    1    2  502    0  0.35259612160E+01 -0.59018077226E+02  0.44318106711E+03  0.47905012690E+03  0.17200000000E+03 0. -1.
         -6    1    1    2    0  501 -0.35259612160E+01  0.59018077226E+02  0.45859304678E+03  0.49334283049E+03  0.17200000000E+03 0.  1.
</event>
<event>
 4    1  0.3094855E-002  0.3940114E+03  0.7818608E-02  0.1045873E+00
          1   -1    0    0  502    0  0.00000000000E+00  0.00000000000E+00  0.20025050667E+04  0.20025050667E+04  0.00000000000E+00 0. -1.
         -1   -1    0    0    0  501 -0.00000000000E+00 -0.00000000000E+00 -0.77821863688E+02  0.77821863688E+02  0.00000000000E+00 0.  1.
          6    1    1    2  502    0 -0.26512245872E+03  0.23531062741E+03  0.10265416519E+04  0.10995602633E+04  0.17200000000E+03 0. -1.
         -6    1    1    2    0  501  0.26512245872E+03 -0.23531062741E+03  0.89814155112E+03  0.98076666712E+03  0.17200000000E+03 0.  1.
</event>
<event>
 4    1  0.3094855E-002  0.2269626E+03  0.7818608E-02  0.1128796E+00
         -2   -1    0    0    0  501 -0.00000000000E+00  0.00000000000E+00  0.35168083860E+03  0.35168083860E+03  0.00000000000E+00 0.  1.
          2   -1    0    0  502    0  0.00000000000E+00 -0.00000000000E+00 -0.20267491945E+03  0.20267491945E+03  0.00000000000E+00 0. -1.
          6    1    1    2  502    0 -0.75451886961E+02  0.12741677793E+03  0.22046203870E+03  0.31641038708E+03  0.17200000000E+03 0.  1.
         -6    1    1    2    0  501  0.75451886961E+02 -0.12741677793E+03 -0.71456119551E+02  0.23794537097E+03  0.17200000000E+03 0.  1.
</event>
<event>
 4    1  0.3094855E-002  0.2846189E+03  0.7818608E-02  0.1093193E+00
         -2   -1    0    0    0  501 -0.00000000000E+00  0.00000000000E+00  0.11030742187E+03  0.11030742187E+03  0.00000000000E+00 0.  1.
          2   -1    0    0  502    0  0.00000000000E+00 -0.00000000000E+00 -0.17851824294E+04  0.17851824294E+04  0.00000000000E+00 0. -1.
          6    1    1    2  502    0 -0.18438020734E+03  0.13201469230E+03 -0.15645640442E+04  0.15902416760E+04  0.17200000000E+03 0. -1.
         -6    1    1    2    0  501  0.18438020734E+03 -0.13201469230E+03 -0.11031096333E+03  0.30524817522E+03  0.17200000000E+03 0. -1.
</event>
<event>
 4    1  0.3094855E-002  0.3564707E+03  0.7818608E-02  0.1059990E+00
          3   -1    0    0  502    0  0.00000000000E+00  0.00000000000E+00  0.12177896572E+04  0.12177896572E+04  0.00000000000E+00 0. -1.
         -3   -1    0    0    0  501 -0.00000000000E+00 -0.00000000000E+00 -0.14180364503E+03  0.14180364503E+03  0.00000000000E+00 0.  1.
          6    1    1    2  502    0 -0.16611009584E+03 -0.26437625214E+03  0.88737948669E+03  0.95630210710E+03  0.17200000000E+03 0. -1.
         -6    1    1    2    0  501  0.16611009584E+03  0.26437625214E+03  0.18860652552E+03  0.40329119518E+03  0.17200000000E+03 0.  1.
</event>
<event>
 4    1  0.3094855E-002  0.1752602E+03  0.7818608E-02  0.1172471E+00
          4   -1    0    0  502    0  0.00000000000E+00  0.00000000000E+00  0.76266334892E+03  0.76266334892E+03  0.00000000000E+00 0. -1.
         -4   -1    0    0    0  501 -0.00000000000E+00 -0.00000000000E+00 -0.40853656715E+02  0.40853656715E+02  0.00000000000E+00 0.  1.
          6    1    1    2  502    0  0.33337784066E+02  0.45549255020E+01  0.31308426947E+03  0.35880066190E+03  0.17200000000E+03 0.  1.
         -6    1    1    2    0  501 -0.33337784066E+02 -0.45549255020E+01  0.40872542273E+03  0.44471634373E+03  0.17200000000E+03 0. -1.
</event>
<event>
 4    1  0.3094855E-002  0.8222259E+03  0.7818608E-02  0.9528392E-01
          2   -1    0    0  502    0  0.00000000000E+00  0.00000000000E+00  0.18378553390E+04  0.18378553390E+04  0.00000000000E+00 0. -1.
         -2   -1    0    0    0  501 -0.00000000000E+00 -0.00000000000E+00 -0.37094222366E+03  0.37094222366E+03  0.00000000000E+00 0.  1.
          6    1    1    2  502    0  0.45023626469E+03 -0.66615214425E+03  0.83428829991E+03  0.11713634537E+04  0.17200000000E+03 0. -1.
         -6    1    1    2    0  501 -0.45023626469E+03  0.66615214425E+03  0.63262481544E+03  0.10374341090E+04  0.17200000000E+03 0.  1.
</event>
<event>
 4    1  0.3094855E-002  0.2415418E+03  0.7818608E-02  0.1118770E+00
         -1   -1    0    0    0  501 -0.00000000000E+00  0.00000000000E+00  0.13016486649E+03  0.13016486649E+03  0.00000000000E+00 0.  1.
          1   -1    0    0  502    0  0.00000000000E+00 -0.00000000000E+00 -0.46596663743E+03  0.46596663743E+03  0.00000000000E+00 0. -1.
          6    1    1    2  502    0 -0.70430096424E+02 -0.15426613242E+03 -0.22607076860E+03  0.33083293444E+03  0.17200000000E+03 0.  1.
         -6    1    1    2    0  501  0.70430096424E+02  0.15426613242E+03 -0.10973100234E+03  0.26529856948E+03  0.17200000000E+03 0.  1.
</event>
<event>
 4    1  0.3094855E-002  0.1748521E+03  0.7818608E-02  0.1172880E+00
         -1   -1    0    0    0  501 -0.00000000000E+00  0.00000000000E+00  0.23262479191E+03  0.23262479191E+03  0.00000000000E+00 0.  1.
          1   -1    0    0  502    0  0.00000000000E+00 -0.00000000000E+00 -0.91523909575E+03  0.91523909575E+03  0.00000000000E+00 0. -1.
          6    1    1    2  502    0 -0.18216446045E+02  0.25639878282E+02 -0.87243493568E+03  0.88978422062E+03  0.17200000000E+03 0. -1.
         -6    1    1    2    0  501  0.18216446045E+02 -0.25639878282E+02  0.18982063184E+03  0.25807966704E+03  0.17200000000E+03 0.  1.
</event>
<event>
 4    1  0.3094855E-002  0.2755281E+03  0.7818608E-02  0.1098157E+00
          2   -1    0    0  502    0  0.00000000000E+00  0.00000000000E+00  0.16159883231E+03  0.16159883231E+03  0.00000000000E+00 0. -1.
         -2   -1    0    0    0  501 -0.00000000000E+00 -0.00000000000E+00 -0.64148648414E+03  0.64148648414E+03  0.00000000000E+00 0.  1.
          6    1    1    2  502    0  0.15337966073E+03  0.15101801338E+03 -0.32197970525E+02  0.27740308217E+03  0.17200000000E+03 0. -1.
         -6    1    1    2    0  501 -0.15337966073E+03 -0.15101801338E+03 -0.44768968131E+03  0.52568223428E+03  0.17200000000E+03 0.  1.
</event>
<event>
 4    1  0.3094855E-002  0.2662637E+03  0.7818608E-02  0.1103437E+00
          2   -1    0    0  502    0  0.00000000000E+00  0.00000000000E+00  0.84167662923E+03  0.84167662923E+03  0.00000000000E+00 0. -1.
         -2   -1    0    0    0  501 -0.00000000000E+00 -0.00000000000E+00 -0.11087442468E+03  0.11087442468E+03  0.00000000000E+00 0.  1.
          6    1    1    2  502    0  0.20322893869E+03 -0.32164597601E+01  0.59886896802E+03  0.65539330787E+03  0.17200000000E+03 0. -1.
         -6    1    1    2    0  501 -0.20322893869E+03  0.32164597601E+01  0.13193323653E+03  0.29715774604E+03  0.17200000000E+03 0.  1.
</event>
<event>
 4    1  0.3094855E-002  0.5196698E+03  0.7818608E-02  0.1008769E+00
          1   -1    0    0  502    0  0.00000000000E+00  0.00000000000E+00  0.20902856651E+04  0.20902856651E+04  0.00000000000E+00 0. -1.
         -1   -1    0    0    0  501 -0.00000000000E+00 -0.00000000000E+00 -0.13640627220E+03  0.13640627220E+03  0.00000000000E+00 0.  1.
          6    1    1    2  502    0 -0.41371447551E+03 -0.26327363328E+03  0.72097092793E+03  0.88873829227E+03  0.17200000000E+03 0. -1.
         -6    1    1    2    0  501  0.41371447551E+03  0.26327363328E+03  0.12329084650E+04  0.13379536450E+04  0.17200000000E+03 0.  1.
</event>
<event>
 4    1  0.3094855E-002  0.2130810E+03  0.7818608E-02  0.1139149E+00
          2   -1    0    0  502    0  0.00000000000E+00  0.00000000000E+00  0.21438947717E+03  0.21438947717E+03  0.00000000000E+00 0. -1.
         -2   -1    0    0    0  501 -0.00000000000E+00 -0.00000000000E+00 -0.23209104276E+03  0.23209104276E+03  0.00000000000E+00 0.  1.
          6    1    1    2  502    0 -0.47188232519E+02  0.11658803566E+03  0.57188851391E+02  0.22062199362E+03  0.17200000000E+03 0. -1.
         -6    1    1    2    0  501  0.47188232519E+02 -0.11658803566E+03 -0.74890416984E+02  0.22585852630E+03  0.17200000000E+03 0.  1.
</event>
<event>
 4    1  0.3094855E-002  0.2422779E+03  0.7818608E-02  0.1118285E+00
          2   -1    0    0  502    0  0.00000000000E+00  0.00000000000E+00  0.17630024368E+03  0.17630024368E+03  0.00000000000E+00 0. -1.
         -2   -1    0    0    0  501 -0.00000000000E+00 -0.00000000000E+00 -0.58169372648E+03  0.58169372648E+03  0.00000000000E+00 0.  1.
          6    1    1    2  502    0 -0.87956582295E+02  0.14621290084E+03  0.45141073591E+02  0.24644733568E+03  0.17200000000E+03 0. -1.
         -6    1    1    2    0  501  0.87956582295E+02 -0.14621290084E+03 -0.45053455640E+03  0.51154663448E+03  0.17200000000E+03 0.  1.
</event>
<event>
 4    1  0.3094855E-002  0.2349841E+03  0.7818608E-02  0.1123180E+00
          1   -1    0    0  502    0  0.00000000000E+00  0.00000000000E+00  0.11637849154E+04  0.11637849154E+04  0.00000000000E+00 0. -1.
         -1   -1    0    0    0  501 -0.00000000000E+00 -0.00000000000E+00 -0.15602203528E+03  0.15602203528E+03  0.00000000000E+00 0.  1.
          6    1    1    2  502    0  0.27178475505E+02 -0.15778099322E+03  0.10543765332E+04  0.10802441322E+04  0.17200000000E+03 0. -1.
         -6    1    1    2    0  501 -0.27178475505E+02  0.15778099322E+03 -0.46613653085E+02  0.23956281850E+03  0.17200000000E+03 0.  1.
</event>
<event>
 4    1  0.3094855E-002  0.2993194E+03  0.7818608E-02  0.1085581E+00
         -1   -1    0    0    0  501 -0.00000000000E+00  0.00000000000E+00  0.52793812088E+03  0.52793812088E+03  0.00000000000E+00 0.  1.
          1   -1    0    0  502    0  0.00000000000E+00 -0.00000000000E+00 -0.26759001927E+03  0.26759001927E+03  0.00000000000E+00 0. -1.
          6    1    1    2  502    0 -0.14717578357E+03  0.19582488681E+03 -0.11040378135E+03  0.31903149139E+03  0.17200000000E+03 0. -1.
         -6    1    1    2    0  501  0.14717578357E+03 -0.19582488681E+03  0.37075188296E+03  0.47649664876E+03  0.17200000000E+03 0.  1.
</event>
<event>
 4    1  0.3094855E-002  0.2770637E+03  0.7818608E-02  0.1097304E+00
         -1   -1    0    0    0  501 -0.00000000000E+00  0.00000000000E+00  0.24040151972E+02  0.24040151972E+02  0.00000000000E+00 0.  1.
          1   -1    0    0  502    0  0.00000000000E+00 -0.00000000000E+00 -0.32108781326E+04  0.32108781326E+04  0.00000000000E+00 0. -1.
          6    1    1    2  502    0 -0.11267155258E+03  0.18570254357E+03 -0.17135338912E+04  0.17357887861E+04  0.17200000000E+03 0. -1.
         -6    1    1    2    0  501  0.11267155258E+03 -0.18570254357E+03 -0.14733040894E+04  0.14991294985E+04  0.17200000000E+03 0.  1.
</event>
<event>
 4    1  0.3094855E-002  0.1827685E+03  0.7818608E-02  0.1165150E+00
         -1   -1    0    0    0  501 -0.00000000000E+00  0.00000000000E+00  0.12067026247E+04  0.12067026247E+04  0.00000000000E+00 0.  1.
          1   -1    0    0  502    0  0.00000000000E+00 -0.00000000000E+00 -0.33462559520E+02  0.33462559520E+02  0.00000000000E+00 0. -1.
          6    1    1    2  502    0  0.26578341464E+01 -0.61751730791E+02  0.84433669645E+03  0.86389165832E+03  0.17200000000E+03 0.  1.
         -6    1    1    2    0  501 -0.26578341464E+01  0.61751730791E+02  0.32890336878E+03  0.37627352595E+03  0.17200000000E+03 0. -1.
</event>
<event>
 4    1  0.3094855E-002  0.2014369E+03  0.7818608E-02  0.1148532E+00
          2   -1    0    0  502    0  0.00000000000E+00  0.00000000000E+00  0.10064239245E+04  0.10064239245E+04  0.00000000000E+00 0. -1.
         -2   -1    0    0    0  501 -0.00000000000E+00 -0.00000000000E+00 -0.88030844354E+02  0.88030844354E+02  0.00000000000E+00 0.  1.
          6    1    1    2  502    0 -0.81111054791E+02 -0.66436548231E+02  0.86207019041E+03  0.88529194696E+03  0.17200000000E+03 0. -1.
         -6    1    1    2    0  501  0.81111054791E+02  0.66436548231E+02  0.56322889714E+02  0.20916282188E+03  0.17200000000E+03 0.  1.
</event>
<event>
 4    1  0.3094855E-002  0.2274663E+03  0.7818608E-02  0.1128436E+00
          1   -1    0    0  502    0  0.00000000000E+00  0.00000000000E+00  0.43920316388E+02  0.43920316388E+02  0.00000000000E+00 0. -1.
         -1   -1    0    0    0  501 -0.00000000000E+00 -0.00000000000E+00 -0.12119779290E+04  0.12119779290E+04  0.00000000000E+00 0.  1.
          6    1    1    2  502    0 -0.11927901499E+03  0.89047313710E+02 -0.47898476547E+03  0.53025212215E+03  0.17200000000E+03 0. -1.
         -6    1    1    2    0  501  0.11927901499E+03 -0.89047313710E+02 -0.68907284710E+03  0.72564612319E+03  0.17200000000E+03 0.  1.
</event>
<event>
 4    1  0.3094855E-002  0.2281405E+03  0.7818608E-02  0.1127955E+00
          2   -1    0    0  502    0  0.00000000000E+00  0.00000000000E+00  0.76320711855E+03  0.76320711855E+03  0.00000000000E+00 0. -1.
         -2   -1    0    0    0  501 -0.00000000000E+00 -0.00000000000E+00 -0.82759387785E+02  0.82759387785E+02  0.00000000000E+00 0.  1.
          6    1    1    2  502    0  0.67745994012E+02 -0.13369581697E+03  0.16278956901E+03  0.28026511548E+03  0.17200000000E+03 0. -1.
         -6    1    1    2    0  501 -0.67745994012E+02  0.13369581697E+03  0.51765816176E+03  0.56570139085E+03  0.17200000000E+03 0. -1.
</event>
<event>
 4    1  0.3094855E-002  0.2477908E+03  0.7818608E-02  0.1114709E+00
         -1   -1    0    0    0  501 -0.00000000000E+00  0.00000000000E+00  0.34041421480E+03  0.34041421480E+03  0.00000000000E+00 0.  1.
          1   -1    0    0  502    0  0.00000000000E+00 -0.00000000000E+00 -0.28948816047E+03  0.28948816047E+03  0.00000000000E+00 0. -1.
          6    1    1    2  502    0  0.97547079729E+02  0.14933461353E+03 -0.16790196075E+03  0.29931810501E+03  0.17200000000E+03 0. -1.
         -6    1    1    2    0  501 -0.97547079729E+02 -0.14933461353E+03  0.21882801508E+03  0.33058427027E+03  0.17200000000E+03 0.  1.
</event>
<event>
 4    1  0.3094855E-002  0.1723042E+03  0.7818608E-02  0.1175466E+00
          1   -1    0    0  502    0  0.00000000000E+00  0.00000000000E+00  0.21302228082E+04  0.21302228082E+04  0.00000000000E+00 0. -1.
         -1   -1    0    0    0  501 -0.00000000000E+00 -0.00000000000E+00 -0.14094700300E+02  0.14094700300E+02  0.00000000000E+00 0.  1.
          6    1    1    2  502    0 -0.93422969700E+01  0.41774936886E+01  0.11715043063E+04  0.11841077104E+04  0.17200000000E+03 0. -1.
         -6    1    1    2    0  501  0.93422969700E+01 -0.41774936886E+01  0.94462380161E+03  0.96020979818E+03  0.17200000000E+03 0.  1.
</event>
<event>
 4    1  0.3094855E-002  0.1742946E+03  0.7818608E-02  0.1173442E+00
          2   -1    0    0  502    0  0.00000000000E+00  0.00000000000E+00  0.22253101403E+03  0.22253101403E+03  0.00000000000E+00 0. -1.
         -2   -1    0    0    0  501 -0.00000000000E+00 -0.00000000000E+00 -0.20233803847E+03  0.20233803847E+03  0.00000000000E+00 0.  1.
          6    1    1    2  502    0 -0.22217100307E+02 -0.17349196294E+02  0.13126190057E+03  0.21819321873E+03  0.17200000000E+03 0. -1.
         -6    1    1    2    0  501  0.22217100307E+02  0.17349196294E+02 -0.11106892502E+03  0.20667583377E+03  0.17200000000E+03 0.  1.
</event>
<event>
 4    1  0.3094855E-002  0.5357138E+03  0.7818608E-02  0.1004856E+00
         -2   -1    0    0    0  501 -0.00000000000E+00  0.00000000000E+00  0.24910531912E+03  0.24910531912E+03  0.00000000000E+00 0.  1.
          2   -1    0    0  502    0  0.00000000000E+00 -0.00000000000E+00 -0.16124369959E+04  0.16124369959E+04  0.00000000000E+00 0. -1.
          6    1    1    2  502    0 -0.50015724650E+03 -0.85135186461E+02 -0.18433099741E+03  0.56653966129E+03  0.17200000000E+03 0. -1.
         -6    1    1    2    0  501  0.50015724650E+03  0.85135186461E+02 -0.11790006794E+04  0.12950026537E+04  0.17200000000E+03 0.  1.
</event>
<event>
 4    1  0.3094855E-002  0.2795410E+03  0.7818608E-02  0.1095940E+00
          2   -1    0    0  502    0  0.00000000000E+00  0.00000000000E+00  0.71606833577E+03  0.71606833577E+03  0.00000000000E+00 0. -1.
         -2   -1    0    0    0  501 -0.00000000000E+00 -0.00000000000E+00 -0.11352087090E+03  0.11352087090E+03  0.00000000000E+00 0.  1.
          6    1    1    2  502    0 -0.12886671821E+02  0.21998429987E+03  0.38286915412E+03  0.47405901286E+03  0.17200000000E+03 0. -1.
         -6    1    1    2    0  501  0.12886671821E+02 -0.21998429987E+03  0.21967831075E+03  0.35553019381E+03  0.17200000000E+03 0.  1.
</event>
<event>
 4    1  0.3094855E-002  0.2972407E+03  0.7818608E-02  0.1086628E+00
          1   -1    0    0  502    0  0.00000000000E+00  0.00000000000E+00  0.25512446510E+04  0.25512446510E+04  0.00000000000E+00 0. -1.
         -1   -1    0    0    0  501 -0.00000000000E+00 -0.00000000000E+00 -0.40393001483E+02  0.40393001483E+02  0.00000000000E+00 0.  1.
          6    1    1    2  502    0  0.83915946422E+02  0.22743388148E+03  0.17448431488E+04  0.17699801328E+04  0.17200000000E+03 0. -1.
         -6    1    1    2    0  501 -0.83915946422E+02 -0.22743388148E+03  0.76600850063E+03  0.82165751962E+03  0.17200000000E+03 0.  1.
</event>
<event>
 4    1  0.3094855E-002  0.2100463E+03  0.7818608E-02  0.1141529E+00
          1   -1    0    0  502    0  0.00000000000E+00  0.00000000000E+00  0.11442321539E+04  0.11442321539E+04  0.00000000000E+00 0. -1.
         -1   -1    0    0    0  501 -0.00000000000E+00 -0.00000000000E+00 -0.38641815966E+02  0.38641815966E+02  0.00000000000E+00 0.  1.
          6    1    1    2  502    0 -0.61842835784E+01 -0.12040441050E+03  0.58031662158E+03  0.61716031039E+03  0.17200000000E+03 0.  1.
         -6    1    1    2    0  501  0.61842835784E+01  0.12040441050E+03  0.52527371636E+03  0.56571365948E+03  0.17200000000E+03 0. -1.
</event>
<event>
 4    1  0.3094855E-002  0.3477372E+03  0.7818608E-02  0.1063548E+00
          2   -1    0    0  502    0  0.00000000000E+00  0.00000000000E+00  0.64764481001E+03  0.64764481001E+03  0.00000000000E+00 0. -1.
         -2   -1    0    0    0  501 -0.00000000000E+00 -0.00000000000E+00 -0.18977506694E+03  0.18977506694E+03  0.00000000000E+00 0.  1.
          6    1    1    2  502    0  0.57219801226E+02 -0.29675418491E+03  0.17571418733E+03  0.38961086682E+03  0.17200000000E+03 0.  1.
         -6    1    1    2    0  501 -0.57219801226E+02  0.29675418491E+03  0.28215555575E+03  0.44780901013E+03  0.17200000000E+03 0.  1.
</event>
<event>
 4    1  0.3094855E-002  0.2375217E+03  0.7818608E-02  0.1121455E+00
          2   -1    0    0  502    0  0.00000000000E+00  0.00000000000E+00  0.85513990195E+03  0.85513990195E+03  0.00000000000E+00 0. -1.
         -2   -1    0    0    0  501 -0.00000000000E+00 -0.00000000000E+00 -0.67303315455E+02  0.67303315455E+02  0.00000000000E+00 0.  1.
          6    1    1    2  502    0 -0.69521744643E+02  0.14832153357E+03  0.32908601099E+03  0.40584991429E+03  0.17200000000E+03 0. -1.
         -6    1    1    2    0  501  0.69521744643E+02 -0.14832153357E+03  0.45875057551E+03  0.51659330312E+03  0.17200000000E+03 0. -1.
</event>
<event>
 4    1  0.3094855E-002  0.2173252E+03  0.7818608E-02  0.1135893E+00
         -1   -1    0    0    0  501 -0.00000000000E+00  0.00000000000E+00  0.32725091364E+03  0.32725091364E+03  0.00000000000E+00 0.  1.
          1   -1    0    0  502    0  0.00000000000E+00 -0.00000000000E+00 -0.21916154199E+03  0.21916154199E+03  0.00000000000E+00 0. -1.
          6    1    1    2  502    0 -0.73062023322E+02  0.11094228246E+03 -0.10560475238E+03  0.24162494287E+03  0.17200000000E+03 0. -1.
         -6    1    1    2    0  501  0.73062023322E+02 -0.11094228246E+03  0.21369412403E+03  0.30478751276E+03  0.17200000000E+03 0.  1.
</event>
<event>
 4    1  0.3094855E-002  0.3162741E+03  0.7818608E-02  0.1077377E+00
          1   -1    0    0  502    0  0.00000000000E+00  0.00000000000E+00  0.51664166699E+03  0.51664166699E+03  0.00000000000E+00 0. -1.
         -1   -1    0    0    0  501 -0.00000000000E+00 -0.00000000000E+00 -0.25106203494E+03  0.25106203494E+03  0.00000000000E+00 0.  1.
          6    1    1    2  502    0 -0.21488417977E+03  0.15578862383E+03  0.31640513170E+03  0.44737178431E+03  0.17200000000E+03 0. -1.
         -6    1    1    2    0  501  0.21488417977E+03 -0.15578862383E+03 -0.50825499650E+02  0.32033191762E+03  0.17200000000E+03 0.  1.
</event>
<event>
 4    1  0.3094855E-002  0.2695514E+03  0.7818608E-02  0.1101537E+00
          2   -1    0    0  502    0  0.00000000000E+00  0.00000000000E+00  0.42723377162E+03  0.42723377162E+03  0.00000000000E+00 0. -1.
         -2   -1    0    0    0  501 -0.00000000000E+00 -0.00000000000E+00 -0.18053656625E+03  0.18053656625E+03  0.00000000000E+00 0.  1.
          6    1    1    2  502    0 -0.17784553820E+03  0.10698101520E+03  0.19653162270E+03  0.33359054512E+03  0.17200000000E+03 0. -1.
         -6    1    1    2    0  501  0.17784553820E+03 -0.10698101520E+03  0.50165582666E+02  0.27417979276E+03  0.17200000000E+03 0.  1.
</event>
<event>
 4    1  0.3094855E-002  0.2987257E+03  0.7818608E-02  0.1085879E+00
         -2   -1    0    0    0  501 -0.00000000000E+00  0.00000000000E+00  0.89320122889E+03  0.89320122889E+03  0.00000000000E+00 0.  1.
          2   -1    0    0  502    0  0.00000000000E+00 -0.00000000000E+00 -0.12142535674E+03  0.12142535674E+03  0.00000000000E+00 0. -1.
          6    1    1    2  502    0 -0.10083131786E+03 -0.22245468276E+03  0.59945105995E+03  0.66976011662E+03  0.17200000000E+03 0. -1.
         -6    1    1    2    0  501  0.10083131786E+03  0.22245468276E+03  0.17232481220E+03  0.34486646900E+03  0.17200000000E+03 0.  1.
</event>
<event>
 4    1  0.3094855E-002  0.1849088E+03  0.7818608E-02  0.1163135E+00
         -2   -1    0    0    0  501 -0.00000000000E+00  0.00000000000E+00  0.10124099789E+04  0.10124099789E+04  0.00000000000E+00 0.  1.
          2   -1    0    0  502    0  0.00000000000E+00 -0.00000000000E+00 -0.36538303847E+02  0.36538303847E+02  0.00000000000E+00 0. -1.
          6    1    1    2  502    0  0.55695485567E+02 -0.38797976131E+02  0.63224283932E+03  0.65872777226E+03  0.17200000000E+03 0.  1.
         -6    1    1    2    0  501 -0.55695485567E+02  0.38797976131E+02  0.34362883574E+03  0.39022051050E+03  0.17200000000E+03 0.  1.
</event>
<event>
 4    1  0.3094855E-002  0.2014295E+03  0.7818608E-02  0.1148539E+00
         -2   -1    0    0    0  501 -0.00000000000E+00  0.00000000000E+00  0.41116961616E+02  0.41116961616E+02  0.00000000000E+00 0.  1.
          2   -1    0    0  502    0  0.00000000000E+00 -0.00000000000E+00 -0.17514104207E+04  0.17514104207E+04  0.00000000000E+00 0. -1.
          6    1    1    2  502    0 -0.56865412281E+01  0.10467811182E+03 -0.14473414442E+04  0.14612909018E+04  0.17200000000E+03 0. -1.
         -6    1    1    2    0  501  0.56865412281E+01 -0.10467811182E+03 -0.26295201496E+03  0.33123648050E+03  0.17200000000E+03 0.  1.
</event>
<event>
 4    1  0.3094855E-002  0.3236120E+03  0.7818608E-02  0.1073999E+00
          1   -1    0    0  502    0  0.00000000000E+00  0.00000000000E+00  0.27055961082E+04  0.27055961082E+04  0.00000000000E+00 0. -1.
         -1   -1    0    0    0  501 -0.00000000000E+00 -0.00000000000E+00 -0.46849318523E+02  0.46849318523E+02  0.00000000000E+00 0.  1.
          6    1    1    2  502    0 -0.27367609028E+03  0.15559566045E+02  0.19031186031E+04  0.19304365102E+04  0.17200000000E+03 0. -1.
         -6    1    1    2    0  501  0.27367609028E+03 -0.15559566045E+02  0.75562818663E+03  0.82200891657E+03  0.17200000000E+03 0.  1.
</event>
<event>
 4    1  0.3094855E-002  0.2531560E+03  0.7818608E-02  0.1111326E+00
         -2   -1    0    0    0  501 -0.00000000000E+00  0.00000000000E+00  0.38128294265E+02  0.38128294265E+02  0.00000000000E+00 0.  1.
          2   -1    0    0  502    0  0.00000000000E+00 -0.00000000000E+00 -0.18388403080E+04  0.18388403080E+04  0.00000000000E+00 0. -1.
          6    1    1    2  502    0  0.17249411228E+03  0.68918187128E+02 -0.11754432940E+04  0.12023954727E+04  0.17200000000E+03 0. -1.
         -6    1    1    2    0  501 -0.17249411228E+03 -0.68918187128E+02 -0.62526871970E+03  0.67457312956E+03  0.17200000000E+03 0.  1.
</event>
<event>
 4    1  0.3094855E-002  0.2430412E+03  0.7818608E-02  0.1117783E+00
          2   -1    0    0  502    0  0.00000000000E+00  0.00000000000E+00  0.27754366557E+03  0.27754366557E+03  0.00000000000E+00 0. -1.
         -2   -1    0    0    0  501 -0.00000000000E+00 -0.00000000000E+00 -0.22786968978E+03  0.22786968978E+03  0.00000000000E+00 0.  1.
          6    1    1    2  502    0  0.68811806215E+01  0.17157408452E+03 -0.40089834832E+02  0.24632541887E+03  0.17200000000E+03 0. -1.
         -6    1    1    2    0  501 -0.68811806215E+01 -0.17157408452E+03  0.89763810629E+02  0.25908793647E+03  0.17200000000E+03 0. -1.
</event>
<event>
 4    1  0.3094855E-002  0.1787621E+03  0.7818608E-02  0.1169007E+00
          1   -1    0    0  502    0  0.00000000000E+00  0.00000000000E+00  0.17955093338E+04  0.17955093338E+04  0.00000000000E+00 0. -1.
         -1   -1    0    0    0  501 -0.00000000000E+00 -0.00000000000E+00 -0.34565987700E+02  0.34565987700E+02  0.00000000000E+00 0.  1.
          6    1    1    2  502    0 -0.39292101753E+02  0.28775027794E+02  0.15177942603E+04  0.15282850807E+04  0.17200000000E+03 0. -1.
         -6    1    1    2    0  501  0.39292101753E+02 -0.28775027794E+02  0.24314908585E+03  0.30179024079E+03  0.17200000000E+03 0.  1.
</event>
<event>
 4    1  0.3094855E-002  0.1860032E+03  0.7818608E-02  0.1162116E+00
         -1   -1    0    0    0  501 -0.00000000000E+00  0.00000000000E+00  0.27437873785E+02  0.27437873785E+02  0.00000000000E+00 0.  1.
          1   -1    0    0  502    0  0.00000000000E+00 -0.00000000000E+00 -0.14426379067E+04  0.14426379067E+04  0.00000000000E+00 0. -1.
          6    1    1    2  502    0 -0.70449561881E+02  0.70756101060E+01 -0.96846717900E+03  0.98616726868E+03  0.17200000000E+03 0. -1.
         -6    1    1    2    0  501  0.70449561881E+02 -0.70756101060E+01 -0.44673285395E+03  0.48390851183E+03  0.17200000000E+03 0.  1.
</event>
<event>
 4    1  0.3094855E-002  0.1901076E+03  0.7818608E-02  0.1158364E+00
         -2   -1    0    0    0  501 -0.00000000000E+00  0.00000000000E+00  0.25037632316E+02  0.25037632316E+02  0.00000000000E+00 0.  1.
          2   -1    0    0  502    0  0.00000000000E+00 -0.00000000000E+00 -0.17073019544E+04  0.17073019544E+04  0.00000000000E+00 0. -1.
          6    1    1    2  502    0  0.71585749957E+02 -0.37846834443E+02 -0.50063216873E+03  0.53551234425E+03  0.17200000000E+03 0. -1.
         -6    1    1    2    0  501 -0.71585749957E+02  0.37846834443E+02 -0.11816321533E+04  0.11968272425E+04  0.17200000000E+03 0. -1.
</event>
<event>
 4    1  0.3094855E-002  0.2828199E+03  0.7818608E-02  0.1094159E+00
          3   -1    0    0  502    0  0.00000000000E+00  0.00000000000E+00  0.43199882042E+03  0.43199882042E+03  0.00000000000E+00 0. -1.
         -3   -1    0    0    0  501 -0.00000000000E+00 -0.00000000000E+00 -0.21763773296E+03  0.21763773296E+03  0.00000000000E+00 0.  1.
          6    1    1    2  502    0 -0.20711233106E+03  0.86646260064E+02  0.23266623827E+03  0.36622489059E+03  0.17200000000E+03 0. -1.
         -6    1    1    2    0  501  0.20711233106E+03 -0.86646260064E+02 -0.18305150814E+02  0.28341166279E+03  0.17200000000E+03 0.  1.
</event>
<event>
 4    1  0.3094855E-002  0.1810804E+03  0.7818608E-02  0.1166762E+00
          2   -1    0    0  502    0  0.00000000000E+00  0.00000000000E+00  0.35265983492E+03  0.35265983492E+03  0.00000000000E+00 0. -1.
         -2   -1    0    0    0  501 -0.00000000000E+00 -0.00000000000E+00 -0.22446965073E+03  0.22446965073E+03  0.00000000000E+00 0.  1.
          6    1    1    2  502    0  0.37128688576E+02 -0.42750110361E+02  0.28495209504E+03  0.33762080492E+03  0.17200000000E+03 0. -1.
         -6    1    1    2    0  501 -0.37128688576E+02  0.42750110361E+02 -0.15676191085E+03  0.23950868073E+03  0.17200000000E+03 0.  1.
</event>
<event>
 4    1  0.3094855E-002  0.1754417E+03  0.7818608E-02  0.1172289E+00
         -2   -1    0    0    0  501 -0.00000000000E+00  0.00000000000E+00  0.15962716151E+03  0.15962716151E+03  0.00000000000E+00 0.  1.
          2   -1    0    0  502    0  0.00000000000E+00 -0.00000000000E+00 -0.10571901372E+04  0.10571901372E+04  0.00000000000E+00 0. -1.
          6    1    1    2  502    0  0.30666471841E+02 -0.15979525308E+02 -0.99891483095E+03  0.10142044258E+04  0.17200000000E+03 0. -1.
         -6    1    1    2    0  501 -0.30666471841E+02  0.15979525308E+02  0.10135185526E+03  0.20261287296E+03  0.17200000000E+03 0.  1.
</event>
<event>
 4    1  0.3094855E-002  0.2830472E+03  0.7818608E-02  0.1094036E+00
          2   -1    0    0  502    0  0.00000000000E+00  0.00000000000E+00  0.22484657418E+03  0.22484657418E+03  0.00000000000E+00 0. -1.
         -2   -1    0    0    0  501 -0.00000000000E+00 -0.00000000000E+00 -0.37396380690E+03  0.37396380690E+03  0.00000000000E+00 0.  1.
          6    1    1    2  502    0  0.20349192323E+03 -0.95513069589E+02 -0.95112896542E+01  0.28320694538E+03  0.17200000000E+03 0. -1.
         -6    1    1    2    0  501 -0.20349192323E+03  0.95513069589E+02 -0.13960594307E+03  0.31560343570E+03  0.17200000000E+03 0.  1.
</event>
<event>
 4    1  0.3094855E-002  0.2401902E+03  0.7818608E-02  0.1119666E+00
          2   -1    0    0  502    0  0.00000000000E+00  0.00000000000E+00  0.44515134270E+03  0.44515134270E+03  0.00000000000E+00 0. -1.
         -2   -1    0    0    0  501 -0.00000000000E+00 -0.00000000000E+00 -0.20573580825E+03  0.20573580825E+03  0.00000000000E+00 0.  1.
          6    1    1    2  502    0  0.47912127024E+02  0.16066041406E+03  0.31768579445E+03  0.39826574615E+03  0.17200000000E+03 0. -1.
         -6    1    1    2    0  501 -0.47912127024E+02 -0.16066041406E+03 -0.78270259999E+02  0.25262140480E+03  0.17200000000E+03 0.  1.
</event>
<event>
 4    1  0.3094855E-002  0.3740005E+03  0.7818608E-02  0.1053174E+00
         -1   -1    0    0    0  501 -0.00000000000E+00  0.00000000000E+00  0.10607824973E+03  0.10607824973E+03  0.00000000000E+00 0.  1.
          1   -1    0    0  502    0  0.00000000000E+00 -0.00000000000E+00 -0.28735802962E+04  0.28735802962E+04  0.00000000000E+00 0. -1.
          6    1    1    2  502    0  0.21117144877E+03  0.25631813239E+03 -0.24796870214E+04  0.25077328586E+04  0.17200000000E+03 0. -1.
         -6    1    1    2    0  501 -0.21117144877E+03 -0.25631813239E+03 -0.28781502510E+03  0.47192568741E+03  0.17200000000E+03 0.  1.
</event>
<event>
 4    1  0.3094855E-002  0.2249231E+03  0.7818608E-02  0.1130265E+00
          2   -1    0    0  502    0  0.00000000000E+00  0.00000000000E+00  0.23205884458E+04  0.23205884458E+04  0.00000000000E+00 0. -1.
         -2   -1    0    0    0  501 -0.00000000000E+00 -0.00000000000E+00 -0.41375044138E+02  0.41375044138E+02  0.00000000000E+00 0.  1.
          6    1    1    2  502    0  0.89654427846E+02 -0.11387915672E+03  0.19519094290E+04  0.19648258950E+04  0.17200000000E+03 0. -1.
         -6    1    1    2    0  501 -0.89654427846E+02  0.11387915672E+03  0.32730397267E+03  0.39713759491E+03  0.17200000000E+03 0.  1.
</event>
<event>
 4    1  0.3094855E-002  0.2370202E+03  0.7818608E-02  0.1121794E+00
          1   -1    0    0  502    0  0.00000000000E+00  0.00000000000E+00  0.76854732630E+03  0.76854732630E+03  0.00000000000E+00 0. -1.
         -1   -1    0    0    0  501 -0.00000000000E+00 -0.00000000000E+00 -0.77319610675E+02  0.77319610675E+02  0.00000000000E+00 0.  1.
          6    1    1    2  502    0  0.15368364170E+03  0.54551793439E+02  0.44444959355E+03  0.50370030881E+03  0.17200000000E+03 0. -1.
         -6    1    1    2    0  501 -0.15368364170E+03 -0.54551793439E+02  0.24677812208E+03  0.34216662817E+03  0.17200000000E+03 0. -1.
</event>
<event>
 4    1  0.3094855E-002  0.1996648E+03  0.7818608E-02  0.1150022E+00
         -2   -1    0    0    0  501 -0.00000000000E+00  0.00000000000E+00  0.34138214123E+02  0.34138214123E+02  0.00000000000E+00 0.  1.
          2   -1    0    0  502    0  0.00000000000E+00 -0.00000000000E+00 -0.13013718782E+04  0.13013718782E+04  0.00000000000E+00 0. -1.
          6    1    1    2  502    0 -0.98986630580E+02  0.21992623696E+02 -0.84756151897E+03  0.87076205531E+03  0.17200000000E+03 0. -1.
         -6    1    1    2    0  501  0.98986630580E+02 -0.21992623696E+02 -0.41967214514E+03  0.46474803704E+03  0.17200000000E+03 0.  1.
</event>
<event>
 4    1  0.3094855E-002  0.5004163E+03  0.7818608E-02  0.1013670E+00
         -2   -1    0    0    0  501 -0.00000000000E+00  0.00000000000E+00  0.18261438178E+03  0.18261438178E+03  0.00000000000E+00 0.  1.
          2   -1    0    0  502    0  0.00000000000E+00 -0.00000000000E+00 -0.18178107687E+04  0.18178107687E+04  0.00000000000E+00 0. -1.
          6    1    1    2  502    0 -0.39896811480E+03  0.24830814375E+03 -0.32187310829E+03  0.59499478042E+03  0.17200000000E+03 0. -1.
         -6    1    1    2    0  501  0.39896811480E+03 -0.24830814375E+03 -0.13133232786E+04  0.14054303701E+04  0.17200000000E+03 0. -1.
</event>
<event>
 4    1  0.3094855E-002  0.1829300E+03  0.7818608E-02  0.1164997E+00
          1   -1    0    0  502    0  0.00000000000E+00  0.00000000000E+00  0.26359868804E+03  0.26359868804E+03  0.00000000000E+00 0. -1.
         -1   -1    0    0    0  501 -0.00000000000E+00 -0.00000000000E+00 -0.14177130762E+03  0.14177130762E+03  0.00000000000E+00 0.  1.
          6    1    1    2  502    0  0.56105508429E+02 -0.27047100867E+02  0.12645231940E+03  0.22238157033E+03  0.17200000000E+03 0. -1.
         -6    1    1    2    0  501 -0.56105508429E+02  0.27047100867E+02 -0.46249389766E+01  0.18298842532E+03  0.17200000000E+03 0.  1.
</event>
<event>
 4    1  0.3094855E-002  0.5108524E+03  0.7818608E-02  0.1010984E+00
          1   -1    0    0  502    0  0.00000000000E+00  0.00000000000E+00  0.99486218110E+03  0.99486218110E+03  0.00000000000E+00 0. -1.
         -1   -1    0    0    0  501 -0.00000000000E+00 -0.00000000000E+00 -0.26408611567E+03  0.26408611567E+03  0.00000000000E+00 0.  1.
          6    1    1    2  502    0  0.44840993408E+03  0.17411116378E+03  0.41689568089E+03  0.65937256166E+03  0.17200000000E+03 0. -1.
         -6    1    1    2    0  501 -0.44840993408E+03 -0.17411116378E+03  0.31388038453E+03  0.59957573511E+03  0.17200000000E+03 0.  1.
</event>
<event>
 4    1  0.3094855E-002  0.2850118E+03  0.7818608E-02  0.1092983E+00
          2   -1    0    0  502    0  0.00000000000E+00  0.00000000000E+00  0.37911030863E+03  0.37911030863E+03  0.00000000000E+00 0. -1.
         -2   -1    0    0    0  501 -0.00000000000E+00 -0.00000000000E+00 -0.24736462721E+03  0.24736462721E+03  0.00000000000E+00 0.  1.
          6    1    1    2  502    0 -0.21150309888E+03 -0.83151290190E+02  0.18044742506E+03  0.33733213768E+03  0.17200000000E+03 0. -1.
         -6    1    1    2    0  501  0.21150309888E+03  0.83151290190E+02 -0.48701743637E+02  0.28914279817E+03  0.17200000000E+03 0.  1.
</event>
<event>
 4    1  0.3094855E-002  0.2798070E+03  0.7818608E-02  0.1095794E+00
          1   -1    0    0  502    0  0.00000000000E+00  0.00000000000E+00  0.16329166784E+03  0.16329166784E+03  0.00000000000E+00 0. -1.
         -1   -1    0    0    0  501 -0.00000000000E+00 -0.00000000000E+00 -0.48753158393E+03  0.48753158393E+03  0.00000000000E+00 0.  1.
          6    1    1    2  502    0 -0.64108454128E+02 -0.21118248672E+03 -0.12025097948E+03  0.30455251542E+03  0.17200000000E+03 0. -1.
         -6    1    1    2    0  501  0.64108454128E+02  0.21118248672E+03 -0.20398893662E+03  0.34627073634E+03  0.17200000000E+03 0.  1.
</event>
<event>
 4    1  0.3094855E-002  0.4571243E+03  0.7818608E-02  0.1025619E+00
          2   -1    0    0  502    0  0.00000000000E+00  0.00000000000E+00  0.19917839649E+03  0.19917839649E+03  0.00000000000E+00 0. -1.
         -2   -1    0    0    0  501 -0.00000000000E+00 -0.00000000000E+00 -0.16350347861E+04  0.16350347861E+04  0.00000000000E+00 0.  1.
          6    1    1    2  502    0 -0.30933022609E+03  0.28929824191E+03 -0.16892814036E+03  0.48733907923E+03  0.17200000000E+03 0. -1.
         -6    1    1    2    0  501  0.30933022609E+03 -0.28929824191E+03 -0.12669282492E+04  0.13468741033E+04  0.17200000000E+03 0.  1.
</event>
<event>
 4    1  0.3094855E-002  0.1782755E+03  0.7818608E-02  0.1169483E+00
          2   -1    0    0  502    0  0.00000000000E+00  0.00000000000E+00  0.14662747540E+04  0.14662747540E+04  0.00000000000E+00 0. -1.
         -2   -1    0    0    0  501 -0.00000000000E+00 -0.00000000000E+00 -0.33230281054E+02  0.33230281054E+02  0.00000000000E+00 0.  1.
          6    1    1    2  502    0 -0.36999157490E+02  0.28796090335E+02  0.27440964133E+03  0.32723508939E+03  0.17200000000E+03 0.  1.
         -6    1    1    2    0  501  0.36999157490E+02 -0.28796090335E+02  0.11586348316E+04  0.11722699456E+04  0.17200000000E+03 0. -1.
</event>
<event>
 4    1  0.3094855E-002  0.3525165E+03  0.7818608E-02  0.1061587E+00
         -2   -1    0    0    0  501 -0.00000000000E+00  0.00000000000E+00  0.24770696023E+03  0.24770696023E+03  0.00000000000E+00 0.  1.
          2   -1    0    0  502    0  0.00000000000E+00 -0.00000000000E+00 -0.57897043161E+03  0.57897043161E+03  0.00000000000E+00 0. -1.
          6    1    1    2  502    0  0.24036255771E+03 -0.19211903070E+03 -0.31666080604E+03  0.47385857298E+03  0.17200000000E+03 0. -1.
         -6    1    1    2    0  501 -0.24036255771E+03  0.19211903070E+03 -0.14602665345E+02  0.35281881886E+03  0.17200000000E+03 0.  1.
</event>
<event>
 4    1  0.3094855E-002  0.1868665E+03  0.7818608E-02  0.1161318E+00
          2   -1    0    0  502    0  0.00000000000E+00  0.00000000000E+00  0.14341514363E+04  0.14341514363E+04  0.00000000000E+00 0. -1.
         -2   -1    0    0    0  501 -0.00000000000E+00 -0.00000000000E+00 -0.45775679713E+02  0.45775679713E+02  0.00000000000E+00 0.  1.
          6    1    1    2  502    0  0.18082515953E+02  0.70767880066E+02  0.18792273900E+03  0.26501702976E+03  0.17200000000E+03 0.  1.
         -6    1    1    2    0  501 -0.18082515953E+02 -0.70767880066E+02  0.12004530176E+04  0.12149100863E+04  0.17200000000E+03 0. -1.
</event>
<event>
 4    1  0.3094855E-002  0.1883026E+03  0.7818608E-02  0.1160001E+00
          2   -1    0    0  502    0  0.00000000000E+00  0.00000000000E+00  0.21024185989E+04  0.21024185989E+04  0.00000000000E+00 0. -1.
         -2   -1    0    0    0  501 -0.00000000000E+00 -0.00000000000E+00 -0.21541598612E+02  0.21541598612E+02  0.00000000000E+00 0.  1.
          6    1    1    2  502    0  0.64330360782E+02  0.41658893013E+02  0.15352387321E+04  0.15467436191E+04  0.17200000000E+03 0. -1.
         -6    1    1    2    0  501 -0.64330360782E+02 -0.41658893013E+02  0.54563826823E+03  0.57721657846E+03  0.17200000000E+03 0.  1.
</event>
<event>
 4    1  0.3094855E-002  0.2455586E+03  0.7818608E-02  0.1116144E+00
         -2   -1    0    0    0  501 -0.00000000000E+00  0.00000000000E+00  0.93487660889E+02  0.93487660889E+02  0.00000000000E+00 0.  1.
          2   -1    0    0  502    0  0.00000000000E+00 -0.00000000000E+00 -0.96808420544E+03  0.96808420544E+03  0.00000000000E+00 0. -1.
          6    1    1    2  502    0 -0.18303532695E+02 -0.17429860477E+03 -0.74393518062E+03  0.78341468961E+03  0.17200000000E+03 0. -1.
         -6    1    1    2    0  501  0.18303532695E+02  0.17429860477E+03 -0.13066136393E+03  0.27815717672E+03  0.17200000000E+03 0.  1.
</event>
<event>
 4    1  0.3094855E-002  0.1889603E+03  0.7818608E-02  0.1159402E+00
         -2   -1    0    0    0  501 -0.00000000000E+00  0.00000000000E+00  0.10158999432E+04  0.10158999432E+04  0.00000000000E+00 0.  1.
          2   -1    0    0  502    0  0.00000000000E+00 -0.00000000000E+00 -0.71192163673E+03  0.71192163673E+03  0.00000000000E+00 0. -1.
          6    1    1    2  502    0  0.36477341818E+02  0.69219806290E+02 -0.69032635015E+03  0.71572092869E+03  0.17200000000E+03 0. -1.
         -6    1    1    2    0  501 -0.36477341818E+02 -0.69219806290E+02  0.99430465658E+03  0.10121006512E+04  0.17200000000E+03 0.  1.
</event>
<event>
 4    1  0.3094855E-002  0.1929261E+03  0.7818608E-02  0.1155848E+00
          1   -1    0    0  502    0  0.00000000000E+00  0.00000000000E+00  0.59645919450E+03  0.59645919450E+03  0.00000000000E+00 0. -1.
         -1   -1    0    0    0  501 -0.00000000000E+00 -0.00000000000E+00 -0.11058564599E+03  0.11058564599E+03  0.00000000000E+00 0.  1.
          6    1    1    2  502    0 -0.47180561800E+02  0.73556027536E+02  0.95826190924E+01  0.19316397487E+03  0.17200000000E+03 0.  1.
         -6    1    1    2    0  501  0.47180561800E+02 -0.73556027536E+02  0.47629092942E+03  0.51388086562E+03  0.17200000000E+03 0. -1.
</event>
<event>
 4    1  0.3094855E-002  0.1753091E+03  0.7818608E-02  0.1172422E+00
          1   -1    0    0  502    0  0.00000000000E+00  0.00000000000E+00  0.41979631925E+04  0.41979631925E+04  0.00000000000E+00 0. -1.
         -1   -1    0    0    0  501 -0.00000000000E+00 -0.00000000000E+00 -0.96088528909E+01  0.96088528909E+01  0.00000000000E+00 0.  1.
          6    1    1    2  502    0  0.13649524311E+02 -0.31031629732E+02  0.31207274475E+04  0.31256476246E+04  0.17200000000E+03 0. -1.
         -6    1    1    2    0  501 -0.13649524311E+02  0.31031629732E+02  0.10676268920E+04  0.10819244207E+04  0.17200000000E+03 0.  1.
</event>
<event>
 4    1  0.3094855E-002  0.2013878E+03  0.7818608E-02  0.1148573E+00
         -2   -1    0    0    0  501 -0.00000000000E+00  0.00000000000E+00  0.96250062924E+02  0.96250062924E+02  0.00000000000E+00 0.  1.
          2   -1    0    0  502    0  0.00000000000E+00 -0.00000000000E+00 -0.54696899071E+03  0.54696899071E+03  0.00000000000E+00 0. -1.
          6    1    1    2  502    0 -0.19976967121E+01  0.10473325375E+03 -0.37947194805E+03  0.42959981912E+03  0.17200000000E+03 0. -1.
         -6    1    1    2    0  501  0.19976967121E+01 -0.10473325375E+03 -0.71246979738E+02  0.21361923451E+03  0.17200000000E+03 0.  1.
</event>
<event>
 4    1  0.3094855E-002  0.2268402E+03  0.7818608E-02  0.1128884E+00
          1   -1    0    0  502    0  0.00000000000E+00  0.00000000000E+00  0.14127618566E+04  0.14127618566E+04  0.00000000000E+00 0. -1.
         -1   -1    0    0    0  501 -0.00000000000E+00 -0.00000000000E+00 -0.12447695232E+03  0.12447695232E+03  0.00000000000E+00 0.  1.
          6    1    1    2  502    0  0.10341532861E+03 -0.10572479067E+03  0.12906033810E+04  0.13103867935E+04  0.17200000000E+03 0. -1.
         -6    1    1    2    0  501 -0.10341532861E+03  0.10572479067E+03 -0.23184767359E+01  0.22685201539E+03  0.17200000000E+03 0.  1.
</event>
<event>
 4    1  0.3094855E-002  0.1900085E+03  0.7818608E-02  0.1158454E+00
         -1   -1    0    0    0  501 -0.00000000000E+00  0.00000000000E+00  0.78718326253E+02  0.78718326253E+02  0.00000000000E+00 0.  1.
          1   -1    0    0  502    0  0.00000000000E+00 -0.00000000000E+00 -0.11431471429E+04  0.11431471429E+04  0.00000000000E+00 0. -1.
          6    1    1    2  502    0  0.43972517732E+02  0.67717366111E+02 -0.10049648263E+04  0.10227695372E+04  0.17200000000E+03 0. -1.
         -6    1    1    2    0  501 -0.43972517732E+02 -0.67717366111E+02 -0.59463990309E+02  0.19909593198E+03  0.17200000000E+03 0.  1.
</event>
<event>
 4    1  0.3094855E-002  0.2423595E+03  0.7818608E-02  0.1118231E+00
         -1   -1    0    0    0  501 -0.00000000000E+00  0.00000000000E+00  0.23192940921E+02  0.23192940921E+02  0.00000000000E+00 0.  1.
          1   -1    0    0  502    0  0.00000000000E+00 -0.00000000000E+00 -0.31155283203E+04  0.31155283203E+04  0.00000000000E+00 0. -1.
          6    1    1    2  502    0  0.16964054514E+03  0.19396013853E+02 -0.22250111763E+04  0.22381717661E+04  0.17200000000E+03 0. -1.
         -6    1    1    2    0  501 -0.16964054514E+03 -0.19396013853E+02 -0.86732420303E+03  0.90054949507E+03  0.17200000000E+03 0.  1.
</event>
<event>
 4    1  0.3094855E-002  0.1801529E+03  0.7818608E-02  0.1167655E+00
          2   -1    0    0  502    0  0.00000000000E+00  0.00000000000E+00  0.72839504310E+03  0.72839504310E+03  0.00000000000E+00 0. -1.
         -2   -1    0    0    0  501 -0.00000000000E+00 -0.00000000000E+00 -0.87607852454E+02  0.87607852454E+02  0.00000000000E+00 0.  1.
          6    1    1    2  502    0 -0.53570437873E+02 -0.11264530186E+01  0.60640366407E+03  0.63259818566E+03  0.17200000000E+03 0. -1.
         -6    1    1    2    0  501  0.53570437873E+02  0.11264530186E+01  0.34383526579E+02  0.18340470989E+03  0.17200000000E+03 0.  1.
</event>
<event>
 4    1  0.3094855E-002  0.5634933E+03  0.7818608E-02  0.9984181E-01
          2   -1    0    0  502    0  0.00000000000E+00  0.00000000000E+00  0.28264566519E+04  0.28264566519E+04  0.00000000000E+00 0. -1.
         -2   -1    0    0    0  501 -0.00000000000E+00 -0.00000000000E+00 -0.13361420197E+03  0.13361420197E+03  0.00000000000E+00 0.  1.
          6    1    1    2  502    0 -0.47226647332E+03  0.25476476157E+03  0.19369898867E+04  0.20172889051E+04  0.17200000000E+03 0. -1.
         -6    1    1    2    0  501  0.47226647332E+03 -0.25476476157E+03  0.75585256324E+03  0.94278194877E+03  0.17200000000E+03 0.  1.
</event>
<event>
 4    1  0.3094855E-002  0.6963354E+03  0.7818608E-02  0.9723520E-01
         -1   -1    0    0    0  501 -0.00000000000E+00  0.00000000000E+00  0.56200911990E+03  0.56200911990E+03  0.00000000000E+00 0.  1.
          1   -1    0    0  502    0  0.00000000000E+00 -0.00000000000E+00 -0.86394260974E+03  0.86394260974E+03  0.00000000000E+00 0. -1.
          6    1    1    2  502    0 -0.35902887275E+03  0.57131186562E+03 -0.17726610997E+03  0.71854453794E+03  0.17200000000E+03 0. -1.
         -6    1    1    2    0  501  0.35902887275E+03 -0.57131186562E+03 -0.12466737987E+03  0.70740719170E+03  0.17200000000E+03 0.  1.
</event>
<event>
 4    1  0.3094855E-002  0.1932615E+03  0.7818608E-02  0.1155552E+00
          2   -1    0    0  502    0  0.00000000000E+00  0.00000000000E+00  0.33737553226E+03  0.33737553226E+03  0.00000000000E+00 0. -1.
         -2   -1    0    0    0  501 -0.00000000000E+00 -0.00000000000E+00 -0.13757508720E+03  0.13757508720E+03  0.00000000000E+00 0.  1.
          6    1    1    2  502    0 -0.36033118316E+02 -0.80421431030E+02 -0.50451097164E+01  0.19332730101E+03  0.17200000000E+03 0. -1.
         -6    1    1    2    0  501  0.36033118316E+02  0.80421431030E+02  0.20484555478E+03  0.28162331845E+03  0.17200000000E+03 0. -1.
</event>
<event>
 4    1  0.3094855E-002  0.1962990E+03  0.7818608E-02  0.1152900E+00
          2   -1    0    0  502    0  0.00000000000E+00  0.00000000000E+00  0.32972559074E+03  0.32972559074E+03  0.00000000000E+00 0. -1.
         -2   -1    0    0    0  501 -0.00000000000E+00 -0.00000000000E+00 -0.11972785652E+03  0.11972785652E+03  0.00000000000E+00 0.  1.
          6    1    1    2  502    0  0.56136025055E+02  0.76144774691E+02  0.13975089668E+03  0.24096388349E+03  0.17200000000E+03 0. -1.
         -6    1    1    2    0  501 -0.56136025055E+02 -0.76144774691E+02  0.70246837539E+02  0.20848956378E+03  0.17200000000E+03 0. -1.
</event>
<event>
 4    1  0.3094855E-002  0.1945260E+03  0.7818608E-02  0.1154441E+00
         -1   -1    0    0    0  501 -0.00000000000E+00  0.00000000000E+00  0.70302764721E+02  0.70302764721E+02  0.00000000000E+00 0.  1.
          1   -1    0    0  502    0  0.00000000000E+00 -0.00000000000E+00 -0.54326841252E+03  0.54326841252E+03  0.00000000000E+00 0. -1.
          6    1    1    2  502    0  0.80275784400E+02 -0.42569668358E+02 -0.26597203442E+03  0.32951707288E+03  0.17200000000E+03 0. -1.
         -6    1    1    2    0  501 -0.80275784400E+02  0.42569668358E+02 -0.20699361338E+03  0.28405410436E+03  0.17200000000E+03 0. -1.
</event>
<event>
 4    1  0.3094855E-002  0.2943378E+03  0.7818608E-02  0.1088106E+00
         -1   -1    0    0    0  501 -0.00000000000E+00  0.00000000000E+00  0.19925869900E+04  0.19925869900E+04  0.00000000000E+00 0.  1.
          1   -1    0    0  502    0  0.00000000000E+00 -0.00000000000E+00 -0.10749939462E+03  0.10749939462E+03  0.00000000000E+00 0. -1.
          6    1    1    2  502    0 -0.13047945940E+03  0.20006463729E+03  0.13220817683E+03  0.32266662431E+03  0.17200000000E+03 0. -1.
         -6    1    1    2    0  501  0.13047945940E+03 -0.20006463729E+03  0.17528794185E+04  0.17774197603E+04  0.17200000000E+03 0.  1.
</event>
<event>
 4    1  0.3094855E-002  0.2020918E+03  0.7818608E-02  0.1147986E+00
          2   -1    0    0  502    0  0.00000000000E+00  0.00000000000E+00  0.28785749715E+03  0.28785749715E+03  0.00000000000E+00 0. -1.
         -2   -1    0    0    0  501 -0.00000000000E+00 -0.00000000000E+00 -0.14566291952E+03  0.14566291952E+03  0.00000000000E+00 0.  1.
          6    1    1    2  502    0  0.95458787171E+02  0.46311224660E+02  0.36163880362E+02  0.20530205995E+03  0.17200000000E+03 0.  1.
         -6    1    1    2    0  501 -0.95458787171E+02 -0.46311224660E+02  0.10603069727E+03  0.22821835671E+03  0.17200000000E+03 0. -1.
</event>
<event>
 4    1  0.3094855E-002  0.2406950E+03  0.7818608E-02  0.1119331E+00
         -1   -1    0    0    0  501 -0.00000000000E+00  0.00000000000E+00  0.18079392003E+03  0.18079392003E+03  0.00000000000E+00 0.  1.
          1   -1    0    0  502    0  0.00000000000E+00 -0.00000000000E+00 -0.32860211196E+03  0.32860211196E+03  0.00000000000E+00 0. -1.
          6    1    1    2  502    0 -0.27519316930E+02 -0.16611078254E+03 -0.11403860024E+03  0.26634358867E+03  0.17200000000E+03 0. -1.
         -6    1    1    2    0  501  0.27519316930E+02  0.16611078254E+03 -0.33769591683E+02  0.24305244332E+03  0.17200000000E+03 0.  1.
</event>
<event>
 4    1  0.3094855E-002  0.2175317E+03  0.7818608E-02  0.1135737E+00
         -2   -1    0    0    0  501 -0.00000000000E+00  0.00000000000E+00  0.33162451308E+02  0.33162451308E+02  0.00000000000E+00 0.  1.
          2   -1    0    0  502    0  0.00000000000E+00 -0.00000000000E+00 -0.17744994660E+04  0.17744994660E+04  0.00000000000E+00 0. -1.
          6    1    1    2  502    0  0.28112092107E+02 -0.13017586140E+03 -0.47065136715E+03  0.51849084275E+03  0.17200000000E+03 0.  1.
         -6    1    1    2    0  501 -0.28112092107E+02  0.13017586140E+03 -0.12706856475E+04  0.12891710746E+04  0.17200000000E+03 0. -1.
</event>
<event>
 4    1  0.3094855E-002  0.1846939E+03  0.7818608E-02  0.1163336E+00
          1   -1    0    0  502    0  0.00000000000E+00  0.00000000000E+00  0.13667330196E+04  0.13667330196E+04  0.00000000000E+00 0. -1.
         -1   -1    0    0    0  501 -0.00000000000E+00 -0.00000000000E+00 -0.40774429563E+02  0.40774429563E+02  0.00000000000E+00 0.  1.
          6    1    1    2  502    0  0.27991634072E+02  0.61190804016E+02  0.11012795361E+04  0.11166595106E+04  0.17200000000E+03 0. -1.
         -6    1    1    2    0  501 -0.27991634072E+02 -0.61190804016E+02  0.22467905401E+03  0.29084793860E+03  0.17200000000E+03 0.  1.
</event>
<event>
 4    1  0.3094855E-002  0.1840489E+03  0.7818608E-02  0.1163941E+00
          2   -1    0    0  502    0  0.00000000000E+00  0.00000000000E+00  0.12643915978E+03  0.12643915978E+03  0.00000000000E+00 0. -1.
         -2   -1    0    0    0  501 -0.00000000000E+00 -0.00000000000E+00 -0.37455701874E+03  0.37455701874E+03  0.00000000000E+00 0.  1.
          6    1    1    2  502    0  0.65035994891E+02 -0.77661260812E+01  0.96083139888E+01  0.18429951992E+03  0.17200000000E+03 0. -1.
         -6    1    1    2    0  501 -0.65035994891E+02  0.77661260812E+01 -0.25772617295E+03  0.31669665860E+03  0.17200000000E+03 0.  1.
</event>
<event>
 4    1  0.3094855E-002  0.2294060E+03  0.7818608E-02  0.1127059E+00
          1   -1    0    0  502    0  0.00000000000E+00  0.00000000000E+00  0.10361668496E+04  0.10361668496E+04  0.00000000000E+00 0. -1.
         -1   -1    0    0    0  501 -0.00000000000E+00 -0.00000000000E+00 -0.55381427670E+02  0.55381427670E+02  0.00000000000E+00 0.  1.
          6    1    1    2  502    0  0.14780904770E+03 -0.34577736832E+02  0.64753558912E+03  0.68697123204E+03  0.17200000000E+03 0. -1.
         -6    1    1    2    0  501 -0.14780904770E+03  0.34577736832E+02  0.33324983281E+03  0.40457704524E+03  0.17200000000E+03 0. -1.
</event>
<event>
 4    1  0.3094855E-002  0.8867605E+03  0.7818608E-02  0.9442284E-01
          1   -1    0    0  502    0  0.00000000000E+00  0.00000000000E+00  0.21092177633E+04  0.21092177633E+04  0.00000000000E+00 0. -1.
         -1   -1    0    0    0  501 -0.00000000000E+00 -0.00000000000E+00 -0.39203276312E+03  0.39203276312E+03  0.00000000000E+00 0.  1.
          6    1    1    2  502    0 -0.81082390296E+03  0.31515837876E+03  0.11355020097E+04  0.14407321122E+04  0.17200000000E+03 0. -1.
         -6    1    1    2    0  501  0.81082390296E+03 -0.31515837876E+03  0.58168299048E+03  0.10605184141E+04  0.17200000000E+03 0.  1.
</event>
<event>
 4    1  0.3094855E-002  0.1859905E+03  0.7818608E-02  0.1162128E+00
         -1   -1    0    0    0  501 -0.00000000000E+00  0.00000000000E+00  0.65068313621E+02  0.65068313621E+02  0.00000000000E+00 0.  1.
          1   -1    0    0  502    0  0.00000000000E+00 -0.00000000000E+00 -0.11731497086E+04  0.11731497086E+04  0.00000000000E+00 0. -1.
          6    1    1    2  502    0  0.34219161253E+01  0.70687781962E+02 -0.10118602585E+04  0.10288117684E+04  0.17200000000E+03 0. -1.
         -6    1    1    2    0  501 -0.34219161253E+01 -0.70687781962E+02 -0.96221136422E+02  0.20940625378E+03  0.17200000000E+03 0.  1.
</event>
<event>
 4    1  0.3094855E-002  0.1720738E+03  0.7818608E-02  0.1175702E+00
          4   -1    0    0  502    0  0.00000000000E+00  0.00000000000E+00  0.39955883201E+03  0.39955883201E+03  0.00000000000E+00 0. -1.
         -4   -1    0    0    0  501 -0.00000000000E+00 -0.00000000000E+00 -0.90967449993E+02  0.90967449993E+02  0.00000000000E+00 0.  1.
          6    1    1    2  502    0  0.16897526230E+01 -0.47463108011E+01  0.48699760866E+02  0.17883246193E+03  0.17200000000E+03 0.  1.
         -6    1    1    2    0  501 -0.16897526230E+01  0.47463108011E+01  0.25989162115E+03  0.31169382008E+03  0.17200000000E+03 0. -1.
</event>
<event>
 4    1  0.3094855E-002  0.1902162E+03  0.7818608E-02  0.1158266E+00
         -2   -1    0    0    0  501 -0.00000000000E+00  0.00000000000E+00  0.47987780160E+02  0.47987780160E+02  0.00000000000E+00 0.  1.
          2   -1    0    0  502    0  0.00000000000E+00 -0.00000000000E+00 -0.10293921375E+04  0.10293921375E+04  0.00000000000E+00 0. -1.
          6    1    1    2  502    0  0.79668536585E+02  0.15847230410E+02 -0.76933590726E+03  0.79250233352E+03  0.17200000000E+03 0. -1.
         -6    1    1    2    0  501 -0.79668536585E+02 -0.15847230410E+02 -0.21206845012E+03  0.28487758418E+03  0.17200000000E+03 0.  1.
</event>
<event>
 4    1  0.3094855E-002  0.3701414E+03  0.7818608E-02  0.1054639E+00
          2   -1    0    0  502    0  0.00000000000E+00  0.00000000000E+00  0.19747309697E+04  0.19747309697E+04  0.00000000000E+00 0. -1.
         -2   -1    0    0    0  501 -0.00000000000E+00 -0.00000000000E+00 -0.74962669516E+02  0.74962669516E+02  0.00000000000E+00 0.  1.
          6    1    1    2  502    0 -0.16701551181E+03  0.28200433346E+03  0.67017871210E+03  0.76560050381E+03  0.17200000000E+03 0. -1.
         -6    1    1    2    0  501  0.16701551181E+03 -0.28200433346E+03  0.12295895881E+04  0.12840931354E+04  0.17200000000E+03 0.  1.
</event>
<event>
 4    1  0.3094855E-002  0.2438241E+03  0.7818608E-02  0.1117271E+00
         -1   -1    0    0    0  501 -0.00000000000E+00  0.00000000000E+00  0.85548079179E+02  0.85548079179E+02  0.00000000000E+00 0.  1.
          1   -1    0    0  502    0  0.00000000000E+00 -0.00000000000E+00 -0.87052318664E+03  0.87052318664E+03  0.00000000000E+00 0. -1.
          6    1    1    2  502    0  0.67450849866E+02  0.15911189089E+03 -0.60718151001E+03  0.65430848769E+03  0.17200000000E+03 0. -1.
         -6    1    1    2    0  501 -0.67450849866E+02 -0.15911189089E+03 -0.17779359746E+03  0.30176277813E+03  0.17200000000E+03 0.  1.
</event>
<event>
 4    1  0.3094855E-002  0.1834412E+03  0.7818608E-02  0.1164514E+00
         -2   -1    0    0    0  501 -0.00000000000E+00  0.00000000000E+00  0.15579733715E+03  0.15579733715E+03  0.00000000000E+00 0.  1.
          2   -1    0    0  502    0  0.00000000000E+00 -0.00000000000E+00 -0.36769982554E+03  0.36769982554E+03  0.00000000000E+00 0. -1.
          6    1    1    2  502    0  0.55312155200E+02 -0.31737137759E+02 -0.27408091180E+03  0.32980452792E+03  0.17200000000E+03 0. -1.
         -6    1    1    2    0  501 -0.55312155200E+02  0.31737137759E+02  0.62178423403E+02  0.19369263477E+03  0.17200000000E+03 0.  1.
</event>
<event>
 4    1  0.3094855E-002  0.2045824E+03  0.7818608E-02  0.1145929E+00
         -2   -1    0    0    0  501 -0.00000000000E+00  0.00000000000E+00  0.82850558056E+02  0.82850558056E+02  0.00000000000E+00 0.  1.
          2   -1    0    0  502    0  0.00000000000E+00 -0.00000000000E+00 -0.82611687006E+03  0.82611687006E+03  0.00000000000E+00 0. -1.
          6    1    1    2  502    0  0.61777892952E+02 -0.91942665549E+02 -0.65491016722E+03  0.68612046240E+03  0.17200000000E+03 0. -1.
         -6    1    1    2    0  501 -0.61777892952E+02  0.91942665549E+02 -0.88356144788E+02  0.22284696571E+03  0.17200000000E+03 0.  1.
</event>
<event>
 4    1  0.3094855E-002  0.2041125E+03  0.7818608E-02  0.1146315E+00
         -2   -1    0    0    0  501 -0.00000000000E+00  0.00000000000E+00  0.35287493670E+03  0.35287493670E+03  0.00000000000E+00 0.  1.
          2   -1    0    0  502    0  0.00000000000E+00 -0.00000000000E+00 -0.21187042141E+03  0.21187042141E+03  0.00000000000E+00 0. -1.
          6    1    1    2  502    0 -0.85932087988E+02 -0.68509832880E+02 -0.11738752930E+03  0.23546072493E+03  0.17200000000E+03 0. -1.
         -6    1    1    2    0  501  0.85932087988E+02  0.68509832880E+02  0.25839204459E+03  0.32928463319E+03  0.17200000000E+03 0.  1.
</event>
<event>
 4    1  0.3094855E-002  0.2294990E+03  0.7818608E-02  0.1126993E+00
         -2   -1    0    0    0  501 -0.00000000000E+00  0.00000000000E+00  0.52273684815E+02  0.52273684815E+02  0.00000000000E+00 0.  1.
          2   -1    0    0  502    0  0.00000000000E+00 -0.00000000000E+00 -0.12290690405E+04  0.12290690405E+04  0.00000000000E+00 0. -1.
          6    1    1    2  502    0  0.15174165365E+03 -0.77631536187E+01 -0.86037056171E+03  0.89045342353E+03  0.17200000000E+03 0. -1.
         -6    1    1    2    0  501 -0.15174165365E+03  0.77631536187E+01 -0.31642479394E+03  0.39088930176E+03  0.17200000000E+03 0.  1.
</event>
<event>
 4    1  0.3094855E-002  0.2579138E+03  0.7818608E-02  0.1108403E+00
         -2   -1    0    0    0  501 -0.00000000000E+00  0.00000000000E+00  0.85140661173E+02  0.85140661173E+02  0.00000000000E+00 0.  1.
          2   -1    0    0  502    0  0.00000000000E+00 -0.00000000000E+00 -0.88013025253E+03  0.88013025253E+03  0.00000000000E+00 0. -1.
          6    1    1    2  502    0  0.12363915065E+03 -0.14713562770E+03 -0.23575642977E+03  0.34942900093E+03  0.17200000000E+03 0.  1.
         -6    1    1    2    0  501 -0.12363915065E+03  0.14713562770E+03 -0.55923316159E+03  0.61584191277E+03  0.17200000000E+03 0.  1.
</event>
<event>
 4    1  0.3094855E-002  0.3704135E+03  0.7818608E-02  0.1054535E+00
          1   -1    0    0  502    0  0.00000000000E+00  0.00000000000E+00  0.26594055751E+04  0.26594055751E+04  0.00000000000E+00 0. -1.
         -1   -1    0    0    0  501 -0.00000000000E+00 -0.00000000000E+00 -0.56383516106E+02  0.56383516106E+02  0.00000000000E+00 0.  1.
          6    1    1    2  502    0 -0.41836875226E+02 -0.32537949915E+03  0.90569733054E+03  0.97851612002E+03  0.17200000000E+03 0.  1.
         -6    1    1    2    0  501  0.41836875226E+02  0.32537949915E+03  0.16973247285E+04  0.17372729712E+04  0.17200000000E+03 0. -1.
</event>
<event>
 4    1  0.3094855E-002  0.2771215E+03  0.7818608E-02  0.1097272E+00
          1   -1    0    0  502    0  0.00000000000E+00  0.00000000000E+00  0.22299786511E+03  0.22299786511E+03  0.00000000000E+00 0. -1.
         -1   -1    0    0    0  501 -0.00000000000E+00 -0.00000000000E+00 -0.34470040899E+03  0.34470040899E+03  0.00000000000E+00 0.  1.
          6    1    1    2  502    0 -0.16787714797E+03 -0.13794776555E+03 -0.52216511774E+02  0.28199802647E+03  0.17200000000E+03 0.  1.
         -6    1    1    2    0  501  0.16787714797E+03  0.13794776555E+03 -0.69486032112E+02  0.28570024762E+03  0.17200000000E+03 0.  1.
</event>
<event>
 4    1  0.3094855E-002  0.2577637E+03  0.7818608E-02  0.1108494E+00
          1   -1    0    0  502    0  0.00000000000E+00  0.00000000000E+00  0.37504150504E+03  0.37504150504E+03  0.00000000000E+00 0. -1.
         -1   -1    0    0    0  501 -0.00000000000E+00 -0.00000000000E+00 -0.26600138660E+03  0.26600138660E+03  0.00000000000E+00 0.  1.
          6    1    1    2  502    0 -0.20696852196E+02 -0.19086586596E+03  0.23975555208E+03  0.35202963403E+03  0.17200000000E+03 0. -1.
         -6    1    1    2    0  501  0.20696852196E+02  0.19086586596E+03 -0.13071543364E+03  0.28901325761E+03  0.17200000000E+03 0.  1.
</event>
<event>
 4    1  0.3094855E-002  0.2381444E+03  0.7818608E-02  0.1121035E+00
         -1   -1    0    0    0  501 -0.00000000000E+00  0.00000000000E+00  0.30957594236E+02  0.30957594236E+02  0.00000000000E+00 0.  1.
          1   -1    0    0  502    0  0.00000000000E+00 -0.00000000000E+00 -0.28291661871E+04  0.28291661871E+04  0.00000000000E+00 0. -1.
          6    1    1    2  502    0  0.13321986476E+03  0.96856739123E+02 -0.22481289381E+04  0.22607070758E+04  0.17200000000E+03 0. -1.
         -6    1    1    2    0  501 -0.13321986476E+03 -0.96856739123E+02 -0.55007965477E+03  0.59941670553E+03  0.17200000000E+03 0. -1.
</event>
<event>
 4    1  0.3094855E-002  0.1768580E+03  0.7818608E-02  0.1170879E+00
          2   -1    0    0  502    0  0.00000000000E+00  0.00000000000E+00  0.36694258288E+03  0.36694258288E+03  0.00000000000E+00 0. -1.
         -2   -1    0    0    0  501 -0.00000000000E+00 -0.00000000000E+00 -0.85359017967E+02  0.85359017967E+02  0.00000000000E+00 0.  1.
          6    1    1    2  502    0  0.26250114450E+02 -0.31712726723E+02  0.13240341142E+03  0.22092856063E+03  0.17200000000E+03 0.  1.
         -6    1    1    2    0  501 -0.26250114450E+02  0.31712726723E+02  0.14918015349E+03  0.23137304022E+03  0.17200000000E+03 0. -1.
</event>
<event>
 4    1  0.3094855E-002  0.2691270E+03  0.7818608E-02  0.1101780E+00
          2   -1    0    0  502    0  0.00000000000E+00  0.00000000000E+00  0.27281592934E+03  0.27281592934E+03  0.00000000000E+00 0. -1.
         -2   -1    0    0    0  501 -0.00000000000E+00 -0.00000000000E+00 -0.36700334710E+03  0.36700334710E+03  0.00000000000E+00 0.  1.
          6    1    1    2  502    0 -0.20470160663E+03  0.30701864053E+02  0.12115749851E+03  0.29514147736E+03  0.17200000000E+03 0. -1.
         -6    1    1    2    0  501  0.20470160663E+03 -0.30701864053E+02 -0.21534491626E+03  0.34467779907E+03  0.17200000000E+03 0.  1.
</event>
<event>
 4    1  0.3094855E-002  0.2010967E+03  0.7818608E-02  0.1148817E+00
          2   -1    0    0  502    0  0.00000000000E+00  0.00000000000E+00  0.30317821363E+04  0.30317821363E+04  0.00000000000E+00 0. -1.
         -2   -1    0    0    0  501 -0.00000000000E+00 -0.00000000000E+00 -0.13621271049E+02  0.13621271049E+02  0.00000000000E+00 0.  1.
          6    1    1    2  502    0  0.33713291091E+01  0.10413696838E+03  0.17284164628E+04  0.17400756716E+04  0.17200000000E+03 0. -1.
         -6    1    1    2    0  501 -0.33713291091E+01 -0.10413696838E+03  0.12897444025E+04  0.13053277358E+04  0.17200000000E+03 0.  1.
</event>
<event>
 4    1  0.3094855E-002  0.1046287E+04  0.7818608E-02  0.9259186E-01
          2   -1    0    0  502    0  0.00000000000E+00  0.00000000000E+00  0.18538953749E+04  0.18538953749E+04  0.00000000000E+00 0. -1.
         -2   -1    0    0    0  501 -0.00000000000E+00 -0.00000000000E+00 -0.71223851044E+03  0.71223851044E+03  0.00000000000E+00 0.  1.
          6    1    1    2  502    0  0.37949088860E+03  0.95974957097E+03  0.11012960767E+04  0.15190686693E+04  0.17200000000E+03 0. -1.
         -6    1    1    2    0  501 -0.37949088860E+03 -0.95974957097E+03  0.40360787805E+02  0.10470652161E+04  0.17200000000E+03 0.  1.
</event>
<event>
 4    1  0.3094855E-002  0.4862503E+03  0.7818608E-02  0.1017431E+00
          2   -1    0    0  502    0  0.00000000000E+00  0.00000000000E+00  0.57737729418E+03  0.57737729418E+03  0.00000000000E+00 0. -1.
         -2   -1    0    0    0  501 -0.00000000000E+00 -0.00000000000E+00 -0.43630523997E+03  0.43630523997E+03  0.00000000000E+00 0.  1.
          6    1    1    2  502    0 -0.18587808681E+03  0.41509599790E+03  0.19615048100E+03  0.52432276493E+03  0.17200000000E+03 0. -1.
         -6    1    1    2    0  501  0.18587808681E+03 -0.41509599790E+03 -0.55078426789E+02  0.48935976921E+03  0.17200000000E+03 0.  1.
</event>
<event>
 4    1  0.3094855E-002  0.2007621E+03  0.7818608E-02  0.1149098E+00
          1   -1    0    0  502    0  0.00000000000E+00  0.00000000000E+00  0.41027813891E+03  0.41027813891E+03  0.00000000000E+00 0. -1.
         -1   -1    0    0    0  501 -0.00000000000E+00 -0.00000000000E+00 -0.19739125054E+03  0.19739125054E+03  0.00000000000E+00 0.  1.
          6    1    1    2  502    0  0.19119376867E+02 -0.10176375918E+03  0.32178317892E+03  0.37927539795E+03  0.17200000000E+03 0. -1.
         -6    1    1    2    0  501 -0.19119376867E+02  0.10176375918E+03 -0.10889629055E+03  0.22839399150E+03  0.17200000000E+03 0.  1.
</event>
<event>
 4    1  0.3094855E-002  0.1876392E+03  0.7818608E-02  0.1160608E+00
         -1   -1    0    0    0  501 -0.00000000000E+00  0.00000000000E+00  0.88887622476E+03  0.88887622476E+03  0.00000000000E+00 0.  1.
          1   -1    0    0  502    0  0.00000000000E+00 -0.00000000000E+00 -0.51054320919E+02  0.51054320919E+02  0.00000000000E+00 0. -1.
          6    1    1    2  502    0  0.45826817664E+02  0.59366546524E+02  0.19640457441E+03  0.27163070687E+03  0.17200000000E+03 0. -1.
         -6    1    1    2    0  501 -0.45826817664E+02 -0.59366546524E+02  0.64141732943E+03  0.66829983881E+03  0.17200000000E+03 0.  1.
</event>
<event>
 4    1  0.3094855E-002  0.4569662E+03  0.7818608E-02  0.1025665E+00
          2   -1    0    0  502    0  0.00000000000E+00  0.00000000000E+00  0.18430533576E+04  0.18430533576E+04  0.00000000000E+00 0. -1.
         -2   -1    0    0    0  501 -0.00000000000E+00 -0.00000000000E+00 -0.21368390959E+03  0.21368390959E+03  0.00000000000E+00 0.  1.
          6    1    1    2  502    0 -0.29665922012E+02 -0.42231981918E+03  0.15195316122E+04  0.15867559412E+04  0.17200000000E+03 0. -1.
         -6    1    1    2    0  501  0.29665922012E+02  0.42231981918E+03  0.10983783586E+03  0.46998132600E+03  0.17200000000E+03 0.  1.
</event>
<event>
 4    1  0.3094855E-002  0.3193730E+03  0.7818608E-02  0.1075938E+00
          2   -1    0    0  502    0  0.00000000000E+00  0.00000000000E+00  0.96342330823E+03  0.96342330823E+03  0.00000000000E+00 0. -1.
         -2   -1    0    0    0  501 -0.00000000000E+00 -0.00000000000E+00 -0.11107624521E+03  0.11107624521E+03  0.00000000000E+00 0.  1.
          6    1    1    2  502    0  0.15106639563E+02 -0.26867614554E+03  0.54246956718E+03  0.62950163865E+03  0.17200000000E+03 0. -1.
         -6    1    1    2    0  501 -0.15106639563E+02  0.26867614554E+03  0.30987749584E+03  0.44499791479E+03  0.17200000000E+03 0.  1.
</event>
<event>
 4    1  0.3094855E-002  0.2504040E+03  0.7818608E-02  0.1113050E+00
          1   -1    0    0  502    0  0.00000000000E+00  0.00000000000E+00  0.29687100589E+04  0.29687100589E+04  0.00000000000E+00 0. -1.
         -1   -1    0    0    0  501 -0.00000000000E+00 -0.00000000000E+00 -0.21259779614E+02  0.21259779614E+02  0.00000000000E+00 0.  1.
          6    1    1    2  502    0  0.36426522360E+02  0.17830110361E+03  0.13529454374E+04  0.13759227928E+04  0.17200000000E+03 0.  1.
         -6    1    1    2    0  501 -0.36426522360E+02 -0.17830110361E+03  0.15945048419E+04  0.16140470457E+04  0.17200000000E+03 0.  1.
</event>
<event>
 4    1  0.3094855E-002  0.1828074E+03  0.7818608E-02  0.1165113E+00
         -2   -1    0    0    0  501 -0.00000000000E+00  0.00000000000E+00  0.13523011327E+02  0.13523011327E+02  0.00000000000E+00 0.  1.
          2   -1    0    0  502    0  0.00000000000E+00 -0.00000000000E+00 -0.28002287468E+04  0.28002287468E+04  0.00000000000E+00 0. -1.
          6    1    1    2  502    0  0.61666320676E+02 -0.56393227959E+01 -0.18755814409E+04  0.18844692300E+04  0.17200000000E+03 0. -1.
         -6    1    1    2    0  501 -0.61666320676E+02  0.56393227959E+01 -0.91112429450E+03  0.92928252813E+03  0.17200000000E+03 0.  1.
</event>
<event>
 4    1  0.3094855E-002  0.2169962E+03  0.7818608E-02  0.1136142E+00
         -2   -1    0    0    0  501 -0.00000000000E+00  0.00000000000E+00  0.71221511064E+02  0.71221511064E+02  0.00000000000E+00 0.  1.
          2   -1    0    0  502    0  0.00000000000E+00 -0.00000000000E+00 -0.97402038439E+03  0.97402038439E+03  0.00000000000E+00 0. -1.
          6    1    1    2  502    0  0.48536956496E+02  0.12307528012E+03 -0.74760433901E+03  0.77845976674E+03  0.17200000000E+03 0. -1.
         -6    1    1    2    0  501 -0.48536956496E+02 -0.12307528012E+03 -0.15519453432E+03  0.26678212872E+03  0.17200000000E+03 0.  1.
</event>
<event>
 4    1  0.3094855E-002  0.1787355E+03  0.7818608E-02  0.1169032E+00
          2   -1    0    0  502    0  0.00000000000E+00  0.00000000000E+00  0.44037399310E+03  0.44037399310E+03  0.00000000000E+00 0. -1.
         -2   -1    0    0    0  501 -0.00000000000E+00 -0.00000000000E+00 -0.93758848592E+02  0.93758848592E+02  0.00000000000E+00 0.  1.
          6    1    1    2  502    0  0.43371628958E+02 -0.21938040329E+02  0.46268943297E+02  0.18462716736E+03  0.17200000000E+03 0.  1.
         -6    1    1    2    0  501 -0.43371628958E+02  0.21938040329E+02  0.30034620122E+03  0.34950567434E+03  0.17200000000E+03 0. -1.
</event>
<event>
 4    1  0.3094855E-002  0.1955899E+03  0.7818608E-02  0.1153514E+00
          2   -1    0    0  502    0  0.00000000000E+00  0.00000000000E+00  0.20462840497E+04  0.20462840497E+04  0.00000000000E+00 0. -1.
         -2   -1    0    0    0  501 -0.00000000000E+00 -0.00000000000E+00 -0.20526135418E+02  0.20526135418E+02  0.00000000000E+00 0.  1.
          6    1    1    2  502    0  0.23230121587E+02  0.90176284405E+02  0.13215317778E+04  0.13359272587E+04  0.17200000000E+03 0. -1.
         -6    1    1    2    0  501 -0.23230121587E+02 -0.90176284405E+02  0.70422613651E+03  0.73088292644E+03  0.17200000000E+03 0.  1.
</event>
<event>
 4    1  0.3094855E-002  0.2116867E+03  0.7818608E-02  0.1140237E+00
          2   -1    0    0  502    0  0.00000000000E+00  0.00000000000E+00  0.20237702472E+04  0.20237702472E+04  0.00000000000E+00 0. -1.
         -2   -1    0    0    0  501 -0.00000000000E+00 -0.00000000000E+00 -0.23042674666E+02  0.23042674666E+02  0.00000000000E+00 0.  1.
          6    1    1    2  502    0  0.45924380977E+02 -0.11453475961E+03  0.12026441740E+04  0.12211323717E+04  0.17200000000E+03 0. -1.
         -6    1    1    2    0  501 -0.45924380977E+02  0.11453475961E+03  0.79808339855E+03  0.82568055019E+03  0.17200000000E+03 0.  1.
</event>
<event>
 4    1  0.3094855E-002  0.2775569E+03  0.7818608E-02  0.1097031E+00
          2   -1    0    0  502    0  0.00000000000E+00  0.00000000000E+00  0.27785306752E+04  0.27785306752E+04  0.00000000000E+00 0. -1.
         -2   -1    0    0    0  501 -0.00000000000E+00 -0.00000000000E+00 -0.33798254824E+02  0.33798254824E+02  0.00000000000E+00 0.  1.
          6    1    1    2  502    0  0.34479210213E+02  0.21509305833E+03  0.19683852552E+04  0.19878577295E+04  0.17200000000E+03 0.  1.
         -6    1    1    2    0  501 -0.34479210213E+02 -0.21509305833E+03  0.77634716513E+03  0.82447120052E+03  0.17200000000E+03 0.  1.
</event>
<event>
 4    1  0.3094855E-002  0.1917977E+03  0.7818608E-02  0.1156850E+00
          2   -1    0    0  502    0  0.00000000000E+00  0.00000000000E+00  0.39729688206E+03  0.39729688206E+03  0.00000000000E+00 0. -1.
         -2   -1    0    0    0  501 -0.00000000000E+00 -0.00000000000E+00 -0.12084016856E+03  0.12084016856E+03  0.00000000000E+00 0.  1.
          6    1    1    2  502    0  0.83428553223E+02  0.15557574206E+02  0.26348681653E+03  0.32590131036E+03  0.17200000000E+03 0. -1.
         -6    1    1    2    0  501 -0.83428553223E+02 -0.15557574206E+02  0.12969896967E+02  0.19223574027E+03  0.17200000000E+03 0.  1.
</event>
<event>
 4    1  0.3094855E-002  0.4394395E+03  0.7818608E-02  0.1030919E+00
          2   -1    0    0  502    0  0.00000000000E+00  0.00000000000E+00  0.30415119174E+04  0.30415119174E+04  0.00000000000E+00 0. -1.
         -2   -1    0    0    0  501 -0.00000000000E+00 -0.00000000000E+00 -0.27731321098E+03  0.27731321098E+03  0.00000000000E+00 0.  1.
          6    1    1    2  502    0 -0.40062243472E+03  0.54997676810E+02  0.28392217076E+04  0.28730274945E+04  0.17200000000E+03 0. -1.
         -6    1    1    2    0  501  0.40062243472E+03 -0.54997676810E+02 -0.75023001121E+02  0.44579763386E+03  0.17200000000E+03 0.  1.
</event>
<event>
 4    1  0.3094855E-002  0.4033402E+03  0.7818608E-02  0.1042629E+00
          1   -1    0    0  502    0  0.00000000000E+00  0.00000000000E+00  0.81297193072E+03  0.81297193072E+03  0.00000000000E+00 0. -1.
         -1   -1    0    0    0  501 -0.00000000000E+00 -0.00000000000E+00 -0.27941288140E+03  0.27941288140E+03  0.00000000000E+00 0.  1.
          6    1    1    2  502    0 -0.11808227802E+03 -0.34518969308E+03  0.55776311202E+03  0.68831899416E+03  0.17200000000E+03 0. -1.
         -6    1    1    2    0  501  0.11808227802E+03  0.34518969308E+03 -0.24204062697E+02  0.40406581796E+03  0.17200000000E+03 0.  1.
</event>
<event>
 4    1  0.3094855E-002  0.2247974E+03  0.7818608E-02  0.1130356E+00
          2   -1    0    0  502    0  0.00000000000E+00  0.00000000000E+00  0.84522434615E+03  0.84522434615E+03  0.00000000000E+00 0. -1.
         -2   -1    0    0    0  501 -0.00000000000E+00 -0.00000000000E+00 -0.10950863016E+03  0.10950863016E+03  0.00000000000E+00 0.  1.
          6    1    1    2  502    0  0.25357677355E+02  0.14250208836E+03  0.68951871683E+03  0.72523783537E+03  0.17200000000E+03 0. -1.
         -6    1    1    2    0  501 -0.25357677355E+02 -0.14250208836E+03  0.46196999160E+02  0.22949514095E+03  0.17200000000E+03 0.  1.
</event>
<event>
 4    1  0.3094855E-002  0.2304859E+03  0.7818608E-02  0.1126298E+00
         -2   -1    0    0    0  501 -0.00000000000E+00  0.00000000000E+00  0.11323022235E+03  0.11323022235E+03  0.00000000000E+00 0.  1.
          2   -1    0    0  502    0  0.00000000000E+00 -0.00000000000E+00 -0.47605105631E+03  0.47605105631E+03  0.00000000000E+00 0. -1.
          6    1    1    2  502    0  0.10766697498E+03  0.10930494480E+03 -0.21684487289E+03  0.31645765492E+03  0.17200000000E+03 0. -1.
         -6    1    1    2    0  501 -0.10766697498E+03 -0.10930494480E+03 -0.14597596107E+03  0.27282362374E+03  0.17200000000E+03 0.  1.
</event>
<event>
 4    1  0.3094855E-002  0.2578298E+03  0.7818608E-02  0.1108454E+00
          2   -1    0    0  502    0  0.00000000000E+00  0.00000000000E+00  0.13007527066E+04  0.13007527066E+04  0.00000000000E+00 0. -1.
         -2   -1    0    0    0  501 -0.00000000000E+00 -0.00000000000E+00 -0.55589488078E+02  0.55589488078E+02  0.00000000000E+00 0.  1.
          6    1    1    2  502    0 -0.67624250489E+02 -0.17977528133E+03  0.81518051196E+03  0.85498272387E+03  0.17200000000E+03 0.  1.
         -6    1    1    2    0  501  0.67624250489E+02  0.17977528133E+03  0.42998270658E+03  0.50135947082E+03  0.17200000000E+03 0.  1.
</event>
<event>
 4    1  0.3094855E-002  0.1847184E+03  0.7818608E-02  0.1163313E+00
         -2   -1    0    0    0  501 -0.00000000000E+00  0.00000000000E+00  0.15755538971E+03  0.15755538971E+03  0.00000000000E+00 0.  1.
          2   -1    0    0  502    0  0.00000000000E+00 -0.00000000000E+00 -0.28694629031E+03  0.28694629031E+03  0.00000000000E+00 0. -1.
          6    1    1    2  502    0 -0.65922272096E+02 -0.13825444505E+02 -0.17476661421E+03  0.25429167960E+03  0.17200000000E+03 0. -1.
         -6    1    1    2    0  501  0.65922272096E+02  0.13825444505E+02  0.45375713600E+02  0.19021000042E+03  0.17200000000E+03 0.  1.
</event>
<event>
 4    1  0.3094855E-002  0.1910962E+03  0.7818608E-02  0.1157476E+00
          2   -1    0    0  502    0  0.00000000000E+00  0.00000000000E+00  0.37953100848E+03  0.37953100848E+03  0.00000000000E+00 0. -1.
         -2   -1    0    0    0  501 -0.00000000000E+00 -0.00000000000E+00 -0.12996272016E+03  0.12996272016E+03  0.00000000000E+00 0.  1.
          6    1    1    2  502    0 -0.82220351100E+02  0.13175259718E+02  0.25459211624E+03  0.31833146131E+03  0.17200000000E+03 0. -1.
         -6    1    1    2    0  501  0.82220351100E+02 -0.13175259718E+02 -0.50238279269E+01  0.19116226733E+03  0.17200000000E+03 0.  1.
</event>
<event>
 4    1  0.3094855E-002  0.2380313E+03  0.7818608E-02  0.1121111E+00
          2   -1    0    0  502    0  0.00000000000E+00  0.00000000000E+00  0.44370474805E+03  0.44370474805E+03  0.00000000000E+00 0. -1.
         -2   -1    0    0    0  501 -0.00000000000E+00 -0.00000000000E+00 -0.15443867515E+03  0.15443867515E+03  0.00000000000E+00 0.  1.
          6    1    1    2  502    0  0.10571734534E+03  0.12609026186E+03  0.20179502073E+02  0.23888516812E+03  0.17200000000E+03 0.  1.
         -6    1    1    2    0  501 -0.10571734534E+03 -0.12609026186E+03  0.26908657083E+03  0.35925825508E+03  0.17200000000E+03 0.  1.
</event>
<event>
 4    1  0.3094855E-002  0.1754715E+03  0.7818608E-02  0.1172259E+00
          2   -1    0    0  502    0  0.00000000000E+00  0.00000000000E+00  0.13400181101E+04  0.13400181101E+04  0.00000000000E+00 0. -1.
         -2   -1    0    0    0  501 -0.00000000000E+00 -0.00000000000E+00 -0.38903594444E+02  0.38903594444E+02  0.00000000000E+00 0.  1.
          6    1    1    2  502    0  0.18667880437E+01  0.34681002360E+02  0.10916901948E+04  0.11057023732E+04  0.17200000000E+03 0. -1.
         -6    1    1    2    0  501 -0.18667880437E+01 -0.34681002360E+02  0.20942432089E+03  0.27321933131E+03  0.17200000000E+03 0.  1.
</event>
<event>
 4    1  0.3094855E-002  0.2154764E+03  0.7818608E-02  0.1137301E+00
         -2   -1    0    0    0  501 -0.00000000000E+00  0.00000000000E+00  0.51367203413E+02  0.51367203413E+02  0.00000000000E+00 0.  1.
          2   -1    0    0  502    0  0.00000000000E+00 -0.00000000000E+00 -0.90477535872E+03  0.90477535872E+03  0.00000000000E+00 0. -1.
          6    1    1    2  502    0  0.52303657347E+02  0.11878725682E+03 -0.44169448275E+03  0.49145101592E+03  0.17200000000E+03 0. -1.
         -6    1    1    2    0  501 -0.52303657347E+02 -0.11878725682E+03 -0.41171367255E+03  0.46469154621E+03  0.17200000000E+03 0.  1.
</event>
<event>
 4    1  0.3094855E-002  0.4205811E+03  0.7818608E-02  0.1036877E+00
          1   -1    0    0  502    0  0.00000000000E+00  0.00000000000E+00  0.24840205605E+04  0.24840205605E+04  0.00000000000E+00 0. -1.
         -1   -1    0    0    0  501 -0.00000000000E+00 -0.00000000000E+00 -0.71229976989E+02  0.71229976989E+02  0.00000000000E+00 0.  1.
          6    1    1    2  502    0  0.13602614878E+03 -0.35888902538E+03  0.11852902784E+04  0.12576968990E+04  0.17200000000E+03 0. -1.
         -6    1    1    2    0  501 -0.13602614878E+03  0.35888902538E+03  0.12275003050E+04  0.12975536384E+04  0.17200000000E+03 0.  1.
</event>
<event>
 4    1  0.3094855E-002  0.2463862E+03  0.7818608E-02  0.1115610E+00
          2   -1    0    0  502    0  0.00000000000E+00  0.00000000000E+00  0.14992346427E+04  0.14992346427E+04  0.00000000000E+00 0. -1.
         -2   -1    0    0    0  501 -0.00000000000E+00 -0.00000000000E+00 -0.48154434351E+02  0.48154434351E+02  0.00000000000E+00 0.  1.
          6    1    1    2  502    0  0.15959716947E+03 -0.75172330812E+02  0.41690076597E+03  0.48426478758E+03  0.17200000000E+03 0.  1.
         -6    1    1    2    0  501 -0.15959716947E+03  0.75172330812E+02  0.10341794423E+04  0.10631242894E+04  0.17200000000E+03 0. -1.
</event>
<event>
 4    1  0.3094855E-002  0.1732225E+03  0.7818608E-02  0.1174528E+00
          2   -1    0    0  502    0  0.00000000000E+00  0.00000000000E+00  0.16667088738E+03  0.16667088738E+03  0.00000000000E+00 0. -1.
         -2   -1    0    0    0  501 -0.00000000000E+00 -0.00000000000E+00 -0.24189646936E+03  0.24189646936E+03  0.00000000000E+00 0.  1.
          6    1    1    2  502    0  0.20530336914E+02 -0.74600583590E+00  0.65696750424E+02  0.18526228508E+03  0.17200000000E+03 0. -1.
         -6    1    1    2    0  501 -0.20530336914E+02  0.74600583590E+00 -0.14092233240E+03  0.22330507166E+03  0.17200000000E+03 0.  1.
</event>
<event>
 4    1  0.3094855E-002  0.2152694E+03  0.7818608E-02  0.1137460E+00
          1   -1    0    0  502    0  0.00000000000E+00  0.00000000000E+00  0.59602693469E+03  0.59602693469E+03  0.00000000000E+00 0. -1.
         -1   -1    0    0    0  501 -0.00000000000E+00 -0.00000000000E+00 -0.79008042807E+02  0.79008042807E+02  0.00000000000E+00 0.  1.
          6    1    1    2  502    0 -0.30712654968E+01 -0.12941201726E+03  0.21591394513E+03  0.30489298874E+03  0.17200000000E+03 0.  1.
         -6    1    1    2    0  501  0.30712654968E+01  0.12941201726E+03  0.30110494676E+03  0.37014198876E+03  0.17200000000E+03 0.  1.
</event>
<event>
 4    1  0.3094855E-002  0.2365839E+03  0.7818608E-02  0.1122090E+00
          1   -1    0    0  502    0  0.00000000000E+00  0.00000000000E+00  0.16023607897E+04  0.16023607897E+04  0.00000000000E+00 0. -1.
         -1   -1    0    0    0  501 -0.00000000000E+00 -0.00000000000E+00 -0.47313725223E+02  0.47313725223E+02  0.00000000000E+00 0.  1.
          6    1    1    2  502    0  0.12625806345E+03 -0.10220990550E+03  0.35555124946E+03  0.42706984717E+03  0.17200000000E+03 0. -1.
         -6    1    1    2    0  501 -0.12625806345E+03  0.10220990550E+03  0.11994958150E+04  0.12226046677E+04  0.17200000000E+03 0.  1.
</event>
<event>
 4    1  0.3094855E-002  0.3099958E+03  0.7818608E-02  0.1080348E+00
          4   -1    0    0  502    0  0.00000000000E+00  0.00000000000E+00  0.14482731933E+03  0.14482731933E+03  0.00000000000E+00 0. -1.
         -4   -1    0    0    0  501 -0.00000000000E+00 -0.00000000000E+00 -0.66457901827E+03  0.66457901827E+03  0.00000000000E+00 0.  1.
          6    1    1    2  502    0 -0.25783917241E+03  0.56900727759E+01 -0.27594704175E+03  0.41502311455E+03  0.17200000000E+03 0. -1.
         -6    1    1    2    0  501  0.25783917241E+03 -0.56900727759E+01 -0.24380465719E+03  0.39438322305E+03  0.17200000000E+03 0.  1.
</event>
<event>
 4    1  0.3094855E-002  0.1876606E+03  0.7818608E-02  0.1160588E+00
          2   -1    0    0  502    0  0.00000000000E+00  0.00000000000E+00  0.21176719226E+04  0.21176719226E+04  0.00000000000E+00 0. -1.
         -2   -1    0    0    0  501 -0.00000000000E+00 -0.00000000000E+00 -0.18539322591E+02  0.18539322591E+02  0.00000000000E+00 0.  1.
          6    1    1    2  502    0 -0.32851130323E+02  0.67478307865E+02  0.13923550360E+04  0.14049445060E+04  0.17200000000E+03 0. -1.
         -6    1    1    2    0  501  0.32851130323E+02 -0.67478307865E+02  0.70677756408E+03  0.73126673922E+03  0.17200000000E+03 0.  1.
</event>
<event>
 4    1  0.3094855E-002  0.2012596E+03  0.7818608E-02  0.1148681E+00
          1   -1    0    0  502    0  0.00000000000E+00  0.00000000000E+00  0.12092042718E+04  0.12092042718E+04  0.00000000000E+00 0. -1.
         -1   -1    0    0    0  501 -0.00000000000E+00 -0.00000000000E+00 -0.36154262187E+02  0.36154262187E+02  0.00000000000E+00 0.  1.
          6    1    1    2  502    0  0.84961210962E+02  0.60852332187E+02  0.75531809632E+03  0.78167182393E+03  0.17200000000E+03 0. -1.
         -6    1    1    2    0  501 -0.84961210962E+02 -0.60852332187E+02  0.41773191333E+03  0.46368671009E+03  0.17200000000E+03 0.  1.
</event>
<event>
 4    1  0.3094855E-002  0.4587614E+03  0.7818608E-02  0.1025141E+00
         -2   -1    0    0    0  501 -0.00000000000E+00  0.00000000000E+00  0.74318329670E+03  0.74318329670E+03  0.00000000000E+00 0.  1.
          2   -1    0    0  502    0  0.00000000000E+00 -0.00000000000E+00 -0.31854644215E+03  0.31854644215E+03  0.00000000000E+00 0. -1.
          6    1    1    2  502    0  0.29028390364E+03  0.31082673854E+03  0.35457263831E+02  0.46012957269E+03  0.17200000000E+03 0. -1.
         -6    1    1    2    0  501 -0.29028390364E+03 -0.31082673854E+03  0.38917959072E+03  0.60160016617E+03  0.17200000000E+03 0.  1.
</event>
<event>
 4    1  0.3094855E-002  0.2386035E+03  0.7818608E-02  0.1120727E+00
          2   -1    0    0  502    0  0.00000000000E+00  0.00000000000E+00  0.22182301769E+04  0.22182301769E+04  0.00000000000E+00 0. -1.
         -2   -1    0    0    0  501 -0.00000000000E+00 -0.00000000000E+00 -0.41561064754E+02  0.41561064754E+02  0.00000000000E+00 0.  1.
          6    1    1    2  502    0  0.42284983931E+02 -0.15987368519E+03  0.38956292974E+03  0.45682698181E+03  0.17200000000E+03 0.  1.
         -6    1    1    2    0  501 -0.42284983931E+02  0.15987368519E+03  0.17871061824E+04  0.18029642598E+04  0.17200000000E+03 0. -1.
</event>
<event>
 4    1  0.3094855E-002  0.2013053E+03  0.7818608E-02  0.1148642E+00
         -2   -1    0    0    0  501 -0.00000000000E+00  0.00000000000E+00  0.23172512279E+03  0.23172512279E+03  0.00000000000E+00 0.  1.
          2   -1    0    0  502    0  0.00000000000E+00 -0.00000000000E+00 -0.88208999863E+03  0.88208999863E+03  0.00000000000E+00 0. -1.
          6    1    1    2  502    0 -0.10333118909E+03 -0.16201608137E+02 -0.82383862192E+03  0.84807658954E+03  0.17200000000E+03 0. -1.
         -6    1    1    2    0  501  0.10333118909E+03  0.16201608137E+02  0.17347374608E+03  0.26573853188E+03  0.17200000000E+03 0.  1.
</event>
<event>
 4    1  0.3094855E-002  0.1956891E+03  0.7818608E-02  0.1153428E+00
         -2   -1    0    0    0  501 -0.00000000000E+00  0.00000000000E+00  0.19061595300E+03  0.19061595300E+03  0.00000000000E+00 0.  1.
          2   -1    0    0  502    0  0.00000000000E+00 -0.00000000000E+00 -0.30272202007E+03  0.30272202007E+03  0.00000000000E+00 0. -1.
          6    1    1    2  502    0  0.85862611491E+02 -0.36576257051E+02 -0.19911341393E+03  0.27917801174E+03  0.17200000000E+03 0. -1.
         -6    1    1    2    0  501 -0.85862611491E+02  0.36576257051E+02  0.87007346854E+02  0.21415996133E+03  0.17200000000E+03 0.  1.
</event>
<event>
 4    1  0.3094855E-002  0.2122571E+03  0.7818608E-02  0.1139791E+00
         -1   -1    0    0    0  501 -0.00000000000E+00  0.00000000000E+00  0.56817108329E+02  0.56817108329E+02  0.00000000000E+00 0.  1.
          1   -1    0    0  502    0  0.00000000000E+00 -0.00000000000E+00 -0.89398937078E+03  0.89398937078E+03  0.00000000000E+00 0. -1.
          6    1    1    2  502    0  0.12417183304E+03 -0.71018728532E+01 -0.25876176520E+03  0.33468004399E+03  0.17200000000E+03 0.  1.
         -6    1    1    2    0  501 -0.12417183304E+03  0.71018728532E+01 -0.57841049725E+03  0.61612643512E+03  0.17200000000E+03 0.  1.
</event>
<event>
 4    1  0.3094855E-002  0.2883595E+03  0.7818608E-02  0.1091209E+00
          1   -1    0    0  502    0  0.00000000000E+00  0.00000000000E+00  0.10172928372E+03  0.10172928372E+03  0.00000000000E+00 0. -1.
         -1   -1    0    0    0  501 -0.00000000000E+00 -0.00000000000E+00 -0.81738884977E+03  0.81738884977E+03  0.00000000000E+00 0.  1.
          6    1    1    2  502    0 -0.21586665431E+03 -0.83479340406E+02 -0.35610631614E+03  0.45821711133E+03  0.17200000000E+03 0. -1.
         -6    1    1    2    0  501  0.21586665431E+03  0.83479340406E+02 -0.35955324991E+03  0.46090102217E+03  0.17200000000E+03 0.  1.
</event>
<event>
 4    1  0.3094855E-002  0.1838468E+03  0.7818608E-02  0.1164131E+00
          1   -1    0    0  502    0  0.00000000000E+00  0.00000000000E+00  0.57830965221E+03  0.57830965221E+03  0.00000000000E+00 0. -1.
         -1   -1    0    0    0  501 -0.00000000000E+00 -0.00000000000E+00 -0.92950534234E+02  0.92950534234E+02  0.00000000000E+00 0.  1.
          6    1    1    2  502    0  0.29550835887E+01 -0.64860798140E+02  0.44717119010E+03  0.48348911974E+03  0.17200000000E+03 0. -1.
         -6    1    1    2    0  501 -0.29550835887E+01  0.64860798140E+02  0.38187927876E+02  0.18777106670E+03  0.17200000000E+03 0.  1.
</event>
<event>
 4    1  0.3094855E-002  0.2530866E+03  0.7818608E-02  0.1111370E+00
          4   -1    0    0  502    0  0.00000000000E+00  0.00000000000E+00  0.12621562915E+03  0.12621562915E+03  0.00000000000E+00 0. -1.
         -4   -1    0    0    0  501 -0.00000000000E+00 -0.00000000000E+00 -0.51630726640E+03  0.51630726640E+03  0.00000000000E+00 0.  1.
          6    1    1    2  502    0  0.18480998227E+03 -0.17723194927E+02 -0.15305681649E+03  0.29576887980E+03  0.17200000000E+03 0. -1.
         -6    1    1    2    0  501 -0.18480998227E+03  0.17723194927E+02 -0.23703482076E+03  0.34675401575E+03  0.17200000000E+03 0.  1.
</event>
<event>
 4    1  0.3094855E-002  0.2128601E+03  0.7818608E-02  0.1139321E+00
         -1   -1    0    0    0  501 -0.00000000000E+00  0.00000000000E+00  0.23363398293E+03  0.23363398293E+03  0.00000000000E+00 0.  1.
          1   -1    0    0  502    0  0.00000000000E+00 -0.00000000000E+00 -0.22170539266E+03  0.22170539266E+03  0.00000000000E+00 0. -1.
          6    1    1    2  502    0  0.99974421843E+02 -0.75700279525E+02 -0.74614564576E+02  0.22555875197E+03  0.17200000000E+03 0. -1.
         -6    1    1    2    0  501 -0.99974421843E+02  0.75700279525E+02  0.86543154840E+02  0.22978062362E+03  0.17200000000E+03 0. -1.
</event>
<event>
 4    1  0.3094855E-002  0.2860137E+03  0.7818608E-02  0.1092449E+00
          2   -1    0    0  502    0  0.00000000000E+00  0.00000000000E+00  0.38581443704E+03  0.38581443704E+03  0.00000000000E+00 0. -1.
         -2   -1    0    0    0  501 -0.00000000000E+00 -0.00000000000E+00 -0.50925960664E+03  0.50925960664E+03  0.00000000000E+00 0.  1.
          6    1    1    2  502    0  0.21701095048E+03  0.71596813888E+02  0.28018292763E+03  0.40038272856E+03  0.17200000000E+03 0. -1.
         -6    1    1    2    0  501 -0.21701095048E+03 -0.71596813888E+02 -0.40362809724E+03  0.49469131513E+03  0.17200000000E+03 0.  1.
</event>
<event>
 4    1  0.3094855E-002  0.1779291E+03  0.7818608E-02  0.1169822E+00
          2   -1    0    0  502    0  0.00000000000E+00  0.00000000000E+00  0.14987718352E+04  0.14987718352E+04  0.00000000000E+00 0. -1.
         -2   -1    0    0    0  501 -0.00000000000E+00 -0.00000000000E+00 -0.17451546220E+04  0.17451546220E+04  0.00000000000E+00 0.  1.
          6    1    1    2  502    0 -0.40655088196E+02  0.20541159879E+02  0.14889259253E+04  0.14995196520E+04  0.17200000000E+03 0. -1.
         -6    1    1    2    0  501  0.40655088196E+02 -0.20541159879E+02 -0.17353087122E+04  0.17444068052E+04  0.17200000000E+03 0.  1.
</event>
<event>
 4    1  0.3094855E-002  0.6925011E+03  0.7818608E-02  0.9730143E-01
          2   -1    0    0  502    0  0.00000000000E+00  0.00000000000E+00  0.22296242274E+04  0.22296242274E+04  0.00000000000E+00 0. -1.
         -2   -1    0    0    0  501 -0.00000000000E+00 -0.00000000000E+00 -0.21633128402E+03  0.21633128402E+03  0.00000000000E+00 0.  1.
          6    1    1    2  502    0 -0.40019256874E+03  0.53834899016E+03  0.10994886912E+04  0.12993972100E+04  0.17200000000E+03 0. -1.
         -6    1    1    2    0  501  0.40019256874E+03 -0.53834899016E+03  0.91380425226E+03  0.11465583015E+04  0.17200000000E+03 0.  1.
</event>
<event>
 4    1  0.3094855E-002  0.6644311E+03  0.7818608E-02  0.9780071E-01
         -1   -1    0    0    0  501 -0.00000000000E+00  0.00000000000E+00  0.18371568632E+04  0.18371568632E+04  0.00000000000E+00 0.  1.
          1   -1    0    0  502    0  0.00000000000E+00 -0.00000000000E+00 -0.69679505297E+03  0.69679505297E+03  0.00000000000E+00 0. -1.
          6    1    1    2  502    0 -0.17871722132E+03  0.61639667005E+03 -0.45531494361E+03  0.80546905460E+03  0.17200000000E+03 0. -1.
         -6    1    1    2    0  501  0.17871722132E+03 -0.61639667005E+03  0.15956767539E+04  0.17284828616E+04  0.17200000000E+03 0.  1.
</event>
<event>
 4    1  0.3094855E-002  0.2043052E+03  0.7818608E-02  0.1146157E+00
         -2   -1    0    0    0  501 -0.00000000000E+00  0.00000000000E+00  0.36217039390E+03  0.36217039390E+03  0.00000000000E+00 0.  1.
          2   -1    0    0  502    0  0.00000000000E+00 -0.00000000000E+00 -0.25862722592E+03  0.25862722592E+03  0.00000000000E+00 0. -1.
          6    1    1    2  502    0  0.65995501088E+01 -0.11005935968E+03 -0.17933962586E+03  0.27185164726E+03  0.17200000000E+03 0. -1.
         -6    1    1    2    0  501 -0.65995501088E+01  0.11005935968E+03  0.28288279384E+03  0.34894597256E+03  0.17200000000E+03 0.  1.
</event>
<event>
 4    1  0.3094855E-002  0.1781079E+03  0.7818608E-02  0.1169647E+00
          2   -1    0    0  502    0  0.00000000000E+00  0.00000000000E+00  0.17957476446E+04  0.17957476446E+04  0.00000000000E+00 0. -1.
         -2   -1    0    0    0  501 -0.00000000000E+00 -0.00000000000E+00 -0.28128948771E+02  0.28128948771E+02  0.00000000000E+00 0.  1.
          6    1    1    2  502    0 -0.23334517585E+02 -0.39924054395E+02  0.14400083128E+04  0.14509811752E+04  0.17200000000E+03 0. -1.
         -6    1    1    2    0  501  0.23334517585E+02  0.39924054395E+02  0.32761038303E+03  0.37289541818E+03  0.17200000000E+03 0.  1.
</event>
<event>
 4    1  0.3094855E-002  0.1885352E+03  0.7818608E-02  0.1159789E+00
          2   -1    0    0  502    0  0.00000000000E+00  0.00000000000E+00  0.80236081202E+03  0.80236081202E+03  0.00000000000E+00 0. -1.
         -2   -1    0    0    0  501 -0.00000000000E+00 -0.00000000000E+00 -0.45378976606E+02  0.45378976606E+02  0.00000000000E+00 0.  1.
          6    1    1    2  502    0  0.58689745517E+02  0.50170252240E+02  0.44381468123E+03  0.48220017805E+03  0.17200000000E+03 0. -1.
         -6    1    1    2    0  501 -0.58689745517E+02 -0.50170252240E+02  0.31316715418E+03  0.36553961057E+03  0.17200000000E+03 0.  1.
</event>
<event>
 4    1  0.3094855E-002  0.1885131E+03  0.7818608E-02  0.1159809E+00
          2   -1    0    0  502    0  0.00000000000E+00  0.00000000000E+00  0.97479362729E+03  0.97479362729E+03  0.00000000000E+00 0. -1.
         -2   -1    0    0    0  501 -0.00000000000E+00 -0.00000000000E+00 -0.36500976802E+02  0.36500976802E+02  0.00000000000E+00 0.  1.
          6    1    1    2  502    0 -0.74923890548E+02 -0.18428591645E+02  0.45142217844E+03  0.48920260174E+03  0.17200000000E+03 0.  1.
         -6    1    1    2    0  501  0.74923890548E+02  0.18428591645E+02  0.48687047204E+03  0.52209200235E+03  0.17200000000E+03 0.  1.
</event>
<event>
 4    1  0.3094855E-002  0.1910332E+03  0.7818608E-02  0.1157533E+00
          2   -1    0    0  502    0  0.00000000000E+00  0.00000000000E+00  0.15836379921E+04  0.15836379921E+04  0.00000000000E+00 0. -1.
         -2   -1    0    0    0  501 -0.00000000000E+00 -0.00000000000E+00 -0.24274834619E+02  0.24274834619E+02  0.00000000000E+00 0.  1.
          6    1    1    2  502    0 -0.45812633288E+02  0.69360506110E+02  0.96069809288E+03  0.97950727555E+03  0.17200000000E+03 0. -1.
         -6    1    1    2    0  501  0.45812633288E+02 -0.69360506110E+02  0.59866506459E+03  0.62840555117E+03  0.17200000000E+03 0.  1.
</event>
<event>
 4    1  0.3094855E-002  0.2086292E+03  0.7818608E-02  0.1142656E+00
         -1   -1    0    0    0  501 -0.00000000000E+00  0.00000000000E+00  0.29545941853E+03  0.29545941853E+03  0.00000000000E+00 0.  1.
          1   -1    0    0  502    0  0.00000000000E+00 -0.00000000000E+00 -0.15101974273E+03  0.15101974273E+03  0.00000000000E+00 0. -1.
          6    1    1    2  502    0  0.33036694272E+02  0.11336105056E+03  0.10717609126E+03  0.23454821570E+03  0.17200000000E+03 0. -1.
         -6    1    1    2    0  501 -0.33036694272E+02 -0.11336105056E+03  0.37263584546E+02  0.21193094556E+03  0.17200000000E+03 0. -1.
</event>
<event>
 4    1  0.3094855E-002  0.2230344E+03  0.7818608E-02  0.1131641E+00
         -1   -1    0    0    0  501 -0.00000000000E+00  0.00000000000E+00  0.50396481242E+02  0.50396481242E+02  0.00000000000E+00 0.  1.
          1   -1    0    0  502    0  0.00000000000E+00 -0.00000000000E+00 -0.13792683881E+04  0.13792683881E+04  0.00000000000E+00 0. -1.
          6    1    1    2  502    0 -0.13619364371E+03  0.40145012097E+02 -0.10456233381E+04  0.10691456850E+04  0.17200000000E+03 0. -1.
         -6    1    1    2    0  501  0.13619364371E+03 -0.40145012097E+02 -0.28324856883E+03  0.36051918441E+03  0.17200000000E+03 0.  1.
</event>
<event>
 4    1  0.3094855E-002  0.2280831E+03  0.7818608E-02  0.1127996E+00
         -1   -1    0    0    0  501 -0.00000000000E+00  0.00000000000E+00  0.49851308812E+02  0.49851308812E+02  0.00000000000E+00 0.  1.
          1   -1    0    0  502    0  0.00000000000E+00 -0.00000000000E+00 -0.16457894977E+04  0.16457894977E+04  0.00000000000E+00 0. -1.
          6    1    1    2  502    0 -0.10231396838E+03  0.10940629386E+03 -0.13108358856E+04  0.13305309483E+04  0.17200000000E+03 0. -1.
         -6    1    1    2    0  501  0.10231396838E+03 -0.10940629386E+03 -0.28510230327E+03  0.36510985825E+03  0.17200000000E+03 0.  1.
</event>
<event>
 4    1  0.3094855E-002  0.4443573E+03  0.7818608E-02  0.1029418E+00
         -2   -1    0    0    0  501 -0.00000000000E+00  0.00000000000E+00  0.53929083037E+03  0.53929083037E+03  0.00000000000E+00 0.  1.
          2   -1    0    0  502    0  0.00000000000E+00 -0.00000000000E+00 -0.50044406221E+03  0.50044406221E+03  0.00000000000E+00 0. -1.
          6    1    1    2  502    0  0.25615957231E+03 -0.31976817065E+03 -0.24989563724E+03  0.50980509899E+03  0.17200000000E+03 0. -1.
         -6    1    1    2    0  501 -0.25615957231E+03  0.31976817065E+03  0.28874240540E+03  0.52992979358E+03  0.17200000000E+03 0.  1.
</event>
<event>
 4    1  0.3094855E-002  0.2523640E+03  0.7818608E-02  0.1111820E+00
          1   -1    0    0  502    0  0.00000000000E+00  0.00000000000E+00  0.74165411060E+03  0.74165411060E+03  0.00000000000E+00 0. -1.
         -1   -1    0    0    0  501 -0.00000000000E+00 -0.00000000000E+00 -0.86001058175E+02  0.86001058175E+02  0.00000000000E+00 0.  1.
          6    1    1    2  502    0  0.16643944093E+03  0.80009516271E+02  0.34383334477E+03  0.42650788875E+03  0.17200000000E+03 0. -1.
         -6    1    1    2    0  501 -0.16643944093E+03 -0.80009516271E+02  0.31181970766E+03  0.40114728003E+03  0.17200000000E+03 0.  1.
</event>
<event>
 4    1  0.3094855E-002  0.1998448E+03  0.7818608E-02  0.1149870E+00
         -2   -1    0    0    0  501 -0.00000000000E+00  0.00000000000E+00  0.33161598795E+02  0.33161598795E+02  0.00000000000E+00 0.  1.
          2   -1    0    0  502    0  0.00000000000E+00 -0.00000000000E+00 -0.12219803820E+04  0.12219803820E+04  0.00000000000E+00 0. -1.
          6    1    1    2  502    0  0.90319762633E+02  0.46864662593E+02 -0.66980422508E+03  0.69898187105E+03  0.17200000000E+03 0. -1.
         -6    1    1    2    0  501 -0.90319762633E+02 -0.46864662593E+02 -0.51901455809E+03  0.55616010971E+03  0.17200000000E+03 0.  1.
</event>
<event>
 4    1  0.3094855E-002  0.2815892E+03  0.7818608E-02  0.1094824E+00
         -2   -1    0    0    0  501 -0.00000000000E+00  0.00000000000E+00  0.49222272946E+02  0.49222272946E+02  0.00000000000E+00 0.  1.
          2   -1    0    0  502    0  0.00000000000E+00 -0.00000000000E+00 -0.23302718921E+04  0.23302718921E+04  0.00000000000E+00 0. -1.
          6    1    1    2  502    0 -0.21430563732E+03  0.61494681507E+02 -0.18015621338E+04  0.18234359391E+04  0.17200000000E+03 0. -1.
         -6    1    1    2    0  501  0.21430563732E+03 -0.61494681507E+02 -0.47948748541E+03  0.55605822600E+03  0.17200000000E+03 0.  1.
</event>
<event>
 4    1  0.3094855E-002  0.3004680E+03  0.7818608E-02  0.1085007E+00
         -2   -1    0    0    0  501 -0.00000000000E+00  0.00000000000E+00  0.37408665600E+03  0.37408665600E+03  0.00000000000E+00 0.  1.
          2   -1    0    0  502    0  0.00000000000E+00 -0.00000000000E+00 -0.25597220093E+03  0.25597220093E+03  0.00000000000E+00 0. -1.
          6    1    1    2  502    0  0.64234402234E+02  0.23784647407E+03 -0.16270001509E+02  0.30090815311E+03  0.17200000000E+03 0. -1.
         -6    1    1    2    0  501 -0.64234402234E+02 -0.23784647407E+03  0.13438445658E+03  0.32915070383E+03  0.17200000000E+03 0.  1.
</event>
<event>
 4    1  0.3094855E-002  0.2011997E+03  0.7818608E-02  0.1148731E+00
         -2   -1    0    0    0  501 -0.00000000000E+00  0.00000000000E+00  0.13126715835E+03  0.13126715835E+03  0.00000000000E+00 0.  1.
          2   -1    0    0  502    0  0.00000000000E+00 -0.00000000000E+00 -0.39196659878E+03  0.39196659878E+03  0.00000000000E+00 0. -1.
          6    1    1    2  502    0 -0.41361027623E+02 -0.95846741330E+02 -0.95442844263E+01  0.20142598093E+03  0.17200000000E+03 0. -1.
         -6    1    1    2    0  501  0.41361027623E+02  0.95846741330E+02 -0.25115515601E+03  0.32180777620E+03  0.17200000000E+03 0. -1.
</event>
<event>
 4    1  0.3094855E-002  0.3443779E+03  0.7818608E-02  0.1064946E+00
         -2   -1    0    0    0  501 -0.00000000000E+00  0.00000000000E+00  0.75020785230E+02  0.75020785230E+02  0.00000000000E+00 0.  1.
          2   -1    0    0  502    0  0.00000000000E+00 -0.00000000000E+00 -0.16066406953E+04  0.16066406953E+04  0.00000000000E+00 0. -1.
          6    1    1    2  502    0 -0.27644024443E+03  0.11221836603E+03 -0.65926574199E+03  0.74379263842E+03  0.17200000000E+03 0. -1.
         -6    1    1    2    0  501  0.27644024443E+03 -0.11221836603E+03 -0.87235416807E+03  0.93786884209E+03  0.17200000000E+03 0.  1.
</event>
<event>
 4    1  0.3094855E-002  0.2526074E+03  0.7818608E-02  0.1111668E+00
         -2   -1    0    0    0  501 -0.00000000000E+00  0.00000000000E+00  0.94580097878E+02  0.94580097878E+02  0.00000000000E+00 0.  1.
          2   -1    0    0  502    0  0.00000000000E+00 -0.00000000000E+00 -0.67918261402E+03  0.67918261402E+03  0.00000000000E+00 0. -1.
          6    1    1    2  502    0 -0.51726426075E+02 -0.17762560667E+03 -0.26077044423E+03  0.36305881601E+03  0.17200000000E+03 0. -1.
         -6    1    1    2    0  501  0.51726426075E+02  0.17762560667E+03 -0.32383207191E+03  0.41070389588E+03  0.17200000000E+03 0.  1.
</event>
<event>
 4    1  0.3094855E-002  0.1830489E+03  0.7818608E-02  0.1164885E+00
          2   -1    0    0  502    0  0.00000000000E+00  0.00000000000E+00  0.42877385508E+03  0.42877385508E+03  0.00000000000E+00 0. -1.
         -2   -1    0    0    0  501 -0.00000000000E+00 -0.00000000000E+00 -0.78155548981E+02  0.78155548981E+02  0.00000000000E+00 0.  1.
          6    1    1    2  502    0 -0.42248103767E+02 -0.46238308097E+02  0.17248083601E+03  0.25150849329E+03  0.17200000000E+03 0. -1.
         -6    1    1    2    0  501  0.42248103767E+02  0.46238308097E+02  0.17813747009E+03  0.25542091077E+03  0.17200000000E+03 0.  1.
</event>
<event>
 4    1  0.3094855E-002  0.2391574E+03  0.7818608E-02  0.1120355E+00
         -2   -1    0    0    0  501 -0.00000000000E+00  0.00000000000E+00  0.93191307780E+02  0.93191307780E+02  0.00000000000E+00 0.  1.
          2   -1    0    0  502    0  0.00000000000E+00 -0.00000000000E+00 -0.62701300738E+03  0.62701300738E+03  0.00000000000E+00 0. -1.
          6    1    1    2  502    0 -0.14077708176E+03  0.88284139982E+02 -0.31928161952E+03  0.39891982739E+03  0.17200000000E+03 0. -1.
         -6    1    1    2    0  501  0.14077708176E+03 -0.88284139982E+02 -0.21454008008E+03  0.32128448777E+03  0.17200000000E+03 0.  1.
</event>
<event>
 4    1  0.3094855E-002  0.3793036E+03  0.7818608E-02  0.1051191E+00
         -1   -1    0    0    0  501 -0.00000000000E+00  0.00000000000E+00  0.50255583317E+03  0.50255583317E+03  0.00000000000E+00 0.  1.
          1   -1    0    0  502    0  0.00000000000E+00 -0.00000000000E+00 -0.57279075982E+03  0.57279075982E+03  0.00000000000E+00 0. -1.
          6    1    1    2  502    0 -0.33665772412E+03 -0.30803038307E+02 -0.41538704605E+03  0.56251013183E+03  0.17200000000E+03 0. -1.
         -6    1    1    2    0  501  0.33665772412E+03  0.30803038307E+02  0.34515211940E+03  0.51283646117E+03  0.17200000000E+03 0.  1.
</event>
<event>
 4    1  0.3094855E-002  0.1814401E+03  0.7818608E-02  0.1166417E+00
          1   -1    0    0  502    0  0.00000000000E+00  0.00000000000E+00  0.59438133795E+03  0.59438133795E+03  0.00000000000E+00 0. -1.
         -1   -1    0    0    0  501 -0.00000000000E+00 -0.00000000000E+00 -0.76069964342E+02  0.76069964342E+02  0.00000000000E+00 0.  1.
          6    1    1    2  502    0  0.24333989141E+02 -0.52386550444E+02  0.84353864239E+02  0.20009014995E+03  0.17200000000E+03 0.  1.
         -6    1    1    2    0  501 -0.24333989141E+02  0.52386550444E+02  0.43395750937E+03  0.47036115235E+03  0.17200000000E+03 0. -1.
</event>
<event>
 4    1  0.3094855E-002  0.1845232E+03  0.7818608E-02  0.1163496E+00
          1   -1    0    0  502    0  0.00000000000E+00  0.00000000000E+00  0.18529139750E+04  0.18529139750E+04  0.00000000000E+00 0. -1.
         -1   -1    0    0    0  501 -0.00000000000E+00 -0.00000000000E+00 -0.44623322662E+02  0.44623322662E+02  0.00000000000E+00 0.  1.
          6    1    1    2  502    0  0.41763976196E+02 -0.52159060240E+02  0.16317968455E+04  0.16421966210E+04  0.17200000000E+03 0. -1.
         -6    1    1    2    0  501 -0.41763976196E+02  0.52159060240E+02  0.17649380685E+03  0.25534067661E+03  0.17200000000E+03 0.  1.
</event>
<event>
 4    1  0.3094855E-002  0.3263789E+03  0.7818608E-02  0.1072750E+00
          4   -1    0    0  502    0  0.00000000000E+00  0.00000000000E+00  0.16095299292E+04  0.16095299292E+04  0.00000000000E+00 0. -1.
         -4   -1    0    0    0  501 -0.00000000000E+00 -0.00000000000E+00 -0.99609199473E+02  0.99609199473E+02  0.00000000000E+00 0.  1.
          6    1    1    2  502    0 -0.19341331972E+03  0.19882273914E+03  0.12500028934E+04  0.12919096049E+04  0.17200000000E+03 0. -1.
         -6    1    1    2    0  501  0.19341331972E+03 -0.19882273914E+03  0.25991783638E+03  0.41722952378E+03  0.17200000000E+03 0.  1.
</event>
<event>
 4    1  0.3094855E-002  0.1835254E+03  0.7818608E-02  0.1164434E+00
          2   -1    0    0  502    0  0.00000000000E+00  0.00000000000E+00  0.29966075601E+03  0.29966075601E+03  0.00000000000E+00 0. -1.
         -2   -1    0    0    0  501 -0.00000000000E+00 -0.00000000000E+00 -0.22442616042E+03  0.22442616042E+03  0.00000000000E+00 0.  1.
          6    1    1    2  502    0  0.37718043851E+02  0.51719756487E+02  0.22275639909E+03  0.28862085402E+03  0.17200000000E+03 0. -1.
         -6    1    1    2    0  501 -0.37718043851E+02 -0.51719756487E+02 -0.14752180350E+03  0.23546606242E+03  0.17200000000E+03 0.  1.
</event>
<event>
 4    1  0.3094855E-002  0.2901462E+03  0.7818608E-02  0.1090273E+00
         -2   -1    0    0    0  501 -0.00000000000E+00  0.00000000000E+00  0.85519344605E+02  0.85519344605E+02  0.00000000000E+00 0.  1.
          2   -1    0    0  502    0  0.00000000000E+00 -0.00000000000E+00 -0.23141526471E+04  0.23141526471E+04  0.00000000000E+00 0. -1.
          6    1    1    2  502    0  0.60824017503E+02 -0.22561300668E+03 -0.20238365020E+04  0.20445290354E+04  0.17200000000E+03 0. -1.
         -6    1    1    2    0  501 -0.60824017503E+02  0.22561300668E+03 -0.20479680047E+03  0.35514295625E+03  0.17200000000E+03 0.  1.
</event>
<event>
 4    1  0.3094855E-002  0.4912179E+03  0.7818608E-02  0.1016097E+00
         -1   -1    0    0    0  501 -0.00000000000E+00  0.00000000000E+00  0.29706322974E+03  0.29706322974E+03  0.00000000000E+00 0.  1.
          1   -1    0    0  502    0  0.00000000000E+00 -0.00000000000E+00 -0.99637666198E+03  0.99637666198E+03  0.00000000000E+00 0. -1.
          6    1    1    2  502    0 -0.34615720538E+03 -0.30312736321E+03 -0.62765452953E+03  0.79702272088E+03  0.17200000000E+03 0. -1.
         -6    1    1    2    0  501  0.34615720538E+03  0.30312736321E+03 -0.71658902715E+02  0.49641717084E+03  0.17200000000E+03 0.  1.
</event>
<event>
 4    1  0.3094855E-002  0.2147782E+03  0.7818608E-02  0.1137837E+00
         -1   -1    0    0    0  501 -0.00000000000E+00  0.00000000000E+00  0.10951627366E+04  0.10951627366E+04  0.00000000000E+00 0.  1.
          1   -1    0    0  502    0  0.00000000000E+00 -0.00000000000E+00 -0.47556064233E+02  0.47556064233E+02  0.00000000000E+00 0. -1.
          6    1    1    2  502    0 -0.18220688667E+02  0.12733298567E+03  0.33065249112E+03  0.39428511590E+03  0.17200000000E+03 0. -1.
         -6    1    1    2    0  501  0.18220688667E+02 -0.12733298567E+03  0.71695418125E+03  0.74843368494E+03  0.17200000000E+03 0. -1.
</event>
<event>
 4    1  0.3094855E-002  0.2519759E+03  0.7818608E-02  0.1112062E+00
         -2   -1    0    0    0  501 -0.00000000000E+00  0.00000000000E+00  0.34041579680E+03  0.34041579680E+03  0.00000000000E+00 0.  1.
          2   -1    0    0  502    0  0.00000000000E+00 -0.00000000000E+00 -0.20615469339E+03  0.20615469339E+03  0.00000000000E+00 0. -1.
          6    1    1    2  502    0  0.60387544541E+02  0.17395750893E+03 -0.17224737137E+02  0.25256397609E+03  0.17200000000E+03 0. -1.
         -6    1    1    2    0  501 -0.60387544541E+02 -0.17395750893E+03  0.15148584055E+03  0.29400651410E+03  0.17200000000E+03 0.  1.
</event>
<event>
 4    1  0.3094855E-002  0.1720686E+03  0.7818608E-02  0.1175708E+00
         -1   -1    0    0    0  501 -0.00000000000E+00  0.00000000000E+00  0.90506331529E+02  0.90506331529E+02  0.00000000000E+00 0.  1.
          1   -1    0    0  502    0  0.00000000000E+00 -0.00000000000E+00 -0.37970016192E+03  0.37970016192E+03  0.00000000000E+00 0. -1.
          6    1    1    2  502    0 -0.47823695859E+01  0.85126287331E+00 -0.23207435224E+03  0.28890500286E+03  0.17200000000E+03 0. -1.
         -6    1    1    2    0  501  0.47823695859E+01 -0.85126287331E+00 -0.57119478152E+02  0.18130149059E+03  0.17200000000E+03 0.  1.
</event>
<event>
 4    1  0.3094855E-002  0.3660181E+03  0.7818608E-02  0.1056226E+00
          2   -1    0    0  502    0  0.00000000000E+00  0.00000000000E+00  0.17342548273E+04  0.17342548273E+04  0.00000000000E+00 0. -1.
         -2   -1    0    0    0  501 -0.00000000000E+00 -0.00000000000E+00 -0.97775483500E+02  0.97775483500E+02  0.00000000000E+00 0.  1.
          6    1    1    2  502    0 -0.32222013808E+03 -0.23652531399E+02  0.12379465810E+04  0.12909225372E+04  0.17200000000E+03 0. -1.
         -6    1    1    2    0  501  0.32222013808E+03  0.23652531399E+02  0.39853276278E+03  0.54110777358E+03  0.17200000000E+03 0.  1.
</event>
<event>
 4    1  0.3094855E-002  0.2464103E+03  0.7818608E-02  0.1115595E+00
          1   -1    0    0  502    0  0.00000000000E+00  0.00000000000E+00  0.40324534082E+03  0.40324534082E+03  0.00000000000E+00 0. -1.
         -1   -1    0    0    0  501 -0.00000000000E+00 -0.00000000000E+00 -0.19432001366E+03  0.19432001366E+03  0.00000000000E+00 0.  1.
          6    1    1    2  502    0 -0.39824371602E+02 -0.17189545430E+03  0.24622759023E+03  0.34834760509E+03  0.17200000000E+03 0. -1.
         -6    1    1    2    0  501  0.39824371602E+02  0.17189545430E+03 -0.37302263059E+02  0.24921774939E+03  0.17200000000E+03 0.  1.
</event>
<event>
 4    1  0.3094855E-002  0.2503817E+03  0.7818608E-02  0.1113064E+00
         -1   -1    0    0    0  501 -0.00000000000E+00  0.00000000000E+00  0.26420638222E+03  0.26420638222E+03  0.00000000000E+00 0.  1.
          1   -1    0    0  502    0  0.00000000000E+00 -0.00000000000E+00 -0.31129787441E+03  0.31129787441E+03  0.00000000000E+00 0. -1.
          6    1    1    2  502    0  0.18808855763E+00  0.18195318552E+03 -0.16385864146E+03  0.29923343977E+03  0.17200000000E+03 0. -1.
         -6    1    1    2    0  501 -0.18808855763E+00 -0.18195318552E+03  0.11676714927E+03  0.27627081686E+03  0.17200000000E+03 0.  1.
</event>
<event>
 4    1  0.3094855E-002  0.1778853E+03  0.7818608E-02  0.1169865E+00
          2   -1    0    0  502    0  0.00000000000E+00  0.00000000000E+00  0.80695082927E+03  0.80695082927E+03  0.00000000000E+00 0. -1.
         -2   -1    0    0    0  501 -0.00000000000E+00 -0.00000000000E+00 -0.42763251533E+02  0.42763251533E+02  0.00000000000E+00 0.  1.
          6    1    1    2  502    0 -0.10843757066E+02 -0.44063626519E+02  0.50450460292E+03  0.53494680541E+03  0.17200000000E+03 0.  1.
         -6    1    1    2    0  501  0.10843757066E+02  0.44063626519E+02  0.25968297482E+03  0.31476727540E+03  0.17200000000E+03 0.  1.
</event>
<event>
 4    1  0.3094855E-002  0.3828637E+03  0.7818608E-02  0.1049880E+00
         -3   -1    0    0    0  501 -0.00000000000E+00  0.00000000000E+00  0.65974755542E+03  0.65974755542E+03  0.00000000000E+00 0.  1.
          3   -1    0    0  502    0  0.00000000000E+00 -0.00000000000E+00 -0.24521274845E+03  0.24521274845E+03  0.00000000000E+00 0. -1.
          6    1    1    2  502    0  0.29291905656E+03 -0.17663249608E+03  0.68600207585E+02  0.38896092458E+03  0.17200000000E+03 0. -1.
         -6    1    1    2    0  501 -0.29291905656E+03  0.17663249608E+03  0.34593459939E+03  0.51599937929E+03  0.17200000000E+03 0.  1.
</event>
<event>
 4    1  0.3094855E-002  0.2087041E+03  0.7818608E-02  0.1142596E+00
          2   -1    0    0  502    0  0.00000000000E+00  0.00000000000E+00  0.30460962868E+03  0.30460962868E+03  0.00000000000E+00 0. -1.
         -2   -1    0    0    0  501 -0.00000000000E+00 -0.00000000000E+00 -0.14693483147E+03  0.14693483147E+03  0.00000000000E+00 0.  1.
          6    1    1    2  502    0 -0.29308294347E+02 -0.11451817790E+03  0.11581126341E+03  0.23868313288E+03  0.17200000000E+03 0.  1.
         -6    1    1    2    0  501  0.29308294347E+02  0.11451817790E+03  0.41863533792E+02  0.21286132727E+03  0.17200000000E+03 0.  1.
</event>
<event>
 4    1  0.3094855E-002  0.3174714E+03  0.7818608E-02  0.1076819E+00
         -1   -1    0    0    0  501 -0.00000000000E+00  0.00000000000E+00  0.66138997990E+03  0.66138997990E+03  0.00000000000E+00 0.  1.
          1   -1    0    0  502    0  0.00000000000E+00 -0.00000000000E+00 -0.19981462532E+03  0.19981462532E+03  0.00000000000E+00 0. -1.
          6    1    1    2  502    0  0.79450475246E+02 -0.25473848952E+03  0.21003572813E+02  0.31816540687E+03  0.17200000000E+03 0. -1.
         -6    1    1    2    0  501 -0.79450475246E+02  0.25473848952E+03  0.44057178176E+03  0.54303919835E+03  0.17200000000E+03 0.  1.
</event>
<event>
 4    1  0.3094855E-002  0.1949102E+03  0.7818608E-02  0.1154106E+00
          2   -1    0    0  502    0  0.00000000000E+00  0.00000000000E+00  0.30122431984E+02  0.30122431984E+02  0.00000000000E+00 0. -1.
         -2   -1    0    0    0  501 -0.00000000000E+00 -0.00000000000E+00 -0.13646193264E+04  0.13646193264E+04  0.00000000000E+00 0.  1.
          6    1    1    2  502    0 -0.15096096749E+02 -0.90432880269E+02 -0.85924246859E+03  0.88107185734E+03  0.17200000000E+03 0.  1.
         -6    1    1    2    0  501  0.15096096749E+02  0.90432880269E+02 -0.47525442584E+03  0.51366990106E+03  0.17200000000E+03 0. -1.
</event>
<event>
 4    1  0.3094855E-002  0.3630344E+03  0.7818608E-02  0.1057389E+00
          1   -1    0    0  502    0  0.00000000000E+00  0.00000000000E+00  0.10809949906E+04  0.10809949906E+04  0.00000000000E+00 0. -1.
         -1   -1    0    0    0  501 -0.00000000000E+00 -0.00000000000E+00 -0.21011456357E+03  0.21011456357E+03  0.00000000000E+00 0.  1.
          6    1    1    2  502    0 -0.30245804702E+03  0.10358133647E+03  0.85368263798E+03  0.92766804939E+03  0.17200000000E+03 0. -1.
         -6    1    1    2    0  501  0.30245804702E+03 -0.10358133647E+03  0.17197789094E+02  0.36344150482E+03  0.17200000000E+03 0.  1.
</event>
<event>
 4    1  0.3094855E-002  0.3146913E+03  0.7818608E-02  0.1078119E+00
          2   -1    0    0  502    0  0.00000000000E+00  0.00000000000E+00  0.24983017205E+04  0.24983017205E+04  0.00000000000E+00 0. -1.
         -2   -1    0    0    0  501 -0.00000000000E+00 -0.00000000000E+00 -0.39788961753E+02  0.39788961753E+02  0.00000000000E+00 0.  1.
          6    1    1    2  502    0  0.85751318397E+02  0.24918529056E+03  0.11513908945E+04  0.11936212086E+04  0.17200000000E+03 0. -1.
         -6    1    1    2    0  501 -0.85751318397E+02 -0.24918529056E+03  0.13071218642E+04  0.13444694737E+04  0.17200000000E+03 0.  1.
</event>
<event>
 4    1  0.3094855E-002  0.1803185E+03  0.7818608E-02  0.1167495E+00
          2   -1    0    0  502    0  0.00000000000E+00  0.00000000000E+00  0.17484937435E+03  0.17484937435E+03  0.00000000000E+00 0. -1.
         -2   -1    0    0    0  501 -0.00000000000E+00 -0.00000000000E+00 -0.22032871426E+03  0.22032871426E+03  0.00000000000E+00 0.  1.
          6    1    1    2  502    0  0.53928824634E+02 -0.47388033743E+01  0.55300235034E+02  0.18860776861E+03  0.17200000000E+03 0. -1.
         -6    1    1    2    0  501 -0.53928824634E+02  0.47388033743E+01 -0.10077957494E+03  0.20657032001E+03  0.17200000000E+03 0.  1.
</event>
<event>
 4    1  0.3094855E-002  0.2012824E+03  0.7818608E-02  0.1148662E+00
          2   -1    0    0  502    0  0.00000000000E+00  0.00000000000E+00  0.16098143041E+04  0.16098143041E+04  0.00000000000E+00 0. -1.
         -2   -1    0    0    0  501 -0.00000000000E+00 -0.00000000000E+00 -0.25354368726E+02  0.25354368726E+02  0.00000000000E+00 0.  1.
          6    1    1    2  502    0 -0.37349188176E+02 -0.97650583362E+02  0.86246686718E+03  0.88564309700E+03  0.17200000000E+03 0. -1.
         -6    1    1    2    0  501  0.37349188176E+02  0.97650583362E+02  0.72199306815E+03  0.74952557578E+03  0.17200000000E+03 0.  1.
</event>
<event>
 4    1  0.3094855E-002  0.2464111E+03  0.7818608E-02  0.1115594E+00
         -1   -1    0    0    0  501 -0.00000000000E+00  0.00000000000E+00  0.48375730425E+03  0.48375730425E+03  0.00000000000E+00 0.  1.
          1   -1    0    0  502    0  0.00000000000E+00 -0.00000000000E+00 -0.16268489922E+03  0.16268489922E+03  0.00000000000E+00 0. -1.
          6    1    1    2  502    0  0.61544667441E+02  0.16536836794E+03  0.60370641062E+01  0.24648506922E+03  0.17200000000E+03 0. -1.
         -6    1    1    2    0  501 -0.61544667441E+02 -0.16536836794E+03  0.31503534092E+03  0.39995713425E+03  0.17200000000E+03 0.  1.
</event>
<event>
 4    1  0.3094855E-002  0.3483063E+03  0.7818608E-02  0.1063312E+00
          1   -1    0    0  502    0  0.00000000000E+00  0.00000000000E+00  0.23151854720E+04  0.23151854720E+04  0.00000000000E+00 0. -1.
         -1   -1    0    0    0  501 -0.00000000000E+00 -0.00000000000E+00 -0.52623081935E+02  0.52623081935E+02  0.00000000000E+00 0.  1.
          6    1    1    2  502    0 -0.11747071749E+03  0.27916647859E+03  0.10543153436E+04  0.11103594625E+04  0.17200000000E+03 0. -1.
         -6    1    1    2    0  501  0.11747071749E+03 -0.27916647859E+03  0.12082470465E+04  0.12574490914E+04  0.17200000000E+03 0.  1.
</event>
<event>
 4    1  0.3094855E-002  0.1777489E+03  0.7818608E-02  0.1170000E+00
         -2   -1    0    0    0  501 -0.00000000000E+00  0.00000000000E+00  0.69988133021E+02  0.69988133021E+02  0.00000000000E+00 0.  1.
          2   -1    0    0  502    0  0.00000000000E+00 -0.00000000000E+00 -0.13634542946E+04  0.13634542946E+04  0.00000000000E+00 0. -1.
          6    1    1    2  502    0  0.29922227304E+02 -0.33396448779E+02 -0.60549777177E+02  0.18777896047E+03  0.17200000000E+03 0.  1.
         -6    1    1    2    0  501 -0.29922227304E+02  0.33396448779E+02 -0.12329163844E+04  0.12456634672E+04  0.17200000000E+03 0. -1.
</event>
<event>
 4    1  0.3094855E-002  0.2655055E+03  0.7818608E-02  0.1103880E+00
          1   -1    0    0  502    0  0.00000000000E+00  0.00000000000E+00  0.33942579476E+03  0.33942579476E+03  0.00000000000E+00 0. -1.
         -1   -1    0    0    0  501 -0.00000000000E+00 -0.00000000000E+00 -0.32651147626E+03  0.32651147626E+03  0.00000000000E+00 0.  1.
          6    1    1    2  502    0  0.19612881640E+03  0.49423208535E+02  0.20732633375E+03  0.33686403018E+03  0.17200000000E+03 0. -1.
         -6    1    1    2    0  501 -0.19612881640E+03 -0.49423208535E+02 -0.19441201525E+03  0.32907324084E+03  0.17200000000E+03 0.  1.
</event>
<event>
 4    1  0.3094855E-002  0.2115505E+03  0.7818608E-02  0.1140344E+00
         -2   -1    0    0    0  501 -0.00000000000E+00  0.00000000000E+00  0.14111896559E+03  0.14111896559E+03  0.00000000000E+00 0.  1.
          2   -1    0    0  502    0  0.00000000000E+00 -0.00000000000E+00 -0.34579889155E+03  0.34579889155E+03  0.00000000000E+00 0. -1.
          6    1    1    2  502    0 -0.11751204778E+03  0.36885432598E+02 -0.17243533675E+03  0.27292409544E+03  0.17200000000E+03 0. -1.
         -6    1    1    2    0  501  0.11751204778E+03 -0.36885432598E+02 -0.32244589215E+02  0.21399376170E+03  0.17200000000E+03 0.  1.
</event>
<event>
 4    1  0.3094855E-002  0.2009900E+03  0.7818608E-02  0.1148906E+00
          1   -1    0    0  502    0  0.00000000000E+00  0.00000000000E+00  0.21659042692E+04  0.21659042692E+04  0.00000000000E+00 0. -1.
         -1   -1    0    0    0  501 -0.00000000000E+00 -0.00000000000E+00 -0.24161840653E+02  0.24161840653E+02  0.00000000000E+00 0.  1.
          6    1    1    2  502    0  0.22459845985E+02 -0.10153087590E+03  0.15938194757E+04  0.16064424934E+04  0.17200000000E+03 0.  1.
         -6    1    1    2    0  501 -0.22459845985E+02  0.10153087590E+03  0.54792295288E+03  0.58362361650E+03  0.17200000000E+03 0. -1.
</event>
<event>
 4    1  0.3094855E-002  0.3095118E+03  0.7818608E-02  0.1080580E+00
          2   -1    0    0  502    0  0.00000000000E+00  0.00000000000E+00  0.12057537317E+04  0.12057537317E+04  0.00000000000E+00 0. -1.
         -2   -1    0    0    0  501 -0.00000000000E+00 -0.00000000000E+00 -0.79796091800E+02  0.79796091800E+02  0.00000000000E+00 0.  1.
          6    1    1    2  502    0  0.25547057775E+03 -0.30795069817E+02  0.60528910159E+03  0.67983266245E+03  0.17200000000E+03 0. -1.
         -6    1    1    2    0  501 -0.25547057775E+03  0.30795069817E+02  0.52066853833E+03  0.60571716108E+03  0.17200000000E+03 0.  1.
</event>
<event>
 4    1  0.3094855E-002  0.1738702E+03  0.7818608E-02  0.1173871E+00
          2   -1    0    0  502    0  0.00000000000E+00  0.00000000000E+00  0.64842653114E+03  0.64842653114E+03  0.00000000000E+00 0. -1.
         -2   -1    0    0    0  501 -0.00000000000E+00 -0.00000000000E+00 -0.47495124732E+02  0.47495124732E+02  0.00000000000E+00 0.  1.
          6    1    1    2  502    0 -0.39140839232E+01  0.25130474500E+02  0.25328384689E+03  0.30721908778E+03  0.17200000000E+03 0.  1.
         -6    1    1    2    0  501  0.39140839232E+01 -0.25130474500E+02  0.34764755952E+03  0.38870256809E+03  0.17200000000E+03 0. -1.
</event>
<event>
 4    1  0.3094855E-002  0.1849016E+03  0.7818608E-02  0.1163142E+00
          3   -1    0    0  502    0  0.00000000000E+00  0.00000000000E+00  0.25450039466E+03  0.25450039466E+03  0.00000000000E+00 0. -1.
         -3   -1    0    0    0  501 -0.00000000000E+00 -0.00000000000E+00 -0.13995077910E+03  0.13995077910E+03  0.00000000000E+00 0.  1.
          6    1    1    2  502    0 -0.61575955563E+02  0.28513416464E+02  0.17771395741E+02  0.18575369641E+03  0.17200000000E+03 0.  1.
         -6    1    1    2    0  501  0.61575955563E+02 -0.28513416464E+02  0.96778219818E+02  0.20869747735E+03  0.17200000000E+03 0. -1.
</event>
<event>
 4    1  0.3094855E-002  0.3954275E+03  0.7818608E-02  0.1045375E+00
         -2   -1    0    0    0  501 -0.00000000000E+00  0.00000000000E+00  0.85570165444E+02  0.85570165444E+02  0.00000000000E+00 0.  1.
          2   -1    0    0  502    0  0.00000000000E+00 -0.00000000000E+00 -0.18302524253E+04  0.18302524253E+04  0.00000000000E+00 0. -1.
          6    1    1    2  502    0  0.30544047547E+03 -0.18298922234E+03 -0.83391174670E+03  0.92291480692E+03  0.17200000000E+03 0. -1.
         -6    1    1    2    0  501 -0.30544047547E+03  0.18298922234E+03 -0.91077051316E+03  0.99290778383E+03  0.17200000000E+03 0.  1.
</event>
<event>
 4    1  0.3094855E-002  0.4371198E+03  0.7818608E-02  0.1031634E+00
          1   -1    0    0  502    0  0.00000000000E+00  0.00000000000E+00  0.94060529713E+03  0.94060529713E+03  0.00000000000E+00 0. -1.
         -1   -1    0    0    0  501 -0.00000000000E+00 -0.00000000000E+00 -0.20330000357E+03  0.20330000357E+03  0.00000000000E+00 0.  1.
          6    1    1    2  502    0 -0.40169866988E+03 -0.11309272913E+02  0.38474292050E+03  0.58232365220E+03  0.17200000000E+03 0. -1.
         -6    1    1    2    0  501  0.40169866988E+03  0.11309272913E+02  0.35256237306E+03  0.56158164850E+03  0.17200000000E+03 0.  1.
</event>
<event>
 4    1  0.3094855E-002  0.3599709E+03  0.7818608E-02  0.1058595E+00
          1   -1    0    0  502    0  0.00000000000E+00  0.00000000000E+00  0.15424066997E+04  0.15424066997E+04  0.00000000000E+00 0. -1.
         -1   -1    0    0    0  501 -0.00000000000E+00 -0.00000000000E+00 -0.12779569318E+03  0.12779569318E+03  0.00000000000E+00 0.  1.
          6    1    1    2  502    0 -0.29197609821E+03 -0.12142912193E+03  0.11961180348E+04  0.12491106543E+04  0.17200000000E+03 0. -1.
         -6    1    1    2    0  501  0.29197609821E+03  0.12142912193E+03  0.21849297171E+03  0.42109173854E+03  0.17200000000E+03 0.  1.
</event>
<event>
 4    1  0.3094855E-002  0.3876660E+03  0.7818608E-02  0.1048136E+00
         -1   -1    0    0    0  501 -0.00000000000E+00  0.00000000000E+00  0.98685639371E+03  0.98685639371E+03  0.00000000000E+00 0.  1.
          1   -1    0    0  502    0  0.00000000000E+00 -0.00000000000E+00 -0.15351170742E+03  0.15351170742E+03  0.00000000000E+00 0. -1.
          6    1    1    2  502    0  0.31798790541E+03 -0.13994515515E+03  0.36573451075E+03  0.53296030508E+03  0.17200000000E+03 0. -1.
         -6    1    1    2    0  501 -0.31798790541E+03  0.13994515515E+03  0.46761017554E+03  0.60740779605E+03  0.17200000000E+03 0.  1.
</event>
<event>
 4    1  0.3094855E-002  0.2510094E+03  0.7818608E-02  0.1112669E+00
         -2   -1    0    0    0  501 -0.00000000000E+00  0.00000000000E+00  0.29129292070E+02  0.29129292070E+02  0.00000000000E+00 0.  1.
          2   -1    0    0  502    0  0.00000000000E+00 -0.00000000000E+00 -0.21668636702E+04  0.21668636702E+04  0.00000000000E+00 0. -1.
          6    1    1    2  502    0  0.17332500031E+03  0.58139249105E+02 -0.11154229629E+04  0.11433171538E+04  0.17200000000E+03 0. -1.
         -6    1    1    2    0  501 -0.17332500031E+03 -0.58139249105E+02 -0.10223114153E+04  0.10526758085E+04  0.17200000000E+03 0.  1.
</event>
<event>
 4    1  0.3094855E-002  0.2714752E+03  0.7818608E-02  0.1100438E+00
          2   -1    0    0  502    0  0.00000000000E+00  0.00000000000E+00  0.37866066888E+03  0.37866066888E+03  0.00000000000E+00 0. -1.
         -2   -1    0    0    0  501 -0.00000000000E+00 -0.00000000000E+00 -0.20087294747E+03  0.20087294747E+03  0.00000000000E+00 0.  1.
          6    1    1    2  502    0  0.11558916198E+03  0.17536804234E+03  0.13997675849E+03  0.30543787840E+03  0.17200000000E+03 0. -1.
         -6    1    1    2    0  501 -0.11558916198E+03 -0.17536804234E+03  0.37810962925E+02  0.27409573795E+03  0.17200000000E+03 0.  1.
</event>
<event>
 4    1  0.3094855E-002  0.2166016E+03  0.7818608E-02  0.1136442E+00
          2   -1    0    0  502    0  0.00000000000E+00  0.00000000000E+00  0.13028580691E+04  0.13028580691E+04  0.00000000000E+00 0. -1.
         -2   -1    0    0    0  501 -0.00000000000E+00 -0.00000000000E+00 -0.51221898294E+02  0.51221898294E+02  0.00000000000E+00 0.  1.
          6    1    1    2  502    0 -0.60182676493E+02 -0.11709106678E+03  0.99477386439E+03  0.10180821744E+04  0.17200000000E+03 0. -1.
         -6    1    1    2    0  501  0.60182676493E+02  0.11709106678E+03  0.25686230643E+03  0.33599779305E+03  0.17200000000E+03 0.  1.
</event>
<event>
 4    1  0.3094855E-002  0.1772725E+03  0.7818608E-02  0.1170469E+00
          2   -1    0    0  502    0  0.00000000000E+00  0.00000000000E+00  0.18434637612E+04  0.18434637612E+04  0.00000000000E+00 0. -1.
         -2   -1    0    0    0  501 -0.00000000000E+00 -0.00000000000E+00 -0.17072102710E+02  0.17072102710E+02  0.00000000000E+00 0.  1.
          6    1    1    2  502    0  0.42344892408E+02 -0.69599683686E+01  0.87752571495E+03  0.89525242891E+03  0.17200000000E+03 0.  1.
         -6    1    1    2    0  501 -0.42344892408E+02  0.69599683686E+01  0.94886594356E+03  0.96528343502E+03  0.17200000000E+03 0.  1.
</event>
<event>
 4    1  0.3094855E-002  0.1875481E+03  0.7818608E-02  0.1160692E+00
         -3   -1    0    0    0  501 -0.00000000000E+00  0.00000000000E+00  0.34690440484E+02  0.34690440484E+02  0.00000000000E+00 0.  1.
          3   -1    0    0  502    0  0.00000000000E+00 -0.00000000000E+00 -0.10565820577E+04  0.10565820577E+04  0.00000000000E+00 0. -1.
          6    1    1    2  502    0 -0.48529147493E+02 -0.56878841101E+02 -0.40134010173E+03  0.44299904963E+03  0.17200000000E+03 0. -1.
         -6    1    1    2    0  501  0.48529147493E+02  0.56878841101E+02 -0.62055151552E+03  0.64827344858E+03  0.17200000000E+03 0.  1.
</event>
<event>
 4    1  0.3094855E-002  0.1729754E+03  0.7818608E-02  0.1174780E+00
          1   -1    0    0  502    0  0.00000000000E+00  0.00000000000E+00  0.16781774824E+04  0.16781774824E+04  0.00000000000E+00 0. -1.
         -1   -1    0    0    0  501 -0.00000000000E+00 -0.00000000000E+00 -0.31059170691E+02  0.31059170691E+02  0.00000000000E+00 0.  1.
          6    1    1    2  502    0 -0.14183747806E+02  0.11632843427E+02  0.13813319199E+04  0.13921201007E+04  0.17200000000E+03 0. -1.
         -6    1    1    2    0  501  0.14183747806E+02 -0.11632843427E+02  0.26578639178E+03  0.31711655240E+03  0.17200000000E+03 0.  1.
</event>
<event>
 4    1  0.3094855E-002  0.2209710E+03  0.7818608E-02  0.1133161E+00
         -2   -1    0    0    0  501 -0.00000000000E+00  0.00000000000E+00  0.59706199993E+02  0.59706199993E+02  0.00000000000E+00 0.  1.
          2   -1    0    0  502    0  0.00000000000E+00 -0.00000000000E+00 -0.11320230262E+04  0.11320230262E+04  0.00000000000E+00 0. -1.
          6    1    1    2  502    0  0.48965730728E+02  0.12979424123E+03 -0.85008902924E+03  0.87833908342E+03  0.17200000000E+03 0. -1.
         -6    1    1    2    0  501 -0.48965730728E+02 -0.12979424123E+03 -0.22222779699E+03  0.31339014279E+03  0.17200000000E+03 0.  1.
</event>
<event>
 4    1  0.3094855E-002  0.1955573E+03  0.7818608E-02  0.1153542E+00
         -2   -1    0    0    0  501 -0.00000000000E+00  0.00000000000E+00  0.10144816257E+03  0.10144816257E+03  0.00000000000E+00 0.  1.
          2   -1    0    0  502    0  0.00000000000E+00 -0.00000000000E+00 -0.37968643969E+03  0.37968643969E+03  0.00000000000E+00 0. -1.
          6    1    1    2  502    0 -0.33803336467E+02  0.86694762116E+02 -0.15947708589E+03  0.25234022323E+03  0.17200000000E+03 0. -1.
         -6    1    1    2    0  501  0.33803336467E+02 -0.86694762116E+02 -0.11876119123E+03  0.22879437903E+03  0.17200000000E+03 0.  1.
</event>
<event>
 4    1  0.3094855E-002  0.2458549E+03  0.7818608E-02  0.1115953E+00
          2   -1    0    0  502    0  0.00000000000E+00  0.00000000000E+00  0.54675931048E+03  0.54675931048E+03  0.00000000000E+00 0. -1.
         -2   -1    0    0    0  501 -0.00000000000E+00 -0.00000000000E+00 -0.20559947677E+03  0.20559947677E+03  0.00000000000E+00 0.  1.
          6    1    1    2  502    0 -0.26443218610E+02 -0.17367028338E+03  0.42635446223E+03  0.49216129328E+03  0.17200000000E+03 0. -1.
         -6    1    1    2    0  501  0.26443218610E+02  0.17367028338E+03 -0.85194628525E+02  0.26019749397E+03  0.17200000000E+03 0.  1.
</event>
<event>
 4    1  0.3094855E-002  0.4185041E+03  0.7818608E-02  0.1037554E+00
          2   -1    0    0  502    0  0.00000000000E+00  0.00000000000E+00  0.24473232133E+04  0.24473232133E+04  0.00000000000E+00 0. -1.
         -2   -1    0    0    0  501 -0.00000000000E+00 -0.00000000000E+00 -0.24219045284E+03  0.24219045284E+03  0.00000000000E+00 0.  1.
          6    1    1    2  502    0 -0.16209297001E+03  0.34538024966E+03  0.22312848152E+04  0.22701932901E+04  0.17200000000E+03 0. -1.
         -6    1    1    2    0  501  0.16209297001E+03 -0.34538024966E+03 -0.26152054767E+02  0.41932037603E+03  0.17200000000E+03 0.  1.
</event>
<event>
 4    1  0.3094855E-002  0.2661809E+03  0.7818608E-02  0.1103485E+00
         -2   -1    0    0    0  501 -0.00000000000E+00  0.00000000000E+00  0.31988926592E+03  0.31988926592E+03  0.00000000000E+00 0.  1.
          2   -1    0    0  502    0  0.00000000000E+00 -0.00000000000E+00 -0.25784554523E+03  0.25784554523E+03  0.00000000000E+00 0. -1.
          6    1    1    2  502    0  0.11061822472E+03  0.17038744341E+03 -0.77446749531E+02  0.27721881524E+03  0.17200000000E+03 0. -1.
         -6    1    1    2    0  501 -0.11061822472E+03 -0.17038744341E+03  0.13949047021E+03  0.30051599590E+03  0.17200000000E+03 0.  1.
</event>
<event>
 4    1  0.3094855E-002  0.2115311E+03  0.7818608E-02  0.1140359E+00
          2   -1    0    0  502    0  0.00000000000E+00  0.00000000000E+00  0.38105025878E+03  0.38105025878E+03  0.00000000000E+00 0. -1.
         -2   -1    0    0    0  501 -0.00000000000E+00 -0.00000000000E+00 -0.12912440749E+03  0.12912440749E+03  0.00000000000E+00 0.  1.
          6    1    1    2  502    0 -0.12022136909E+03  0.26612377641E+02  0.20274129963E+03  0.29300073517E+03  0.17200000000E+03 0. -1.
         -6    1    1    2    0  501  0.12022136909E+03 -0.26612377641E+02  0.49184551653E+02  0.21717393110E+03  0.17200000000E+03 0.  1.
</event>
<event>
 4    1  0.3094855E-002  0.2337386E+03  0.7818608E-02  0.1124036E+00
         -1   -1    0    0    0  501 -0.00000000000E+00  0.00000000000E+00  0.12959914137E+03  0.12959914137E+03  0.00000000000E+00 0.  1.
          1   -1    0    0  502    0  0.00000000000E+00 -0.00000000000E+00 -0.43065047084E+03  0.43065047084E+03  0.00000000000E+00 0. -1.
          6    1    1    2  502    0  0.15576160978E+03 -0.28072600308E+02 -0.10982569344E+03  0.25825458933E+03  0.17200000000E+03 0. -1.
         -6    1    1    2    0  501 -0.15576160978E+03  0.28072600308E+02 -0.19122563602E+03  0.30199502288E+03  0.17200000000E+03 0.  1.
</event>
<event>
 4    1  0.3094855E-002  0.2277823E+03  0.7818608E-02  0.1128210E+00
          2   -1    0    0  502    0  0.00000000000E+00  0.00000000000E+00  0.22494619541E+03  0.22494619541E+03  0.00000000000E+00 0. -1.
         -2   -1    0    0    0  501 -0.00000000000E+00 -0.00000000000E+00 -0.27659172470E+03  0.27659172470E+03  0.00000000000E+00 0.  1.
          6    1    1    2  502    0  0.11561739352E+03 -0.94516616752E+02  0.76374257052E+02  0.24024529063E+03  0.17200000000E+03 0. -1.
         -6    1    1    2    0  501 -0.11561739352E+03  0.94516616752E+02 -0.12801978635E+03  0.26129262949E+03  0.17200000000E+03 0.  1.
</event>
<event>
 4    1  0.3094855E-002  0.2663045E+03  0.7818608E-02  0.1103413E+00
         -2   -1    0    0    0  501 -0.00000000000E+00  0.00000000000E+00  0.19330910604E+03  0.19330910604E+03  0.00000000000E+00 0.  1.
          2   -1    0    0  502    0  0.00000000000E+00 -0.00000000000E+00 -0.43246117503E+03  0.43246117503E+03  0.00000000000E+00 0. -1.
          6    1    1    2  502    0  0.15466060541E+03 -0.13196282743E+03  0.22822310686E+01  0.26631428664E+03  0.17200000000E+03 0. -1.
         -6    1    1    2    0  501 -0.15466060541E+03  0.13196282743E+03 -0.24143430005E+03  0.35945599443E+03  0.17200000000E+03 0. -1.
</event>
<event>
 4    1  0.3094855E-002  0.4601561E+03  0.7818608E-02  0.1024736E+00
         -1   -1    0    0    0  501 -0.00000000000E+00  0.00000000000E+00  0.24878169583E+03  0.24878169583E+03  0.00000000000E+00 0.  1.
          1   -1    0    0  502    0  0.00000000000E+00 -0.00000000000E+00 -0.97091623399E+03  0.97091623399E+03  0.00000000000E+00 0. -1.
          6    1    1    2  502    0  0.16346812421E+03 -0.39425598729E+03 -0.57528188534E+03  0.73667690255E+03  0.17200000000E+03 0. -1.
         -6    1    1    2    0  501 -0.16346812421E+03  0.39425598729E+03 -0.14685265282E+03  0.48302102727E+03  0.17200000000E+03 0.  1.
</event>
<event>
 4    1  0.3094855E-002  0.1801938E+03  0.7818608E-02  0.1167616E+00
          2   -1    0    0  502    0  0.00000000000E+00  0.00000000000E+00  0.11619029831E+04  0.11619029831E+04  0.00000000000E+00 0. -1.
         -2   -1    0    0    0  501 -0.00000000000E+00 -0.00000000000E+00 -0.28048115409E+02  0.28048115409E+02  0.00000000000E+00 0.  1.
          6    1    1    2  502    0  0.79678621668E+00  0.53713775629E+02  0.60293851312E+03  0.62928900766E+03  0.17200000000E+03 0. -1.
         -6    1    1    2    0  501 -0.79678621668E+00 -0.53713775629E+02  0.53091635454E+03  0.56066209082E+03  0.17200000000E+03 0. -1.
</event>
<event>
 4    1  0.3094855E-002  0.2535695E+03  0.7818608E-02  0.1111070E+00
         -4   -1    0    0    0  501 -0.00000000000E+00  0.00000000000E+00  0.60157086925E+03  0.60157086925E+03  0.00000000000E+00 0.  1.
          4   -1    0    0  502    0  0.00000000000E+00 -0.00000000000E+00 -0.10954526457E+03  0.10954526457E+03  0.00000000000E+00 0. -1.
          6    1    1    2  502    0 -0.16366270355E+03 -0.89039392014E+02  0.19057995583E+03  0.31720374119E+03  0.17200000000E+03 0. -1.
         -6    1    1    2    0  501  0.16366270355E+03  0.89039392014E+02  0.30144564885E+03  0.39391239263E+03  0.17200000000E+03 0.  1.
</event>
<event>
 4    1  0.3094855E-002  0.1938589E+03  0.7818608E-02  0.1155026E+00
          1   -1    0    0  502    0  0.00000000000E+00  0.00000000000E+00  0.16144639871E+04  0.16144639871E+04  0.00000000000E+00 0. -1.
         -1   -1    0    0    0  501 -0.00000000000E+00 -0.00000000000E+00 -0.25171155306E+02  0.25171155306E+02  0.00000000000E+00 0.  1.
          6    1    1    2  502    0  0.39610816790E+02  0.80176504799E+02  0.10194862517E+04  0.10377540682E+04  0.17200000000E+03 0.  1.
         -6    1    1    2    0  501 -0.39610816790E+02 -0.80176504799E+02  0.56980658009E+03  0.60188107417E+03  0.17200000000E+03 0. -1.
</event>
<event>
 4    1  0.3094855E-002  0.3824809E+03  0.7818608E-02  0.1050021E+00
          2   -1    0    0  502    0  0.00000000000E+00  0.00000000000E+00  0.14424743901E+04  0.14424743901E+04  0.00000000000E+00 0. -1.
         -2   -1    0    0    0  501 -0.00000000000E+00 -0.00000000000E+00 -0.10837455369E+03  0.10837455369E+03  0.00000000000E+00 0.  1.
          6    1    1    2  502    0 -0.15908707411E+03 -0.30232260106E+03  0.86352126076E+03  0.94443666810E+03  0.17200000000E+03 0. -1.
         -6    1    1    2    0  501  0.15908707411E+03  0.30232260106E+03  0.47057857566E+03  0.60641227571E+03  0.17200000000E+03 0.  1.
</event>
<event>
 4    1  0.3094855E-002  0.2233522E+03  0.7818608E-02  0.1131408E+00
         -1   -1    0    0    0  501 -0.00000000000E+00  0.00000000000E+00  0.15231704806E+03  0.15231704806E+03  0.00000000000E+00 0.  1.
          1   -1    0    0  502    0  0.00000000000E+00 -0.00000000000E+00 -0.65098993959E+03  0.65098993959E+03  0.00000000000E+00 0. -1.
          6    1    1    2  502    0 -0.44722888932E+02 -0.13528507284E+03 -0.53246549036E+03  0.57741292517E+03  0.17200000000E+03 0. -1.
         -6    1    1    2    0  501  0.44722888932E+02  0.13528507284E+03  0.33792598837E+02  0.22589406248E+03  0.17200000000E+03 0.  1.
</event>
<event>
 4    1  0.3094855E-002  0.2507490E+03  0.7818608E-02  0.1112832E+00
         -2   -1    0    0    0  501 -0.00000000000E+00  0.00000000000E+00  0.52229552417E+02  0.52229552417E+02  0.00000000000E+00 0.  1.
          2   -1    0    0  502    0  0.00000000000E+00 -0.00000000000E+00 -0.16344147222E+04  0.16344147222E+04  0.00000000000E+00 0. -1.
          6    1    1    2  502    0  0.18065710808E+03 -0.25575172257E+02 -0.12239508857E+04  0.12493721827E+04  0.17200000000E+03 0. -1.
         -6    1    1    2    0  501 -0.18065710808E+03  0.25575172257E+02 -0.35823428409E+03  0.43727209199E+03  0.17200000000E+03 0.  1.
</event>
<event>
 4    1  0.3094855E-002  0.1932662E+03  0.7818608E-02  0.1155548E+00
         -4   -1    0    0    0  501 -0.00000000000E+00  0.00000000000E+00  0.19302664023E+03  0.19302664023E+03  0.00000000000E+00 0.  1.
          4   -1    0    0  502    0  0.00000000000E+00 -0.00000000000E+00 -0.23328344105E+03  0.23328344105E+03  0.00000000000E+00 0. -1.
          6    1    1    2  502    0 -0.46071152678E+02 -0.75134957841E+02 -0.10814651725E+03  0.22146666158E+03  0.17200000000E+03 0. -1.
         -6    1    1    2    0  501  0.46071152678E+02  0.75134957841E+02  0.67889716433E+02  0.20484341970E+03  0.17200000000E+03 0.  1.
</event>
<event>
 4    1  0.3094855E-002  0.2047543E+03  0.7818608E-02  0.1145789E+00
         -2   -1    0    0    0  501 -0.00000000000E+00  0.00000000000E+00  0.15364675027E+03  0.15364675027E+03  0.00000000000E+00 0.  1.
          2   -1    0    0  502    0  0.00000000000E+00 -0.00000000000E+00 -0.37335968799E+03  0.37335968799E+03  0.00000000000E+00 0. -1.
          6    1    1    2  502    0  0.88533306436E+02 -0.67098262123E+02 -0.24656661910E+03  0.32049870637E+03  0.17200000000E+03 0. -1.
         -6    1    1    2    0  501 -0.88533306436E+02  0.67098262123E+02  0.26853681377E+02  0.20650773189E+03  0.17200000000E+03 0.  1.
</event>
<event>
 4    1  0.3094855E-002  0.1906064E+03  0.7818608E-02  0.1157916E+00
          1   -1    0    0  502    0  0.00000000000E+00  0.00000000000E+00  0.11347228978E+04  0.11347228978E+04  0.00000000000E+00 0. -1.
         -1   -1    0    0    0  501 -0.00000000000E+00 -0.00000000000E+00 -0.62118247296E+02  0.62118247296E+02  0.00000000000E+00 0.  1.
          6    1    1    2  502    0 -0.73425094296E+00 -0.82135608845E+02  0.95287116879E+03  0.97174804433E+03  0.17200000000E+03 0. -1.
         -6    1    1    2    0  501  0.73425094296E+00  0.82135608845E+02  0.11973348171E+03  0.22509310075E+03  0.17200000000E+03 0.  1.
</event>
<event>
 4    1  0.3094855E-002  0.2549339E+03  0.7818608E-02  0.1110226E+00
         -2   -1    0    0    0  501 -0.00000000000E+00  0.00000000000E+00  0.74376979395E+03  0.74376979395E+03  0.00000000000E+00 0.  1.
          2   -1    0    0  502    0  0.00000000000E+00 -0.00000000000E+00 -0.10250952306E+03  0.10250952306E+03  0.00000000000E+00 0. -1.
          6    1    1    2  502    0 -0.14207654112E+03  0.12337558374E+03  0.15807479399E+03  0.29996486243E+03  0.17200000000E+03 0. -1.
         -6    1    1    2    0  501  0.14207654112E+03 -0.12337558374E+03  0.48318547690E+03  0.54631445458E+03  0.17200000000E+03 0.  1.
</event>
<event>
 4    1  0.3094855E-002  0.2108276E+03  0.7818608E-02  0.1140912E+00
         -2   -1    0    0    0  501 -0.00000000000E+00  0.00000000000E+00  0.21887764788E+02  0.21887764788E+02  0.00000000000E+00 0.  1.
          2   -1    0    0  502    0  0.00000000000E+00 -0.00000000000E+00 -0.32103531269E+04  0.32103531269E+04  0.00000000000E+00 0. -1.
          6    1    1    2  502    0  0.10966982869E+03  0.53261854662E+02 -0.25738752530E+04  0.25824953271E+04  0.17200000000E+03 0. -1.
         -6    1    1    2    0  501 -0.10966982869E+03 -0.53261854662E+02 -0.61459010914E+03  0.64974556462E+03  0.17200000000E+03 0.  1.
</event>
<event>
 4    1  0.3094855E-002  0.1985226E+03  0.7818608E-02  0.1150992E+00
          2   -1    0    0  502    0  0.00000000000E+00  0.00000000000E+00  0.46741290804E+04  0.46741290804E+04  0.00000000000E+00 0. -1.
         -2   -1    0    0    0  501 -0.00000000000E+00 -0.00000000000E+00 -0.16449563586E+02  0.16449563586E+02  0.00000000000E+00 0.  1.
          6    1    1    2  502    0 -0.60245516744E+02  0.78725461066E+02  0.39662083103E+04  0.39711735773E+04  0.17200000000E+03 0. -1.
         -6    1    1    2    0  501  0.60245516744E+02 -0.78725461066E+02  0.69147120652E+03  0.71940506667E+03  0.17200000000E+03 0.  1.
</event>
<event>
 4    1  0.3094855E-002  0.2862620E+03  0.7818608E-02  0.1092317E+00
          2   -1    0    0  502    0  0.00000000000E+00  0.00000000000E+00  0.16875905367E+04  0.16875905367E+04  0.00000000000E+00 0. -1.
         -2   -1    0    0    0  501 -0.00000000000E+00 -0.00000000000E+00 -0.48560912580E+02  0.48560912580E+02  0.00000000000E+00 0.  1.
          6    1    1    2  502    0 -0.21066538328E+03  0.89342346476E+02  0.81274922557E+03  0.86168861096E+03  0.17200000000E+03 0. -1.
         -6    1    1    2    0  501  0.21066538328E+03 -0.89342346476E+02  0.82628039856E+03  0.87446283834E+03  0.17200000000E+03 0.  1.
</event>
<event>
 4    1  0.3094855E-002  0.1783028E+03  0.7818608E-02  0.1169456E+00
         -1   -1    0    0    0  501 -0.00000000000E+00  0.00000000000E+00  0.58327527041E+02  0.58327527041E+02  0.00000000000E+00 0.  1.
          1   -1    0    0  502    0  0.00000000000E+00 -0.00000000000E+00 -0.72950481611E+03  0.72950481611E+03  0.00000000000E+00 0. -1.
          6    1    1    2  502    0  0.34159504809E+02  0.32264567015E+02 -0.53366176148E+03  0.56266042132E+03  0.17200000000E+03 0. -1.
         -6    1    1    2    0  501 -0.34159504809E+02 -0.32264567015E+02 -0.13751552759E+03  0.22517192183E+03  0.17200000000E+03 0.  1.
</event>
<event>
 4    1  0.3094855E-002  0.2389601E+03  0.7818608E-02  0.1120488E+00
         -2   -1    0    0    0  501 -0.00000000000E+00  0.00000000000E+00  0.47271065653E+02  0.47271065653E+02  0.00000000000E+00 0.  1.
          2   -1    0    0  502    0  0.00000000000E+00 -0.00000000000E+00 -0.12808460378E+04  0.12808460378E+04  0.00000000000E+00 0. -1.
          6    1    1    2  502    0  0.16385239947E+03  0.25890721089E+02 -0.77518779233E+03  0.81118311844E+03  0.17200000000E+03 0.  1.
         -6    1    1    2    0  501 -0.16385239947E+03 -0.25890721089E+02 -0.45838717983E+03  0.51693398504E+03  0.17200000000E+03 0.  1.
</event>
<event>
 4    1  0.3094855E-002  0.3103807E+03  0.7818608E-02  0.1080164E+00
          2   -1    0    0  502    0  0.00000000000E+00  0.00000000000E+00  0.32897266159E+03  0.32897266159E+03  0.00000000000E+00 0. -1.
         -2   -1    0    0    0  501 -0.00000000000E+00 -0.00000000000E+00 -0.57911263733E+03  0.57911263733E+03  0.00000000000E+00 0.  1.
          6    1    1    2  502    0  0.18735795258E+03  0.17790206848E+03  0.19416135318E+03  0.36610760635E+03  0.17200000000E+03 0. -1.
         -6    1    1    2    0  501 -0.18735795258E+03 -0.17790206848E+03 -0.44430132891E+03  0.54197769256E+03  0.17200000000E+03 0.  1.
</event>
<event>
 4    1  0.3094855E-002  0.2014971E+03  0.7818608E-02  0.1148482E+00
          2   -1    0    0  502    0  0.00000000000E+00  0.00000000000E+00  0.79691406364E+03  0.79691406364E+03  0.00000000000E+00 0. -1.
         -2   -1    0    0    0  501 -0.00000000000E+00 -0.00000000000E+00 -0.80154928943E+02  0.80154928943E+02  0.00000000000E+00 0.  1.
          6    1    1    2  502    0 -0.50878056146E+02 -0.91806991693E+02  0.62309686100E+03  0.65486700826E+03  0.17200000000E+03 0. -1.
         -6    1    1    2    0  501  0.50878056146E+02  0.91806991693E+02  0.93662273690E+02  0.22220198432E+03  0.17200000000E+03 0.  1.
</event>
<event>
 4    1  0.3094855E-002  0.1840835E+03  0.7818608E-02  0.1163909E+00
         -1   -1    0    0    0  501 -0.00000000000E+00  0.00000000000E+00  0.57015238413E+03  0.57015238413E+03  0.00000000000E+00 0.  1.
          1   -1    0    0  502    0  0.00000000000E+00 -0.00000000000E+00 -0.65677202876E+02  0.65677202876E+02  0.00000000000E+00 0. -1.
          6    1    1    2  502    0 -0.65595263822E+02 -0.38260263969E-01  0.15422347317E+03  0.24014916151E+03  0.17200000000E+03 0. -1.
         -6    1    1    2    0  501  0.65595263822E+02  0.38260263969E-01  0.35025170809E+03  0.39568042550E+03  0.17200000000E+03 0.  1.
</event>
<event>
 4    1  0.3094855E-002  0.2011693E+03  0.7818608E-02  0.1148756E+00
         -2   -1    0    0    0  501 -0.00000000000E+00  0.00000000000E+00  0.29054669367E+03  0.29054669367E+03  0.00000000000E+00 0.  1.
          2   -1    0    0  502    0  0.00000000000E+00 -0.00000000000E+00 -0.75598443898E+03  0.75598443898E+03  0.00000000000E+00 0. -1.
          6    1    1    2  502    0 -0.10155041469E+03  0.23928929758E+02 -0.70532806117E+03  0.73345535261E+03  0.17200000000E+03 0. -1.
         -6    1    1    2    0  501  0.10155041469E+03 -0.23928929758E+02  0.23989031586E+03  0.31307578004E+03  0.17200000000E+03 0.  1.
</event>
<event>
 4    1  0.3094855E-002  0.1757852E+03  0.7818608E-02  0.1171946E+00
          2   -1    0    0  502    0  0.00000000000E+00  0.00000000000E+00  0.11297386826E+04  0.11297386826E+04  0.00000000000E+00 0. -1.
         -2   -1    0    0    0  501 -0.00000000000E+00 -0.00000000000E+00 -0.42355185254E+02  0.42355185254E+02  0.00000000000E+00 0.  1.
          6    1    1    2  502    0  0.36129540779E+02 -0.33289574195E+01  0.89248914476E+03  0.90963580579E+03  0.17200000000E+03 0. -1.
         -6    1    1    2    0  501 -0.36129540779E+02  0.33289574195E+01  0.19489435263E+03  0.26245806210E+03  0.17200000000E+03 0.  1.
</event>
<event>
 4    1  0.3094855E-002  0.1731655E+03  0.7818608E-02  0.1174586E+00
          1   -1    0    0  502    0  0.00000000000E+00  0.00000000000E+00  0.56956317714E+03  0.56956317714E+03  0.00000000000E+00 0. -1.
         -1   -1    0    0    0  501 -0.00000000000E+00 -0.00000000000E+00 -0.10162341046E+03  0.10162341046E+03  0.00000000000E+00 0.  1.
          6    1    1    2  502    0  0.20056591926E+02 -0.15334671602E+00  0.99666901493E+00  0.17316836820E+03  0.17200000000E+03 0.  1.
         -6    1    1    2    0  501 -0.20056591926E+02  0.15334671602E+00  0.46694309767E+03  0.49801821940E+03  0.17200000000E+03 0. -1.
</event>
<event>
 4    1  0.3094855E-002  0.2370205E+03  0.7818608E-02  0.1121794E+00
          2   -1    0    0  502    0  0.00000000000E+00  0.00000000000E+00  0.18501074160E+04  0.18501074160E+04  0.00000000000E+00 0. -1.
         -2   -1    0    0    0  501 -0.00000000000E+00 -0.00000000000E+00 -0.35359816290E+02  0.35359816290E+02  0.00000000000E+00 0.  1.
          6    1    1    2  502    0  0.16240626572E+03 -0.14796676228E+02  0.12616879231E+04  0.12837582140E+04  0.17200000000E+03 0. -1.
         -6    1    1    2    0  501 -0.16240626572E+03  0.14796676228E+02  0.55305967663E+03  0.60170901828E+03  0.17200000000E+03 0.  1.
</event>
<event>
 4    1  0.3094855E-002  0.2486933E+03  0.7818608E-02  0.1114133E+00
          1   -1    0    0  502    0  0.00000000000E+00  0.00000000000E+00  0.59922832729E+03  0.59922832729E+03  0.00000000000E+00 0. -1.
         -1   -1    0    0    0  501 -0.00000000000E+00 -0.00000000000E+00 -0.11503835052E+03  0.11503835052E+03  0.00000000000E+00 0.  1.
          6    1    1    2  502    0 -0.13955975143E+03  0.11308147177E+03  0.35659624579E+03  0.43475191315E+03  0.17200000000E+03 0. -1.
         -6    1    1    2    0  501  0.13955975143E+03 -0.11308147177E+03  0.12759373098E+03  0.27951476466E+03  0.17200000000E+03 0.  1.
</event>
<event>
 4    1  0.3094855E-002  0.9522929E+03  0.7818608E-02  0.9362475E-01
          2   -1    0    0  502    0  0.00000000000E+00  0.00000000000E+00  0.13612356932E+04  0.13612356932E+04  0.00000000000E+00 0. -1.
         -2   -1    0    0    0  501 -0.00000000000E+00 -0.00000000000E+00 -0.68080961209E+03  0.68080961209E+03  0.00000000000E+00 0.  1.
          6    1    1    2  502    0 -0.37358526875E+03 -0.85890149765E+03  0.48975763210E+03  0.10708521251E+04  0.17200000000E+03 0. -1.
         -6    1    1    2    0  501  0.37358526875E+03  0.85890149765E+03  0.19066844897E+03  0.97119318013E+03  0.17200000000E+03 0.  1.
</event>
<event>
 4    1  0.3094855E-002  0.2611872E+03  0.7818608E-02  0.1106432E+00
         -2   -1    0    0    0  501 -0.00000000000E+00  0.00000000000E+00  0.11614282544E+03  0.11614282544E+03  0.00000000000E+00 0.  1.
          2   -1    0    0  502    0  0.00000000000E+00 -0.00000000000E+00 -0.66932434586E+03  0.66932434586E+03  0.00000000000E+00 0. -1.
          6    1    1    2  502    0 -0.16342964661E+03 -0.10920398995E+03 -0.13916540150E+03  0.29594893105E+03  0.17200000000E+03 0. -1.
         -6    1    1    2    0  501  0.16342964661E+03  0.10920398995E+03 -0.41401611892E+03  0.48951824025E+03  0.17200000000E+03 0. -1.
</event>
<event>
 4    1  0.3094855E-002  0.3650158E+03  0.7818608E-02  0.1056615E+00
         -2   -1    0    0    0  501 -0.00000000000E+00  0.00000000000E+00  0.35623588797E+03  0.35623588797E+03  0.00000000000E+00 0.  1.
          2   -1    0    0  502    0  0.00000000000E+00 -0.00000000000E+00 -0.37430848950E+03  0.37430848950E+03  0.00000000000E+00 0. -1.
          6    1    1    2  502    0 -0.30561588668E+03  0.10124954326E+03 -0.19314509870E+02  0.36552645662E+03  0.17200000000E+03 0. -1.
         -6    1    1    2    0  501  0.30561588668E+03 -0.10124954326E+03  0.12419083355E+01  0.36501792084E+03  0.17200000000E+03 0.  1.
</event>
<event>
 4    1  0.3094855E-002  0.2808309E+03  0.7818608E-02  0.1095236E+00
          1   -1    0    0  502    0  0.00000000000E+00  0.00000000000E+00  0.52472863099E+03  0.52472863099E+03  0.00000000000E+00 0. -1.
         -1   -1    0    0    0  501 -0.00000000000E+00 -0.00000000000E+00 -0.17242670827E+03  0.17242670827E+03  0.00000000000E+00 0.  1.
          6    1    1    2  502    0  0.18137243272E+03 -0.12800795244E+03  0.30102412841E+03  0.41168133444E+03  0.17200000000E+03 0. -1.
         -6    1    1    2    0  501 -0.18137243272E+03  0.12800795244E+03  0.51277794317E+02  0.28547400482E+03  0.17200000000E+03 0.  1.
</event>
<event>
 4    1  0.3094855E-002  0.2828969E+03  0.7818608E-02  0.1094117E+00
         -2   -1    0    0    0  501 -0.00000000000E+00  0.00000000000E+00  0.55166353365E+02  0.55166353365E+02  0.00000000000E+00 0.  1.
          2   -1    0    0  502    0  0.00000000000E+00 -0.00000000000E+00 -0.31384351417E+04  0.31384351417E+04  0.00000000000E+00 0. -1.
          6    1    1    2  502    0 -0.17507531139E+03 -0.14069582666E+03 -0.27126004585E+04  0.27273122168E+04  0.17200000000E+03 0. -1.
         -6    1    1    2    0  501  0.17507531139E+03  0.14069582666E+03 -0.37066832979E+03  0.46628927825E+03  0.17200000000E+03 0.  1.
</event>
<event>
 4    1  0.3094855E-002  0.2266128E+03  0.7818608E-02  0.1129047E+00
          2   -1    0    0  502    0  0.00000000000E+00  0.00000000000E+00  0.14264379578E+04  0.14264379578E+04  0.00000000000E+00 0. -1.
         -2   -1    0    0    0  501 -0.00000000000E+00 -0.00000000000E+00 -0.41492971545E+02  0.41492971545E+02  0.00000000000E+00 0.  1.
          6    1    1    2  502    0 -0.94610297816E+01 -0.14724076403E+03  0.42544988128E+03  0.48203833370E+03  0.17200000000E+03 0.  1.
         -6    1    1    2    0  501  0.94610297816E+01  0.14724076403E+03  0.95949510494E+03  0.98589259561E+03  0.17200000000E+03 0.  1.
</event>
<event>
 4    1  0.3094855E-002  0.1982297E+03  0.7818608E-02  0.1151241E+00
         -1   -1    0    0    0  501 -0.00000000000E+00  0.00000000000E+00  0.89397518269E+03  0.89397518269E+03  0.00000000000E+00 0.  1.
          1   -1    0    0  502    0  0.00000000000E+00 -0.00000000000E+00 -0.44177726803E+02  0.44177726803E+02  0.00000000000E+00 0. -1.
          6    1    1    2  502    0 -0.10130336551E+02 -0.98022481740E+02  0.39162170034E+03  0.43893346515E+03  0.17200000000E+03 0. -1.
         -6    1    1    2    0  501  0.10130336551E+02  0.98022481740E+02  0.45817575554E+03  0.49921944434E+03  0.17200000000E+03 0.  1.
</event>
<event>
 4    1  0.3094855E-002  0.3259718E+03  0.7818608E-02  0.1072933E+00
          3   -1    0    0  502    0  0.00000000000E+00  0.00000000000E+00  0.15139567651E+03  0.15139567651E+03  0.00000000000E+00 0. -1.
         -3   -1    0    0    0  501 -0.00000000000E+00 -0.00000000000E+00 -0.17798905748E+04  0.17798905748E+04  0.00000000000E+00 0.  1.
          6    1    1    2  502    0  0.14603653456E+03 -0.23525932054E+03 -0.62733912848E+02  0.33195355270E+03  0.17200000000E+03 0. -1.
         -6    1    1    2    0  501 -0.14603653456E+03  0.23525932054E+03 -0.15657609854E+04  0.15993326986E+04  0.17200000000E+03 0.  1.
</event>
<event>
 4    1  0.3094855E-002  0.2333771E+03  0.7818608E-02  0.1124285E+00
          1   -1    0    0  502    0  0.00000000000E+00  0.00000000000E+00  0.34921974109E+04  0.34921974109E+04  0.00000000000E+00 0. -1.
         -1   -1    0    0    0  501 -0.00000000000E+00 -0.00000000000E+00 -0.15912487712E+02  0.15912487712E+02  0.00000000000E+00 0.  1.
          6    1    1    2  502    0  0.70210257689E+02 -0.14124946055E+03  0.14908341675E+04  0.15089901939E+04  0.17200000000E+03 0.  1.
         -6    1    1    2    0  501 -0.70210257689E+02  0.14124946055E+03  0.19854507557E+04  0.19991197047E+04  0.17200000000E+03 0.  1.
</event>
<event>
 4    1  0.3094855E-002  0.2248369E+03  0.7818608E-02  0.1130327E+00
         -2   -1    0    0    0  501 -0.00000000000E+00  0.00000000000E+00  0.69714096580E+02  0.69714096580E+02  0.00000000000E+00 0.  1.
          2   -1    0    0  502    0  0.00000000000E+00 -0.00000000000E+00 -0.75839367046E+03  0.75839367046E+03  0.00000000000E+00 0. -1.
          6    1    1    2  502    0 -0.13381467609E+03 -0.55328798301E+02 -0.25762210705E+03  0.34193682677E+03  0.17200000000E+03 0.  1.
         -6    1    1    2    0  501  0.13381467609E+03  0.55328798301E+02 -0.43105746682E+03  0.48617094027E+03  0.17200000000E+03 0.  1.
</event>
<event>
 4    1  0.3094855E-002  0.4184318E+03  0.7818608E-02  0.1037578E+00
          2   -1    0    0  502    0  0.00000000000E+00  0.00000000000E+00  0.18077273799E+04  0.18077273799E+04  0.00000000000E+00 0. -1.
         -2   -1    0    0    0  501 -0.00000000000E+00 -0.00000000000E+00 -0.10094856932E+03  0.10094856932E+03  0.00000000000E+00 0.  1.
          6    1    1    2  502    0  0.17492720147E+03 -0.33897140344E+03  0.66118178796E+03  0.78246181690E+03  0.17200000000E+03 0.  1.
         -6    1    1    2    0  501 -0.17492720147E+03  0.33897140344E+03  0.10455970226E+04  0.11262141324E+04  0.17200000000E+03 0.  1.
</event>
<event>
 4    1  0.3094855E-002  0.1952344E+03  0.7818608E-02  0.1153823E+00
         -2   -1    0    0    0  501 -0.00000000000E+00  0.00000000000E+00  0.70194766417E+02  0.70194766417E+02  0.00000000000E+00 0.  1.
          2   -1    0    0  502    0  0.00000000000E+00 -0.00000000000E+00 -0.11875881478E+04  0.11875881478E+04  0.00000000000E+00 0. -1.
          6    1    1    2  502    0 -0.22414675065E+02 -0.89610627488E+02 -0.10220160541E+04  0.10404966588E+04  0.17200000000E+03 0. -1.
         -6    1    1    2    0  501  0.22414675065E+02  0.89610627488E+02 -0.95377327285E+02  0.21728625538E+03  0.17200000000E+03 0.  1.
</event>
<event>
 4    1  0.3094855E-002  0.1732570E+03  0.7818608E-02  0.1174493E+00
         -3   -1    0    0    0  501 -0.00000000000E+00  0.00000000000E+00  0.18758914958E+03  0.18758914958E+03  0.00000000000E+00 0.  1.
          3   -1    0    0  502    0  0.00000000000E+00 -0.00000000000E+00 -0.16601288411E+03  0.16601288411E+03  0.00000000000E+00 0. -1.
          6    1    1    2  502    0 -0.12566903196E+02  0.16614784170E+02  0.44380380507E+02  0.17885076540E+03  0.17200000000E+03 0.  1.
         -6    1    1    2    0  501  0.12566903196E+02 -0.16614784170E+02 -0.22804115040E+02  0.17475126830E+03  0.17200000000E+03 0. -1.
</event>
<event>
 4    1  0.3094855E-002  0.2358041E+03  0.7818608E-02  0.1122620E+00
         -2   -1    0    0    0  501 -0.00000000000E+00  0.00000000000E+00  0.98046951002E+02  0.98046951002E+02  0.00000000000E+00 0.  1.
          2   -1    0    0  502    0  0.00000000000E+00 -0.00000000000E+00 -0.86619795474E+03  0.86619795474E+03  0.00000000000E+00 0. -1.
          6    1    1    2  502    0  0.36222291875E+02 -0.15718624131E+03 -0.66737580459E+03  0.70780931997E+03  0.17200000000E+03 0. -1.
         -6    1    1    2    0  501 -0.36222291875E+02  0.15718624131E+03 -0.10077519914E+03  0.25643558577E+03  0.17200000000E+03 0.  1.
</event>
<event>
 4    1  0.3094855E-002  0.2101370E+03  0.7818608E-02  0.1141458E+00
          1   -1    0    0  502    0  0.00000000000E+00  0.00000000000E+00  0.77401534767E+03  0.77401534767E+03  0.00000000000E+00 0. -1.
         -1   -1    0    0    0  501 -0.00000000000E+00 -0.00000000000E+00 -0.71357510156E+02  0.71357510156E+02  0.00000000000E+00 0.  1.
          6    1    1    2  502    0  0.11270264027E+03 -0.43262758773E+02  0.54059856287E+03  0.58000375654E+03  0.17200000000E+03 0. -1.
         -6    1    1    2    0  501 -0.11270264027E+03  0.43262758773E+02  0.16205927465E+03  0.26536910129E+03  0.17200000000E+03 0.  1.
</event>
<event>
 4    1  0.3094855E-002  0.2428465E+03  0.7818608E-02  0.1117911E+00
          2   -1    0    0  502    0  0.00000000000E+00  0.00000000000E+00  0.15465761662E+04  0.15465761662E+04  0.00000000000E+00 0. -1.
         -2   -1    0    0    0  501 -0.00000000000E+00 -0.00000000000E+00 -0.41587592811E+02  0.41587592811E+02  0.00000000000E+00 0.  1.
          6    1    1    2  502    0  0.17046582989E+03 -0.18216124967E+02  0.98138547423E+03  0.10109855960E+04  0.17200000000E+03 0. -1.
         -6    1    1    2    0  501 -0.17046582989E+03  0.18216124967E+02  0.52360309921E+03  0.57717816302E+03  0.17200000000E+03 0.  1.
</event>
<event>
 4    1  0.3094855E-002  0.3060410E+03  0.7818608E-02  0.1082259E+00
          2   -1    0    0  502    0  0.00000000000E+00  0.00000000000E+00  0.49681346523E+03  0.49681346523E+03  0.00000000000E+00 0. -1.
         -2   -1    0    0    0  501 -0.00000000000E+00 -0.00000000000E+00 -0.21237686365E+03  0.21237686365E+03  0.00000000000E+00 0.  1.
          6    1    1    2  502    0  0.29209453627E+02 -0.25144362326E+03  0.23381033635E+02  0.30693282750E+03  0.17200000000E+03 0. -1.
         -6    1    1    2    0  501 -0.29209453627E+02  0.25144362326E+03  0.26105556795E+03  0.40225750138E+03  0.17200000000E+03 0.  1.
</event>
<event>
 4    1  0.3094855E-002  0.3074551E+03  0.7818608E-02  0.1081572E+00
         -2   -1    0    0    0  501 -0.00000000000E+00  0.00000000000E+00  0.37121631654E+02  0.37121631654E+02  0.00000000000E+00 0.  1.
          2   -1    0    0  502    0  0.00000000000E+00 -0.00000000000E+00 -0.30306608122E+04  0.30306608122E+04  0.00000000000E+00 0. -1.
          6    1    1    2  502    0 -0.16771225053E+03  0.19187814092E+03 -0.21098821674E+04  0.21321658895E+04  0.17200000000E+03 0.  1.
         -6    1    1    2    0  501  0.16771225053E+03 -0.19187814092E+03 -0.88365701310E+03  0.93561655433E+03  0.17200000000E+03 0. -1.
</event>
<event>
 4    1  0.3094855E-002  0.1783484E+03  0.7818608E-02  0.1169411E+00
          2   -1    0    0  502    0  0.00000000000E+00  0.00000000000E+00  0.12884896911E+03  0.12884896911E+03  0.00000000000E+00 0. -1.
         -2   -1    0    0    0  501 -0.00000000000E+00 -0.00000000000E+00 -0.30538664807E+03  0.30538664807E+03  0.00000000000E+00 0.  1.
          6    1    1    2  502    0 -0.37650169093E+02  0.28401213061E+02 -0.18331457433E+03  0.25575847454E+03  0.17200000000E+03 0.  1.
         -6    1    1    2    0  501  0.37650169093E+02 -0.28401213061E+02  0.67768953598E+01  0.17847714265E+03  0.17200000000E+03 0. -1.
</event>
<event>
 4    1  0.3094855E-002  0.4059431E+03  0.7818608E-02  0.1041741E+00
          2   -1    0    0  502    0  0.00000000000E+00  0.00000000000E+00  0.86860069722E+03  0.86860069722E+03  0.00000000000E+00 0. -1.
         -2   -1    0    0    0  501 -0.00000000000E+00 -0.00000000000E+00 -0.24852084192E+03  0.24852084192E+03  0.00000000000E+00 0.  1.
          6    1    1    2  502    0 -0.26695857320E+03  0.25286150438E+03  0.58173733108E+03  0.70937165335E+03  0.17200000000E+03 0. -1.
         -6    1    1    2    0  501  0.26695857320E+03 -0.25286150438E+03  0.38342524214E+02  0.40774988580E+03  0.17200000000E+03 0.  1.
</event>
<event>
 4    1  0.3094855E-002  0.2641978E+03  0.7818608E-02  0.1104647E+00
          2   -1    0    0  502    0  0.00000000000E+00  0.00000000000E+00  0.36568768710E+03  0.36568768710E+03  0.00000000000E+00 0. -1.
         -2   -1    0    0    0  501 -0.00000000000E+00 -0.00000000000E+00 -0.94651057049E+03  0.94651057049E+03  0.00000000000E+00 0.  1.
          6    1    1    2  502    0 -0.10771791428E+03  0.16915470869E+03  0.29581183600E+03  0.39661707836E+03  0.17200000000E+03 0. -1.
         -6    1    1    2    0  501  0.10771791428E+03 -0.16915470869E+03 -0.87663471939E+03  0.91558117923E+03  0.17200000000E+03 0.  1.
</event>
<event>
 4    1  0.3094855E-002  0.4271207E+03  0.7818608E-02  0.1034773E+00
         -1   -1    0    0    0  501 -0.00000000000E+00  0.00000000000E+00  0.53604956798E+03  0.53604956798E+03  0.00000000000E+00 0.  1.
          1   -1    0    0  502    0  0.00000000000E+00 -0.00000000000E+00 -0.53587356263E+03  0.53587356263E+03  0.00000000000E+00 0. -1.
          6    1    1    2  502    0 -0.33182884460E+03 -0.20673105376E+03 -0.32367531190E+03  0.53590840470E+03  0.17200000000E+03 0. -1.
         -6    1    1    2    0  501  0.33182884460E+03  0.20673105376E+03  0.32385131725E+03  0.53601472590E+03  0.17200000000E+03 0.  1.
</event>
<event>
 4    1  0.3094855E-002  0.2467539E+03  0.7818608E-02  0.1115374E+00
         -2   -1    0    0    0  501 -0.00000000000E+00  0.00000000000E+00  0.79560481276E+02  0.79560481276E+02  0.00000000000E+00 0.  1.
          2   -1    0    0  502    0  0.00000000000E+00 -0.00000000000E+00 -0.78645856728E+03  0.78645856728E+03  0.00000000000E+00 0. -1.
          6    1    1    2  502    0 -0.14370644877E+03 -0.10320813737E+03 -0.42447629376E+03  0.49098634096E+03  0.17200000000E+03 0.  1.
         -6    1    1    2    0  501  0.14370644877E+03  0.10320813737E+03 -0.28242179224E+03  0.37503270760E+03  0.17200000000E+03 0.  1.
</event>
<event>
 4    1  0.3094855E-002  0.5888335E+03  0.7818608E-02  0.9928848E-01
          3   -1    0    0  502    0  0.00000000000E+00  0.00000000000E+00  0.11305850034E+04  0.11305850034E+04  0.00000000000E+00 0. -1.
         -3   -1    0    0    0  501 -0.00000000000E+00 -0.00000000000E+00 -0.31015056177E+03  0.31015056177E+03  0.00000000000E+00 0.  1.
          6    1    1    2  502    0  0.47260529912E+03 -0.30624355491E+03  0.33398655607E+03  0.67695782979E+03  0.17200000000E+03 0. -1.
         -6    1    1    2    0  501 -0.47260529912E+03  0.30624355491E+03  0.48644788553E+03  0.76377773535E+03  0.17200000000E+03 0.  1.
</event>
<event>
 4    1  0.3094855E-002  0.2902716E+03  0.7818608E-02  0.1090207E+00
          2   -1    0    0  502    0  0.00000000000E+00  0.00000000000E+00  0.11140052678E+04  0.11140052678E+04  0.00000000000E+00 0. -1.
         -2   -1    0    0    0  501 -0.00000000000E+00 -0.00000000000E+00 -0.89059914012E+02  0.89059914012E+02  0.00000000000E+00 0.  1.
          6    1    1    2  502    0  0.17261872295E+03  0.15772241230E+03  0.74602100768E+03  0.80050292114E+03  0.17200000000E+03 0. -1.
         -6    1    1    2    0  501 -0.17261872295E+03 -0.15772241230E+03  0.27892434607E+03  0.40256226063E+03  0.17200000000E+03 0.  1.
</event>
<event>
 4    1  0.3094855E-002  0.5878426E+03  0.7818608E-02  0.9930955E-01
          1   -1    0    0  502    0  0.00000000000E+00  0.00000000000E+00  0.24459618005E+04  0.24459618005E+04  0.00000000000E+00 0. -1.
         -1   -1    0    0    0  501 -0.00000000000E+00 -0.00000000000E+00 -0.17581088831E+03  0.17581088831E+03  0.00000000000E+00 0.  1.
          6    1    1    2  502    0 -0.56192230222E+03 -0.14774432514E+02  0.17160576298E+04  0.18139494884E+04  0.17200000000E+03 0. -1.
         -6    1    1    2    0  501  0.56192230222E+03  0.14774432514E+02  0.55409328245E+03  0.80782320049E+03  0.17200000000E+03 0.  1.
</event>
<event>
 4    1  0.3094855E-002  0.1840564E+03  0.7818608E-02  0.1163934E+00
          2   -1    0    0  502    0  0.00000000000E+00  0.00000000000E+00  0.67835283768E+02  0.67835283768E+02  0.00000000000E+00 0. -1.
         -2   -1    0    0    0  501 -0.00000000000E+00 -0.00000000000E+00 -0.50773863670E+03  0.50773863670E+03  0.00000000000E+00 0.  1.
          6    1    1    2  502    0 -0.44594903709E+02  0.48000523439E+02 -0.18306499803E+03  0.25959497143E+03  0.17200000000E+03 0. -1.
         -6    1    1    2    0  501  0.44594903709E+02 -0.48000523439E+02 -0.25683835491E+03  0.31597894905E+03  0.17200000000E+03 0.  1.
</event>
<event>
 4    1  0.3094855E-002  0.3982122E+03  0.7818608E-02  0.1044400E+00
         -4   -1    0    0    0  501 -0.00000000000E+00  0.00000000000E+00  0.18476339150E+03  0.18476339150E+03  0.00000000000E+00 0.  1.
          4   -1    0    0  502    0  0.00000000000E+00 -0.00000000000E+00 -0.12239299771E+04  0.12239299771E+04  0.00000000000E+00 0. -1.
          6    1    1    2  502    0 -0.20107023642E+03 -0.29758984869E+03 -0.90458219833E+03  0.98835313100E+03  0.17200000000E+03 0. -1.
         -6    1    1    2    0  501  0.20107023642E+03  0.29758984869E+03 -0.13458438723E+03  0.42034023755E+03  0.17200000000E+03 0.  1.
</event>
<event>
 4    1  0.3094855E-002  0.4769915E+03  0.7818608E-02  0.1019965E+00
          2   -1    0    0  502    0  0.00000000000E+00  0.00000000000E+00  0.48273374326E+03  0.48273374326E+03  0.00000000000E+00 0. -1.
         -2   -1    0    0    0  501 -0.00000000000E+00 -0.00000000000E+00 -0.10053056757E+04  0.10053056757E+04  0.00000000000E+00 0.  1.
          6    1    1    2  502    0  0.44489872770E+03  0.14269257588E+01  0.28096601656E+03  0.55359083851E+03  0.17200000000E+03 0. -1.
         -6    1    1    2    0  501 -0.44489872770E+03 -0.14269257588E+01 -0.80353794904E+03  0.93444858049E+03  0.17200000000E+03 0.  1.
</event>
<event>
 4    1  0.3094855E-002  0.1893092E+03  0.7818608E-02  0.1159086E+00
         -1   -1    0    0    0  501 -0.00000000000E+00  0.00000000000E+00  0.40068753503E+03  0.40068753503E+03  0.00000000000E+00 0.  1.
          1   -1    0    0  502    0  0.00000000000E+00 -0.00000000000E+00 -0.20604231581E+03  0.20604231581E+03  0.00000000000E+00 0. -1.
          6    1    1    2  502    0  0.76373318061E+02 -0.20520504681E+02 -0.13088940499E+03  0.23015214785E+03  0.17200000000E+03 0. -1.
         -6    1    1    2    0  501 -0.76373318061E+02  0.20520504681E+02  0.32553462421E+03  0.37657770298E+03  0.17200000000E+03 0.  1.
</event>
<event>
 4    1  0.3094855E-002  0.1929483E+03  0.7818608E-02  0.1155829E+00
          2   -1    0    0  502    0  0.00000000000E+00  0.00000000000E+00  0.37912935329E+02  0.37912935329E+02  0.00000000000E+00 0. -1.
         -2   -1    0    0    0  501 -0.00000000000E+00 -0.00000000000E+00 -0.11199502800E+04  0.11199502800E+04  0.00000000000E+00 0.  1.
          6    1    1    2  502    0  0.87256376710E+02  0.55999053240E+01 -0.74423103982E+03  0.76883605200E+03  0.17200000000E+03 0.  1.
         -6    1    1    2    0  501 -0.87256376710E+02 -0.55999053240E+01 -0.33780630487E+03  0.38902716335E+03  0.17200000000E+03 0. -1.
</event>
<event>
 4    1  0.3094855E-002  0.1977281E+03  0.7818608E-02  0.1151670E+00
         -2   -1    0    0    0  501 -0.00000000000E+00  0.00000000000E+00  0.62310866442E+02  0.62310866442E+02  0.00000000000E+00 0.  1.
          2   -1    0    0  502    0  0.00000000000E+00 -0.00000000000E+00 -0.64082618258E+03  0.64082618258E+03  0.00000000000E+00 0. -1.
          6    1    1    2  502    0  0.38705640765E+02  0.89522426021E+02 -0.23844729912E+03  0.30976362899E+03  0.17200000000E+03 0.  1.
         -6    1    1    2    0  501 -0.38705640765E+02 -0.89522426021E+02 -0.34006801702E+03  0.39337342003E+03  0.17200000000E+03 0. -1.
</event>
<event>
 4    1  0.3094855E-002  0.2585938E+03  0.7818608E-02  0.1107991E+00
          2   -1    0    0  502    0  0.00000000000E+00  0.00000000000E+00  0.30130435310E+04  0.30130435310E+04  0.00000000000E+00 0. -1.
         -2   -1    0    0    0  501 -0.00000000000E+00 -0.00000000000E+00 -0.22227619629E+02  0.22227619629E+02  0.00000000000E+00 0.  1.
          6    1    1    2  502    0  0.14092170127E+03  0.13201455210E+03  0.14361760053E+04  0.14592711489E+04  0.17200000000E+03 0. -1.
         -6    1    1    2    0  501 -0.14092170127E+03 -0.13201455210E+03  0.15546399061E+04  0.15760000017E+04  0.17200000000E+03 0.  1.
</event>
<event>
 4    1  0.3094855E-002  0.4608889E+03  0.7818608E-02  0.1024524E+00
         -2   -1    0    0    0  501 -0.00000000000E+00  0.00000000000E+00  0.87278072003E+02  0.87278072003E+02  0.00000000000E+00 0.  1.
          2   -1    0    0  502    0  0.00000000000E+00 -0.00000000000E+00 -0.32483507194E+04  0.32483507194E+04  0.00000000000E+00 0. -1.
          6    1    1    2  502    0 -0.30041837962E+03  0.30427511577E+03 -0.24157002579E+04  0.24592735279E+04  0.17200000000E+03 0. -1.
         -6    1    1    2    0  501  0.30041837962E+03 -0.30427511577E+03 -0.74537238949E+03  0.87635526352E+03  0.17200000000E+03 0.  1.
</event>
<event>
 4    1  0.3094855E-002  0.2994096E+03  0.7818608E-02  0.1085536E+00
          1   -1    0    0  502    0  0.00000000000E+00  0.00000000000E+00  0.11678993502E+04  0.11678993502E+04  0.00000000000E+00 0. -1.
         -1   -1    0    0    0  501 -0.00000000000E+00 -0.00000000000E+00 -0.10021773285E+03  0.10021773285E+03  0.00000000000E+00 0.  1.
          6    1    1    2  502    0 -0.24369176972E+03  0.26008364854E+02  0.84061207264E+03  0.89234229438E+03  0.17200000000E+03 0. -1.
         -6    1    1    2    0  501  0.24369176972E+03 -0.26008364854E+02  0.22706954472E+03  0.37577478868E+03  0.17200000000E+03 0.  1.
</event>
<event>
 4    1  0.3094855E-002  0.2760976E+03  0.7818608E-02  0.1097840E+00
         -2   -1    0    0    0  501 -0.00000000000E+00  0.00000000000E+00  0.13811436632E+03  0.13811436632E+03  0.00000000000E+00 0.  1.
          2   -1    0    0  502    0  0.00000000000E+00 -0.00000000000E+00 -0.57705134845E+03  0.57705134845E+03  0.00000000000E+00 0. -1.
          6    1    1    2  502    0  0.16749506773E+03  0.13634995497E+03 -0.29407264957E+03  0.40337157952E+03  0.17200000000E+03 0. -1.
         -6    1    1    2    0  501 -0.16749506773E+03 -0.13634995497E+03 -0.14486433255E+03  0.31179413525E+03  0.17200000000E+03 0.  1.
</event>
<event>
 4    1  0.3094855E-002  0.2188837E+03  0.7818608E-02  0.1134718E+00
         -2   -1    0    0    0  501 -0.00000000000E+00  0.00000000000E+00  0.21206095410E+03  0.21206095410E+03  0.00000000000E+00 0.  1.
          2   -1    0    0  502    0  0.00000000000E+00 -0.00000000000E+00 -0.22910253732E+03  0.22910253732E+03  0.00000000000E+00 0. -1.
          6    1    1    2  502    0  0.45541989266E+02 -0.12748337769E+03 -0.34494334645E+02  0.22158507056E+03  0.17200000000E+03 0. -1.
         -6    1    1    2    0  501 -0.45541989266E+02  0.12748337769E+03  0.17452751428E+02  0.21957842086E+03  0.17200000000E+03 0.  1.
</event>
<event>
 4    1  0.3094855E-002  0.3406905E+03  0.7818608E-02  0.1066502E+00
         -2   -1    0    0    0  501 -0.00000000000E+00  0.00000000000E+00  0.17638942260E+03  0.17638942260E+03  0.00000000000E+00 0.  1.
          2   -1    0    0  502    0  0.00000000000E+00 -0.00000000000E+00 -0.69227677097E+03  0.69227677097E+03  0.00000000000E+00 0. -1.
          6    1    1    2  502    0 -0.78711090569E+02  0.28335589028E+03 -0.16134388946E+03  0.37696398635E+03  0.17200000000E+03 0. -1.
         -6    1    1    2    0  501  0.78711090569E+02 -0.28335589028E+03 -0.35454345891E+03  0.49170220722E+03  0.17200000000E+03 0.  1.
</event>
<event>
 4    1  0.3094855E-002  0.2395721E+03  0.7818608E-02  0.1120078E+00
         -2   -1    0    0    0  501 -0.00000000000E+00  0.00000000000E+00  0.33941279657E+02  0.33941279657E+02  0.00000000000E+00 0.  1.
          2   -1    0    0  502    0  0.00000000000E+00 -0.00000000000E+00 -0.21845368860E+04  0.21845368860E+04  0.00000000000E+00 0. -1.
          6    1    1    2  502    0 -0.29246316901E+02  0.16418108607E+03 -0.16025329390E+04  0.16203415061E+04  0.17200000000E+03 0. -1.
         -6    1    1    2    0  501  0.29246316901E+02 -0.16418108607E+03 -0.54806266736E+03  0.59813665949E+03  0.17200000000E+03 0.  1.
</event>
<event>
 4    1  0.3094855E-002  0.2860905E+03  0.7818608E-02  0.1092408E+00
          2   -1    0    0  502    0  0.00000000000E+00  0.00000000000E+00  0.45566324723E+03  0.45566324723E+03  0.00000000000E+00 0. -1.
         -2   -1    0    0    0  501 -0.00000000000E+00 -0.00000000000E+00 -0.33001625872E+03  0.33001625872E+03  0.00000000000E+00 0.  1.
          6    1    1    2  502    0 -0.20906559084E+03  0.92495151439E+02  0.32801608850E+03  0.43524973133E+03  0.17200000000E+03 0. -1.
         -6    1    1    2    0  501  0.20906559084E+03 -0.92495151439E+02 -0.20236909999E+03  0.35042977462E+03  0.17200000000E+03 0.  1.
</event>
<event>
 4    1  0.3094855E-002  0.1870601E+03  0.7818608E-02  0.1161140E+00
          1   -1    0    0  502    0  0.00000000000E+00  0.00000000000E+00  0.13608895913E+04  0.13608895913E+04  0.00000000000E+00 0. -1.
         -1   -1    0    0    0  501 -0.00000000000E+00 -0.00000000000E+00 -0.25895414092E+02  0.25895414092E+02  0.00000000000E+00 0.  1.
          6    1    1    2  502    0  0.73534720417E+02  0.34983391205E+00  0.72581964825E+03  0.74953694990E+03  0.17200000000E+03 0. -1.
         -6    1    1    2    0  501 -0.73534720417E+02 -0.34983391205E+00  0.60917452899E+03  0.63724805551E+03  0.17200000000E+03 0. -1.
</event>
<event>
 4    1  0.3094855E-002  0.4104356E+03  0.7818608E-02  0.1040225E+00
         -1   -1    0    0    0  501 -0.00000000000E+00  0.00000000000E+00  0.42618261826E+03  0.42618261826E+03  0.00000000000E+00 0.  1.
          1   -1    0    0  502    0  0.00000000000E+00 -0.00000000000E+00 -0.52740404650E+03  0.52740404650E+03  0.00000000000E+00 0. -1.
          6    1    1    2  502    0  0.32957676875E+03 -0.17393256951E+03 -0.28926273239E+03  0.50212579458E+03  0.17200000000E+03 0. -1.
         -6    1    1    2    0  501 -0.32957676875E+03  0.17393256951E+03  0.18804130416E+03  0.45146087018E+03  0.17200000000E+03 0.  1.
</event>
<event>
 4    1  0.3094855E-002  0.2971359E+03  0.7818608E-02  0.1086681E+00
          2   -1    0    0  502    0  0.00000000000E+00  0.00000000000E+00  0.69092632611E+03  0.69092632611E+03  0.00000000000E+00 0. -1.
         -2   -1    0    0    0  501 -0.00000000000E+00 -0.00000000000E+00 -0.13285318011E+03  0.13285318011E+03  0.00000000000E+00 0.  1.
          6    1    1    2  502    0 -0.23972171751E+03 -0.35202877372E+02  0.35948881566E+03  0.46639248815E+03  0.17200000000E+03 0. -1.
         -6    1    1    2    0  501  0.23972171751E+03  0.35202877372E+02  0.19858433034E+03  0.35738701807E+03  0.17200000000E+03 0.  1.
</event>
<event>
 4    1  0.3094855E-002  0.3781819E+03  0.7818608E-02  0.1051608E+00
         -2   -1    0    0    0  501 -0.00000000000E+00  0.00000000000E+00  0.95302111653E+02  0.95302111653E+02  0.00000000000E+00 0.  1.
          2   -1    0    0  502    0  0.00000000000E+00 -0.00000000000E+00 -0.15450346954E+04  0.15450346954E+04  0.00000000000E+00 0. -1.
          6    1    1    2  502    0 -0.75055533407E+02 -0.32833553896E+03 -0.86377178091E+03  0.94293332147E+03  0.17200000000E+03 0.  1.
         -6    1    1    2    0  501  0.75055533407E+02  0.32833553896E+03 -0.58596080283E+03  0.69740348557E+03  0.17200000000E+03 0.  1.
</event>
<event>
 4    1  0.3094855E-002  0.2160463E+03  0.7818608E-02  0.1136865E+00
          2   -1    0    0  502    0  0.00000000000E+00  0.00000000000E+00  0.29528386914E+04  0.29528386914E+04  0.00000000000E+00 0. -1.
         -2   -1    0    0    0  501 -0.00000000000E+00 -0.00000000000E+00 -0.15819305700E+02  0.15819305700E+02  0.00000000000E+00 0.  1.
          6    1    1    2  502    0  0.11872314853E+03  0.54743318584E+02  0.15096253055E+04  0.15250064196E+04  0.17200000000E+03 0. -1.
         -6    1    1    2    0  501 -0.11872314853E+03 -0.54743318584E+02  0.14273940803E+04  0.14436515775E+04  0.17200000000E+03 0.  1.
</event>
<event>
 4    1  0.3094855E-002  0.2108380E+03  0.7818608E-02  0.1140904E+00
         -2   -1    0    0    0  501 -0.00000000000E+00  0.00000000000E+00  0.29318489524E+02  0.29318489524E+02  0.00000000000E+00 0.  1.
          2   -1    0    0  502    0  0.00000000000E+00 -0.00000000000E+00 -0.19023808032E+04  0.19023808032E+04  0.00000000000E+00 0. -1.
          6    1    1    2  502    0  0.78728318745E+02 -0.93115498632E+02 -0.13716992939E+04  0.13878081990E+04  0.17200000000E+03 0. -1.
         -6    1    1    2    0  501 -0.78728318745E+02  0.93115498632E+02 -0.50136301974E+03  0.54389109371E+03  0.17200000000E+03 0.  1.
</event>
<event>
 4    1  0.3094855E-002  0.2204569E+03  0.7818608E-02  0.1133543E+00
          1   -1    0    0  502    0  0.00000000000E+00  0.00000000000E+00  0.13541582226E+04  0.13541582226E+04  0.00000000000E+00 0. -1.
         -1   -1    0    0    0  501 -0.00000000000E+00 -0.00000000000E+00 -0.52776263836E+02  0.52776263836E+02  0.00000000000E+00 0.  1.
          6    1    1    2  502    0 -0.72976781676E+02  0.11701130632E+03  0.10486024198E+04  0.10715261505E+04  0.17200000000E+03 0. -1.
         -6    1    1    2    0  501  0.72976781676E+02 -0.11701130632E+03  0.25277953895E+03  0.33540833588E+03  0.17200000000E+03 0.  1.
</event>
<event>
 4    1  0.3094855E-002  0.2010736E+03  0.7818608E-02  0.1148836E+00
         -1   -1    0    0    0  501 -0.00000000000E+00  0.00000000000E+00  0.37735278884E+02  0.37735278884E+02  0.00000000000E+00 0.  1.
          1   -1    0    0  502    0  0.00000000000E+00 -0.00000000000E+00 -0.10824338584E+04  0.10824338584E+04  0.00000000000E+00 0. -1.
          6    1    1    2  502    0  0.96559870282E+02 -0.39022908944E+02 -0.46587055406E+03  0.50741104551E+03  0.17200000000E+03 0. -1.
         -6    1    1    2    0  501 -0.96559870282E+02  0.39022908944E+02 -0.57882802544E+03  0.61275809175E+03  0.17200000000E+03 0.  1.
</event>
<event>
 4    1  0.3094855E-002  0.6676471E+03  0.7818608E-02  0.9774218E-01
         -1   -1    0    0    0  501 -0.00000000000E+00  0.00000000000E+00  0.68322737557E+03  0.68322737557E+03  0.00000000000E+00 0.  1.
          1   -1    0    0  502    0  0.00000000000E+00 -0.00000000000E+00 -0.15187845081E+04  0.15187845081E+04  0.00000000000E+00 0. -1.
          6    1    1    2  502    0  0.61089896035E+03  0.20729462253E+03 -0.12493343673E+04  0.14165411966E+04  0.17200000000E+03 0. -1.
         -6    1    1    2    0  501 -0.61089896035E+03 -0.20729462253E+03  0.41377723476E+03  0.78547068710E+03  0.17200000000E+03 0.  1.
</event>
<event>
 4    1  0.3094855E-002  0.3326172E+03  0.7818608E-02  0.1069985E+00
          2   -1    0    0  502    0  0.00000000000E+00  0.00000000000E+00  0.25278072849E+03  0.25278072849E+03  0.00000000000E+00 0. -1.
         -2   -1    0    0    0  501 -0.00000000000E+00 -0.00000000000E+00 -0.46188617084E+03  0.46188617084E+03  0.00000000000E+00 0.  1.
          6    1    1    2  502    0 -0.21286040971E+03  0.18905193264E+03 -0.22730457203E+02  0.33339295274E+03  0.17200000000E+03 0. -1.
         -6    1    1    2    0  501  0.21286040971E+03 -0.18905193264E+03 -0.18637498515E+03  0.38127394658E+03  0.17200000000E+03 0.  1.
</event>
<event>
 4    1  0.3094855E-002  0.2555691E+03  0.7818608E-02  0.1109835E+00
          1   -1    0    0  502    0  0.00000000000E+00  0.00000000000E+00  0.35220967511E+04  0.35220967511E+04  0.00000000000E+00 0. -1.
         -1   -1    0    0    0  501 -0.00000000000E+00 -0.00000000000E+00 -0.20327647023E+02  0.20327647023E+02  0.00000000000E+00 0.  1.
          6    1    1    2  502    0  0.17771084986E+03  0.64423760481E+02  0.12262956497E+04  0.12526438390E+04  0.17200000000E+03 0.  1.
         -6    1    1    2    0  501 -0.17771084986E+03 -0.64423760481E+02  0.22754734544E+04  0.22897805591E+04  0.17200000000E+03 0. -1.
</event>
<event>
 4    1  0.3094855E-002  0.1850534E+03  0.7818608E-02  0.1163000E+00
          2   -1    0    0  502    0  0.00000000000E+00  0.00000000000E+00  0.23371258355E+04  0.23371258355E+04  0.00000000000E+00 0. -1.
         -2   -1    0    0    0  501 -0.00000000000E+00 -0.00000000000E+00 -0.16918509550E+02  0.16918509550E+02  0.00000000000E+00 0.  1.
          6    1    1    2  502    0 -0.21669296781E+02 -0.64739568286E+02  0.72934593769E+03  0.75245615616E+03  0.17200000000E+03 0.  1.
         -6    1    1    2    0  501  0.21669296781E+02  0.64739568286E+02  0.15908613883E+04  0.16015881889E+04  0.17200000000E+03 0. -1.
</event>
<event>
 4    1  0.3094855E-002  0.1766098E+03  0.7818608E-02  0.1171125E+00
          1   -1    0    0  502    0  0.00000000000E+00  0.00000000000E+00  0.21173445818E+03  0.21173445818E+03  0.00000000000E+00 0. -1.
         -1   -1    0    0    0  501 -0.00000000000E+00 -0.00000000000E+00 -0.16453293277E+03  0.16453293277E+03  0.00000000000E+00 0.  1.
          6    1    1    2  502    0  0.14347888129E+02  0.37431926029E+02  0.84466015054E+02  0.19576904423E+03  0.17200000000E+03 0. -1.
         -6    1    1    2    0  501 -0.14347888129E+02 -0.37431926029E+02 -0.37264489646E+02  0.18049834672E+03  0.17200000000E+03 0.  1.
</event>
<event>
 4    1  0.3094855E-002  0.2497845E+03  0.7818608E-02  0.1113441E+00
          4   -1    0    0  502    0  0.00000000000E+00  0.00000000000E+00  0.13278853407E+04  0.13278853407E+04  0.00000000000E+00 0. -1.
         -4   -1    0    0    0  501 -0.00000000000E+00 -0.00000000000E+00 -0.70993595401E+02  0.70993595401E+02  0.00000000000E+00 0.  1.
          6    1    1    2  502    0  0.82340068499E+02  0.16133326655E+03  0.10351821520E+04  0.10648917305E+04  0.17200000000E+03 0.  1.
         -6    1    1    2    0  501 -0.82340068499E+02 -0.16133326655E+03  0.22170959330E+03  0.33398720565E+03  0.17200000000E+03 0.  1.
</event>
<event>
 4    1  0.3094855E-002  0.2168396E+03  0.7818608E-02  0.1136261E+00
         -2   -1    0    0    0  501 -0.00000000000E+00  0.00000000000E+00  0.19494630913E+03  0.19494630913E+03  0.00000000000E+00 0.  1.
          2   -1    0    0  502    0  0.00000000000E+00 -0.00000000000E+00 -0.97035273194E+03  0.97035273194E+03  0.00000000000E+00 0. -1.
          6    1    1    2  502    0 -0.12687636837E+03 -0.36575971748E+02 -0.89277641587E+03  0.91873235672E+03  0.17200000000E+03 0. -1.
         -6    1    1    2    0  501  0.12687636837E+03  0.36575971748E+02  0.11736999305E+03  0.24656668434E+03  0.17200000000E+03 0.  1.
</event>
<event>
 4    1  0.3094855E-002  0.3177182E+03  0.7818608E-02  0.1076704E+00
         -2   -1    0    0    0  501 -0.00000000000E+00  0.00000000000E+00  0.13008799079E+03  0.13008799079E+03  0.00000000000E+00 0.  1.
          2   -1    0    0  502    0  0.00000000000E+00 -0.00000000000E+00 -0.84691192567E+03  0.84691192567E+03  0.00000000000E+00 0. -1.
          6    1    1    2  502    0  0.19137018371E+03 -0.18638206902E+03 -0.21703247100E+03  0.38476995248E+03  0.17200000000E+03 0. -1.
         -6    1    1    2    0  501 -0.19137018371E+03  0.18638206902E+03 -0.49979146388E+03  0.59222996398E+03  0.17200000000E+03 0.  1.
</event>
<event>
 4    1  0.3094855E-002  0.1943849E+03  0.7818608E-02  0.1154565E+00
         -2   -1    0    0    0  501 -0.00000000000E+00  0.00000000000E+00  0.20742728688E+02  0.20742728688E+02  0.00000000000E+00 0.  1.
          2   -1    0    0  502    0  0.00000000000E+00 -0.00000000000E+00 -0.18254038630E+04  0.18254038630E+04  0.00000000000E+00 0. -1.
          6    1    1    2  502    0 -0.89898929693E+02 -0.10940294792E+02 -0.86034096312E+03  0.88202725606E+03  0.17200000000E+03 0. -1.
         -6    1    1    2    0  501  0.89898929693E+02  0.10940294792E+02 -0.94432017116E+03  0.96411933560E+03  0.17200000000E+03 0. -1.
</event>
<event>
 4    1  0.3094855E-002  0.3154237E+03  0.7818608E-02  0.1077775E+00
          2   -1    0    0  502    0  0.00000000000E+00  0.00000000000E+00  0.10693159197E+04  0.10693159197E+04  0.00000000000E+00 0. -1.
         -2   -1    0    0    0  501 -0.00000000000E+00 -0.00000000000E+00 -0.14160185693E+03  0.14160185693E+03  0.00000000000E+00 0.  1.
          6    1    1    2  502    0 -0.22358067307E+03  0.14113747509E+03  0.81841355986E+03  0.87709341532E+03  0.17200000000E+03 0. -1.
         -6    1    1    2    0  501  0.22358067307E+03 -0.14113747509E+03  0.10930050287E+03  0.33382436127E+03  0.17200000000E+03 0.  1.
</event>
<event>
 4    1  0.3094855E-002  0.5023608E+03  0.7818608E-02  0.1013165E+00
         -3   -1    0    0    0  501 -0.00000000000E+00  0.00000000000E+00  0.83968377341E+03  0.83968377341E+03  0.00000000000E+00 0.  1.
          3   -1    0    0  502    0  0.00000000000E+00 -0.00000000000E+00 -0.32456804887E+03  0.32456804887E+03  0.00000000000E+00 0. -1.
          6    1    1    2  502    0 -0.47049716137E+03  0.37613243673E+02  0.41591572066E+03  0.65219032624E+03  0.17200000000E+03 0. -1.
         -6    1    1    2    0  501  0.47049716137E+03 -0.37613243673E+02  0.99200003880E+02  0.51206149604E+03  0.17200000000E+03 0.  1.
</event>
<event>
 4    1  0.3094855E-002  0.1756654E+03  0.7818608E-02  0.1172065E+00
          1   -1    0    0  502    0  0.00000000000E+00  0.00000000000E+00  0.20347006428E+03  0.20347006428E+03  0.00000000000E+00 0. -1.
         -1   -1    0    0    0  501 -0.00000000000E+00 -0.00000000000E+00 -0.16072479375E+03  0.16072479375E+03  0.00000000000E+00 0.  1.
          6    1    1    2  502    0  0.24533262420E+02  0.25931508073E+02 -0.21872271629E+02  0.17702180753E+03  0.17200000000E+03 0.  1.
         -6    1    1    2    0  501 -0.24533262420E+02 -0.25931508073E+02  0.64617542163E+02  0.18717305049E+03  0.17200000000E+03 0. -1.
</event>
<event>
 4    1  0.3094855E-002  0.2326895E+03  0.7818608E-02  0.1124761E+00
         -2   -1    0    0    0  501 -0.00000000000E+00  0.00000000000E+00  0.11135298730E+03  0.11135298730E+03  0.00000000000E+00 0.  1.
          2   -1    0    0  502    0  0.00000000000E+00 -0.00000000000E+00 -0.58428536630E+03  0.58428536630E+03  0.00000000000E+00 0. -1.
          6    1    1    2  502    0 -0.72459442229E+02 -0.13896054559E+03 -0.37894557058E+03  0.44468432563E+03  0.17200000000E+03 0. -1.
         -6    1    1    2    0  501  0.72459442229E+02  0.13896054559E+03 -0.93986808424E+02  0.25095402797E+03  0.17200000000E+03 0.  1.
</event>
<event>
 4    1  0.3094855E-002  0.2144713E+03  0.7818608E-02  0.1138073E+00
          2   -1    0    0  502    0  0.00000000000E+00  0.00000000000E+00  0.36653592842E+03  0.36653592842E+03  0.00000000000E+00 0. -1.
         -2   -1    0    0    0  501 -0.00000000000E+00 -0.00000000000E+00 -0.12754485607E+03  0.12754485607E+03  0.00000000000E+00 0.  1.
          6    1    1    2  502    0  0.92340214502E+02 -0.88809947515E+02  0.15082434555E+03  0.26219440345E+03  0.17200000000E+03 0. -1.
         -6    1    1    2    0  501 -0.92340214502E+02  0.88809947515E+02  0.88166726803E+02  0.23188638103E+03  0.17200000000E+03 0.  1.
</event>
<event>
 4    1  0.3094855E-002  0.2940966E+03  0.7818608E-02  0.1088229E+00
         -2   -1    0    0    0  501 -0.00000000000E+00  0.00000000000E+00  0.14160506355E+03  0.14160506355E+03  0.00000000000E+00 0.  1.
          2   -1    0    0  502    0  0.00000000000E+00 -0.00000000000E+00 -0.61080736377E+03  0.61080736377E+03  0.00000000000E+00 0. -1.
          6    1    1    2  502    0 -0.23022291844E+03 -0.62499705227E+02 -0.23360188201E+03  0.37558307285E+03  0.17200000000E+03 0. -1.
         -6    1    1    2    0  501  0.23022291844E+03  0.62499705227E+02 -0.23560041821E+03  0.37682935447E+03  0.17200000000E+03 0.  1.
</event>
<event>
 4    1  0.3094855E-002  0.2184729E+03  0.7818608E-02  0.1135027E+00
          2   -1    0    0  502    0  0.00000000000E+00  0.00000000000E+00  0.81050719551E+03  0.81050719551E+03  0.00000000000E+00 0. -1.
         -2   -1    0    0    0  501 -0.00000000000E+00 -0.00000000000E+00 -0.14608417786E+03  0.14608417786E+03  0.00000000000E+00 0.  1.
          6    1    1    2  502    0 -0.23149767401E+02 -0.13270448344E+03  0.70173306332E+03  0.73495556587E+03  0.17200000000E+03 0. -1.
         -6    1    1    2    0  501  0.23149767401E+02  0.13270448344E+03 -0.37310045661E+02  0.22163580749E+03  0.17200000000E+03 0.  1.
</event>
<event>
 4    1  0.3094855E-002  0.1781328E+03  0.7818608E-02  0.1169622E+00
         -1   -1    0    0    0  501 -0.00000000000E+00  0.00000000000E+00  0.97224551157E+02  0.97224551157E+02  0.00000000000E+00 0.  1.
          1   -1    0    0  502    0  0.00000000000E+00 -0.00000000000E+00 -0.36595120482E+03  0.36595120482E+03  0.00000000000E+00 0. -1.
          6    1    1    2  502    0 -0.14659831844E+02 -0.43958778615E+02 -0.58200573415E+02  0.18739955078E+03  0.17200000000E+03 0.  1.
         -6    1    1    2    0  501  0.14659831844E+02  0.43958778615E+02 -0.21052608025E+03  0.27577620519E+03  0.17200000000E+03 0. -1.
</event>
<event>
 4    1  0.3094855E-002  0.2178748E+03  0.7818608E-02  0.1135477E+00
         -1   -1    0    0    0  501 -0.00000000000E+00  0.00000000000E+00  0.85587989351E+02  0.85587989351E+02  0.00000000000E+00 0.  1.
          1   -1    0    0  502    0  0.00000000000E+00 -0.00000000000E+00 -0.56695588898E+03  0.56695588898E+03  0.00000000000E+00 0. -1.
          6    1    1    2  502    0  0.12967742123E+03 -0.32698473743E+02 -0.19257075674E+03  0.29077984819E+03  0.17200000000E+03 0. -1.
         -6    1    1    2    0  501 -0.12967742123E+03  0.32698473743E+02 -0.28879714288E+03  0.36176403014E+03  0.17200000000E+03 0.  1.
</event>
<event>
 4    1  0.3094855E-002  0.2308825E+03  0.7818608E-02  0.1126020E+00
         -2   -1    0    0    0  501 -0.00000000000E+00  0.00000000000E+00  0.43459580247E+03  0.43459580247E+03  0.00000000000E+00 0.  1.
          2   -1    0    0  502    0  0.00000000000E+00 -0.00000000000E+00 -0.14279759258E+03  0.14279759258E+03  0.00000000000E+00 0. -1.
          6    1    1    2  502    0  0.13771786326E+02  0.15340493997E+03  0.37480307591E+02  0.23390491906E+03  0.17200000000E+03 0. -1.
         -6    1    1    2    0  501 -0.13771786326E+02 -0.15340493997E+03  0.25431790230E+03  0.34348847598E+03  0.17200000000E+03 0.  1.
</event>
<event>
 4    1  0.3094855E-002  0.1755273E+03  0.7818608E-02  0.1172203E+00
          2   -1    0    0  502    0  0.00000000000E+00  0.00000000000E+00  0.82569333996E+02  0.82569333996E+02  0.00000000000E+00 0. -1.
         -2   -1    0    0    0  501 -0.00000000000E+00 -0.00000000000E+00 -0.37485189441E+03  0.37485189441E+03  0.00000000000E+00 0.  1.
          6    1    1    2  502    0  0.13103831296E+02 -0.32467245417E+02 -0.13068049912E+03  0.21883149972E+03  0.17200000000E+03 0.  1.
         -6    1    1    2    0  501 -0.13103831296E+02  0.32467245417E+02 -0.16160206129E+03  0.23858972868E+03  0.17200000000E+03 0.  1.
</event>
<event>
 4    1  0.3094855E-002  0.2560056E+03  0.7818608E-02  0.1109567E+00
          2   -1    0    0  502    0  0.00000000000E+00  0.00000000000E+00  0.44699175085E+03  0.44699175085E+03  0.00000000000E+00 0. -1.
         -2   -1    0    0    0  501 -0.00000000000E+00 -0.00000000000E+00 -0.34059434543E+03  0.34059434543E+03  0.00000000000E+00 0.  1.
          6    1    1    2  502    0 -0.18039934974E+03  0.58403437697E+02  0.35037836201E+03  0.43393995378E+03  0.17200000000E+03 0. -1.
         -6    1    1    2    0  501  0.18039934974E+03 -0.58403437697E+02 -0.24398095660E+03  0.35364614250E+03  0.17200000000E+03 0.  1.
</event>
<event>
 4    1  0.3094855E-002  0.1732365E+03  0.7818608E-02  0.1174514E+00
          2   -1    0    0  502    0  0.00000000000E+00  0.00000000000E+00  0.10482016789E+04  0.10482016789E+04  0.00000000000E+00 0. -1.
         -2   -1    0    0    0  501 -0.00000000000E+00 -0.00000000000E+00 -0.38416420472E+02  0.38416420472E+02  0.00000000000E+00 0.  1.
          6    1    1    2  502    0 -0.18210109832E+02 -0.97601816800E+01  0.77910201944E+03  0.79812957967E+03  0.17200000000E+03 0. -1.
         -6    1    1    2    0  501  0.18210109832E+02  0.97601816800E+01  0.23068323895E+03  0.28848851967E+03  0.17200000000E+03 0.  1.
</event>
<event>
 4    1  0.3094855E-002  0.2346022E+03  0.7818608E-02  0.1123442E+00
         -2   -1    0    0    0  501 -0.00000000000E+00  0.00000000000E+00  0.13529104674E+03  0.13529104674E+03  0.00000000000E+00 0.  1.
          2   -1    0    0  502    0  0.00000000000E+00 -0.00000000000E+00 -0.48396894857E+03  0.48396894857E+03  0.00000000000E+00 0. -1.
          6    1    1    2  502    0  0.11103374269E+03  0.11456737138E+03 -0.29796745474E+03  0.37923973775E+03  0.17200000000E+03 0. -1.
         -6    1    1    2    0  501 -0.11103374269E+03 -0.11456737138E+03 -0.50710447089E+02  0.24002025757E+03  0.17200000000E+03 0.  1.
</event>
<event>
 4    1  0.3094855E-002  0.5284880E+03  0.7818608E-02  0.1006599E+00
         -1   -1    0    0    0  501 -0.00000000000E+00  0.00000000000E+00  0.14276952376E+03  0.14276952376E+03  0.00000000000E+00 0.  1.
          1   -1    0    0  502    0  0.00000000000E+00 -0.00000000000E+00 -0.20280059603E+04  0.20280059603E+04  0.00000000000E+00 0. -1.
          6    1    1    2  502    0 -0.13909121741E+03 -0.47996795753E+03 -0.11467152424E+04  0.12626382911E+04  0.17200000000E+03 0. -1.
         -6    1    1    2    0  501  0.13909121741E+03  0.47996795753E+03 -0.73852119407E+03  0.90813719288E+03  0.17200000000E+03 0.  1.
</event>
<event>
 4    1  0.3094855E-002  0.2635790E+03  0.7818608E-02  0.1105012E+00
          1   -1    0    0  502    0  0.00000000000E+00  0.00000000000E+00  0.12984256557E+03  0.12984256557E+03  0.00000000000E+00 0. -1.
         -1   -1    0    0    0  501 -0.00000000000E+00 -0.00000000000E+00 -0.56085832722E+03  0.56085832722E+03  0.00000000000E+00 0.  1.
          6    1    1    2  502    0 -0.32624124850E+02 -0.19704196028E+03 -0.14144348764E+03  0.29913229152E+03  0.17200000000E+03 0. -1.
         -6    1    1    2    0  501  0.32624124850E+02  0.19704196028E+03 -0.28957227401E+03  0.39156860128E+03  0.17200000000E+03 0.  1.
</event>
<event>
 4    1  0.3094855E-002  0.1876983E+03  0.7818608E-02  0.1160554E+00
          2   -1    0    0  502    0  0.00000000000E+00  0.00000000000E+00  0.24842218769E+04  0.24842218769E+04  0.00000000000E+00 0. -1.
         -2   -1    0    0    0  501 -0.00000000000E+00 -0.00000000000E+00 -0.71848133070E+02  0.71848133070E+02  0.00000000000E+00 0.  1.
          6    1    1    2  502    0  0.65056722499E+02 -0.37606623219E+02  0.23511627278E+04  0.23586430014E+04  0.17200000000E+03 0. -1.
         -6    1    1    2    0  501 -0.65056722499E+02  0.37606623219E+02  0.61211016051E+02  0.19742700863E+03  0.17200000000E+03 0.  1.
</event>
<event>
 4    1  0.3094855E-002  0.4938722E+03  0.7818608E-02  0.1015391E+00
          2   -1    0    0  502    0  0.00000000000E+00  0.00000000000E+00  0.11955755156E+04  0.11955755156E+04  0.00000000000E+00 0. -1.
         -2   -1    0    0    0  501 -0.00000000000E+00 -0.00000000000E+00 -0.22836619580E+03  0.22836619580E+03  0.00000000000E+00 0.  1.
          6    1    1    2  502    0  0.19690681916E+03  0.41899097692E+03  0.71611820228E+03  0.86990517518E+03  0.17200000000E+03 0.  1.
         -6    1    1    2    0  501 -0.19690681916E+03 -0.41899097692E+03  0.25109111754E+03  0.55403653623E+03  0.17200000000E+03 0.  1.
</event>
<event>
 4    1  0.3094855E-002  0.1847285E+03  0.7818608E-02  0.1163304E+00
         -2   -1    0    0    0  501 -0.00000000000E+00  0.00000000000E+00  0.38926505048E+03  0.38926505048E+03  0.00000000000E+00 0.  1.
          2   -1    0    0  502    0  0.00000000000E+00 -0.00000000000E+00 -0.19241677387E+03  0.19241677387E+03  0.00000000000E+00 0. -1.
          6    1    1    2  502    0 -0.15499071912E+02 -0.65577455745E+02 -0.11616923504E+03  0.21821987788E+03  0.17200000000E+03 0. -1.
         -6    1    1    2    0  501  0.15499071912E+02  0.65577455745E+02  0.31301751165E+03  0.36346194647E+03  0.17200000000E+03 0.  1.
</event>
<event>
 4    1  0.3094855E-002  0.2798014E+03  0.7818608E-02  0.1095797E+00
         -4   -1    0    0    0  501 -0.00000000000E+00  0.00000000000E+00  0.99644322522E+02  0.99644322522E+02  0.00000000000E+00 0.  1.
          4   -1    0    0  502    0  0.00000000000E+00 -0.00000000000E+00 -0.87944346423E+03  0.87944346423E+03  0.00000000000E+00 0. -1.
          6    1    1    2  502    0  0.73991548795E+02  0.20791849321E+03 -0.54974402601E+03  0.61685277274E+03  0.17200000000E+03 0. -1.
         -6    1    1    2    0  501 -0.73991548795E+02 -0.20791849321E+03 -0.23005511570E+03  0.36223501401E+03  0.17200000000E+03 0.  1.
</event>
<event>
 4    1  0.3094855E-002  0.2007792E+03  0.7818608E-02  0.1149083E+00
         -1   -1    0    0    0  501 -0.00000000000E+00  0.00000000000E+00  0.78973217806E+02  0.78973217806E+02  0.00000000000E+00 0.  1.
          1   -1    0    0  502    0  0.00000000000E+00 -0.00000000000E+00 -0.51141298129E+03  0.51141298129E+03  0.00000000000E+00 0. -1.
          6    1    1    2  502    0 -0.59917419702E+02  0.84487826968E+02 -0.20344513339E+03  0.28583598862E+03  0.17200000000E+03 0. -1.
         -6    1    1    2    0  501  0.59917419702E+02 -0.84487826968E+02 -0.22899463009E+03  0.30455021048E+03  0.17200000000E+03 0.  1.
</event>
<event>
 4    1  0.3094855E-002  0.2091512E+03  0.7818608E-02  0.1142240E+00
         -2   -1    0    0    0  501 -0.00000000000E+00  0.00000000000E+00  0.96850559298E+02  0.96850559298E+02  0.00000000000E+00 0.  1.
          2   -1    0    0  502    0  0.00000000000E+00 -0.00000000000E+00 -0.45191285990E+03  0.45191285990E+03  0.00000000000E+00 0. -1.
          6    1    1    2  502    0 -0.11816140827E+03 -0.14074767862E+02 -0.17113341387E+03  0.27024222993E+03  0.17200000000E+03 0. -1.
         -6    1    1    2    0  501  0.11816140827E+03  0.14074767862E+02 -0.18392888673E+03  0.27852118926E+03  0.17200000000E+03 0.  1.
</event>
<event>
 4    1  0.3094855E-002  0.2974061E+03  0.7818608E-02  0.1086545E+00
          1   -1    0    0  502    0  0.00000000000E+00  0.00000000000E+00  0.14778555762E+03  0.14778555762E+03  0.00000000000E+00 0. -1.
         -1   -1    0    0    0  501 -0.00000000000E+00 -0.00000000000E+00 -0.59880971111E+03  0.59880971111E+03  0.00000000000E+00 0.  1.
          6    1    1    2  502    0  0.10814692122E+03 -0.21718799507E+03 -0.23393416007E+03  0.37838548204E+03  0.17200000000E+03 0. -1.
         -6    1    1    2    0  501 -0.10814692122E+03  0.21718799507E+03 -0.21708999342E+03  0.36820978669E+03  0.17200000000E+03 0.  1.
</event>
<event>
 4    1  0.3094855E-002  0.1803216E+03  0.7818608E-02  0.1167492E+00
         -2   -1    0    0    0  501 -0.00000000000E+00  0.00000000000E+00  0.38690397682E+03  0.38690397682E+03  0.00000000000E+00 0.  1.
          2   -1    0    0  502    0  0.00000000000E+00 -0.00000000000E+00 -0.84206861026E+02  0.84206861026E+02  0.00000000000E+00 0. -1.
          6    1    1    2  502    0  0.45139851591E+01  0.53958445998E+02  0.14090190533E+03  0.22884325833E+03  0.17200000000E+03 0.  1.
         -6    1    1    2    0  501 -0.45139851591E+01 -0.53958445998E+02  0.16179521047E+03  0.24226757952E+03  0.17200000000E+03 0. -1.
</event>
<event>
 4    1  0.3094855E-002  0.1945321E+03  0.7818608E-02  0.1154436E+00
         -2   -1    0    0    0  501 -0.00000000000E+00  0.00000000000E+00  0.18532296079E+02  0.18532296079E+02  0.00000000000E+00 0.  1.
          2   -1    0    0  502    0  0.00000000000E+00 -0.00000000000E+00 -0.20483687021E+04  0.20483687021E+04  0.00000000000E+00 0. -1.
          6    1    1    2  502    0 -0.32313475731E+02 -0.84938746642E+02 -0.10725913414E+04  0.10900894170E+04  0.17200000000E+03 0. -1.
         -6    1    1    2    0  501  0.32313475731E+02  0.84938746642E+02 -0.95724506458E+03  0.97681158114E+03  0.17200000000E+03 0.  1.
</event>
<event>
 4    1  0.3094855E-002  0.1737339E+03  0.7818608E-02  0.1174009E+00
         -1   -1    0    0    0  501 -0.00000000000E+00  0.00000000000E+00  0.11040203673E+03  0.11040203673E+03  0.00000000000E+00 0.  1.
          1   -1    0    0  502    0  0.00000000000E+00 -0.00000000000E+00 -0.29012886914E+03  0.29012886914E+03  0.00000000000E+00 0. -1.
          6    1    1    2  502    0 -0.54703441569E+01 -0.23865327011E+02 -0.41768919077E+02  0.17868441762E+03  0.17200000000E+03 0.  1.
         -6    1    1    2    0  501  0.54703441569E+01  0.23865327011E+02 -0.13795791334E+03  0.22184648825E+03  0.17200000000E+03 0. -1.
</event>
<event>
 4    1  0.3094855E-002  0.2387481E+03  0.7818608E-02  0.1120630E+00
          2   -1    0    0  502    0  0.00000000000E+00  0.00000000000E+00  0.12334307658E+04  0.12334307658E+04  0.00000000000E+00 0. -1.
         -2   -1    0    0    0  501 -0.00000000000E+00 -0.00000000000E+00 -0.10685192752E+03  0.10685192752E+03  0.00000000000E+00 0.  1.
          6    1    1    2  502    0  0.61637317679E+01  0.16546498760E+03  0.10681258034E+04  0.10944831592E+04  0.17200000000E+03 0. -1.
         -6    1    1    2    0  501 -0.61637317679E+01 -0.16546498760E+03  0.58453034849E+02  0.24579953416E+03  0.17200000000E+03 0.  1.
</event>
<event>
 4    1  0.3094855E-002  0.4747175E+03  0.7818608E-02  0.1020597E+00
         -1   -1    0    0    0  501 -0.00000000000E+00  0.00000000000E+00  0.19900503844E+03  0.19900503844E+03  0.00000000000E+00 0.  1.
          1   -1    0    0  502    0  0.00000000000E+00 -0.00000000000E+00 -0.25256369501E+04  0.25256369501E+04  0.00000000000E+00 0. -1.
          6    1    1    2  502    0  0.42466909780E+03  0.12421293603E+03 -0.21751372722E+04  0.22263375415E+04  0.17200000000E+03 0. -1.
         -6    1    1    2    0  501 -0.42466909780E+03 -0.12421293603E+03 -0.15149463948E+03  0.49830444700E+03  0.17200000000E+03 0.  1.
</event>
<event>
 4    1  0.3094855E-002  0.2855623E+03  0.7818608E-02  0.1092689E+00
         -1   -1    0    0    0  501 -0.00000000000E+00  0.00000000000E+00  0.58615060335E+03  0.58615060335E+03  0.00000000000E+00 0.  1.
          1   -1    0    0  502    0  0.00000000000E+00 -0.00000000000E+00 -0.52633632759E+03  0.52633632759E+03  0.00000000000E+00 0. -1.
          6    1    1    2  502    0 -0.18140808387E+03  0.13803234436E+03 -0.44719301389E+03  0.53059156859E+03  0.17200000000E+03 0. -1.
         -6    1    1    2    0  501  0.18140808387E+03 -0.13803234436E+03  0.50700728964E+03  0.58189536236E+03  0.17200000000E+03 0.  1.
</event>
<event>
 4    1  0.3094855E-002  0.2638511E+03  0.7818608E-02  0.1104851E+00
         -4   -1    0    0    0  501 -0.00000000000E+00  0.00000000000E+00  0.12112352834E+04  0.12112352834E+04  0.00000000000E+00 0.  1.
          4   -1    0    0  502    0  0.00000000000E+00 -0.00000000000E+00 -0.70581848210E+02  0.70581848210E+02  0.00000000000E+00 0. -1.
          6    1    1    2  502    0 -0.11453614384E+03 -0.16405748828E+03  0.29415686555E+03  0.39515269106E+03  0.17200000000E+03 0. -1.
         -6    1    1    2    0  501  0.11453614384E+03  0.16405748828E+03  0.84649656963E+03  0.88666444053E+03  0.17200000000E+03 0.  1.
</event>
<event>
 4    1  0.3094855E-002  0.1769483E+03  0.7818608E-02  0.1170790E+00
          2   -1    0    0  502    0  0.00000000000E+00  0.00000000000E+00  0.49296474334E+03  0.49296474334E+03  0.00000000000E+00 0. -1.
         -2   -1    0    0    0  501 -0.00000000000E+00 -0.00000000000E+00 -0.70589198198E+02  0.70589198198E+02  0.00000000000E+00 0.  1.
          6    1    1    2  502    0 -0.22243917070E+02 -0.35098339368E+02  0.12198607076E+03  0.21492158275E+03  0.17200000000E+03 0.  1.
         -6    1    1    2    0  501  0.22243917070E+02  0.35098339368E+02  0.30038947438E+03  0.34863235879E+03  0.17200000000E+03 0. -1.
</event>
<event>
 4    1  0.3094855E-002  0.2092353E+03  0.7818608E-02  0.1142173E+00
         -1   -1    0    0    0  501 -0.00000000000E+00  0.00000000000E+00  0.21970692640E+03  0.21970692640E+03  0.00000000000E+00 0.  1.
          1   -1    0    0  502    0  0.00000000000E+00 -0.00000000000E+00 -0.65215736371E+03  0.65215736371E+03  0.00000000000E+00 0. -1.
          6    1    1    2  502    0  0.11896003248E+03 -0.66274149512E+01 -0.57950502625E+03  0.61612132523E+03  0.17200000000E+03 0. -1.
         -6    1    1    2    0  501 -0.11896003248E+03  0.66274149512E+01  0.14705458894E+03  0.25574296488E+03  0.17200000000E+03 0.  1.
</event>
<event>
 4    1  0.3094855E-002  0.2065977E+03  0.7818608E-02  0.1144289E+00
         -2   -1    0    0    0  501 -0.00000000000E+00  0.00000000000E+00  0.11903948760E+03  0.11903948760E+03  0.00000000000E+00 0.  1.
          2   -1    0    0  502    0  0.00000000000E+00 -0.00000000000E+00 -0.23109535931E+04  0.23109535931E+04  0.00000000000E+00 0. -1.
          6    1    1    2  502    0  0.33383906662E+02 -0.10947201015E+03 -0.22127259134E+04  0.22223497866E+04  0.17200000000E+03 0. -1.
         -6    1    1    2    0  501 -0.33383906662E+02  0.10947201015E+03  0.20811807905E+02  0.20764329409E+03  0.17200000000E+03 0.  1.
</event>
<event>
 4    1  0.3094855E-002  0.1969748E+03  0.7818608E-02  0.1152317E+00
         -2   -1    0    0    0  501 -0.00000000000E+00  0.00000000000E+00  0.14401727202E+03  0.14401727202E+03  0.00000000000E+00 0.  1.
          2   -1    0    0  502    0  0.00000000000E+00 -0.00000000000E+00 -0.26958415047E+03  0.26958415047E+03  0.00000000000E+00 0. -1.
          6    1    1    2  502    0  0.83784702103E+02 -0.46852890435E+02 -0.68104525393E+02  0.20841616067E+03  0.17200000000E+03 0.  1.
         -6    1    1    2    0  501 -0.83784702103E+02  0.46852890435E+02 -0.57462353059E+02  0.20518526182E+03  0.17200000000E+03 0.  1.
</event>
<event>
 4    1  0.3094855E-002  0.1756859E+03  0.7818608E-02  0.1172045E+00
         -4   -1    0    0    0  501 -0.00000000000E+00  0.00000000000E+00  0.13950575028E+03  0.13950575028E+03  0.00000000000E+00 0.  1.
          4   -1    0    0  502    0  0.00000000000E+00 -0.00000000000E+00 -0.36837710185E+03  0.36837710185E+03  0.00000000000E+00 0. -1.
          6    1    1    2  502    0 -0.32201313695E+02 -0.15640171855E+02 -0.27492077680E+03  0.32626212330E+03  0.17200000000E+03 0. -1.
         -6    1    1    2    0  501  0.32201313695E+02  0.15640171855E+02  0.46049425228E+02  0.18162072884E+03  0.17200000000E+03 0.  1.
</event>
<event>
 4    1  0.3094855E-002  0.2059953E+03  0.7818608E-02  0.1144777E+00
         -2   -1    0    0    0  501 -0.00000000000E+00  0.00000000000E+00  0.60896637011E+02  0.60896637011E+02  0.00000000000E+00 0.  1.
          2   -1    0    0  502    0  0.00000000000E+00 -0.00000000000E+00 -0.69988450301E+03  0.69988450301E+03  0.00000000000E+00 0. -1.
          6    1    1    2  502    0  0.10908085990E+03  0.30845152428E+02 -0.29432739559E+03  0.35925293767E+03  0.17200000000E+03 0. -1.
         -6    1    1    2    0  501 -0.10908085990E+03 -0.30845152428E+02 -0.34466047040E+03  0.40152820235E+03  0.17200000000E+03 0.  1.
</event>
<event>
 4    1  0.3094855E-002  0.2143157E+03  0.7818608E-02  0.1138193E+00
         -1   -1    0    0    0  501 -0.00000000000E+00  0.00000000000E+00  0.46266195020E+02  0.46266195020E+02  0.00000000000E+00 0.  1.
          1   -1    0    0  502    0  0.00000000000E+00 -0.00000000000E+00 -0.14321486563E+04  0.14321486563E+04  0.00000000000E+00 0. -1.
          6    1    1    2  502    0 -0.87624680869E+02  0.93108250809E+02 -0.11023872526E+04  0.11230266630E+04  0.17200000000E+03 0. -1.
         -6    1    1    2    0  501  0.87624680869E+02 -0.93108250809E+02 -0.28349520867E+03  0.35538818833E+03  0.17200000000E+03 0.  1.
</event>
<event>
 4    1  0.3094855E-002  0.3487767E+03  0.7818608E-02  0.1063118E+00
          1   -1    0    0  502    0  0.00000000000E+00  0.00000000000E+00  0.50575811372E+03  0.50575811372E+03  0.00000000000E+00 0. -1.
         -1   -1    0    0    0  501 -0.00000000000E+00 -0.00000000000E+00 -0.33731664482E+03  0.33731664482E+03  0.00000000000E+00 0.  1.
          6    1    1    2  502    0 -0.55786330761E+02 -0.29824326140E+03  0.31003241267E+03  0.46665324876E+03  0.17200000000E+03 0. -1.
         -6    1    1    2    0  501  0.55786330761E+02  0.29824326140E+03 -0.14159094376E+03  0.37642150978E+03  0.17200000000E+03 0.  1.
</event>
<event>
 4    1  0.3094855E-002  0.2986177E+03  0.7818608E-02  0.1085934E+00
         -2   -1    0    0    0  501 -0.00000000000E+00  0.00000000000E+00  0.12261381174E+03  0.12261381174E+03  0.00000000000E+00 0.  1.
          2   -1    0    0  502    0  0.00000000000E+00 -0.00000000000E+00 -0.14495390880E+04  0.14495390880E+04  0.00000000000E+00 0. -1.
          6    1    1    2  502    0 -0.70985141974E+01  0.24400433858E+03 -0.12183456073E+04  0.12544076391E+04  0.17200000000E+03 0. -1.
         -6    1    1    2    0  501  0.70985141974E+01 -0.24400433858E+03 -0.10857966893E+03  0.31774526063E+03  0.17200000000E+03 0.  1.
</event>
<event>
 4    1  0.3094855E-002  0.2644360E+03  0.7818608E-02  0.1104507E+00
          2   -1    0    0  502    0  0.00000000000E+00  0.00000000000E+00  0.55969151470E+03  0.55969151470E+03  0.00000000000E+00 0. -1.
         -2   -1    0    0    0  501 -0.00000000000E+00 -0.00000000000E+00 -0.15133013892E+03  0.15133013892E+03  0.00000000000E+00 0.  1.
          6    1    1    2  502    0  0.97128261999E+02  0.17580808598E+03  0.35264861494E+03  0.44078047597E+03  0.17200000000E+03 0. -1.
         -6    1    1    2    0  501 -0.97128261999E+02 -0.17580808598E+03  0.55712760838E+02  0.27024117764E+03  0.17200000000E+03 0.  1.
</event>
<event>
 4    1  0.3094855E-002  0.2297805E+03  0.7818608E-02  0.1126794E+00
          1   -1    0    0  502    0  0.00000000000E+00  0.00000000000E+00  0.21994475671E+03  0.21994475671E+03  0.00000000000E+00 0. -1.
         -1   -1    0    0    0  501 -0.00000000000E+00 -0.00000000000E+00 -0.26424983702E+03  0.26424983702E+03  0.00000000000E+00 0.  1.
          6    1    1    2  502    0  0.13224319255E+03  0.75675662594E+02  0.51102003864E+02  0.23539431319E+03  0.17200000000E+03 0. -1.
         -6    1    1    2    0  501 -0.13224319255E+03 -0.75675662594E+02 -0.95407084181E+02  0.24880028054E+03  0.17200000000E+03 0.  1.
</event>
<event>
 4    1  0.3094855E-002  0.1733034E+03  0.7818608E-02  0.1174446E+00
         -1   -1    0    0    0  501 -0.00000000000E+00  0.00000000000E+00  0.11663572948E+03  0.11663572948E+03  0.00000000000E+00 0.  1.
          1   -1    0    0  502    0  0.00000000000E+00 -0.00000000000E+00 -0.29790718710E+03  0.29790718710E+03  0.00000000000E+00 0. -1.
          6    1    1    2  502    0  0.19583128559E+02 -0.81599608438E+01 -0.16696843321E+03  0.24065024740E+03  0.17200000000E+03 0. -1.
         -6    1    1    2    0  501 -0.19583128559E+02  0.81599608438E+01 -0.14303024407E+02  0.17389266917E+03  0.17200000000E+03 0.  1.
</event>
<event>
 4    1  0.3094855E-002  0.1793362E+03  0.7818608E-02  0.1168447E+00
         -2   -1    0    0    0  501 -0.00000000000E+00  0.00000000000E+00  0.27364887107E+02  0.27364887107E+02  0.00000000000E+00 0.  1.
          2   -1    0    0  502    0  0.00000000000E+00 -0.00000000000E+00 -0.12168367836E+04  0.12168367836E+04  0.00000000000E+00 0. -1.
          6    1    1    2  502    0 -0.47596956295E+02 -0.17663697769E+02 -0.70969729537E+03  0.73200527835E+03  0.17200000000E+03 0. -1.
         -6    1    1    2    0  501  0.47596956295E+02  0.17663697769E+02 -0.47977460113E+03  0.51219639237E+03  0.17200000000E+03 0.  1.
</event>
<event>
 4    1  0.3094855E-002  0.2318805E+03  0.7818608E-02  0.1125323E+00
          2   -1    0    0  502    0  0.00000000000E+00  0.00000000000E+00  0.62596728021E+03  0.62596728021E+03  0.00000000000E+00 0. -1.
         -2   -1    0    0    0  501 -0.00000000000E+00 -0.00000000000E+00 -0.86726714453E+02  0.86726714453E+02  0.00000000000E+00 0.  1.
          6    1    1    2  502    0  0.55827585176E+02 -0.14514762144E+03  0.30448032834E+03  0.38272290449E+03  0.17200000000E+03 0. -1.
         -6    1    1    2    0  501 -0.55827585176E+02  0.14514762144E+03  0.23476023742E+03  0.32997109017E+03  0.17200000000E+03 0.  1.
</event>
<event>
 4    1  0.3094855E-002  0.2075858E+03  0.7818608E-02  0.1143492E+00
          2   -1    0    0  502    0  0.00000000000E+00  0.00000000000E+00  0.55800776624E+03  0.55800776624E+03  0.00000000000E+00 0. -1.
         -2   -1    0    0    0  501 -0.00000000000E+00 -0.00000000000E+00 -0.84117055761E+02  0.84117055761E+02  0.00000000000E+00 0.  1.
          6    1    1    2  502    0  0.98334433573E+02  0.61953359437E+02  0.32884991875E+03  0.38888834983E+03  0.17200000000E+03 0.  1.
         -6    1    1    2    0  501 -0.98334433573E+02 -0.61953359437E+02  0.14504079172E+03  0.25323647217E+03  0.17200000000E+03 0. -1.
</event>
<event>
 4    1  0.3094855E-002  0.2143815E+03  0.7818608E-02  0.1138143E+00
          3   -1    0    0  502    0  0.00000000000E+00  0.00000000000E+00  0.31349909833E+03  0.31349909833E+03  0.00000000000E+00 0. -1.
         -3   -1    0    0    0  501 -0.00000000000E+00 -0.00000000000E+00 -0.16050277742E+03  0.16050277742E+03  0.00000000000E+00 0.  1.
          6    1    1    2  502    0 -0.88662815326E+02  0.92273045633E+02  0.14624709109E+03  0.25951420274E+03  0.17200000000E+03 0. -1.
         -6    1    1    2    0  501  0.88662815326E+02 -0.92273045633E+02  0.67492298172E+01  0.21448767301E+03  0.17200000000E+03 0.  1.
</event>
<event>
 4    1  0.3094855E-002  0.5324206E+03  0.7818608E-02  0.1005647E+00
         -2   -1    0    0    0  501 -0.00000000000E+00  0.00000000000E+00  0.10118178094E+04  0.10118178094E+04  0.00000000000E+00 0.  1.
          2   -1    0    0  502    0  0.00000000000E+00 -0.00000000000E+00 -0.31402813012E+03  0.31402813012E+03  0.00000000000E+00 0. -1.
          6    1    1    2  502    0 -0.37574585965E+03 -0.33571231952E+03  0.13118948598E+03  0.54834514109E+03  0.17200000000E+03 0. -1.
         -6    1    1    2    0  501  0.37574585965E+03  0.33571231952E+03  0.56660019333E+03  0.77750079846E+03  0.17200000000E+03 0.  1.
</event>
<event>
 4    1  0.3094855E-002  0.3214494E+03  0.7818608E-02  0.1074984E+00
         -2   -1    0    0    0  501 -0.00000000000E+00  0.00000000000E+00  0.91783458712E+02  0.91783458712E+02  0.00000000000E+00 0.  1.
          2   -1    0    0  502    0  0.00000000000E+00 -0.00000000000E+00 -0.20030904280E+04  0.20030904280E+04  0.00000000000E+00 0. -1.
          6    1    1    2  502    0 -0.22480234323E+03  0.15234702115E+03 -0.16488391932E+04  0.16798810652E+04  0.17200000000E+03 0. -1.
         -6    1    1    2    0  501  0.22480234323E+03 -0.15234702115E+03 -0.26246777609E+03  0.41499282145E+03  0.17200000000E+03 0.  1.
</event>
<event>
 4    1  0.3094855E-002  0.3490824E+03  0.7818608E-02  0.1062992E+00
          2   -1    0    0  502    0  0.00000000000E+00  0.00000000000E+00  0.13565699529E+04  0.13565699529E+04  0.00000000000E+00 0. -1.
         -2   -1    0    0    0  501 -0.00000000000E+00 -0.00000000000E+00 -0.90600918613E+02  0.90600918613E+02  0.00000000000E+00 0.  1.
          6    1    1    2  502    0  0.14775723872E+03  0.26540978252E+03  0.69979867239E+03  0.78203371803E+03  0.17200000000E+03 0. -1.
         -6    1    1    2    0  501 -0.14775723872E+03 -0.26540978252E+03  0.56617036186E+03  0.66513715345E+03  0.17200000000E+03 0.  1.
</event>
<event>
 4    1  0.3094855E-002  0.2351304E+03  0.7818608E-02  0.1123080E+00
          2   -1    0    0  502    0  0.00000000000E+00  0.00000000000E+00  0.17459412001E+04  0.17459412001E+04  0.00000000000E+00 0. -1.
         -2   -1    0    0    0  501 -0.00000000000E+00 -0.00000000000E+00 -0.32343010865E+02  0.32343010865E+02  0.00000000000E+00 0.  1.
          6    1    1    2  502    0 -0.71835361323E+02 -0.14332471026E+03  0.98547703111E+03  0.10131393145E+04  0.17200000000E+03 0. -1.
         -6    1    1    2    0  501  0.71835361323E+02  0.14332471026E+03  0.72812115817E+03  0.76514489652E+03  0.17200000000E+03 0. -1.
</event>
<event>
 4    1  0.3094855E-002  0.6238468E+03  0.7818608E-02  0.9857130E-01
          2   -1    0    0  502    0  0.00000000000E+00  0.00000000000E+00  0.50150165489E+03  0.50150165489E+03  0.00000000000E+00 0. -1.
         -2   -1    0    0    0  501 -0.00000000000E+00 -0.00000000000E+00 -0.89740415639E+03  0.89740415639E+03  0.00000000000E+00 0.  1.
          6    1    1    2  502    0 -0.42955644209E+03  0.41842818558E+03  0.59272641218E+02  0.62665630886E+03  0.17200000000E+03 0. -1.
         -6    1    1    2    0  501  0.42955644209E+03 -0.41842818558E+03 -0.45517514272E+03  0.77224950242E+03  0.17200000000E+03 0.  1.
</event>
<event>
 4    1  0.3094855E-002  0.2337827E+03  0.7818608E-02  0.1124005E+00
          2   -1    0    0  502    0  0.00000000000E+00  0.00000000000E+00  0.69410682686E+03  0.69410682686E+03  0.00000000000E+00 0. -1.
         -2   -1    0    0    0  501 -0.00000000000E+00 -0.00000000000E+00 -0.99533209998E+02  0.99533209998E+02  0.00000000000E+00 0.  1.
          6    1    1    2  502    0 -0.70444554442E+02  0.14180244305E+03  0.11591726028E+03  0.26094286604E+03  0.17200000000E+03 0.  1.
         -6    1    1    2    0  501  0.70444554442E+02 -0.14180244305E+03  0.47865635658E+03  0.53269717082E+03  0.17200000000E+03 0. -1.
</event>
<event>
 4    1  0.3094855E-002  0.2999024E+03  0.7818608E-02  0.1085289E+00
          2   -1    0    0  502    0  0.00000000000E+00  0.00000000000E+00  0.20851637427E+04  0.20851637427E+04  0.00000000000E+00 0. -1.
         -2   -1    0    0    0  501 -0.00000000000E+00 -0.00000000000E+00 -0.48842455071E+02  0.48842455071E+02  0.00000000000E+00 0.  1.
          6    1    1    2  502    0  0.63298775457E+02 -0.23738303568E+03  0.13829368108E+04  0.14150815041E+04  0.17200000000E+03 0. -1.
         -6    1    1    2    0  501 -0.63298775457E+02  0.23738303568E+03  0.65338447690E+03  0.71892469373E+03  0.17200000000E+03 0.  1.
</event>
<event>
 4    1  0.3094855E-002  0.2488183E+03  0.7818608E-02  0.1114054E+00
         -1   -1    0    0    0  501 -0.00000000000E+00  0.00000000000E+00  0.59774445469E+03  0.59774445469E+03  0.00000000000E+00 0.  1.
          1   -1    0    0  502    0  0.00000000000E+00 -0.00000000000E+00 -0.18954679265E+03  0.18954679265E+03  0.00000000000E+00 0. -1.
          6    1    1    2  502    0  0.17028849100E+03 -0.57691904108E+02 -0.61012820722E+02  0.25618955923E+03  0.17200000000E+03 0. -1.
         -6    1    1    2    0  501 -0.17028849100E+03  0.57691904108E+02  0.46921048277E+03  0.53110168810E+03  0.17200000000E+03 0.  1.
</event>
<event>
 4    1  0.3094855E-002  0.2957004E+03  0.7818608E-02  0.1087410E+00
         -2   -1    0    0    0  501 -0.00000000000E+00  0.00000000000E+00  0.43079665756E+02  0.43079665756E+02  0.00000000000E+00 0.  1.
          2   -1    0    0  502    0  0.00000000000E+00 -0.00000000000E+00 -0.25095634924E+04  0.25095634924E+04  0.00000000000E+00 0. -1.
          6    1    1    2  502    0 -0.21264738343E+03 -0.11240912572E+03 -0.17913530330E+04  0.18155947814E+04  0.17200000000E+03 0. -1.
         -6    1    1    2    0  501  0.21264738343E+03  0.11240912572E+03 -0.67513079362E+03  0.73704837679E+03  0.17200000000E+03 0.  1.
</event>
<event>
 4    1  0.3094855E-002  0.3090582E+03  0.7818608E-02  0.1080798E+00
         -2   -1    0    0    0  501 -0.00000000000E+00  0.00000000000E+00  0.12828837488E+03  0.12828837488E+03  0.00000000000E+00 0.  1.
          2   -1    0    0  502    0  0.00000000000E+00 -0.00000000000E+00 -0.74467776909E+03  0.74467776909E+03  0.00000000000E+00 0. -1.
          6    1    1    2  502    0 -0.73522553869E+02  0.24602322702E+03 -0.31393214692E+03  0.44053420642E+03  0.17200000000E+03 0. -1.
         -6    1    1    2    0  501  0.73522553869E+02 -0.24602322702E+03 -0.30245724730E+03  0.43243193754E+03  0.17200000000E+03 0.  1.
</event>
<event>
 4    1  0.3094855E-002  0.2951063E+03  0.7818608E-02  0.1087713E+00
          2   -1    0    0  502    0  0.00000000000E+00  0.00000000000E+00  0.10124474019E+03  0.10124474019E+03  0.00000000000E+00 0. -1.
         -2   -1    0    0    0  501 -0.00000000000E+00 -0.00000000000E+00 -0.10384155664E+04  0.10384155664E+04  0.00000000000E+00 0.  1.
          6    1    1    2  502    0  0.19553035390E+03 -0.13882214909E+03 -0.23250010739E+03  0.37569137375E+03  0.17200000000E+03 0. -1.
         -6    1    1    2    0  501 -0.19553035390E+03  0.13882214909E+03 -0.70467071879E+03  0.76396893281E+03  0.17200000000E+03 0.  1.
</event>
<event>
 4    1  0.3094855E-002  0.2417397E+03  0.7818608E-02  0.1118639E+00
         -1   -1    0    0    0  501 -0.00000000000E+00  0.00000000000E+00  0.45296384310E+02  0.45296384310E+02  0.00000000000E+00 0.  1.
          1   -1    0    0  502    0  0.00000000000E+00 -0.00000000000E+00 -0.13157170914E+04  0.13157170914E+04  0.00000000000E+00 0. -1.
          6    1    1    2  502    0 -0.16559200123E+03  0.37860187389E+02 -0.54030645707E+03  0.59191990355E+03  0.17200000000E+03 0.  1.
         -6    1    1    2    0  501  0.16559200123E+03 -0.37860187389E+02 -0.73011424998E+03  0.76909357212E+03  0.17200000000E+03 0. -1.
</event>
<event>
 4    1  0.3094855E-002  0.1990830E+03  0.7818608E-02  0.1150515E+00
          1   -1    0    0  502    0  0.00000000000E+00  0.00000000000E+00  0.34312452012E+03  0.34312452012E+03  0.00000000000E+00 0. -1.
         -1   -1    0    0    0  501 -0.00000000000E+00 -0.00000000000E+00 -0.12362829037E+03  0.12362829037E+03  0.00000000000E+00 0.  1.
          6    1    1    2  502    0  0.90492803525E+02  0.43140616130E+02  0.49941388442E+02  0.20525155914E+03  0.17200000000E+03 0. -1.
         -6    1    1    2    0  501 -0.90492803525E+02 -0.43140616130E+02  0.16955484130E+03  0.26150125135E+03  0.17200000000E+03 0. -1.
</event>
<event>
 4    1  0.3094855E-002  0.1846778E+03  0.7818608E-02  0.1163351E+00
          2   -1    0    0  502    0  0.00000000000E+00  0.00000000000E+00  0.10472515878E+04  0.10472515878E+04  0.00000000000E+00 0. -1.
         -2   -1    0    0    0  501 -0.00000000000E+00 -0.00000000000E+00 -0.60857856353E+02  0.60857856353E+02  0.00000000000E+00 0.  1.
          6    1    1    2  502    0  0.62946411414E+02 -0.23656454634E+02  0.87095786402E+03  0.89032212117E+03  0.17200000000E+03 0. -1.
         -6    1    1    2    0  501 -0.62946411414E+02  0.23656454634E+02  0.11543586740E+03  0.21778732295E+03  0.17200000000E+03 0.  1.
</event>
<event>
 4    1  0.3094855E-002  0.2096407E+03  0.7818608E-02  0.1141851E+00
         -4   -1    0    0    0  501 -0.00000000000E+00  0.00000000000E+00  0.15508195573E+04  0.15508195573E+04  0.00000000000E+00 0.  1.
          4   -1    0    0  502    0  0.00000000000E+00 -0.00000000000E+00 -0.29657169954E+02  0.29657169954E+02  0.00000000000E+00 0. -1.
          6    1    1    2  502    0  0.11222482396E+03 -0.42080789576E+02  0.92716117568E+03  0.95056669921E+03  0.17200000000E+03 0.  1.
         -6    1    1    2    0  501 -0.11222482396E+03  0.42080789576E+02  0.59400121166E+03  0.62991002803E+03  0.17200000000E+03 0.  1.
</event>
<event>
 4    1  0.3094855E-002  0.1728127E+03  0.7818608E-02  0.1174946E+00
          2   -1    0    0  502    0  0.00000000000E+00  0.00000000000E+00  0.73397394611E+03  0.73397394611E+03  0.00000000000E+00 0. -1.
         -2   -1    0    0    0  501 -0.00000000000E+00 -0.00000000000E+00 -0.43161514771E+02  0.43161514771E+02  0.00000000000E+00 0.  1.
          6    1    1    2  502    0 -0.12765257401E+02 -0.10830146538E+02  0.25239435534E+03  0.30588748663E+03  0.17200000000E+03 0.  1.
         -6    1    1    2    0  501  0.12765257401E+02  0.10830146538E+02  0.43841807600E+03  0.47124797425E+03  0.17200000000E+03 0. -1.
</event>
<event>
 4    1  0.3094855E-002  0.2717707E+03  0.7818608E-02  0.1100270E+00
          2   -1    0    0  502    0  0.00000000000E+00  0.00000000000E+00  0.27722315851E+04  0.27722315851E+04  0.00000000000E+00 0. -1.
         -2   -1    0    0    0  501 -0.00000000000E+00 -0.00000000000E+00 -0.36944500311E+02  0.36944500311E+02  0.00000000000E+00 0.  1.
          6    1    1    2  502    0 -0.17240764750E+03 -0.12062726219E+03  0.62593431448E+03  0.68238779250E+03  0.17200000000E+03 0. -1.
         -6    1    1    2    0  501  0.17240764750E+03  0.12062726219E+03  0.21093527703E+04  0.21267882929E+04  0.17200000000E+03 0.  1.
</event>
<event>
 4    1  0.3094855E-002  0.2047953E+03  0.7818608E-02  0.1145755E+00
         -2   -1    0    0    0  501 -0.00000000000E+00  0.00000000000E+00  0.59229628196E+02  0.59229628196E+02  0.00000000000E+00 0.  1.
          2   -1    0    0  502    0  0.00000000000E+00 -0.00000000000E+00 -0.10632783076E+04  0.10632783076E+04  0.00000000000E+00 0. -1.
          6    1    1    2  502    0  0.94866867204E+02  0.57942901231E+02 -0.82640349936E+03  0.85140110761E+03  0.17200000000E+03 0. -1.
         -6    1    1    2    0  501 -0.94866867204E+02 -0.57942901231E+02 -0.17764518006E+03  0.27110682820E+03  0.17200000000E+03 0.  1.
</event>
<event>
 4    1  0.3094855E-002  0.2683769E+03  0.7818608E-02  0.1102212E+00
         -1   -1    0    0    0  501 -0.00000000000E+00  0.00000000000E+00  0.82457301986E+02  0.82457301986E+02  0.00000000000E+00 0.  1.
          1   -1    0    0  502    0  0.00000000000E+00 -0.00000000000E+00 -0.12901050761E+04  0.12901050761E+04  0.00000000000E+00 0. -1.
          6    1    1    2  502    0 -0.19397394004E+03 -0.69399342819E+02 -0.99381408988E+03  0.10294137183E+04  0.17200000000E+03 0. -1.
         -6    1    1    2    0  501  0.19397394004E+03  0.69399342819E+02 -0.21383368425E+03  0.34314865979E+03  0.17200000000E+03 0.  1.
</event>
<event>
 4    1  0.3094855E-002  0.1933748E+03  0.7818608E-02  0.1155452E+00
         -2   -1    0    0    0  501 -0.00000000000E+00  0.00000000000E+00  0.26381274101E+02  0.26381274101E+02  0.00000000000E+00 0.  1.
          2   -1    0    0  502    0  0.00000000000E+00 -0.00000000000E+00 -0.14186174605E+04  0.14186174605E+04  0.00000000000E+00 0. -1.
          6    1    1    2  502    0 -0.42595315402E+02 -0.77430316595E+02 -0.67528348036E+03  0.70242550756E+03  0.17200000000E+03 0. -1.
         -6    1    1    2    0  501  0.42595315402E+02  0.77430316595E+02 -0.71695270600E+03  0.74257322700E+03  0.17200000000E+03 0. -1.
</event>
<event>
 4    1  0.3094855E-002  0.8167650E+03  0.7818608E-02  0.9536063E-01
         -1   -1    0    0    0  501 -0.00000000000E+00  0.00000000000E+00  0.16031734876E+04  0.16031734876E+04  0.00000000000E+00 0.  1.
          1   -1    0    0  502    0  0.00000000000E+00 -0.00000000000E+00 -0.76277847561E+03  0.76277847561E+03  0.00000000000E+00 0. -1.
          6    1    1    2  502    0 -0.29019365858E+02  0.79792166531E+03 -0.37730220142E+03  0.89970109412E+03  0.17200000000E+03 0. -1.
         -6    1    1    2    0  501  0.29019365858E+02 -0.79792166531E+03  0.12176972134E+04  0.14662508691E+04  0.17200000000E+03 0.  1.
</event>
<event>
 4    1  0.3094855E-002  0.2241364E+03  0.7818608E-02  0.1130836E+00
          2   -1    0    0  502    0  0.00000000000E+00  0.00000000000E+00  0.67508917209E+03  0.67508917209E+03  0.00000000000E+00 0. -1.
         -2   -1    0    0    0  501 -0.00000000000E+00 -0.00000000000E+00 -0.78031254096E+02  0.78031254096E+02  0.00000000000E+00 0.  1.
          6    1    1    2  502    0 -0.11643595492E+03 -0.84236477959E+02  0.21747056002E+03  0.31229883172E+03  0.17200000000E+03 0. -1.
         -6    1    1    2    0  501  0.11643595492E+03  0.84236477959E+02  0.37958735798E+03  0.44082159447E+03  0.17200000000E+03 0.  1.
</event>
<event>
 4    1  0.3094855E-002  0.1766346E+03  0.7818608E-02  0.1171100E+00
          1   -1    0    0  502    0  0.00000000000E+00  0.00000000000E+00  0.99597898373E+02  0.99597898373E+02  0.00000000000E+00 0. -1.
         -1   -1    0    0    0  501 -0.00000000000E+00 -0.00000000000E+00 -0.36494526450E+03  0.36494526450E+03  0.00000000000E+00 0.  1.
          6    1    1    2  502    0 -0.33996239745E+01  0.40052770605E+02 -0.45260613526E+02  0.18234117750E+03  0.17200000000E+03 0. -1.
         -6    1    1    2    0  501  0.33996239745E+01 -0.40052770605E+02 -0.22008675260E+03  0.28220198537E+03  0.17200000000E+03 0.  1.
</event>
<event>
 4    1  0.3094855E-002  0.2678571E+03  0.7818608E-02  0.1102512E+00
         -1   -1    0    0    0  501 -0.00000000000E+00  0.00000000000E+00  0.78707020421E+02  0.78707020421E+02  0.00000000000E+00 0.  1.
          1   -1    0    0  502    0  0.00000000000E+00 -0.00000000000E+00 -0.19615261793E+04  0.19615261793E+04  0.00000000000E+00 0. -1.
          6    1    1    2  502    0 -0.19468726165E+03 -0.65270829840E+02 -0.16877503357E+04  0.17088734906E+04  0.17200000000E+03 0. -1.
         -6    1    1    2    0  501  0.19468726165E+03  0.65270829840E+02 -0.19506882317E+03  0.33135970915E+03  0.17200000000E+03 0.  1.
</event>
<event>
 4    1  0.3094855E-002  0.1768582E+03  0.7818608E-02  0.1170879E+00
          2   -1    0    0  502    0  0.00000000000E+00  0.00000000000E+00  0.90495545694E+03  0.90495545694E+03  0.00000000000E+00 0. -1.
         -2   -1    0    0    0  501 -0.00000000000E+00 -0.00000000000E+00 -0.44354113249E+02  0.44354113249E+02  0.00000000000E+00 0.  1.
          6    1    1    2  502    0  0.39858817240E+02 -0.10300954230E+02  0.65330119637E+03  0.67681702708E+03  0.17200000000E+03 0. -1.
         -6    1    1    2    0  501 -0.39858817240E+02  0.10300954230E+02  0.20730014733E+03  0.27249254311E+03  0.17200000000E+03 0.  1.
</event>
<event>
 4    1  0.3094855E-002  0.2698393E+03  0.7818608E-02  0.1101372E+00
          2   -1    0    0  502    0  0.00000000000E+00  0.00000000000E+00  0.39247371557E+04  0.39247371557E+04  0.00000000000E+00 0. -1.
         -2   -1    0    0    0  501 -0.00000000000E+00 -0.00000000000E+00 -0.23408329451E+02  0.23408329451E+02  0.00000000000E+00 0.  1.
          6    1    1    2  502    0 -0.71784033956E+02 -0.19513156248E+03  0.28497775573E+04  0.28625243056E+04  0.17200000000E+03 0. -1.
         -6    1    1    2    0  501  0.71784033956E+02  0.19513156248E+03  0.10515512690E+04  0.10856211795E+04  0.17200000000E+03 0.  1.
</event>
<event>
 4    1  0.3094855E-002  0.1763226E+03  0.7818608E-02  0.1171410E+00
          2   -1    0    0  502    0  0.00000000000E+00  0.00000000000E+00  0.65855335275E+03  0.65855335275E+03  0.00000000000E+00 0. -1.
         -2   -1    0    0    0  501 -0.00000000000E+00 -0.00000000000E+00 -0.50767352684E+02  0.50767352684E+02  0.00000000000E+00 0.  1.
          6    1    1    2  502    0  0.29526990422E+02 -0.25175996641E+02  0.39778794574E+03  0.43511483972E+03  0.17200000000E+03 0. -1.
         -6    1    1    2    0  501 -0.29526990422E+02  0.25175996641E+02  0.20999805432E+03  0.27420586571E+03  0.17200000000E+03 0.  1.
</event>
<event>
 4    1  0.3094855E-002  0.7547854E+03  0.7818608E-02  0.9627873E-01
          2   -1    0    0  502    0  0.00000000000E+00  0.00000000000E+00  0.35169123553E+03  0.35169123553E+03  0.00000000000E+00 0. -1.
         -2   -1    0    0    0  501 -0.00000000000E+00 -0.00000000000E+00 -0.26117426059E+04  0.26117426059E+04  0.00000000000E+00 0.  1.
          6    1    1    2  502    0  0.20961018355E+03  0.70440087105E+03 -0.21691445383E+03  0.78533616780E+03  0.17200000000E+03 0. -1.
         -6    1    1    2    0  501 -0.20961018355E+03 -0.70440087105E+03 -0.20431369165E+04  0.21780976736E+04  0.17200000000E+03 0.  1.
</event>
<event>
 4    1  0.3094855E-002  0.3955946E+03  0.7818608E-02  0.1045316E+00
          1   -1    0    0  502    0  0.00000000000E+00  0.00000000000E+00  0.75336827910E+03  0.75336827910E+03  0.00000000000E+00 0. -1.
         -1   -1    0    0    0  501 -0.00000000000E+00 -0.00000000000E+00 -0.21154455397E+03  0.21154455397E+03  0.00000000000E+00 0.  1.
          6    1    1    2  502    0 -0.34286102010E+03 -0.96733627554E+02  0.33572142462E+03  0.51884867616E+03  0.17200000000E+03 0. -1.
         -6    1    1    2    0  501  0.34286102010E+03  0.96733627554E+02  0.20610230050E+03  0.44606415690E+03  0.17200000000E+03 0.  1.
</event>
<event>
 4    1  0.3094855E-002  0.1823093E+03  0.7818608E-02  0.1165587E+00
         -1   -1    0    0    0  501 -0.00000000000E+00  0.00000000000E+00  0.30772089870E+02  0.30772089870E+02  0.00000000000E+00 0.  1.
          1   -1    0    0  502    0  0.00000000000E+00 -0.00000000000E+00 -0.14470149619E+04  0.14470149619E+04  0.00000000000E+00 0. -1.
          6    1    1    2  502    0 -0.96644125411E+01 -0.59659760336E+02 -0.10801984147E+04  0.10954749212E+04  0.17200000000E+03 0. -1.
         -6    1    1    2    0  501  0.96644125411E+01  0.59659760336E+02 -0.33604445734E+03  0.38231213057E+03  0.17200000000E+03 0.  1.
</event>
<event>
 4    1  0.3094855E-002  0.2397949E+03  0.7818608E-02  0.1119930E+00
          2   -1    0    0  502    0  0.00000000000E+00  0.00000000000E+00  0.50683060751E+03  0.50683060751E+03  0.00000000000E+00 0. -1.
         -2   -1    0    0    0  501 -0.00000000000E+00 -0.00000000000E+00 -0.15158504484E+03  0.15158504484E+03  0.00000000000E+00 0.  1.
          6    1    1    2  502    0 -0.98043194906E+02 -0.13529641506E+03  0.34273739113E+03  0.41829476123E+03  0.17200000000E+03 0. -1.
         -6    1    1    2    0  501  0.98043194906E+02  0.13529641506E+03  0.12508171548E+02  0.24012089112E+03  0.17200000000E+03 0.  1.
</event>
<event>
 4    1  0.3094855E-002  0.9216856E+03  0.7818608E-02  0.9398872E-01
         -2   -1    0    0    0  501 -0.00000000000E+00  0.00000000000E+00  0.15905710222E+04  0.15905710222E+04  0.00000000000E+00 0.  1.
          2   -1    0    0  502    0  0.00000000000E+00 -0.00000000000E+00 -0.93735380182E+03  0.93735380182E+03  0.00000000000E+00 0. -1.
          6    1    1    2  502    0 -0.65576716923E+03 -0.62441152779E+03 -0.50243671157E+03  0.10497366267E+04  0.17200000000E+03 0. -1.
         -6    1    1    2    0  501  0.65576716923E+03  0.62441152779E+03  0.11556539319E+04  0.14781881973E+04  0.17200000000E+03 0.  1.
</event>
<event>
 4    1  0.3094855E-002  0.1907118E+03  0.7818608E-02  0.1157821E+00
         -2   -1    0    0    0  501 -0.00000000000E+00  0.00000000000E+00  0.67035861084E+02  0.67035861084E+02  0.00000000000E+00 0.  1.
          2   -1    0    0  502    0  0.00000000000E+00 -0.00000000000E+00 -0.73118383705E+03  0.73118383705E+03  0.00000000000E+00 0. -1.
          6    1    1    2  502    0 -0.82312499979E+02 -0.34106409139E+01 -0.12936295617E+03  0.23044685842E+03  0.17200000000E+03 0.  1.
         -6    1    1    2    0  501  0.82312499979E+02  0.34106409139E+01 -0.53478501980E+03  0.56777283972E+03  0.17200000000E+03 0. -1.
</event>
<event>
 4    1  0.3094855E-002  0.2831018E+03  0.7818608E-02  0.1094007E+00
          1   -1    0    0  502    0  0.00000000000E+00  0.00000000000E+00  0.39705899983E+03  0.39705899983E+03  0.00000000000E+00 0. -1.
         -1   -1    0    0    0  501 -0.00000000000E+00 -0.00000000000E+00 -0.28796135037E+03  0.28796135037E+03  0.00000000000E+00 0.  1.
          6    1    1    2  502    0  0.22377702921E+03 -0.22056446042E+02  0.24184752229E+03  0.37233972344E+03  0.17200000000E+03 0. -1.
         -6    1    1    2    0  501 -0.22377702921E+03  0.22056446042E+02 -0.13274987282E+03  0.31268062676E+03  0.17200000000E+03 0.  1.
</event>
<event>
 4    1  0.3094855E-002  0.1911471E+03  0.7818608E-02  0.1157431E+00
          1   -1    0    0  502    0  0.00000000000E+00  0.00000000000E+00  0.45841000738E+03  0.45841000738E+03  0.00000000000E+00 0. -1.
         -1   -1    0    0    0  501 -0.00000000000E+00 -0.00000000000E+00 -0.97954371342E+02  0.97954371342E+02  0.00000000000E+00 0.  1.
          6    1    1    2  502    0  0.45672886591E+01 -0.83260774613E+02  0.30030224554E+03  0.35597563876E+03  0.17200000000E+03 0. -1.
         -6    1    1    2    0  501 -0.45672886591E+01  0.83260774613E+02  0.60153390497E+02  0.20038873996E+03  0.17200000000E+03 0.  1.
</event>
<event>
 4    1  0.3094855E-002  0.1989973E+03  0.7818608E-02  0.1150588E+00
          2   -1    0    0  502    0  0.00000000000E+00  0.00000000000E+00  0.35589044292E+03  0.35589044292E+03  0.00000000000E+00 0. -1.
         -2   -1    0    0    0  501 -0.00000000000E+00 -0.00000000000E+00 -0.11177796948E+03  0.11177796948E+03  0.00000000000E+00 0.  1.
          6    1    1    2  502    0 -0.97263857254E+02 -0.23572862843E+02  0.13781923712E+03  0.24206214060E+03  0.17200000000E+03 0. -1.
         -6    1    1    2    0  501  0.97263857254E+02  0.23572862843E+02  0.10629323631E+03  0.22560627180E+03  0.17200000000E+03 0.  1.
</event>
<event>
 4    1  0.3094855E-002  0.1747063E+03  0.7818608E-02  0.1173027E+00
         -2   -1    0    0    0  501 -0.00000000000E+00  0.00000000000E+00  0.11812102074E+03  0.11812102074E+03  0.00000000000E+00 0.  1.
          2   -1    0    0  502    0  0.00000000000E+00 -0.00000000000E+00 -0.26176166556E+03  0.26176166556E+03  0.00000000000E+00 0. -1.
          6    1    1    2  502    0  0.18701439890E+02 -0.24259784400E+02 -0.50290124035E+02  0.18180037835E+03  0.17200000000E+03 0.  1.
         -6    1    1    2    0  501 -0.18701439890E+02  0.24259784400E+02 -0.93350520789E+02  0.19808230795E+03  0.17200000000E+03 0. -1.
</event>
<event>
 4    1  0.3094855E-002  0.1741397E+03  0.7818608E-02  0.1173598E+00
          1   -1    0    0  502    0  0.00000000000E+00  0.00000000000E+00  0.61050106778E+03  0.61050106778E+03  0.00000000000E+00 0. -1.
         -1   -1    0    0    0  501 -0.00000000000E+00 -0.00000000000E+00 -0.49730538412E+02  0.49730538412E+02  0.00000000000E+00 0.  1.
          6    1    1    2  502    0 -0.16114239412E+02 -0.21930702753E+02  0.26903008549E+03  0.32047123324E+03  0.17200000000E+03 0. -1.
         -6    1    1    2    0  501  0.16114239412E+02  0.21930702753E+02  0.29174044388E+03  0.33976037295E+03  0.17200000000E+03 0.  1.
</event>
<event>
 4    1  0.3094855E-002  0.1836553E+03  0.7818608E-02  0.1164312E+00
         -3   -1    0    0    0  501 -0.00000000000E+00  0.00000000000E+00  0.11510461241E+03  0.11510461241E+03  0.00000000000E+00 0.  1.
          3   -1    0    0  502    0  0.00000000000E+00 -0.00000000000E+00 -0.37766694441E+03  0.37766694441E+03  0.00000000000E+00 0. -1.
          6    1    1    2  502    0 -0.62323259242E+02 -0.16158218927E+02 -0.24791842386E+03  0.30853333948E+03  0.17200000000E+03 0. -1.
         -6    1    1    2    0  501  0.62323259242E+02  0.16158218927E+02 -0.14643908141E+02  0.18423821734E+03  0.17200000000E+03 0.  1.
</event>
<event>
 4    1  0.3094855E-002  0.2307409E+03  0.7818608E-02  0.1126119E+00
         -2   -1    0    0    0  501 -0.00000000000E+00  0.00000000000E+00  0.10179538510E+03  0.10179538510E+03  0.00000000000E+00 0.  1.
          2   -1    0    0  502    0  0.00000000000E+00 -0.00000000000E+00 -0.63482544357E+03  0.63482544357E+03  0.00000000000E+00 0. -1.
          6    1    1    2  502    0  0.89283583505E+02 -0.12524301894E+03 -0.42108019995E+03  0.48015612760E+03  0.17200000000E+03 0. -1.
         -6    1    1    2    0  501 -0.89283583505E+02  0.12524301894E+03 -0.11194985852E+03  0.25646470108E+03  0.17200000000E+03 0.  1.
</event>
<event>
 4    1  0.3094855E-002  0.2916054E+03  0.7818608E-02  0.1089514E+00
         -1   -1    0    0    0  501 -0.00000000000E+00  0.00000000000E+00  0.21759650280E+04  0.21759650280E+04  0.00000000000E+00 0.  1.
          1   -1    0    0  502    0  0.00000000000E+00 -0.00000000000E+00 -0.44925554370E+02  0.44925554370E+02  0.00000000000E+00 0. -1.
          6    1    1    2  502    0 -0.22785730238E+03  0.59420205344E+02  0.66491641715E+03  0.72604927715E+03  0.17200000000E+03 0. -1.
         -6    1    1    2    0  501  0.22785730238E+03 -0.59420205344E+02  0.14661230565E+04  0.14948413052E+04  0.17200000000E+03 0.  1.
</event>
<event>
 4    1  0.3094855E-002  0.2201531E+03  0.7818608E-02  0.1133769E+00
          2   -1    0    0  502    0  0.00000000000E+00  0.00000000000E+00  0.33740897921E+03  0.33740897921E+03  0.00000000000E+00 0. -1.
         -2   -1    0    0    0  501 -0.00000000000E+00 -0.00000000000E+00 -0.15817165445E+03  0.15817165445E+03  0.00000000000E+00 0.  1.
          6    1    1    2  502    0 -0.13566640967E+03 -0.21863975955E+02  0.16470997924E+03  0.27494869598E+03  0.17200000000E+03 0. -1.
         -6    1    1    2    0  501  0.13566640967E+03  0.21863975955E+02  0.14527345518E+02  0.22063193768E+03  0.17200000000E+03 0.  1.
</event>
<event>
 4    1  0.3094855E-002  0.1802986E+03  0.7818608E-02  0.1167514E+00
         -1   -1    0    0    0  501 -0.00000000000E+00  0.00000000000E+00  0.55130989618E+03  0.55130989618E+03  0.00000000000E+00 0.  1.
          1   -1    0    0  502    0  0.00000000000E+00 -0.00000000000E+00 -0.66959019662E+02  0.66959019662E+02  0.00000000000E+00 0. -1.
          6    1    1    2  502    0  0.39704447429E+02 -0.36703661133E+02  0.34899345355E+03  0.39281551968E+03  0.17200000000E+03 0.  1.
         -6    1    1    2    0  501 -0.39704447429E+02  0.36703661133E+02  0.13535742298E+03  0.22545339616E+03  0.17200000000E+03 0. -1.
</event>
<event>
 4    1  0.3094855E-002  0.1803725E+03  0.7818608E-02  0.1167443E+00
         -2   -1    0    0    0  501 -0.00000000000E+00  0.00000000000E+00  0.57843079797E+02  0.57843079797E+02  0.00000000000E+00 0.  1.
          2   -1    0    0  502    0  0.00000000000E+00 -0.00000000000E+00 -0.15709333480E+04  0.15709333480E+04  0.00000000000E+00 0. -1.
          6    1    1    2  502    0 -0.27973238523E+02 -0.46558880912E+02 -0.14090526368E+04  0.14205504442E+04  0.17200000000E+03 0. -1.
         -6    1    1    2    0  501  0.27973238523E+02  0.46558880912E+02 -0.10403763140E+03  0.20822598352E+03  0.17200000000E+03 0.  1.
</event>
<event>
 4    1  0.3094855E-002  0.2659886E+03  0.7818608E-02  0.1103598E+00
         -1   -1    0    0    0  501 -0.00000000000E+00  0.00000000000E+00  0.15481488550E+03  0.15481488550E+03  0.00000000000E+00 0.  1.
          1   -1    0    0  502    0  0.00000000000E+00 -0.00000000000E+00 -0.51543370185E+03  0.51543370185E+03  0.00000000000E+00 0. -1.
          6    1    1    2  502    0  0.18976886041E+03  0.71789253836E+02 -0.29314935045E+03  0.39583640436E+03  0.17200000000E+03 0.  1.
         -6    1    1    2    0  501 -0.18976886041E+03 -0.71789253836E+02 -0.67469465900E+02  0.27441218299E+03  0.17200000000E+03 0.  1.
</event>
<event>
 4    1  0.3094855E-002  0.3100509E+03  0.7818608E-02  0.1080321E+00
         -1   -1    0    0    0  501 -0.00000000000E+00  0.00000000000E+00  0.34287722893E+03  0.34287722893E+03  0.00000000000E+00 0.  1.
          1   -1    0    0  502    0  0.00000000000E+00 -0.00000000000E+00 -0.28135619517E+03  0.28135619517E+03  0.00000000000E+00 0. -1.
          6    1    1    2  502    0 -0.18359066015E+03 -0.18122367639E+03  0.12256275158E+02  0.31029303515E+03  0.17200000000E+03 0. -1.
         -6    1    1    2    0  501  0.18359066015E+03  0.18122367639E+03  0.49264758596E+02  0.31394038896E+03  0.17200000000E+03 0.  1.
</event>
<event>
 4    1  0.3094855E-002  0.3658015E+03  0.7818608E-02  0.1056310E+00
         -1   -1    0    0    0  501 -0.00000000000E+00  0.00000000000E+00  0.44273497331E+03  0.44273497331E+03  0.00000000000E+00 0.  1.
          1   -1    0    0  502    0  0.00000000000E+00 -0.00000000000E+00 -0.44852684290E+03  0.44852684290E+03  0.00000000000E+00 0. -1.
          6    1    1    2  502    0  0.31199344129E+03 -0.82986879173E+02  0.25160460664E+03  0.44397703500E+03  0.17200000000E+03 0. -1.
         -6    1    1    2    0  501 -0.31199344129E+03  0.82986879173E+02 -0.25739647623E+03  0.44728478121E+03  0.17200000000E+03 0. -1.
</event>
<event>
 4    1  0.3094855E-002  0.2557846E+03  0.7818608E-02  0.1109703E+00
          1   -1    0    0  502    0  0.00000000000E+00  0.00000000000E+00  0.26287433051E+04  0.26287433051E+04  0.00000000000E+00 0. -1.
         -1   -1    0    0    0  501 -0.00000000000E+00 -0.00000000000E+00 -0.25157754863E+02  0.25157754863E+02  0.00000000000E+00 0.  1.
          6    1    1    2  502    0 -0.79503852828E+02 -0.17181644179E+03  0.11645415185E+04  0.11923014303E+04  0.17200000000E+03 0. -1.
         -6    1    1    2    0  501  0.79503852828E+02  0.17181644179E+03  0.14390440317E+04  0.14615996297E+04  0.17200000000E+03 0.  1.
</event>
<event>
 4    1  0.3094855E-002  0.2435528E+03  0.7818608E-02  0.1117448E+00
          3   -1    0    0  502    0  0.00000000000E+00  0.00000000000E+00  0.57361951469E+02  0.57361951469E+02  0.00000000000E+00 0. -1.
         -3   -1    0    0    0  501 -0.00000000000E+00 -0.00000000000E+00 -0.10434166212E+04  0.10434166212E+04  0.00000000000E+00 0.  1.
          6    1    1    2  502    0 -0.13531290238E+03 -0.10688499697E+03 -0.54503583536E+03  0.59697742500E+03  0.17200000000E+03 0. -1.
         -6    1    1    2    0  501  0.13531290238E+03  0.10688499697E+03 -0.44101883441E+03  0.50380114771E+03  0.17200000000E+03 0. -1.
</event>
<event>
 4    1  0.3094855E-002  0.1837709E+03  0.7818608E-02  0.1164203E+00
          2   -1    0    0  502    0  0.00000000000E+00  0.00000000000E+00  0.12228974726E+04  0.12228974726E+04  0.00000000000E+00 0. -1.
         -2   -1    0    0    0  501 -0.00000000000E+00 -0.00000000000E+00 -0.28767498040E+02  0.28767498040E+02  0.00000000000E+00 0.  1.
          6    1    1    2  502    0 -0.43771395248E+02  0.47663526321E+02  0.72226553949E+03  0.74527797252E+03  0.17200000000E+03 0. -1.
         -6    1    1    2    0  501  0.43771395248E+02 -0.47663526321E+02  0.47186443506E+03  0.50638699811E+03  0.17200000000E+03 0. -1.
</event>
<event>
 4    1  0.3094855E-002  0.1789517E+03  0.7818608E-02  0.1168821E+00
         -1   -1    0    0    0  501 -0.00000000000E+00  0.00000000000E+00  0.81699562025E+03  0.81699562025E+03  0.00000000000E+00 0.  1.
          1   -1    0    0  502    0  0.00000000000E+00 -0.00000000000E+00 -0.39847445280E+02  0.39847445280E+02  0.00000000000E+00 0. -1.
          6    1    1    2  502    0 -0.38104196735E+02  0.31429045610E+02  0.33383443766E+03  0.37877321247E+03  0.17200000000E+03 0.  1.
         -6    1    1    2    0  501  0.38104196735E+02 -0.31429045610E+02  0.44331373731E+03  0.47806985306E+03  0.17200000000E+03 0.  1.
</event>
<event>
 4    1  0.3094855E-002  0.2522046E+03  0.7818608E-02  0.1111919E+00
         -2   -1    0    0    0  501 -0.00000000000E+00  0.00000000000E+00  0.24322612443E+03  0.24322612443E+03  0.00000000000E+00 0.  1.
          2   -1    0    0  502    0  0.00000000000E+00 -0.00000000000E+00 -0.48467912230E+03  0.48467912230E+03  0.00000000000E+00 0. -1.
          6    1    1    2  502    0 -0.29783843088E+02 -0.18203314982E+03 -0.36768866483E+03  0.44587229022E+03  0.17200000000E+03 0. -1.
         -6    1    1    2    0  501  0.29783843088E+02  0.18203314982E+03  0.12623566696E+03  0.28203295651E+03  0.17200000000E+03 0.  1.
</event>
<event>
 4    1  0.3094855E-002  0.1748424E+03  0.7818608E-02  0.1172890E+00
          4   -1    0    0  502    0  0.00000000000E+00  0.00000000000E+00  0.64106693997E+02  0.64106693997E+02  0.00000000000E+00 0. -1.
         -4   -1    0    0    0  501 -0.00000000000E+00 -0.00000000000E+00 -0.66942504570E+03  0.66942504570E+03  0.00000000000E+00 0.  1.
          6    1    1    2  502    0  0.39459725916E+01 -0.31149678858E+02 -0.49936963618E+03  0.52909347637E+03  0.17200000000E+03 0.  1.
         -6    1    1    2    0  501 -0.39459725916E+01  0.31149678858E+02 -0.10594871552E+03  0.20443826333E+03  0.17200000000E+03 0. -1.
</event>
<event>
 4    1  0.3094855E-002  0.1827816E+03  0.7818608E-02  0.1165138E+00
         -2   -1    0    0    0  501 -0.00000000000E+00  0.00000000000E+00  0.13543235739E+03  0.13543235739E+03  0.00000000000E+00 0.  1.
          2   -1    0    0  502    0  0.00000000000E+00 -0.00000000000E+00 -0.25165629212E+03  0.25165629212E+03  0.00000000000E+00 0. -1.
          6    1    1    2  502    0  0.10588124779E+02 -0.60934556896E+02 -0.85314665601E+02  0.20171197480E+03  0.17200000000E+03 0. -1.
         -6    1    1    2    0  501 -0.10588124779E+02  0.60934556896E+02 -0.30909269122E+02  0.18537667471E+03  0.17200000000E+03 0.  1.
</event>
<event>
 4    1  0.3094855E-002  0.2296419E+03  0.7818608E-02  0.1126892E+00
          1   -1    0    0  502    0  0.00000000000E+00  0.00000000000E+00  0.59857599891E+03  0.59857599891E+03  0.00000000000E+00 0. -1.
         -1   -1    0    0    0  501 -0.00000000000E+00 -0.00000000000E+00 -0.24187919584E+03  0.24187919584E+03  0.00000000000E+00 0.  1.
          6    1    1    2  502    0  0.10792083211E+03 -0.10725892966E+03  0.51341576385E+03  0.56243322321E+03  0.17200000000E+03 0. -1.
         -6    1    1    2    0  501 -0.10792083211E+03  0.10725892966E+03 -0.15671896078E+03  0.27802197155E+03  0.17200000000E+03 0.  1.
</event>
<event>
 4    1  0.3094855E-002  0.2252247E+03  0.7818608E-02  0.1130047E+00
         -1   -1    0    0    0  501 -0.00000000000E+00  0.00000000000E+00  0.47113222458E+02  0.47113222458E+02  0.00000000000E+00 0.  1.
          1   -1    0    0  502    0  0.00000000000E+00 -0.00000000000E+00 -0.10830646596E+04  0.10830646596E+04  0.00000000000E+00 0. -1.
          6    1    1    2  502    0 -0.23460952980E+02 -0.14349818483E+03 -0.56134233472E+03  0.60483994751E+03  0.17200000000E+03 0. -1.
         -6    1    1    2    0  501  0.23460952980E+02  0.14349818483E+03 -0.47460910239E+03  0.52533793451E+03  0.17200000000E+03 0.  1.
</event>
<event>
 4    1  0.3094855E-002  0.1742681E+03  0.7818608E-02  0.1173469E+00
          2   -1    0    0  502    0  0.00000000000E+00  0.00000000000E+00  0.15050198641E+04  0.15050198641E+04  0.00000000000E+00 0. -1.
         -2   -1    0    0    0  501 -0.00000000000E+00 -0.00000000000E+00 -0.31906309587E+02  0.31906309587E+02  0.00000000000E+00 0.  1.
          6    1    1    2  502    0  0.27419255246E+02  0.57937972958E+01  0.27066076863E+03  0.32191091209E+03  0.17200000000E+03 0.  1.
         -6    1    1    2    0  501 -0.27419255246E+02 -0.57937972958E+01  0.12024527859E+04  0.12150152616E+04  0.17200000000E+03 0. -1.
</event>
<event>
 4    1  0.3094855E-002  0.2237208E+03  0.7818608E-02  0.1131139E+00
         -2   -1    0    0    0  501 -0.00000000000E+00  0.00000000000E+00  0.50340152838E+02  0.50340152838E+02  0.00000000000E+00 0.  1.
          2   -1    0    0  502    0  0.00000000000E+00 -0.00000000000E+00 -0.12510738618E+04  0.12510738618E+04  0.00000000000E+00 0. -1.
          6    1    1    2  502    0  0.87433305152E+02  0.11323611804E+03 -0.30554709816E+03  0.37869516828E+03  0.17200000000E+03 0. -1.
         -6    1    1    2    0  501 -0.87433305152E+02 -0.11323611804E+03 -0.89518661079E+03  0.92271884636E+03  0.17200000000E+03 0.  1.
</event>
<event>
 4    1  0.3094855E-002  0.2855527E+03  0.7818608E-02  0.1092694E+00
         -2   -1    0    0    0  501 -0.00000000000E+00  0.00000000000E+00  0.13948825334E+03  0.13948825334E+03  0.00000000000E+00 0.  1.
          2   -1    0    0  502    0  0.00000000000E+00 -0.00000000000E+00 -0.66437738702E+03  0.66437738702E+03  0.00000000000E+00 0. -1.
          6    1    1    2  502    0  0.35600625974E+02 -0.22514206420E+03 -0.12313743787E+03  0.31097135278E+03  0.17200000000E+03 0. -1.
         -6    1    1    2    0  501 -0.35600625974E+02  0.22514206420E+03 -0.40175169581E+03  0.49289428758E+03  0.17200000000E+03 0. -1.
</event>
<event>
 4    1  0.3094855E-002  0.3315070E+03  0.7818608E-02  0.1070472E+00
          2   -1    0    0  502    0  0.00000000000E+00  0.00000000000E+00  0.30793865918E+04  0.30793865918E+04  0.00000000000E+00 0. -1.
         -2   -1    0    0    0  501 -0.00000000000E+00 -0.00000000000E+00 -0.38750143260E+02  0.38750143260E+02  0.00000000000E+00 0.  1.
          6    1    1    2  502    0 -0.26538730807E+03  0.99410682186E+02  0.10820430999E+04  0.11316864306E+04  0.17200000000E+03 0. -1.
         -6    1    1    2    0  501  0.26538730807E+03 -0.99410682186E+02  0.19585933486E+04  0.19864503045E+04  0.17200000000E+03 0.  1.
</event>
<event>
 4    1  0.3094855E-002  0.1078134E+04  0.7818608E-02  0.9226770E-01
          1   -1    0    0  502    0  0.00000000000E+00  0.00000000000E+00  0.17453351465E+04  0.17453351465E+04  0.00000000000E+00 0. -1.
         -1   -1    0    0    0  501 -0.00000000000E+00 -0.00000000000E+00 -0.80148804258E+03  0.80148804258E+03  0.00000000000E+00 0.  1.
          6    1    1    2  502    0  0.10377138031E+04  0.23651334467E+03  0.99551166164E+03  0.14674522029E+04  0.17200000000E+03 0. -1.
         -6    1    1    2    0  501 -0.10377138031E+04 -0.23651334467E+03 -0.51664557719E+02  0.10793709862E+04  0.17200000000E+03 0.  1.
</event>
<event>
 4    1  0.3094855E-002  0.2154327E+03  0.7818608E-02  0.1137335E+00
         -1   -1    0    0    0  501 -0.00000000000E+00  0.00000000000E+00  0.13111394089E+03  0.13111394089E+03  0.00000000000E+00 0.  1.
          1   -1    0    0  502    0  0.00000000000E+00 -0.00000000000E+00 -0.36218601983E+03  0.36218601983E+03  0.00000000000E+00 0. -1.
          6    1    1    2  502    0 -0.99199637195E+02 -0.83586297322E+02 -0.15267053315E+03  0.26404455838E+03  0.17200000000E+03 0. -1.
         -6    1    1    2    0  501  0.99199637195E+02  0.83586297322E+02 -0.78401545791E+02  0.22925540234E+03  0.17200000000E+03 0.  1.
</event>
<event>
 4    1  0.3094855E-002  0.2411375E+03  0.7818608E-02  0.1119037E+00
          2   -1    0    0  502    0  0.00000000000E+00  0.00000000000E+00  0.12361624058E+04  0.12361624058E+04  0.00000000000E+00 0. -1.
         -2   -1    0    0    0  501 -0.00000000000E+00 -0.00000000000E+00 -0.68000802433E+02  0.68000802433E+02  0.00000000000E+00 0.  1.
          6    1    1    2  502    0  0.11470788277E+03  0.12411838202E+03  0.94612703809E+03  0.97637269694E+03  0.17200000000E+03 0.  1.
         -6    1    1    2    0  501 -0.11470788277E+03 -0.12411838202E+03  0.22203456532E+03  0.32779051134E+03  0.17200000000E+03 0.  1.
</event>
<event>
 4    1  0.3094855E-002  0.2932200E+03  0.7818608E-02  0.1088680E+00
         -1   -1    0    0    0  501 -0.00000000000E+00  0.00000000000E+00  0.10443465603E+03  0.10443465603E+03  0.00000000000E+00 0.  1.
          1   -1    0    0  502    0  0.00000000000E+00 -0.00000000000E+00 -0.87002304702E+03  0.87002304702E+03  0.00000000000E+00 0. -1.
          6    1    1    2  502    0  0.15891663554E+03  0.17646378319E+03 -0.26984826257E+03  0.39849221904E+03  0.17200000000E+03 0. -1.
         -6    1    1    2    0  501 -0.15891663554E+03 -0.17646378319E+03 -0.49574012843E+03  0.57596548401E+03  0.17200000000E+03 0.  1.
</event>
<event>
 4    1  0.3094855E-002  0.2753598E+03  0.7818608E-02  0.1098251E+00
          2   -1    0    0  502    0  0.00000000000E+00  0.00000000000E+00  0.13183512689E+04  0.13183512689E+04  0.00000000000E+00 0. -1.
         -2   -1    0    0    0  501 -0.00000000000E+00 -0.00000000000E+00 -0.63816784134E+02  0.63816784134E+02  0.00000000000E+00 0.  1.
          6    1    1    2  502    0 -0.11738153528E+03  0.18016827237E+03  0.84446028629E+03  0.88822080943E+03  0.17200000000E+03 0. -1.
         -6    1    1    2    0  501  0.11738153528E+03 -0.18016827237E+03  0.41007419843E+03  0.49394724355E+03  0.17200000000E+03 0. -1.
</event>
<event>
 4    1  0.3094855E-002  0.2475958E+03  0.7818608E-02  0.1114834E+00
          1   -1    0    0  502    0  0.00000000000E+00  0.00000000000E+00  0.15194220214E+03  0.15194220214E+03  0.00000000000E+00 0. -1.
         -1   -1    0    0    0  501 -0.00000000000E+00 -0.00000000000E+00 -0.48880929185E+03  0.48880929185E+03  0.00000000000E+00 0.  1.
          6    1    1    2  502    0  0.15888282476E+03  0.80473193173E+02 -0.34567114788E+02  0.24999714448E+03  0.17200000000E+03 0. -1.
         -6    1    1    2    0  501 -0.15888282476E+03 -0.80473193173E+02 -0.30229997493E+03  0.39075434951E+03  0.17200000000E+03 0. -1.
</event>
<event>
 4    1  0.3094855E-002  0.2811351E+03  0.7818608E-02  0.1095071E+00
         -1   -1    0    0    0  501 -0.00000000000E+00  0.00000000000E+00  0.11992562906E+04  0.11992562906E+04  0.00000000000E+00 0.  1.
          1   -1    0    0  502    0  0.00000000000E+00 -0.00000000000E+00 -0.69489563256E+02  0.69489563256E+02  0.00000000000E+00 0. -1.
          6    1    1    2  502    0  0.22161776194E+03  0.18398787837E+02  0.42080296724E+03  0.50607517726E+03  0.17200000000E+03 0. -1.
         -6    1    1    2    0  501 -0.22161776194E+03 -0.18398787837E+02  0.70896376012E+03  0.76267067661E+03  0.17200000000E+03 0.  1.
</event>
<event>
 4    1  0.3094855E-002  0.2077804E+03  0.7818608E-02  0.1143336E+00
         -2   -1    0    0    0  501 -0.00000000000E+00  0.00000000000E+00  0.54862334193E+02  0.54862334193E+02  0.00000000000E+00 0.  1.
          2   -1    0    0  502    0  0.00000000000E+00 -0.00000000000E+00 -0.78743969948E+03  0.78743969948E+03  0.00000000000E+00 0. -1.
          6    1    1    2  502    0  0.95414983367E+02 -0.66967823211E+02 -0.35555310835E+03  0.41181394009E+03  0.17200000000E+03 0. -1.
         -6    1    1    2    0  501 -0.95414983367E+02  0.66967823211E+02 -0.37702425693E+03  0.43048809358E+03  0.17200000000E+03 0.  1.
</event>
<event>
 4    1  0.3094855E-002  0.2292365E+03  0.7818608E-02  0.1127178E+00
         -1   -1    0    0    0  501 -0.00000000000E+00  0.00000000000E+00  0.30222970160E+03  0.30222970160E+03  0.00000000000E+00 0.  1.
          1   -1    0    0  502    0  0.00000000000E+00 -0.00000000000E+00 -0.55693614633E+03  0.55693614633E+03  0.00000000000E+00 0. -1.
          6    1    1    2  502    0  0.48190443345E+02  0.14367686439E+03 -0.48362376414E+03  0.53520211643E+03  0.17200000000E+03 0. -1.
         -6    1    1    2    0  501 -0.48190443345E+02 -0.14367686439E+03  0.22891731942E+03  0.32396373149E+03  0.17200000000E+03 0.  1.
</event>
<event>
 4    1  0.3094855E-002  0.8760583E+03  0.7818608E-02  0.9456015E-01
         -2   -1    0    0    0  501 -0.00000000000E+00  0.00000000000E+00  0.55487653183E+03  0.55487653183E+03  0.00000000000E+00 0.  1.
          2   -1    0    0  502    0  0.00000000000E+00 -0.00000000000E+00 -0.14224811511E+04  0.14224811511E+04  0.00000000000E+00 0. -1.
          6    1    1    2  502    0  0.73715928449E+03  0.44101063661E+03 -0.59819903830E+03  0.10608111433E+04  0.17200000000E+03 0. -1.
         -6    1    1    2    0  501 -0.73715928449E+03 -0.44101063661E+03 -0.26940558100E+03  0.91654653967E+03  0.17200000000E+03 0.  1.
</event>
<event>
 4    1  0.3094855E-002  0.3101751E+03  0.7818608E-02  0.1080262E+00
         -2   -1    0    0    0  501 -0.00000000000E+00  0.00000000000E+00  0.16099574251E+03  0.16099574251E+03  0.00000000000E+00 0.  1.
          2   -1    0    0  502    0  0.00000000000E+00 -0.00000000000E+00 -0.72539378684E+03  0.72539378684E+03  0.00000000000E+00 0. -1.
          6    1    1    2  502    0 -0.12618911038E+03 -0.22516854337E+03 -0.46823154137E+03  0.56164876999E+03  0.17200000000E+03 0. -1.
         -6    1    1    2    0  501  0.12618911038E+03  0.22516854337E+03 -0.96166502956E+02  0.32474075936E+03  0.17200000000E+03 0.  1.
</event>
<event>
 4    1  0.3094855E-002  0.2207526E+03  0.7818608E-02  0.1133323E+00
         -2   -1    0    0    0  501 -0.00000000000E+00  0.00000000000E+00  0.66976611041E+02  0.66976611041E+02  0.00000000000E+00 0.  1.
          2   -1    0    0  502    0  0.00000000000E+00 -0.00000000000E+00 -0.86432573400E+03  0.86432573400E+03  0.00000000000E+00 0. -1.
          6    1    1    2  502    0  0.10656423239E+03 -0.88270977123E+02 -0.58388204047E+03  0.62421946318E+03  0.17200000000E+03 0. -1.
         -6    1    1    2    0  501 -0.10656423239E+03  0.88270977123E+02 -0.21346708249E+03  0.30708288187E+03  0.17200000000E+03 0. -1.
</event>
<event>
 4    1  0.3094855E-002  0.2498463E+03  0.7818608E-02  0.1113402E+00
         -1   -1    0    0    0  501 -0.00000000000E+00  0.00000000000E+00  0.27233331164E+03  0.27233331164E+03  0.00000000000E+00 0.  1.
          1   -1    0    0  502    0  0.00000000000E+00 -0.00000000000E+00 -0.22935775379E+03  0.22935775379E+03  0.00000000000E+00 0. -1.
          6    1    1    2  502    0  0.12529560802E+03 -0.13092053284E+03  0.15253476361E+02  0.25031149364E+03  0.17200000000E+03 0. -1.
         -6    1    1    2    0  501 -0.12529560802E+03  0.13092053284E+03  0.27722081490E+02  0.25137957178E+03  0.17200000000E+03 0.  1.
</event>
<event>
 4    1  0.3094855E-002  0.2554889E+03  0.7818608E-02  0.1109884E+00
         -2   -1    0    0    0  501 -0.00000000000E+00  0.00000000000E+00  0.23250114783E+03  0.23250114783E+03  0.00000000000E+00 0.  1.
          2   -1    0    0  502    0  0.00000000000E+00 -0.00000000000E+00 -0.28921574703E+03  0.28921574703E+03  0.00000000000E+00 0. -1.
          6    1    1    2  502    0  0.18357996661E+03  0.44598114133E+02 -0.72988416927E+02  0.26571018974E+03  0.17200000000E+03 0.  1.
         -6    1    1    2    0  501 -0.18357996661E+03 -0.44598114133E+02  0.16273817726E+02  0.25600670512E+03  0.17200000000E+03 0.  1.
</event>
<event>
 4    1  0.3094855E-002  0.1882426E+03  0.7818608E-02  0.1160056E+00
          1   -1    0    0  502    0  0.00000000000E+00  0.00000000000E+00  0.14444857087E+04  0.14444857087E+04  0.00000000000E+00 0. -1.
         -1   -1    0    0    0  501 -0.00000000000E+00 -0.00000000000E+00 -0.29222726714E+02  0.29222726714E+02  0.00000000000E+00 0.  1.
          6    1    1    2  502    0 -0.98753075299E+01  0.75853411403E+02  0.41239578200E+03  0.45332719169E+03  0.17200000000E+03 0.  1.
         -6    1    1    2    0  501  0.98753075299E+01 -0.75853411403E+02  0.10028672000E+04  0.10203812437E+04  0.17200000000E+03 0. -1.
</event>
<event>
 4    1  0.3094855E-002  0.1739921E+03  0.7818608E-02  0.1173748E+00
          1   -1    0    0  502    0  0.00000000000E+00  0.00000000000E+00  0.91259079955E+03  0.91259079955E+03  0.00000000000E+00 0. -1.
         -1   -1    0    0    0  501 -0.00000000000E+00 -0.00000000000E+00 -0.94745766090E+02  0.94745766090E+02  0.00000000000E+00 0.  1.
          6    1    1    2  502    0 -0.26181409545E+02 -0.19458380659E+01  0.81495380520E+03  0.83332044083E+03  0.17200000000E+03 0. -1.
         -6    1    1    2    0  501  0.26181409545E+02  0.19458380659E+01  0.28912282542E+01  0.17401612481E+03  0.17200000000E+03 0.  1.
</event>
<event>
 4    1  0.3094855E-002  0.4324687E+03  0.7818608E-02  0.1033083E+00
          3   -1    0    0  502    0  0.00000000000E+00  0.00000000000E+00  0.45800405784E+03  0.45800405784E+03  0.00000000000E+00 0. -1.
         -3   -1    0    0    0  501 -0.00000000000E+00 -0.00000000000E+00 -0.54445059475E+03  0.54445059475E+03  0.00000000000E+00 0.  1.
          6    1    1    2  502    0 -0.30989018452E+03 -0.24781696437E+03  0.20737283021E+03  0.47961720674E+03  0.17200000000E+03 0. -1.
         -6    1    1    2    0  501  0.30989018452E+03  0.24781696437E+03 -0.29381936712E+03  0.52283744585E+03  0.17200000000E+03 0.  1.
</event>
<event>
 4    1  0.3094855E-002  0.6484149E+03  0.7818608E-02  0.9809758E-01
          2   -1    0    0  502    0  0.00000000000E+00  0.00000000000E+00  0.14943201849E+04  0.14943201849E+04  0.00000000000E+00 0. -1.
         -2   -1    0    0    0  501 -0.00000000000E+00 -0.00000000000E+00 -0.47740312169E+03  0.47740312169E+03  0.00000000000E+00 0.  1.
          6    1    1    2  502    0  0.39525604860E+03  0.48438672403E+03  0.11402142980E+04  0.13116899358E+04  0.17200000000E+03 0. -1.
         -6    1    1    2    0  501 -0.39525604860E+03 -0.48438672403E+03 -0.12329723483E+03  0.66003337074E+03  0.17200000000E+03 0.  1.
</event>
<event>
 4    1  0.3094855E-002  0.3161221E+03  0.7818608E-02  0.1077448E+00
          1   -1    0    0  502    0  0.00000000000E+00  0.00000000000E+00  0.13943933531E+04  0.13943933531E+04  0.00000000000E+00 0. -1.
         -1   -1    0    0    0  501 -0.00000000000E+00 -0.00000000000E+00 -0.74425583260E+02  0.74425583260E+02  0.00000000000E+00 0.  1.
          6    1    1    2  502    0  0.16087575838E+03  0.21087481365E+03  0.51861560500E+03  0.60736755133E+03  0.17200000000E+03 0.  1.
         -6    1    1    2    0  501 -0.16087575838E+03 -0.21087481365E+03  0.80135216484E+03  0.86145138502E+03  0.17200000000E+03 0.  1.
</event>
<event>
 4    1  0.3094855E-002  0.3313844E+03  0.7818608E-02  0.1070526E+00
          1   -1    0    0  502    0  0.00000000000E+00  0.00000000000E+00  0.68972266522E+03  0.68972266522E+03  0.00000000000E+00 0. -1.
         -1   -1    0    0    0  501 -0.00000000000E+00 -0.00000000000E+00 -0.10598369901E+04  0.10598369901E+04  0.00000000000E+00 0.  1.
          6    1    1    2  502    0  0.22467581730E+03 -0.17248877840E+03  0.62134188212E+03  0.70418842367E+03  0.17200000000E+03 0. -1.
         -6    1    1    2    0  501 -0.22467581730E+03  0.17248877840E+03 -0.99145620705E+03  0.10453712317E+04  0.17200000000E+03 0.  1.
</event>
<event>
 4    1  0.3094855E-002  0.2542137E+03  0.7818608E-02  0.1110670E+00
          2   -1    0    0  502    0  0.00000000000E+00  0.00000000000E+00  0.24093382200E+04  0.24093382200E+04  0.00000000000E+00 0. -1.
         -2   -1    0    0    0  501 -0.00000000000E+00 -0.00000000000E+00 -0.28191823302E+02  0.28191823302E+02  0.00000000000E+00 0.  1.
          6    1    1    2  502    0  0.85452860952E+02  0.16654860111E+03  0.14591702805E+04  0.14811490592E+04  0.17200000000E+03 0. -1.
         -6    1    1    2    0  501 -0.85452860952E+02 -0.16654860111E+03  0.92197611620E+03  0.95638098413E+03  0.17200000000E+03 0.  1.
</event>
<event>
 4    1  0.3094855E-002  0.3674343E+03  0.7818608E-02  0.1055678E+00
         -1   -1    0    0    0  501 -0.00000000000E+00  0.00000000000E+00  0.61147445399E+03  0.61147445399E+03  0.00000000000E+00 0.  1.
          1   -1    0    0  502    0  0.00000000000E+00 -0.00000000000E+00 -0.54906137706E+03  0.54906137706E+03  0.00000000000E+00 0. -1.
          6    1    1    2  502    0 -0.26386496608E+03  0.18920680566E+03 -0.41747075136E+03  0.55613825967E+03  0.17200000000E+03 0. -1.
         -6    1    1    2    0  501  0.26386496608E+03 -0.18920680566E+03  0.47988382829E+03  0.60439757137E+03  0.17200000000E+03 0.  1.
</event>
<event>
 4    1  0.3094855E-002  0.3435495E+03  0.7818608E-02  0.1065294E+00
         -2   -1    0    0    0  501 -0.00000000000E+00  0.00000000000E+00  0.53406288889E+02  0.53406288889E+02  0.00000000000E+00 0.  1.
          2   -1    0    0  502    0  0.00000000000E+00 -0.00000000000E+00 -0.22251033756E+04  0.22251033756E+04  0.00000000000E+00 0. -1.
          6    1    1    2  502    0  0.29043728783E+03  0.63941081888E+02 -0.99189394836E+03  0.10497046656E+04  0.17200000000E+03 0. -1.
         -6    1    1    2    0  501 -0.29043728783E+03 -0.63941081888E+02 -0.11798031384E+04  0.12288049989E+04  0.17200000000E+03 0.  1.
</event>
<event>
 4    1  0.3094855E-002  0.1981133E+03  0.7818608E-02  0.1151341E+00
         -1   -1    0    0    0  501 -0.00000000000E+00  0.00000000000E+00  0.16833391825E+03  0.16833391825E+03  0.00000000000E+00 0.  1.
          1   -1    0    0  502    0  0.00000000000E+00 -0.00000000000E+00 -0.24668332301E+03  0.24668332301E+03  0.00000000000E+00 0. -1.
          6    1    1    2  502    0  0.97420048752E+02 -0.13198457664E+02 -0.87758971335E+02  0.21668064573E+03  0.17200000000E+03 0. -1.
         -6    1    1    2    0  501 -0.97420048752E+02  0.13198457664E+02  0.94095665767E+01  0.19833659553E+03  0.17200000000E+03 0.  1.
</event>
<event>
 4    1  0.3094855E-002  0.2479580E+03  0.7818608E-02  0.1114602E+00
         -3   -1    0    0    0  501 -0.00000000000E+00  0.00000000000E+00  0.90553908461E+02  0.90553908461E+02  0.00000000000E+00 0.  1.
          3   -1    0    0  502    0  0.00000000000E+00 -0.00000000000E+00 -0.24240881602E+04  0.24240881602E+04  0.00000000000E+00 0. -1.
          6    1    1    2  502    0  0.14750354316E+03 -0.10070699270E+03 -0.22335711886E+04  0.22472924705E+04  0.17200000000E+03 0. -1.
         -6    1    1    2    0  501 -0.14750354316E+03  0.10070699270E+03 -0.99963063149E+02  0.26734959813E+03  0.17200000000E+03 0.  1.
</event>
<event>
 4    1  0.3094855E-002  0.2397963E+03  0.7818608E-02  0.1119929E+00
          2   -1    0    0  502    0  0.00000000000E+00  0.00000000000E+00  0.15266788490E+04  0.15266788490E+04  0.00000000000E+00 0. -1.
         -2   -1    0    0    0  501 -0.00000000000E+00 -0.00000000000E+00 -0.38298614951E+02  0.38298614951E+02  0.00000000000E+00 0.  1.
          6    1    1    2  502    0  0.16694192744E+03  0.69767066223E+01  0.64353946038E+03  0.68676438364E+03  0.17200000000E+03 0.  1.
         -6    1    1    2    0  501 -0.16694192744E+03 -0.69767066223E+01  0.84484077367E+03  0.87821308031E+03  0.17200000000E+03 0.  1.
</event>
<event>
 4    1  0.3094855E-002  0.1751679E+03  0.7818608E-02  0.1172563E+00
          2   -1    0    0  502    0  0.00000000000E+00  0.00000000000E+00  0.21456591851E+04  0.21456591851E+04  0.00000000000E+00 0. -1.
         -2   -1    0    0    0  501 -0.00000000000E+00 -0.00000000000E+00 -0.47587537248E+02  0.47587537248E+02  0.00000000000E+00 0.  1.
          6    1    1    2  502    0  0.32904069034E+02  0.41386254143E+01  0.19662041261E+04  0.19739915074E+04  0.17200000000E+03 0. -1.
         -6    1    1    2    0  501 -0.32904069034E+02 -0.41386254143E+01  0.13186752181E+03  0.21925521496E+03  0.17200000000E+03 0.  1.
</event>
<event>
 4    1  0.3094855E-002  0.1825829E+03  0.7818608E-02  0.1165327E+00
          2   -1    0    0  502    0  0.00000000000E+00  0.00000000000E+00  0.18956737174E+03  0.18956737174E+03  0.00000000000E+00 0. -1.
         -2   -1    0    0    0  501 -0.00000000000E+00 -0.00000000000E+00 -0.19887432026E+03  0.19887432026E+03  0.00000000000E+00 0.  1.
          6    1    1    2  502    0 -0.59125158322E+02  0.16022332351E+02  0.61422914467E+02  0.19263767519E+03  0.17200000000E+03 0. -1.
         -6    1    1    2    0  501  0.59125158322E+02 -0.16022332351E+02 -0.70729862994E+02  0.19580401681E+03  0.17200000000E+03 0.  1.
</event>
<event>
 4    1  0.3094855E-002  0.2598252E+03  0.7818608E-02  0.1107248E+00
         -1   -1    0    0    0  501 -0.00000000000E+00  0.00000000000E+00  0.68341147058E+03  0.68341147058E+03  0.00000000000E+00 0.  1.
          1   -1    0    0  502    0  0.00000000000E+00 -0.00000000000E+00 -0.13507624076E+03  0.13507624076E+03  0.00000000000E+00 0. -1.
          6    1    1    2  502    0 -0.19453903809E+03  0.89259447080E+01  0.62034529251E+02  0.26712804542E+03  0.17200000000E+03 0. -1.
         -6    1    1    2    0  501  0.19453903809E+03 -0.89259447080E+01  0.48630070057E+03  0.55135966592E+03  0.17200000000E+03 0.  1.
</event>
<event>
 4    1  0.3094855E-002  0.1901709E+03  0.7818608E-02  0.1158307E+00
         -2   -1    0    0    0  501 -0.00000000000E+00  0.00000000000E+00  0.61202000711E+02  0.61202000711E+02  0.00000000000E+00 0.  1.
          2   -1    0    0  502    0  0.00000000000E+00 -0.00000000000E+00 -0.67668448550E+03  0.67668448550E+03  0.00000000000E+00 0. -1.
          6    1    1    2  502    0  0.37973052562E+02 -0.71687069608E+02 -0.17638800571E+03  0.25937948498E+03  0.17200000000E+03 0.  1.
         -6    1    1    2    0  501 -0.37973052562E+02  0.71687069608E+02 -0.43909447908E+03  0.47850700123E+03  0.17200000000E+03 0. -1.
</event>
<event>
 4    1  0.3094855E-002  0.2170119E+03  0.7818608E-02  0.1136131E+00
          2   -1    0    0  502    0  0.00000000000E+00  0.00000000000E+00  0.73580016981E+03  0.73580016981E+03  0.00000000000E+00 0. -1.
         -2   -1    0    0    0  501 -0.00000000000E+00 -0.00000000000E+00 -0.94701868124E+02  0.94701868124E+02  0.00000000000E+00 0.  1.
          6    1    1    2  502    0 -0.12954416629E+03 -0.26990570856E+02  0.84128573318E+02  0.23274835936E+03  0.17200000000E+03 0. -1.
         -6    1    1    2    0  501  0.12954416629E+03  0.26990570856E+02  0.55696972836E+03  0.59775367857E+03  0.17200000000E+03 0. -1.
</event>
<event>
 4    1  0.3094855E-002  0.1865497E+03  0.7818608E-02  0.1161611E+00
         -1   -1    0    0    0  501 -0.00000000000E+00  0.00000000000E+00  0.63904502784E+03  0.63904502784E+03  0.00000000000E+00 0.  1.
          1   -1    0    0  502    0  0.00000000000E+00 -0.00000000000E+00 -0.74164923381E+02  0.74164923381E+02  0.00000000000E+00 0. -1.
          6    1    1    2  502    0 -0.58767296251E+02 -0.41990403510E+02  0.98615659205E+02  0.21101146257E+03  0.17200000000E+03 0. -1.
         -6    1    1    2    0  501  0.58767296251E+02  0.41990403510E+02  0.46626444525E+03  0.50219848865E+03  0.17200000000E+03 0.  1.
</event>
<event>
 4    1  0.3094855E-002  0.2158422E+03  0.7818608E-02  0.1137021E+00
         -2   -1    0    0    0  501 -0.00000000000E+00  0.00000000000E+00  0.17097126977E+03  0.17097126977E+03  0.00000000000E+00 0.  1.
          2   -1    0    0  502    0  0.00000000000E+00 -0.00000000000E+00 -0.37525185588E+03  0.37525185588E+03  0.00000000000E+00 0. -1.
          6    1    1    2  502    0  0.10762561180E+03  0.73624751771E+02 -0.24506117318E+03  0.32656217630E+03  0.17200000000E+03 0. -1.
         -6    1    1    2    0  501 -0.10762561180E+03 -0.73624751771E+02  0.40780587073E+02  0.21966094936E+03  0.17200000000E+03 0.  1.
</event>
<event>
 4    1  0.3094855E-002  0.3254298E+03  0.7818608E-02  0.1073177E+00
          3   -1    0    0  502    0  0.00000000000E+00  0.00000000000E+00  0.67427794613E+03  0.67427794613E+03  0.00000000000E+00 0. -1.
         -3   -1    0    0    0  501 -0.00000000000E+00 -0.00000000000E+00 -0.16693681830E+03  0.16693681830E+03  0.00000000000E+00 0.  1.
          6    1    1    2  502    0  0.21569325182E+03 -0.17261804613E+03  0.35595949920E+03  0.48229838669E+03  0.17200000000E+03 0.  1.
         -6    1    1    2    0  501 -0.21569325182E+03  0.17261804613E+03  0.15138162863E+03  0.35891637775E+03  0.17200000000E+03 0.  1.
</event>
<event>
 4    1  0.3094855E-002  0.2071773E+03  0.7818608E-02  0.1143821E+00
         -2   -1    0    0    0  501 -0.00000000000E+00  0.00000000000E+00  0.10053817649E+03  0.10053817649E+03  0.00000000000E+00 0.  1.
          2   -1    0    0  502    0  0.00000000000E+00 -0.00000000000E+00 -0.52593186177E+03  0.52593186177E+03  0.00000000000E+00 0. -1.
          6    1    1    2  502    0 -0.11421393010E+03  0.17134658353E+02 -0.76792046515E+02  0.22095120899E+03  0.17200000000E+03 0.  1.
         -6    1    1    2    0  501  0.11421393010E+03 -0.17134658353E+02 -0.34860163877E+03  0.40551882928E+03  0.17200000000E+03 0. -1.
</event>
<event>
 4    1  0.3094855E-002  0.2496956E+03  0.7818608E-02  0.1113497E+00
          1   -1    0    0  502    0  0.00000000000E+00  0.00000000000E+00  0.20355453537E+04  0.20355453537E+04  0.00000000000E+00 0. -1.
         -1   -1    0    0    0  501 -0.00000000000E+00 -0.00000000000E+00 -0.10462762673E+03  0.10462762673E+03  0.00000000000E+00 0.  1.
          6    1    1    2  502    0  0.17162372217E+03  0.57525460545E+02  0.18653828942E+04  0.18820205159E+04  0.17200000000E+03 0. -1.
         -6    1    1    2    0  501 -0.17162372217E+03 -0.57525460545E+02  0.65534832849E+02  0.25815246452E+03  0.17200000000E+03 0.  1.
</event>
<event>
 4    1  0.3094855E-002  0.4202892E+03  0.7818608E-02  0.1036972E+00
          1   -1    0    0  502    0  0.00000000000E+00  0.00000000000E+00  0.10285655545E+04  0.10285655545E+04  0.00000000000E+00 0. -1.
         -1   -1    0    0    0  501 -0.00000000000E+00 -0.00000000000E+00 -0.18082899589E+03  0.18082899589E+03  0.00000000000E+00 0.  1.
          6    1    1    2  502    0  0.14619257999E+03 -0.35452331596E+03  0.55945803327E+03  0.69974019679E+03  0.17200000000E+03 0. -1.
         -6    1    1    2    0  501 -0.14619257999E+03  0.35452331596E+03  0.28827852537E+03  0.50965435365E+03  0.17200000000E+03 0.  1.
</event>
<event>
 4    1  0.3094855E-002  0.1770724E+03  0.7818608E-02  0.1170667E+00
          2   -1    0    0  502    0  0.00000000000E+00  0.00000000000E+00  0.18807084498E+03  0.18807084498E+03  0.00000000000E+00 0. -1.
         -2   -1    0    0    0  501 -0.00000000000E+00 -0.00000000000E+00 -0.42760208961E+03  0.42760208961E+03  0.00000000000E+00 0.  1.
          6    1    1    2  502    0 -0.41375149938E+02  0.76628393004E+01  0.12068434345E+03  0.21428796721E+03  0.17200000000E+03 0. -1.
         -6    1    1    2    0  501  0.41375149938E+02 -0.76628393004E+01 -0.36021558808E+03  0.40138496737E+03  0.17200000000E+03 0.  1.
</event>
<event>
 4    1  0.3094855E-002  0.3352441E+03  0.7818608E-02  0.1068840E+00
         -2   -1    0    0    0  501 -0.00000000000E+00  0.00000000000E+00  0.58593056574E+03  0.58593056574E+03  0.00000000000E+00 0.  1.
          2   -1    0    0  502    0  0.00000000000E+00 -0.00000000000E+00 -0.27854365468E+03  0.27854365468E+03  0.00000000000E+00 0. -1.
          6    1    1    2  502    0  0.67277563363E+02  0.27978262602E+03 -0.87499107820E+02  0.34647464874E+03  0.17200000000E+03 0. -1.
         -6    1    1    2    0  501 -0.67277563363E+02 -0.27978262602E+03  0.39488601888E+03  0.51799957168E+03  0.17200000000E+03 0.  1.
</event>
<event>
 4    1  0.3094855E-002  0.3466379E+03  0.7818608E-02  0.1064003E+00
         -1   -1    0    0    0  501 -0.00000000000E+00  0.00000000000E+00  0.23105191372E+03  0.23105191372E+03  0.00000000000E+00 0.  1.
          1   -1    0    0  502    0  0.00000000000E+00 -0.00000000000E+00 -0.17313308779E+04  0.17313308779E+04  0.00000000000E+00 0. -1.
          6    1    1    2  502    0  0.63215174272E+02  0.29424088832E+03 -0.15708436881E+04  0.16086353692E+04  0.17200000000E+03 0. -1.
         -6    1    1    2    0  501 -0.63215174272E+02 -0.29424088832E+03  0.70564723901E+02  0.35374742243E+03  0.17200000000E+03 0.  1.
</event>
<event>
 4    1  0.3094855E-002  0.1990723E+03  0.7818608E-02  0.1150524E+00
          2   -1    0    0  502    0  0.00000000000E+00  0.00000000000E+00  0.65445872113E+03  0.65445872113E+03  0.00000000000E+00 0. -1.
         -2   -1    0    0    0  501 -0.00000000000E+00 -0.00000000000E+00 -0.12794170431E+03  0.12794170431E+03  0.00000000000E+00 0.  1.
          6    1    1    2  502    0 -0.45007742471E+02  0.89554890186E+02  0.54717126979E+03  0.58225954155E+03  0.17200000000E+03 0. -1.
         -6    1    1    2    0  501  0.45007742471E+02 -0.89554890186E+02 -0.20654252975E+02  0.20014088389E+03  0.17200000000E+03 0.  1.
</event>
<event>
 4    1  0.3094855E-002  0.3656714E+03  0.7818608E-02  0.1056361E+00
         -2   -1    0    0    0  501 -0.00000000000E+00  0.00000000000E+00  0.21183643188E+03  0.21183643188E+03  0.00000000000E+00 0.  1.
          2   -1    0    0  502    0  0.00000000000E+00 -0.00000000000E+00 -0.67662043915E+03  0.67662043915E+03  0.00000000000E+00 0. -1.
          6    1    1    2  502    0 -0.35010838170E+02 -0.32078940769E+03 -0.34746119892E+03  0.50442530431E+03  0.17200000000E+03 0. -1.
         -6    1    1    2    0  501  0.35010838170E+02  0.32078940769E+03 -0.11732280834E+03  0.38403156671E+03  0.17200000000E+03 0.  1.
</event>
<event>
 4    1  0.3094855E-002  0.2126887E+03  0.7818608E-02  0.1139454E+00
         -1   -1    0    0    0  501 -0.00000000000E+00  0.00000000000E+00  0.76106043987E+02  0.76106043987E+02  0.00000000000E+00 0.  1.
          1   -1    0    0  502    0  0.00000000000E+00 -0.00000000000E+00 -0.13901175322E+04  0.13901175322E+04  0.00000000000E+00 0. -1.
          6    1    1    2  502    0  0.40220124301E+02 -0.11846860965E+03 -0.12116663961E+04  0.12301918246E+04  0.17200000000E+03 0. -1.
         -6    1    1    2    0  501 -0.40220124301E+02  0.11846860965E+03 -0.10234509209E+03  0.23603175156E+03  0.17200000000E+03 0.  1.
</event>
<event>
 4    1  0.3094855E-002  0.1802746E+03  0.7818608E-02  0.1167538E+00
          1   -1    0    0  502    0  0.00000000000E+00  0.00000000000E+00  0.54378861317E+02  0.54378861317E+02  0.00000000000E+00 0. -1.
         -1   -1    0    0    0  501 -0.00000000000E+00 -0.00000000000E+00 -0.59778763911E+03  0.59778763911E+03  0.00000000000E+00 0.  1.
          6    1    1    2  502    0  0.51699156376E+02 -0.15560998109E+02 -0.26656860277E+03  0.32180392697E+03  0.17200000000E+03 0. -1.
         -6    1    1    2    0  501 -0.51699156376E+02  0.15560998109E+02 -0.27684017502E+03  0.33036257345E+03  0.17200000000E+03 0.  1.
</event>
<event>
 4    1  0.3094855E-002  0.1751939E+03  0.7818608E-02  0.1172537E+00
          4   -1    0    0  502    0  0.00000000000E+00  0.00000000000E+00  0.32181942297E+03  0.32181942297E+03  0.00000000000E+00 0. -1.
         -4   -1    0    0    0  501 -0.00000000000E+00 -0.00000000000E+00 -0.13210902751E+03  0.13210902751E+03  0.00000000000E+00 0.  1.
          6    1    1    2  502    0  0.23164724616E+02 -0.23922519410E+02  0.21453947917E+03  0.27698389759E+03  0.17200000000E+03 0. -1.
         -6    1    1    2    0  501 -0.23164724616E+02  0.23922519410E+02 -0.24829083713E+02  0.17694455290E+03  0.17200000000E+03 0.  1.
</event>
<event>
 4    1  0.3094855E-002  0.1725526E+03  0.7818608E-02  0.1175212E+00
         -1   -1    0    0    0  501 -0.00000000000E+00  0.00000000000E+00  0.21193330893E+02  0.21193330893E+02  0.00000000000E+00 0.  1.
          1   -1    0    0  502    0  0.00000000000E+00 -0.00000000000E+00 -0.16889744937E+04  0.16889744937E+04  0.00000000000E+00 0. -1.
          6    1    1    2  502    0 -0.84795770267E+01 -0.10886201606E+02 -0.11845753020E+04  0.11970768808E+04  0.17200000000E+03 0. -1.
         -6    1    1    2    0  501  0.84795770267E+01  0.10886201606E+02 -0.48320586087E+03  0.51309094378E+03  0.17200000000E+03 0.  1.
</event>
<event>
 4    1  0.3094855E-002  0.3024275E+03  0.7818608E-02  0.1084033E+00
         -2   -1    0    0    0  501 -0.00000000000E+00  0.00000000000E+00  0.53943525124E+02  0.53943525124E+02  0.00000000000E+00 0.  1.
          2   -1    0    0  502    0  0.00000000000E+00 -0.00000000000E+00 -0.17145746214E+04  0.17145746214E+04  0.00000000000E+00 0. -1.
          6    1    1    2  502    0  0.23029472582E+03  0.94035762063E+02 -0.73709988231E+03  0.79672995537E+03  0.17200000000E+03 0.  1.
         -6    1    1    2    0  501 -0.23029472582E+03 -0.94035762063E+02 -0.92353121395E+03  0.97178819114E+03  0.17200000000E+03 0. -1.
</event>
<event>
 4    1  0.3094855E-002  0.2686016E+03  0.7818608E-02  0.1102083E+00
         -1   -1    0    0    0  501 -0.00000000000E+00  0.00000000000E+00  0.21790527968E+03  0.21790527968E+03  0.00000000000E+00 0.  1.
          1   -1    0    0  502    0  0.00000000000E+00 -0.00000000000E+00 -0.14180085096E+04  0.14180085096E+04  0.00000000000E+00 0. -1.
          6    1    1    2  502    0 -0.20326286006E+03  0.35313357063E+02 -0.13161768433E+04  0.13433049937E+04  0.17200000000E+03 0. -1.
         -6    1    1    2    0  501  0.20326286006E+03 -0.35313357063E+02  0.11607361340E+03  0.29260879548E+03  0.17200000000E+03 0.  1.
</event>
<event>
 4    1  0.3094855E-002  0.3243741E+03  0.7818608E-02  0.1073654E+00
          2   -1    0    0  502    0  0.00000000000E+00  0.00000000000E+00  0.15728236895E+04  0.15728236895E+04  0.00000000000E+00 0. -1.
         -2   -1    0    0    0  501 -0.00000000000E+00 -0.00000000000E+00 -0.12587815759E+03  0.12587815759E+03  0.00000000000E+00 0.  1.
          6    1    1    2  502    0 -0.16728758117E+03  0.21828750039E+03  0.14208567151E+03  0.35412837459E+03  0.17200000000E+03 0.  1.
         -6    1    1    2    0  501  0.16728758117E+03 -0.21828750039E+03  0.13048598604E+04  0.13445734725E+04  0.17200000000E+03 0. -1.
</event>
<event>
 4    1  0.3094855E-002  0.3145972E+03  0.7818608E-02  0.1078163E+00
         -1   -1    0    0    0  501 -0.00000000000E+00  0.00000000000E+00  0.14983588589E+03  0.14983588589E+03  0.00000000000E+00 0.  1.
          1   -1    0    0  502    0  0.00000000000E+00 -0.00000000000E+00 -0.74463573261E+03  0.74463573261E+03  0.00000000000E+00 0. -1.
          6    1    1    2  502    0  0.15294620211E+03 -0.21446411540E+03 -0.44770452111E+03  0.54718437090E+03  0.17200000000E+03 0. -1.
         -6    1    1    2    0  501 -0.15294620211E+03  0.21446411540E+03 -0.14709532561E+03  0.34728724761E+03  0.17200000000E+03 0.  1.
</event>
<event>
 4    1  0.3094855E-002  0.2346001E+03  0.7818608E-02  0.1123443E+00
         -2   -1    0    0    0  501 -0.00000000000E+00  0.00000000000E+00  0.52895285020E+02  0.52895285020E+02  0.00000000000E+00 0.  1.
          2   -1    0    0  502    0  0.00000000000E+00 -0.00000000000E+00 -0.19752804821E+04  0.19752804821E+04  0.00000000000E+00 0. -1.
          6    1    1    2  502    0  0.11828564521E+03 -0.10705945008E+03 -0.16588102325E+04  0.16753174646E+04  0.17200000000E+03 0. -1.
         -6    1    1    2    0  501 -0.11828564521E+03  0.10705945008E+03 -0.26357496461E+03  0.35285830256E+03  0.17200000000E+03 0.  1.
</event>
<event>
 4    1  0.3094855E-002  0.1846456E+03  0.7818608E-02  0.1163381E+00
          2   -1    0    0  502    0  0.00000000000E+00  0.00000000000E+00  0.51594041051E+03  0.51594041051E+03  0.00000000000E+00 0. -1.
         -2   -1    0    0    0  501 -0.00000000000E+00 -0.00000000000E+00 -0.94059385382E+02  0.94059385382E+02  0.00000000000E+00 0.  1.
          6    1    1    2  502    0 -0.39369866867E+02  0.54405875300E+02  0.37728485438E+03  0.42004505357E+03  0.17200000000E+03 0. -1.
         -6    1    1    2    0  501  0.39369866867E+02 -0.54405875300E+02  0.44596170746E+02  0.18995474232E+03  0.17200000000E+03 0.  1.
</event>
<event>
 4    1  0.3094855E-002  0.2160045E+03  0.7818608E-02  0.1136897E+00
         -2   -1    0    0    0  501 -0.00000000000E+00  0.00000000000E+00  0.19323079800E+02  0.19323079800E+02  0.00000000000E+00 0.  1.
          2   -1    0    0  502    0  0.00000000000E+00 -0.00000000000E+00 -0.32056969290E+04  0.32056969290E+04  0.00000000000E+00 0. -1.
          6    1    1    2  502    0  0.11344420912E+03  0.64840968436E+02 -0.79215484331E+03  0.82107687555E+03  0.17200000000E+03 0. -1.
         -6    1    1    2    0  501 -0.11344420912E+03 -0.64840968436E+02 -0.23942190058E+04  0.24039431332E+04  0.17200000000E+03 0.  1.
</event>
<event>
 4    1  0.3094855E-002  0.1882899E+03  0.7818608E-02  0.1160013E+00
         -1   -1    0    0    0  501 -0.00000000000E+00  0.00000000000E+00  0.16569278956E+02  0.16569278956E+02  0.00000000000E+00 0.  1.
          1   -1    0    0  502    0  0.00000000000E+00 -0.00000000000E+00 -0.22010676232E+04  0.22010676232E+04  0.00000000000E+00 0. -1.
          6    1    1    2  502    0  0.27067312068E+02  0.71668922913E+02 -0.12774141013E+04  0.12912164266E+04  0.17200000000E+03 0. -1.
         -6    1    1    2    0  501 -0.27067312068E+02 -0.71668922913E+02 -0.90708424290E+03  0.92642047560E+03  0.17200000000E+03 0.  1.
</event>
<event>
 4    1  0.3094855E-002  0.2479569E+03  0.7818608E-02  0.1114603E+00
          2   -1    0    0  502    0  0.00000000000E+00  0.00000000000E+00  0.34161746159E+03  0.34161746159E+03  0.00000000000E+00 0. -1.
         -2   -1    0    0    0  501 -0.00000000000E+00 -0.00000000000E+00 -0.18580072115E+03  0.18580072115E+03  0.00000000000E+00 0.  1.
          6    1    1    2  502    0 -0.15962475366E+03  0.80115796522E+02  0.31212741075E+02  0.24991366117E+03  0.17200000000E+03 0. -1.
         -6    1    1    2    0  501  0.15962475366E+03 -0.80115796522E+02  0.12460399936E+03  0.27750452157E+03  0.17200000000E+03 0. -1.
</event>
<event>
 4    1  0.3094855E-002  0.5072867E+03  0.7818608E-02  0.1011894E+00
          2   -1    0    0  502    0  0.00000000000E+00  0.00000000000E+00  0.12492661561E+04  0.12492661561E+04  0.00000000000E+00 0. -1.
         -2   -1    0    0    0  501 -0.00000000000E+00 -0.00000000000E+00 -0.26879634709E+03  0.26879634709E+03  0.00000000000E+00 0.  1.
          6    1    1    2  502    0 -0.43775991572E+03 -0.19005791910E+03  0.85712862265E+03  0.99599660250E+03  0.17200000000E+03 0. -1.
         -6    1    1    2    0  501  0.43775991572E+03  0.19005791910E+03  0.12334118638E+03  0.52206590071E+03  0.17200000000E+03 0.  1.
</event>
<event>
 4    1  0.3094855E-002  0.2251118E+03  0.7818608E-02  0.1130128E+00
         -1   -1    0    0    0  501 -0.00000000000E+00  0.00000000000E+00  0.17885880263E+03  0.17885880263E+03  0.00000000000E+00 0.  1.
          1   -1    0    0  502    0  0.00000000000E+00 -0.00000000000E+00 -0.28576443167E+03  0.28576443167E+03  0.00000000000E+00 0. -1.
          6    1    1    2  502    0 -0.85478137856E+02  0.11740869724E+03 -0.31992331087E+02  0.22737375285E+03  0.17200000000E+03 0. -1.
         -6    1    1    2    0  501  0.85478137856E+02 -0.11740869724E+03 -0.74913297954E+02  0.23724948145E+03  0.17200000000E+03 0. -1.
</event>
<event>
 4    1  0.3094855E-002  0.2482375E+03  0.7818608E-02  0.1114424E+00
          1   -1    0    0  502    0  0.00000000000E+00  0.00000000000E+00  0.39047205503E+03  0.39047205503E+03  0.00000000000E+00 0. -1.
         -1   -1    0    0    0  501 -0.00000000000E+00 -0.00000000000E+00 -0.17297173456E+03  0.17297173456E+03  0.00000000000E+00 0.  1.
          6    1    1    2  502    0  0.16730110061E+03 -0.63625257682E+02  0.19214799454E+03  0.31391508961E+03  0.17200000000E+03 0.  1.
         -6    1    1    2    0  501 -0.16730110061E+03  0.63625257682E+02  0.25352325932E+02  0.24952869997E+03  0.17200000000E+03 0.  1.
</event>
<event>
 4    1  0.3094855E-002  0.2910244E+03  0.7818608E-02  0.1089816E+00
          2   -1    0    0  502    0  0.00000000000E+00  0.00000000000E+00  0.12095357789E+04  0.12095357789E+04  0.00000000000E+00 0. -1.
         -2   -1    0    0    0  501 -0.00000000000E+00 -0.00000000000E+00 -0.20769119561E+03  0.20769119561E+03  0.00000000000E+00 0.  1.
          6    1    1    2  502    0  0.16200431859E+03 -0.16989933089E+03  0.10778446447E+04  0.11164426811E+04  0.17200000000E+03 0. -1.
         -6    1    1    2    0  501 -0.16200431859E+03  0.16989933089E+03 -0.76000061413E+02  0.30078429349E+03  0.17200000000E+03 0.  1.
</event>
<event>
 4    1  0.3094855E-002  0.4944732E+03  0.7818608E-02  0.1015232E+00
          1   -1    0    0  502    0  0.00000000000E+00  0.00000000000E+00  0.24155535318E+04  0.24155535318E+04  0.00000000000E+00 0. -1.
         -1   -1    0    0    0  501 -0.00000000000E+00 -0.00000000000E+00 -0.14287353873E+03  0.14287353873E+03  0.00000000000E+00 0.  1.
          6    1    1    2  502    0 -0.46302598993E+03 -0.22949896044E+02  0.18270408561E+04  0.18927709991E+04  0.17200000000E+03 0. -1.
         -6    1    1    2    0  501  0.46302598993E+03  0.22949896044E+02  0.44563913699E+03  0.66565607148E+03  0.17200000000E+03 0.  1.
</event>
<event>
 4    1  0.3094855E-002  0.2927786E+03  0.7818608E-02  0.1088907E+00
         -1   -1    0    0    0  501 -0.00000000000E+00  0.00000000000E+00  0.26332093459E+03  0.26332093459E+03  0.00000000000E+00 0.  1.
          1   -1    0    0  502    0  0.00000000000E+00 -0.00000000000E+00 -0.32571539545E+03  0.32571539545E+03  0.00000000000E+00 0. -1.
          6    1    1    2  502    0 -0.21920228216E+03 -0.89920389865E+02 -0.38191096146E+02  0.29525899960E+03  0.17200000000E+03 0. -1.
         -6    1    1    2    0  501  0.21920228216E+03  0.89920389865E+02 -0.24203364713E+02  0.29377733044E+03  0.17200000000E+03 0.  1.
</event>
<event>
 4    1  0.3094855E-002  0.1939884E+03  0.7818608E-02  0.1154912E+00
          2   -1    0    0  502    0  0.00000000000E+00  0.00000000000E+00  0.34803824592E+03  0.34803824592E+03  0.00000000000E+00 0. -1.
         -2   -1    0    0    0  501 -0.00000000000E+00 -0.00000000000E+00 -0.15118972573E+03  0.15118972573E+03  0.00000000000E+00 0.  1.
          6    1    1    2  502    0 -0.88734266670E+02 -0.13180057722E+02 -0.34796163712E+02  0.19708439058E+03  0.17200000000E+03 0.  1.
         -6    1    1    2    0  501  0.88734266670E+02  0.13180057722E+02  0.23164468390E+03  0.30214358107E+03  0.17200000000E+03 0.  1.
</event>
<event>
 4    1  0.3094855E-002  0.2114126E+03  0.7818608E-02  0.1140452E+00
          2   -1    0    0  502    0  0.00000000000E+00  0.00000000000E+00  0.29357893992E+03  0.29357893992E+03  0.00000000000E+00 0. -1.
         -2   -1    0    0    0  501 -0.00000000000E+00 -0.00000000000E+00 -0.15800370696E+03  0.15800370696E+03  0.00000000000E+00 0.  1.
          6    1    1    2  502    0  0.29254498811E+02  0.11939623732E+03  0.11090159470E+03  0.23873510612E+03  0.17200000000E+03 0.  1.
         -6    1    1    2    0  501 -0.29254498811E+02 -0.11939623732E+03  0.24673638263E+02  0.21284754077E+03  0.17200000000E+03 0. -1.
</event>
<event>
 4    1  0.3094855E-002  0.2817186E+03  0.7818608E-02  0.1094754E+00
          1   -1    0    0  502    0  0.00000000000E+00  0.00000000000E+00  0.30502015697E+04  0.30502015697E+04  0.00000000000E+00 0. -1.
         -1   -1    0    0    0  501 -0.00000000000E+00 -0.00000000000E+00 -0.84080323310E+02  0.84080323310E+02  0.00000000000E+00 0.  1.
          6    1    1    2  502    0 -0.14864272530E+03  0.16639316051E+03  0.27853326190E+04  0.27995433810E+04  0.17200000000E+03 0. -1.
         -6    1    1    2    0  501  0.14864272530E+03 -0.16639316051E+03  0.18078862746E+03  0.33473851208E+03  0.17200000000E+03 0.  1.
</event>
<event>
 4    1  0.3094855E-002  0.2014400E+03  0.7818608E-02  0.1148530E+00
          2   -1    0    0  502    0  0.00000000000E+00  0.00000000000E+00  0.91196600017E+03  0.91196600017E+03  0.00000000000E+00 0. -1.
         -2   -1    0    0    0  501 -0.00000000000E+00 -0.00000000000E+00 -0.58203338548E+02  0.58203338548E+02  0.00000000000E+00 0.  1.
          6    1    1    2  502    0 -0.77938493525E+01  0.10456256186E+03  0.66229597305E+03  0.69225286518E+03  0.17200000000E+03 0. -1.
         -6    1    1    2    0  501  0.77938493525E+01 -0.10456256186E+03  0.19146668857E+03  0.27791647354E+03  0.17200000000E+03 0. -1.
</event>
<event>
 4    1  0.3094855E-002  0.2885603E+03  0.7818608E-02  0.1091103E+00
         -1   -1    0    0    0  501 -0.00000000000E+00  0.00000000000E+00  0.29466788738E+02  0.29466788738E+02  0.00000000000E+00 0.  1.
          1   -1    0    0  502    0  0.00000000000E+00 -0.00000000000E+00 -0.28372588905E+04  0.28372588905E+04  0.00000000000E+00 0. -1.
          6    1    1    2  502    0  0.18671773660E+03  0.13718433984E+03 -0.14950139171E+04  0.15226075229E+04  0.17200000000E+03 0. -1.
         -6    1    1    2    0  501 -0.18671773660E+03 -0.13718433984E+03 -0.13127781847E+04  0.13441181564E+04  0.17200000000E+03 0.  1.
</event>
<event>
 4    1  0.3094855E-002  0.2602460E+03  0.7818608E-02  0.1106996E+00
          1   -1    0    0  502    0  0.00000000000E+00  0.00000000000E+00  0.19650792451E+03  0.19650792451E+03  0.00000000000E+00 0. -1.
         -1   -1    0    0    0  501 -0.00000000000E+00 -0.00000000000E+00 -0.50477974859E+03  0.50477974859E+03  0.00000000000E+00 0.  1.
          6    1    1    2  502    0 -0.16691927885E+03 -0.10139985719E+03  0.43352112602E+02  0.26383211017E+03  0.17200000000E+03 0. -1.
         -6    1    1    2    0  501  0.16691927885E+03  0.10139985719E+03 -0.35162393668E+03  0.43745556293E+03  0.17200000000E+03 0. -1.
</event>
<event>
 4    1  0.3094855E-002  0.3519673E+03  0.7818608E-02  0.1061810E+00
         -2   -1    0    0    0  501 -0.00000000000E+00  0.00000000000E+00  0.57181250130E+02  0.57181250130E+02  0.00000000000E+00 0.  1.
          2   -1    0    0  502    0  0.00000000000E+00 -0.00000000000E+00 -0.23676858903E+04  0.23676858903E+04  0.00000000000E+00 0. -1.
          6    1    1    2  502    0 -0.56175889716E+02  0.30189612576E+03 -0.80179599386E+03  0.87564708480E+03  0.17200000000E+03 0. -1.
         -6    1    1    2    0  501  0.56175889716E+02 -0.30189612576E+03 -0.15087086463E+04  0.15492200556E+04  0.17200000000E+03 0.  1.
</event>
<event>
 4    1  0.3094855E-002  0.1736618E+03  0.7818608E-02  0.1174082E+00
          2   -1    0    0  502    0  0.00000000000E+00  0.00000000000E+00  0.56609895978E+03  0.56609895978E+03  0.00000000000E+00 0. -1.
         -2   -1    0    0    0  501 -0.00000000000E+00 -0.00000000000E+00 -0.53627168207E+02  0.53627168207E+02  0.00000000000E+00 0.  1.
          6    1    1    2  502    0  0.12408871306E+02  0.20504518312E+02  0.28137811915E+03  0.33065399029E+03  0.17200000000E+03 0. -1.
         -6    1    1    2    0  501 -0.12408871306E+02 -0.20504518312E+02  0.23109367242E+03  0.28907213769E+03  0.17200000000E+03 0.  1.
</event>
<event>
 4    1  0.3094855E-002  0.5193380E+03  0.7818608E-02  0.1008851E+00
         -2   -1    0    0    0  501 -0.00000000000E+00  0.00000000000E+00  0.61794495652E+03  0.61794495652E+03  0.00000000000E+00 0.  1.
          2   -1    0    0  502    0  0.00000000000E+00 -0.00000000000E+00 -0.47626977879E+03  0.47626977879E+03  0.00000000000E+00 0. -1.
          6    1    1    2  502    0  0.10242435777E+03  0.47920473263E+03 -0.87326740148E+02  0.52662879183E+03  0.17200000000E+03 0. -1.
         -6    1    1    2    0  501 -0.10242435777E+03 -0.47920473263E+03  0.22900191788E+03  0.56758594348E+03  0.17200000000E+03 0.  1.
</event>
<event>
 4    1  0.3094855E-002  0.2930206E+03  0.7818608E-02  0.1088783E+00
          1   -1    0    0  502    0  0.00000000000E+00  0.00000000000E+00  0.15164792766E+04  0.15164792766E+04  0.00000000000E+00 0. -1.
         -1   -1    0    0    0  501 -0.00000000000E+00 -0.00000000000E+00 -0.58112165594E+02  0.58112165594E+02  0.00000000000E+00 0.  1.
          6    1    1    2  502    0  0.11147675356E+03  0.20940389090E+03  0.60297035989E+03  0.67039862098E+03  0.17200000000E+03 0.  1.
         -6    1    1    2    0  501 -0.11147675356E+03 -0.20940389090E+03  0.85539675108E+03  0.90419282117E+03  0.17200000000E+03 0. -1.
</event>
<event>
 4    1  0.3094855E-002  0.2200424E+03  0.7818608E-02  0.1133851E+00
         -4   -1    0    0    0  501 -0.00000000000E+00  0.00000000000E+00  0.70948215725E+03  0.70948215725E+03  0.00000000000E+00 0.  1.
          4   -1    0    0  502    0  0.00000000000E+00 -0.00000000000E+00 -0.13397308127E+03  0.13397308127E+03  0.00000000000E+00 0. -1.
          6    1    1    2  502    0 -0.32694211572E+02 -0.13328819180E+03 -0.76373366343E+01  0.22017489061E+03  0.17200000000E+03 0. -1.
         -6    1    1    2    0  501  0.32694211572E+02  0.13328819180E+03  0.58314641262E+03  0.62328034791E+03  0.17200000000E+03 0.  1.
</event>
<event>
 4    1  0.3094855E-002  0.2105442E+03  0.7818608E-02  0.1141136E+00
          1   -1    0    0  502    0  0.00000000000E+00  0.00000000000E+00  0.61604059478E+03  0.61604059478E+03  0.00000000000E+00 0. -1.
         -1   -1    0    0    0  501 -0.00000000000E+00 -0.00000000000E+00 -0.72802864769E+02  0.72802864769E+02  0.00000000000E+00 0.  1.
          6    1    1    2  502    0  0.92826520830E+02  0.78282148586E+02  0.23450896933E+03  0.31515601605E+03  0.17200000000E+03 0. -1.
         -6    1    1    2    0  501 -0.92826520830E+02 -0.78282148586E+02  0.30872876067E+03  0.37368744349E+03  0.17200000000E+03 0.  1.
</event>
<event>
 4    1  0.3094855E-002  0.1811046E+03  0.7818608E-02  0.1166738E+00
         -1   -1    0    0    0  501 -0.00000000000E+00  0.00000000000E+00  0.73266722331E+02  0.73266722331E+02  0.00000000000E+00 0.  1.
          1   -1    0    0  502    0  0.00000000000E+00 -0.00000000000E+00 -0.44777624444E+03  0.44777624444E+03  0.00000000000E+00 0. -1.
          6    1    1    2  502    0 -0.43596216122E+02 -0.36252303579E+02 -0.18312641970E+03  0.25755415968E+03  0.17200000000E+03 0. -1.
         -6    1    1    2    0  501  0.43596216122E+02  0.36252303579E+02 -0.19138310240E+03  0.26348880709E+03  0.17200000000E+03 0.  1.
</event>
<event>
 4    1  0.3094855E-002  0.2678034E+03  0.7818608E-02  0.1102543E+00
          1   -1    0    0  502    0  0.00000000000E+00  0.00000000000E+00  0.83821487007E+03  0.83821487007E+03  0.00000000000E+00 0. -1.
         -1   -1    0    0    0  501 -0.00000000000E+00 -0.00000000000E+00 -0.96714773207E+02  0.96714773207E+02  0.00000000000E+00 0.  1.
          6    1    1    2  502    0  0.11762473065E+03 -0.16822338735E+03  0.52949838529E+03  0.59336938355E+03  0.17200000000E+03 0. -1.
         -6    1    1    2    0  501 -0.11762473065E+03  0.16822338735E+03  0.21200171158E+03  0.34156025973E+03  0.17200000000E+03 0.  1.
</event>
<event>
 4    1  0.3094855E-002  0.1735109E+03  0.7818608E-02  0.1174235E+00
         -1   -1    0    0    0  501 -0.00000000000E+00  0.00000000000E+00  0.51086987631E+02  0.51086987631E+02  0.00000000000E+00 0.  1.
          1   -1    0    0  502    0  0.00000000000E+00 -0.00000000000E+00 -0.60115139058E+03  0.60115139058E+03  0.00000000000E+00 0. -1.
          6    1    1    2  502    0 -0.22815097141E+02  0.12242473339E+01 -0.22925997711E+03  0.28751724217E+03  0.17200000000E+03 0.  1.
         -6    1    1    2    0  501  0.22815097141E+02 -0.12242473339E+01 -0.32080442584E+03  0.36472113604E+03  0.17200000000E+03 0. -1.
</event>
<event>
 4    1  0.3094855E-002  0.1919230E+03  0.7818608E-02  0.1156738E+00
         -2   -1    0    0    0  501 -0.00000000000E+00  0.00000000000E+00  0.60229383186E+02  0.60229383186E+02  0.00000000000E+00 0.  1.
          2   -1    0    0  502    0  0.00000000000E+00 -0.00000000000E+00 -0.61830204066E+03  0.61830204066E+03  0.00000000000E+00 0. -1.
          6    1    1    2  502    0  0.76972336762E+02  0.36410193059E+02 -0.31443891578E+03  0.36838332555E+03  0.17200000000E+03 0. -1.
         -6    1    1    2    0  501 -0.76972336762E+02 -0.36410193059E+02 -0.24363374169E+03  0.31014809829E+03  0.17200000000E+03 0.  1.
</event>
<event>
 4    1  0.3094855E-002  0.5571333E+03  0.7818608E-02  0.9998562E-01
         -2   -1    0    0    0  501 -0.00000000000E+00  0.00000000000E+00  0.22958372179E+03  0.22958372179E+03  0.00000000000E+00 0.  1.
          2   -1    0    0  502    0  0.00000000000E+00 -0.00000000000E+00 -0.18892383321E+04  0.18892383321E+04  0.00000000000E+00 0. -1.
          6    1    1    2  502    0  0.36883497362E+03  0.38049209821E+03 -0.26488498006E+03  0.61689669089E+03  0.17200000000E+03 0. -1.
         -6    1    1    2    0  501 -0.36883497362E+03 -0.38049209821E+03 -0.13947696302E+04  0.15019253630E+04  0.17200000000E+03 0.  1.
</event>
<event>
 4    1  0.3094855E-002  0.3136085E+03  0.7818608E-02  0.1078629E+00
         -2   -1    0    0    0  501 -0.00000000000E+00  0.00000000000E+00  0.19248909800E+03  0.19248909800E+03  0.00000000000E+00 0.  1.
          2   -1    0    0  502    0  0.00000000000E+00 -0.00000000000E+00 -0.51328613303E+03  0.51328613303E+03  0.00000000000E+00 0. -1.
          6    1    1    2  502    0  0.21776791917E+03  0.14609398170E+03 -0.18425808664E+03  0.36373253992E+03  0.17200000000E+03 0. -1.
         -6    1    1    2    0  501 -0.21776791917E+03 -0.14609398170E+03 -0.13653894840E+03  0.34204269111E+03  0.17200000000E+03 0.  1.
</event>
<event>
 4    1  0.3094855E-002  0.1763430E+03  0.7818608E-02  0.1171390E+00
         -4   -1    0    0    0  501 -0.00000000000E+00  0.00000000000E+00  0.51292254185E+03  0.51292254185E+03  0.00000000000E+00 0.  1.
          4   -1    0    0  502    0  0.00000000000E+00 -0.00000000000E+00 -0.78042178279E+02  0.78042178279E+02  0.00000000000E+00 0. -1.
          6    1    1    2  502    0 -0.20136161286E+02 -0.33277689035E+02  0.35702330299E+03  0.39819908144E+03  0.17200000000E+03 0.  1.
         -6    1    1    2    0  501  0.20136161286E+02  0.33277689035E+02  0.77857060582E+02  0.19276563869E+03  0.17200000000E+03 0. -1.
</event>
<event>
 4    1  0.3094855E-002  0.1959566E+03  0.7818608E-02  0.1153196E+00
          1   -1    0    0  502    0  0.00000000000E+00  0.00000000000E+00  0.15745470170E+04  0.15745470170E+04  0.00000000000E+00 0. -1.
         -1   -1    0    0    0  501 -0.00000000000E+00 -0.00000000000E+00 -0.32207659094E+02  0.32207659094E+02  0.00000000000E+00 0.  1.
          6    1    1    2  502    0  0.92759662323E+02 -0.14513550096E+02  0.11670395998E+04  0.11833767049E+04  0.17200000000E+03 0. -1.
         -6    1    1    2    0  501 -0.92759662323E+02  0.14513550096E+02  0.37529975804E+03  0.42337797118E+03  0.17200000000E+03 0.  1.
</event>
<event>
 4    1  0.3094855E-002  0.2240418E+03  0.7818608E-02  0.1130905E+00
         -2   -1    0    0    0  501 -0.00000000000E+00  0.00000000000E+00  0.21935379268E+02  0.21935379268E+02  0.00000000000E+00 0.  1.
          2   -1    0    0  502    0  0.00000000000E+00 -0.00000000000E+00 -0.30124043276E+04  0.30124043276E+04  0.00000000000E+00 0. -1.
          6    1    1    2  502    0  0.13140170622E+03 -0.57830031472E+02 -0.75139667064E+03  0.78408652430E+03  0.17200000000E+03 0. -1.
         -6    1    1    2    0  501 -0.13140170622E+03  0.57830031472E+02 -0.22390722777E+04  0.22502531826E+04  0.17200000000E+03 0.  1.
</event>
<event>
 4    1  0.3094855E-002  0.1974520E+03  0.7818608E-02  0.1151907E+00
          1   -1    0    0  502    0  0.00000000000E+00  0.00000000000E+00  0.17075827498E+04  0.17075827498E+04  0.00000000000E+00 0. -1.
         -1   -1    0    0    0  501 -0.00000000000E+00 -0.00000000000E+00 -0.30131907904E+02  0.30131907904E+02  0.00000000000E+00 0.  1.
          6    1    1    2  502    0  0.80695605747E+02  0.53772650971E+02  0.12663850043E+04  0.12816857095E+04  0.17200000000E+03 0. -1.
         -6    1    1    2    0  501 -0.80695605747E+02 -0.53772650971E+02  0.41106583762E+03  0.45602894825E+03  0.17200000000E+03 0.  1.
</event>
<event>
 4    1  0.3094855E-002  0.3340878E+03  0.7818608E-02  0.1069342E+00
         -2   -1    0    0    0  501 -0.00000000000E+00  0.00000000000E+00  0.92296594638E+02  0.92296594638E+02  0.00000000000E+00 0.  1.
          2   -1    0    0  502    0  0.00000000000E+00 -0.00000000000E+00 -0.12963515966E+04  0.12963515966E+04  0.00000000000E+00 0. -1.
          6    1    1    2  502    0 -0.24057962651E+02  0.28539779068E+03 -0.78194692524E+03  0.85032680681E+03  0.17200000000E+03 0. -1.
         -6    1    1    2    0  501  0.24057962651E+02 -0.28539779068E+03 -0.42210807671E+03  0.53832138441E+03  0.17200000000E+03 0.  1.
</event>
<event>
 4    1  0.3094855E-002  0.1905778E+03  0.7818608E-02  0.1157941E+00
          2   -1    0    0  502    0  0.00000000000E+00  0.00000000000E+00  0.54913381186E+03  0.54913381186E+03  0.00000000000E+00 0. -1.
         -2   -1    0    0    0  501 -0.00000000000E+00 -0.00000000000E+00 -0.75785911982E+02  0.75785911982E+02  0.00000000000E+00 0.  1.
          6    1    1    2  502    0  0.70110304476E+02 -0.42666471979E+02  0.34814563839E+03  0.39689453026E+03  0.17200000000E+03 0. -1.
         -6    1    1    2    0  501 -0.70110304476E+02  0.42666471979E+02  0.12520226149E+03  0.22802519358E+03  0.17200000000E+03 0.  1.
</event>
<event>
 4    1  0.3094855E-002  0.4430365E+03  0.7818608E-02  0.1029819E+00
          2   -1    0    0  502    0  0.00000000000E+00  0.00000000000E+00  0.11623216511E+04  0.11623216511E+04  0.00000000000E+00 0. -1.
         -2   -1    0    0    0  501 -0.00000000000E+00 -0.00000000000E+00 -0.21627945494E+03  0.21627945494E+03  0.00000000000E+00 0.  1.
          6    1    1    2  502    0  0.33799744259E+03 -0.22903078604E+03  0.15029579154E+03  0.46783565181E+03  0.17200000000E+03 0. -1.
         -6    1    1    2    0  501 -0.33799744259E+03  0.22903078604E+03  0.79574640460E+03  0.91076545421E+03  0.17200000000E+03 0.  1.
</event>
<event>
 4    1  0.3094855E-002  0.4543800E+03  0.7818608E-02  0.1026424E+00
          2   -1    0    0  502    0  0.00000000000E+00  0.00000000000E+00  0.22275918679E+04  0.22275918679E+04  0.00000000000E+00 0. -1.
         -2   -1    0    0    0  501 -0.00000000000E+00 -0.00000000000E+00 -0.97534202063E+02  0.97534202063E+02  0.00000000000E+00 0.  1.
          6    1    1    2  502    0  0.15033650361E+03 -0.39278000263E+03  0.13242895076E+04  0.14000728176E+04  0.17200000000E+03 0. -1.
         -6    1    1    2    0  501 -0.15033650361E+03  0.39278000263E+03  0.80576815825E+03  0.92505325232E+03  0.17200000000E+03 0.  1.
</event>
<event>
 4    1  0.3094855E-002  0.4668355E+03  0.7818608E-02  0.1022817E+00
          2   -1    0    0  502    0  0.00000000000E+00  0.00000000000E+00  0.22138573144E+04  0.22138573144E+04  0.00000000000E+00 0. -1.
         -2   -1    0    0    0  501 -0.00000000000E+00 -0.00000000000E+00 -0.15367546897E+03  0.15367546897E+03  0.00000000000E+00 0.  1.
          6    1    1    2  502    0 -0.30207565618E+03 -0.31161144434E+03  0.32040379194E+03  0.56621019436E+03  0.17200000000E+03 0. -1.
         -6    1    1    2    0  501  0.30207565618E+03  0.31161144434E+03  0.17397780535E+04  0.18013225890E+04  0.17200000000E+03 0.  1.
</event>
<event>
 4    1  0.3094855E-002  0.4032742E+03  0.7818608E-02  0.1042652E+00
         -2   -1    0    0    0  501 -0.00000000000E+00  0.00000000000E+00  0.56355254018E+03  0.56355254018E+03  0.00000000000E+00 0.  1.
          2   -1    0    0  502    0  0.00000000000E+00 -0.00000000000E+00 -0.66605285208E+03  0.66605285208E+03  0.00000000000E+00 0. -1.
          6    1    1    2  502    0 -0.11318825656E+03  0.34674850852E+03 -0.51408298748E+03  0.65338459394E+03  0.17200000000E+03 0. -1.
         -6    1    1    2    0  501  0.11318825656E+03 -0.34674850852E+03  0.41158267558E+03  0.57622079833E+03  0.17200000000E+03 0.  1.
</event>
<event>
 4    1  0.3094855E-002  0.1946949E+03  0.7818608E-02  0.1154294E+00
          2   -1    0    0  502    0  0.00000000000E+00  0.00000000000E+00  0.16363705531E+04  0.16363705531E+04  0.00000000000E+00 0. -1.
         -2   -1    0    0    0  501 -0.00000000000E+00 -0.00000000000E+00 -0.34079077534E+02  0.34079077534E+02  0.00000000000E+00 0.  1.
          6    1    1    2  502    0 -0.79844230359E+02  0.44125018608E+02  0.32847586586E+03  0.38184095229E+03  0.17200000000E+03 0.  1.
         -6    1    1    2    0  501  0.79844230359E+02 -0.44125018608E+02  0.12738156097E+04  0.12886086784E+04  0.17200000000E+03 0. -1.
</event>
<event>
 4    1  0.3094855E-002  0.1847373E+03  0.7818608E-02  0.1163295E+00
          1   -1    0    0  502    0  0.00000000000E+00  0.00000000000E+00  0.83863791829E+03  0.83863791829E+03  0.00000000000E+00 0. -1.
         -1   -1    0    0    0  501 -0.00000000000E+00 -0.00000000000E+00 -0.20283134949E+03  0.20283134949E+03  0.00000000000E+00 0.  1.
          6    1    1    2  502    0 -0.60125782058E+02 -0.30475728002E+02  0.78347855231E+03  0.80496367719E+03  0.17200000000E+03 0. -1.
         -6    1    1    2    0  501  0.60125782058E+02  0.30475728002E+02 -0.14767198351E+03  0.23650559059E+03  0.17200000000E+03 0.  1.
</event>
<event>
 4    1  0.3094855E-002  0.2765842E+03  0.7818608E-02  0.1097569E+00
          1   -1    0    0  502    0  0.00000000000E+00  0.00000000000E+00  0.24676427222E+04  0.24676427222E+04  0.00000000000E+00 0. -1.
         -1   -1    0    0    0  501 -0.00000000000E+00 -0.00000000000E+00 -0.35365474235E+02  0.35365474235E+02  0.00000000000E+00 0.  1.
          6    1    1    2  502    0 -0.19953234747E+03 -0.84271437581E+02  0.16558014768E+04  0.16787427925E+04  0.17200000000E+03 0. -1.
         -6    1    1    2    0  501  0.19953234747E+03  0.84271437581E+02  0.77647577118E+03  0.82426540392E+03  0.17200000000E+03 0.  1.
</event>
<event>
 4    1  0.3094855E-002  0.1904387E+03  0.7818608E-02  0.1158066E+00
         -1   -1    0    0    0  501 -0.00000000000E+00  0.00000000000E+00  0.52494359773E+02  0.52494359773E+02  0.00000000000E+00 0.  1.
          1   -1    0    0  502    0  0.00000000000E+00 -0.00000000000E+00 -0.71445800664E+03  0.71445800664E+03  0.00000000000E+00 0. -1.
          6    1    1    2  502    0 -0.44005798053E+02  0.68893900079E+02 -0.26130667845E+03  0.32333892425E+03  0.17200000000E+03 0.  1.
         -6    1    1    2    0  501  0.44005798053E+02 -0.68893900079E+02 -0.40065696842E+03  0.44361344217E+03  0.17200000000E+03 0.  1.
</event>
<event>
 4    1  0.3094855E-002  0.2657013E+03  0.7818608E-02  0.1103765E+00
          1   -1    0    0  502    0  0.00000000000E+00  0.00000000000E+00  0.62354023989E+02  0.62354023989E+02  0.00000000000E+00 0. -1.
         -1   -1    0    0    0  501 -0.00000000000E+00 -0.00000000000E+00 -0.12127946626E+04  0.12127946626E+04  0.00000000000E+00 0.  1.
          6    1    1    2  502    0  0.20232815755E+03 -0.87471092055E+01 -0.73957862711E+03  0.78585860110E+03  0.17200000000E+03 0. -1.
         -6    1    1    2    0  501 -0.20232815755E+03  0.87471092055E+01 -0.41086201153E+03  0.48929008551E+03  0.17200000000E+03 0.  1.
</event>
<event>
 4    1  0.3094855E-002  0.1993350E+03  0.7818608E-02  0.1150301E+00
          1   -1    0    0  502    0  0.00000000000E+00  0.00000000000E+00  0.20191628767E+04  0.20191628767E+04  0.00000000000E+00 0. -1.
         -1   -1    0    0    0  501 -0.00000000000E+00 -0.00000000000E+00 -0.83403020595E+02  0.83403020595E+02  0.00000000000E+00 0.  1.
          6    1    1    2  502    0  0.97475143248E+02 -0.25476610356E+02  0.18868077566E+04  0.18973080856E+04  0.17200000000E+03 0. -1.
         -6    1    1    2    0  501 -0.97475143248E+02  0.25476610356E+02  0.48952099508E+02  0.20525781172E+03  0.17200000000E+03 0.  1.
</event>
<event>
 4    1  0.3094855E-002  0.2622201E+03  0.7818608E-02  0.1105817E+00
         -1   -1    0    0    0  501 -0.00000000000E+00  0.00000000000E+00  0.23754072950E+03  0.23754072950E+03  0.00000000000E+00 0.  1.
          1   -1    0    0  502    0  0.00000000000E+00 -0.00000000000E+00 -0.29137178556E+03  0.29137178556E+03  0.00000000000E+00 0. -1.
          6    1    1    2  502    0  0.19336095460E+03 -0.42271695672E+02 -0.55132789004E+01  0.26227800377E+03  0.17200000000E+03 0.  1.
         -6    1    1    2    0  501 -0.19336095460E+03  0.42271695672E+02 -0.48317777165E+02  0.26663451129E+03  0.17200000000E+03 0. -1.
</event>
<event>
 4    1  0.3094855E-002  0.2413922E+03  0.7818608E-02  0.1118869E+00
          2   -1    0    0  502    0  0.00000000000E+00  0.00000000000E+00  0.52551315427E+03  0.52551315427E+03  0.00000000000E+00 0. -1.
         -2   -1    0    0    0  501 -0.00000000000E+00 -0.00000000000E+00 -0.19755240890E+03  0.19755240890E+03  0.00000000000E+00 0.  1.
          6    1    1    2  502    0  0.15772085869E+03 -0.61727915559E+02  0.40344464335E+03  0.47014655701E+03  0.17200000000E+03 0. -1.
         -6    1    1    2    0  501 -0.15772085869E+03  0.61727915559E+02 -0.75483897976E+02  0.25291900616E+03  0.17200000000E+03 0.  1.
</event>
<event>
 4    1  0.3094855E-002  0.2337037E+03  0.7818608E-02  0.1124060E+00
         -1   -1    0    0    0  501 -0.00000000000E+00  0.00000000000E+00  0.29648037467E+02  0.29648037467E+02  0.00000000000E+00 0.  1.
          1   -1    0    0  502    0  0.00000000000E+00 -0.00000000000E+00 -0.18873999288E+04  0.18873999288E+04  0.00000000000E+00 0. -1.
          6    1    1    2  502    0 -0.10271062492E+03  0.12034934007E+03 -0.10772195454E+04  0.11022791775E+04  0.17200000000E+03 0. -1.
         -6    1    1    2    0  501  0.10271062492E+03 -0.12034934007E+03 -0.78053234593E+03  0.81476878878E+03  0.17200000000E+03 0.  1.
</event>
<event>
 4    1  0.3094855E-002  0.1802938E+03  0.7818608E-02  0.1167519E+00
         -2   -1    0    0    0  501 -0.00000000000E+00  0.00000000000E+00  0.25742039352E+02  0.25742039352E+02  0.00000000000E+00 0.  1.
          2   -1    0    0  502    0  0.00000000000E+00 -0.00000000000E+00 -0.30957027144E+04  0.30957027144E+04  0.00000000000E+00 0. -1.
          6    1    1    2  502    0  0.52899139500E+02 -0.11114918190E+02 -0.27359200405E+04  0.27418541771E+04  0.17200000000E+03 0. -1.
         -6    1    1    2    0  501 -0.52899139500E+02  0.11114918190E+02 -0.33404063452E+03  0.37959057664E+03  0.17200000000E+03 0.  1.
</event>
<event>
 4    1  0.3094855E-002  0.2540974E+03  0.7818608E-02  0.1110742E+00
         -2   -1    0    0    0  501 -0.00000000000E+00  0.00000000000E+00  0.32893891646E+02  0.32893891646E+02  0.00000000000E+00 0.  1.
          2   -1    0    0  502    0  0.00000000000E+00 -0.00000000000E+00 -0.33359125979E+04  0.33359125979E+04  0.00000000000E+00 0. -1.
          6    1    1    2  502    0  0.16968619012E+03  0.78664479786E+02 -0.27321597383E+04  0.27439501342E+04  0.17200000000E+03 0. -1.
         -6    1    1    2    0  501 -0.16968619012E+03 -0.78664479786E+02 -0.57085896796E+03  0.62485635533E+03  0.17200000000E+03 0.  1.
</event>
<event>
 4    1  0.3094855E-002  0.1746806E+03  0.7818608E-02  0.1173053E+00
         -1   -1    0    0    0  501 -0.00000000000E+00  0.00000000000E+00  0.12723967230E+04  0.12723967230E+04  0.00000000000E+00 0.  1.
          1   -1    0    0  502    0  0.00000000000E+00 -0.00000000000E+00 -0.24019911199E+02  0.24019911199E+02  0.00000000000E+00 0. -1.
          6    1    1    2  502    0  0.62996643262E+01 -0.29826442612E+02  0.59808745597E+03  0.62307456009E+03  0.17200000000E+03 0. -1.
         -6    1    1    2    0  501 -0.62996643262E+01  0.29826442612E+02  0.65028935580E+03  0.67334207407E+03  0.17200000000E+03 0. -1.
</event>
<event>
 4    1  0.3094855E-002  0.3002190E+03  0.7818608E-02  0.1085131E+00
         -2   -1    0    0    0  501 -0.00000000000E+00  0.00000000000E+00  0.80173207002E+02  0.80173207002E+02  0.00000000000E+00 0.  1.
          2   -1    0    0  502    0  0.00000000000E+00 -0.00000000000E+00 -0.13183919368E+04  0.13183919368E+04  0.00000000000E+00 0. -1.
          6    1    1    2  502    0  0.13528467086E+03  0.20553712580E+03 -0.88748050368E+03  0.93688478303E+03  0.17200000000E+03 0. -1.
         -6    1    1    2    0  501 -0.13528467086E+03 -0.20553712580E+03 -0.35073822607E+03  0.46168036072E+03  0.17200000000E+03 0.  1.
</event>
<event>
 4    1  0.3094855E-002  0.3875115E+03  0.7818608E-02  0.1048192E+00
         -2   -1    0    0    0  501 -0.00000000000E+00  0.00000000000E+00  0.72798530007E+02  0.72798530007E+02  0.00000000000E+00 0.  1.
          2   -1    0    0  502    0  0.00000000000E+00 -0.00000000000E+00 -0.27008944500E+04  0.27008944500E+04  0.00000000000E+00 0. -1.
          6    1    1    2  502    0  0.19544646038E+03  0.28702237979E+03 -0.19881631214E+04  0.20255759089E+04  0.17200000000E+03 0. -1.
         -6    1    1    2    0  501 -0.19544646038E+03 -0.28702237979E+03 -0.63993279856E+03  0.74811707108E+03  0.17200000000E+03 0.  1.
</event>
<event>
 4    1  0.3094855E-002  0.3340774E+03  0.7818608E-02  0.1069347E+00
         -1   -1    0    0    0  501 -0.00000000000E+00  0.00000000000E+00  0.39798405552E+03  0.39798405552E+03  0.00000000000E+00 0.  1.
          1   -1    0    0  502    0  0.00000000000E+00 -0.00000000000E+00 -0.35478118152E+03  0.35478118152E+03  0.00000000000E+00 0. -1.
          6    1    1    2  502    0  0.19544313780E+03  0.20934584116E+03 -0.15069870313E+03  0.36649392962E+03  0.17200000000E+03 0. -1.
         -6    1    1    2    0  501 -0.19544313780E+03 -0.20934584116E+03  0.19390157713E+03  0.38627130742E+03  0.17200000000E+03 0.  1.
</event>
<event>
 4    1  0.3094855E-002  0.2600410E+03  0.7818608E-02  0.1107119E+00
         -3   -1    0    0    0  501 -0.00000000000E+00  0.00000000000E+00  0.73083772201E+02  0.73083772201E+02  0.00000000000E+00 0.  1.
          3   -1    0    0  502    0  0.00000000000E+00 -0.00000000000E+00 -0.24904605481E+04  0.24904605481E+04  0.00000000000E+00 0. -1.
          6    1    1    2  502    0  0.11796950883E+03  0.15530782785E+03 -0.22248348505E+04  0.22399802317E+04  0.17200000000E+03 0. -1.
         -6    1    1    2    0  501 -0.11796950883E+03 -0.15530782785E+03 -0.19254192543E+03  0.32356408864E+03  0.17200000000E+03 0.  1.
</event>
<event>
 4    1  0.3094855E-002  0.1989410E+03  0.7818608E-02  0.1150636E+00
         -1   -1    0    0    0  501 -0.00000000000E+00  0.00000000000E+00  0.18892808860E+02  0.18892808860E+02  0.00000000000E+00 0.  1.
          1   -1    0    0  502    0  0.00000000000E+00 -0.00000000000E+00 -0.21410875302E+04  0.21410875302E+04  0.00000000000E+00 0. -1.
          6    1    1    2  502    0 -0.38874558411E+02 -0.92099417062E+02 -0.12198118189E+04  0.12359281563E+04  0.17200000000E+03 0.  1.
         -6    1    1    2    0  501  0.38874558411E+02  0.92099417062E+02 -0.90238290240E+03  0.92405218276E+03  0.17200000000E+03 0. -1.
</event>
<event>
 4    1  0.3094855E-002  0.3544783E+03  0.7818608E-02  0.1060792E+00
          1   -1    0    0  502    0  0.00000000000E+00  0.00000000000E+00  0.41695818261E+04  0.41695818261E+04  0.00000000000E+00 0. -1.
         -1   -1    0    0    0  501 -0.00000000000E+00 -0.00000000000E+00 -0.63164255576E+02  0.63164255576E+02  0.00000000000E+00 0.  1.
          6    1    1    2  502    0 -0.30005980742E+03  0.77684948718E+02  0.35835872338E+04  0.36010765476E+04  0.17200000000E+03 0. -1.
         -6    1    1    2    0  501  0.30005980742E+03 -0.77684948718E+02  0.52283033665E+03  0.63166953402E+03  0.17200000000E+03 0.  1.
</event>
<event>
 4    1  0.3094855E-002  0.2711467E+03  0.7818608E-02  0.1100625E+00
          1   -1    0    0  502    0  0.00000000000E+00  0.00000000000E+00  0.18568746576E+03  0.18568746576E+03  0.00000000000E+00 0. -1.
         -1   -1    0    0    0  501 -0.00000000000E+00 -0.00000000000E+00 -0.65305068761E+03  0.65305068761E+03  0.00000000000E+00 0.  1.
          6    1    1    2  502    0  0.20047349591E+03 -0.61212028943E+02  0.29457601497E+02  0.27274215907E+03  0.17200000000E+03 0. -1.
         -6    1    1    2    0  501 -0.20047349591E+03  0.61212028943E+02 -0.49682082334E+03  0.56599599429E+03  0.17200000000E+03 0.  1.
</event>
<event>
 4    1  0.3094855E-002  0.1806211E+03  0.7818608E-02  0.1167203E+00
          2   -1    0    0  502    0  0.00000000000E+00  0.00000000000E+00  0.85614533083E+03  0.85614533083E+03  0.00000000000E+00 0. -1.
         -2   -1    0    0    0  501 -0.00000000000E+00 -0.00000000000E+00 -0.10211897552E+03  0.10211897552E+03  0.00000000000E+00 0.  1.
          6    1    1    2  502    0  0.36780297165E+02  0.41075442308E+02  0.75636070271E+03  0.77762812116E+03  0.17200000000E+03 0. -1.
         -6    1    1    2    0  501 -0.36780297165E+02 -0.41075442308E+02 -0.23343473967E+01  0.18063618518E+03  0.17200000000E+03 0.  1.
</event>
<event>
 4    1  0.3094855E-002  0.2027730E+03  0.7818608E-02  0.1147420E+00
          2   -1    0    0  502    0  0.00000000000E+00  0.00000000000E+00  0.14612031614E+04  0.14612031614E+04  0.00000000000E+00 0. -1.
         -2   -1    0    0    0  501 -0.00000000000E+00 -0.00000000000E+00 -0.28975497315E+02  0.28975497315E+02  0.00000000000E+00 0.  1.
          6    1    1    2  502    0  0.90428286115E+01  0.10700996059E+03  0.84270571691E+03  0.86675823026E+03  0.17200000000E+03 0. -1.
         -6    1    1    2    0  501 -0.90428286115E+01 -0.10700996059E+03  0.58952194720E+03  0.62342042848E+03  0.17200000000E+03 0.  1.
</event>
<event>
 4    1  0.3094855E-002  0.1916203E+03  0.7818608E-02  0.1157008E+00
          3   -1    0    0  502    0  0.00000000000E+00  0.00000000000E+00  0.35604853202E+03  0.35604853202E+03  0.00000000000E+00 0. -1.
         -3   -1    0    0    0  501 -0.00000000000E+00 -0.00000000000E+00 -0.11001320284E+03  0.11001320284E+03  0.00000000000E+00 0.  1.
          6    1    1    2  502    0 -0.80680642613E+02  0.24999841913E+02  0.18131764985E+03  0.26380759719E+03  0.17200000000E+03 0. -1.
         -6    1    1    2    0  501  0.80680642613E+02 -0.24999841913E+02  0.64717679326E+02  0.20225413767E+03  0.17200000000E+03 0.  1.
</event>
<event>
 4    1  0.3094855E-002  0.2504162E+03  0.7818608E-02  0.1113042E+00
          1   -1    0    0  502    0  0.00000000000E+00  0.00000000000E+00  0.20938909724E+03  0.20938909724E+03  0.00000000000E+00 0. -1.
         -1   -1    0    0    0  501 -0.00000000000E+00 -0.00000000000E+00 -0.35988407211E+03  0.35988407211E+03  0.00000000000E+00 0.  1.
          6    1    1    2  502    0  0.13071630386E+03 -0.12663923826E+03  0.41362464105E+02  0.25380918462E+03  0.17200000000E+03 0. -1.
         -6    1    1    2    0  501 -0.13071630386E+03  0.12663923826E+03 -0.19185743898E+03  0.31546398472E+03  0.17200000000E+03 0.  1.
</event>
<event>
 4    1  0.3094855E-002  0.2023322E+03  0.7818608E-02  0.1147786E+00
          1   -1    0    0  502    0  0.00000000000E+00  0.00000000000E+00  0.22170748694E+04  0.22170748694E+04  0.00000000000E+00 0. -1.
         -1   -1    0    0    0  501 -0.00000000000E+00 -0.00000000000E+00 -0.39627435829E+02  0.39627435829E+02  0.00000000000E+00 0.  1.
          6    1    1    2  502    0  0.10270268114E+03  0.28398273519E+02  0.19132965989E+04  0.19239652227E+04  0.17200000000E+03 0. -1.
         -6    1    1    2    0  501 -0.10270268114E+03 -0.28398273519E+02  0.26415083463E+03  0.33273708252E+03  0.17200000000E+03 0.  1.
</event>
<event>
 4    1  0.3094855E-002  0.2187968E+03  0.7818608E-02  0.1134783E+00
         -2   -1    0    0    0  501 -0.00000000000E+00  0.00000000000E+00  0.28327740670E+02  0.28327740670E+02  0.00000000000E+00 0.  1.
          2   -1    0    0  502    0  0.00000000000E+00 -0.00000000000E+00 -0.39971717562E+04  0.39971717562E+04  0.00000000000E+00 0. -1.
          6    1    1    2  502    0  0.86041562875E+02  0.10433063615E+03 -0.35136050888E+04  0.35204108783E+04  0.17200000000E+03 0. -1.
         -6    1    1    2    0  501 -0.86041562875E+02 -0.10433063615E+03 -0.45523892679E+03  0.50508861860E+03  0.17200000000E+03 0.  1.
</event>
<event>
 4    1  0.3094855E-002  0.2471967E+03  0.7818608E-02  0.1115089E+00
         -2   -1    0    0    0  501 -0.00000000000E+00  0.00000000000E+00  0.18411838080E+03  0.18411838080E+03  0.00000000000E+00 0.  1.
          2   -1    0    0  502    0  0.00000000000E+00 -0.00000000000E+00 -0.45535570153E+03  0.45535570153E+03  0.00000000000E+00 0. -1.
          6    1    1    2  502    0  0.17243373032E+03 -0.42294417538E+02 -0.30211272396E+03  0.39035664089E+03  0.17200000000E+03 0. -1.
         -6    1    1    2    0  501 -0.17243373032E+03  0.42294417538E+02  0.30875403223E+02  0.24911744144E+03  0.17200000000E+03 0.  1.
</event>
<event>
 4    1  0.3094855E-002  0.1899163E+03  0.7818608E-02  0.1158537E+00
          1   -1    0    0  502    0  0.00000000000E+00  0.00000000000E+00  0.15850112901E+04  0.15850112901E+04  0.00000000000E+00 0. -1.
         -1   -1    0    0    0  501 -0.00000000000E+00 -0.00000000000E+00 -0.33905468161E+02  0.33905468161E+02  0.00000000000E+00 0.  1.
          6    1    1    2  502    0  0.73228505887E+01 -0.80190989809E+02  0.12397371464E+04  0.12541995101E+04  0.17200000000E+03 0. -1.
         -6    1    1    2    0  501 -0.73228505887E+01  0.80190989809E+02  0.31136867547E+03  0.36471724809E+03  0.17200000000E+03 0.  1.
</event>
<event>
 4    1  0.3094855E-002  0.3348911E+03  0.7818608E-02  0.1068993E+00
         -1   -1    0    0    0  501 -0.00000000000E+00  0.00000000000E+00  0.98230169151E+02  0.98230169151E+02  0.00000000000E+00 0.  1.
          1   -1    0    0  502    0  0.00000000000E+00 -0.00000000000E+00 -0.19703818685E+04  0.19703818685E+04  0.00000000000E+00 0. -1.
          6    1    1    2  502    0  0.27658275929E+03 -0.77910448835E+02 -0.16068257682E+04  0.16413534385E+04  0.17200000000E+03 0. -1.
         -6    1    1    2    0  501 -0.27658275929E+03  0.77910448835E+02 -0.26532593109E+03  0.42725859907E+03  0.17200000000E+03 0.  1.
</event>
<event>
 4    1  0.3094855E-002  0.1937406E+03  0.7818608E-02  0.1155130E+00
         -2   -1    0    0    0  501 -0.00000000000E+00  0.00000000000E+00  0.72983698751E+02  0.72983698751E+02  0.00000000000E+00 0.  1.
          2   -1    0    0  502    0  0.00000000000E+00 -0.00000000000E+00 -0.82309577250E+03  0.82309577250E+03  0.00000000000E+00 0. -1.
          6    1    1    2  502    0  0.37823491747E+02  0.80751450128E+02 -0.10062829465E+03  0.21831506340E+03  0.17200000000E+03 0.  1.
         -6    1    1    2    0  501 -0.37823491747E+02 -0.80751450128E+02 -0.64948377910E+03  0.67776440784E+03  0.17200000000E+03 0. -1.
</event>
<event>
 4    1  0.3094855E-002  0.1765812E+03  0.7818608E-02  0.1171153E+00
          2   -1    0    0  502    0  0.00000000000E+00  0.00000000000E+00  0.34210514836E+03  0.34210514836E+03  0.00000000000E+00 0. -1.
         -2   -1    0    0    0  501 -0.00000000000E+00 -0.00000000000E+00 -0.95459289366E+02  0.95459289366E+02  0.00000000000E+00 0.  1.
          6    1    1    2  502    0  0.28665530894E+02 -0.27842435414E+02  0.16983822562E+03  0.24500191174E+03  0.17200000000E+03 0. -1.
         -6    1    1    2    0  501 -0.28665530894E+02  0.27842435414E+02  0.76807633368E+02  0.19256252599E+03  0.17200000000E+03 0. -1.
</event>
<event>
 4    1  0.3094855E-002  0.2884501E+03  0.7818608E-02  0.1091161E+00
         -1   -1    0    0    0  501 -0.00000000000E+00  0.00000000000E+00  0.29986624523E+03  0.29986624523E+03  0.00000000000E+00 0.  1.
          1   -1    0    0  502    0  0.00000000000E+00 -0.00000000000E+00 -0.27877306210E+03  0.27877306210E+03  0.00000000000E+00 0. -1.
          6    1    1    2  502    0 -0.19228782170E+03 -0.12901486324E+03 -0.92450886727E+01  0.28859818602E+03  0.17200000000E+03 0. -1.
         -6    1    1    2    0  501  0.19228782170E+03  0.12901486324E+03  0.30338271802E+02  0.29004112130E+03  0.17200000000E+03 0.  1.
</event>
<event>
 4    1  0.3094855E-002  0.3236180E+03  0.7818608E-02  0.1073996E+00
          2   -1    0    0  502    0  0.00000000000E+00  0.00000000000E+00  0.21127303922E+04  0.21127303922E+04  0.00000000000E+00 0. -1.
         -2   -1    0    0    0  501 -0.00000000000E+00 -0.00000000000E+00 -0.12455417431E+03  0.12455417431E+03  0.00000000000E+00 0.  1.
          6    1    1    2  502    0 -0.18153059603E+03  0.20540505147E+03  0.18620409812E+04  0.18899537582E+04  0.17200000000E+03 0. -1.
         -6    1    1    2    0  501  0.18153059603E+03 -0.20540505147E+03  0.12613523667E+03  0.34733080830E+03  0.17200000000E+03 0.  1.
</event>
<event>
 4    1  0.3094855E-002  0.1974439E+03  0.7818608E-02  0.1151914E+00
         -2   -1    0    0    0  501 -0.00000000000E+00  0.00000000000E+00  0.25878244969E+02  0.25878244969E+02  0.00000000000E+00 0.  1.
          2   -1    0    0  502    0  0.00000000000E+00 -0.00000000000E+00 -0.15167238429E+04  0.15167238429E+04  0.00000000000E+00 0. -1.
          6    1    1    2  502    0  0.63970937415E+02 -0.72854665870E+02 -0.68191902120E+03  0.70992790806E+03  0.17200000000E+03 0.  1.
         -6    1    1    2    0  501 -0.63970937415E+02  0.72854665870E+02 -0.80892657671E+03  0.83267417979E+03  0.17200000000E+03 0.  1.
</event>
<event>
 4    1  0.3094855E-002  0.1751034E+03  0.7818608E-02  0.1172628E+00
          1   -1    0    0  502    0  0.00000000000E+00  0.00000000000E+00  0.26760876292E+03  0.26760876292E+03  0.00000000000E+00 0. -1.
         -1   -1    0    0    0  501 -0.00000000000E+00 -0.00000000000E+00 -0.11649192102E+03  0.11649192102E+03  0.00000000000E+00 0.  1.
          6    1    1    2  502    0  0.76558050040E+01 -0.31915497518E+02  0.10019589869E+03  0.20174347188E+03  0.17200000000E+03 0. -1.
         -6    1    1    2    0  501 -0.76558050040E+01  0.31915497518E+02  0.50920943206E+02  0.18235721206E+03  0.17200000000E+03 0.  1.
</event>
<event>
 4    1  0.3094855E-002  0.2066569E+03  0.7818608E-02  0.1144241E+00
          1   -1    0    0  502    0  0.00000000000E+00  0.00000000000E+00  0.10124688663E+04  0.10124688663E+04  0.00000000000E+00 0. -1.
         -1   -1    0    0    0  501 -0.00000000000E+00 -0.00000000000E+00 -0.50098321882E+02  0.50098321882E+02  0.00000000000E+00 0.  1.
          6    1    1    2  502    0  0.11049055580E+03 -0.30247620023E+02  0.69238841956E+03  0.72257096882E+03  0.17200000000E+03 0. -1.
         -6    1    1    2    0  501 -0.11049055580E+03  0.30247620023E+02  0.26998212485E+03  0.33999621935E+03  0.17200000000E+03 0.  1.
</event>
<event>
 4    1  0.3094855E-002  0.2087403E+03  0.7818608E-02  0.1142567E+00
          2   -1    0    0  502    0  0.00000000000E+00  0.00000000000E+00  0.10055278494E+04  0.10055278494E+04  0.00000000000E+00 0. -1.
         -2   -1    0    0    0  501 -0.00000000000E+00 -0.00000000000E+00 -0.69260130517E+02  0.69260130517E+02  0.00000000000E+00 0.  1.
          6    1    1    2  502    0 -0.46072509408E+02  0.10893038763E+03  0.79693146989E+03  0.82381567912E+03  0.17200000000E+03 0. -1.
         -6    1    1    2    0  501  0.46072509408E+02 -0.10893038763E+03  0.13933624895E+03  0.25097230075E+03  0.17200000000E+03 0.  1.
</event>
<event>
 4    1  0.3094855E-002  0.2982193E+03  0.7818608E-02  0.1086134E+00
          1   -1    0    0  502    0  0.00000000000E+00  0.00000000000E+00  0.10443181217E+04  0.10443181217E+04  0.00000000000E+00 0. -1.
         -1   -1    0    0    0  501 -0.00000000000E+00 -0.00000000000E+00 -0.94001854365E+02  0.94001854365E+02  0.00000000000E+00 0.  1.
          6    1    1    2  502    0 -0.18020657540E+03  0.16394002727E+03  0.30060668492E+03  0.42343726971E+03  0.17200000000E+03 0.  1.
         -6    1    1    2    0  501  0.18020657540E+03 -0.16394002727E+03  0.64970958239E+03  0.71488270633E+03  0.17200000000E+03 0.  1.
</event>
<event>
 4    1  0.3094855E-002  0.2398507E+03  0.7818608E-02  0.1119892E+00
         -2   -1    0    0    0  501 -0.00000000000E+00  0.00000000000E+00  0.23619301985E+03  0.23619301985E+03  0.00000000000E+00 0.  1.
          2   -1    0    0  502    0  0.00000000000E+00 -0.00000000000E+00 -0.38800888890E+03  0.38800888890E+03  0.00000000000E+00 0. -1.
          6    1    1    2  502    0 -0.13378209634E+03  0.10023325542E+03 -0.26633287710E+03  0.35841534038E+03  0.17200000000E+03 0. -1.
         -6    1    1    2    0  501  0.13378209634E+03 -0.10023325542E+03  0.11451700806E+03  0.26578656837E+03  0.17200000000E+03 0.  1.
</event>
<event>
 4    1  0.3094855E-002  0.1949753E+03  0.7818608E-02  0.1154049E+00
          2   -1    0    0  502    0  0.00000000000E+00  0.00000000000E+00  0.74629137998E+03  0.74629137998E+03  0.00000000000E+00 0. -1.
         -2   -1    0    0    0  501 -0.00000000000E+00 -0.00000000000E+00 -0.55274540464E+02  0.55274540464E+02  0.00000000000E+00 0.  1.
          6    1    1    2  502    0  0.29077596311E+02  0.87096766311E+02  0.45775346498E+03  0.49754757361E+03  0.17200000000E+03 0. -1.
         -6    1    1    2    0  501 -0.29077596311E+02 -0.87096766311E+02  0.23326337454E+03  0.30401834683E+03  0.17200000000E+03 0.  1.
</event>
<event>
 4    1  0.3094855E-002  0.2515889E+03  0.7818608E-02  0.1112305E+00
          2   -1    0    0  502    0  0.00000000000E+00  0.00000000000E+00  0.41433511165E+04  0.41433511165E+04  0.00000000000E+00 0. -1.
         -2   -1    0    0    0  501 -0.00000000000E+00 -0.00000000000E+00 -0.15479439707E+02  0.15479439707E+02  0.00000000000E+00 0.  1.
          6    1    1    2  502    0 -0.16952996049E+03 -0.70516441985E+02  0.23018771835E+04  0.23155853567E+04  0.17200000000E+03 0. -1.
         -6    1    1    2    0  501  0.16952996049E+03  0.70516441985E+02  0.18259944933E+04  0.18432451995E+04  0.17200000000E+03 0. -1.
</event>
<event>
 4    1  0.3094855E-002  0.1881776E+03  0.7818608E-02  0.1160115E+00
          2   -1    0    0  502    0  0.00000000000E+00  0.00000000000E+00  0.25902905181E+04  0.25902905181E+04  0.00000000000E+00 0. -1.
         -2   -1    0    0    0  501 -0.00000000000E+00 -0.00000000000E+00 -0.16525053575E+02  0.16525053575E+02  0.00000000000E+00 0.  1.
          6    1    1    2  502    0  0.13597787744E+02 -0.75112661978E+02  0.18285976162E+04  0.18382546216E+04  0.17200000000E+03 0. -1.
         -6    1    1    2    0  501 -0.13597787744E+02  0.75112661978E+02  0.74516784835E+03  0.76856095012E+03  0.17200000000E+03 0.  1.
</event>
<event>
 4    1  0.3094855E-002  0.2821228E+03  0.7818608E-02  0.1094535E+00
         -2   -1    0    0    0  501 -0.00000000000E+00  0.00000000000E+00  0.35983433084E+03  0.35983433084E+03  0.00000000000E+00 0.  1.
          2   -1    0    0  502    0  0.00000000000E+00 -0.00000000000E+00 -0.29471261348E+03  0.29471261348E+03  0.00000000000E+00 0. -1.
          6    1    1    2  502    0 -0.15498651585E+03  0.16120934111E+03  0.19602009514E+03  0.34353624184E+03  0.17200000000E+03 0.  1.
         -6    1    1    2    0  501  0.15498651585E+03 -0.16120934111E+03 -0.13089837777E+03  0.31101070249E+03  0.17200000000E+03 0. -1.
</event>
<event>
 4    1  0.3094855E-002  0.6047706E+03  0.7818608E-02  0.9895558E-01
          2   -1    0    0  502    0  0.00000000000E+00  0.00000000000E+00  0.94566989657E+03  0.94566989657E+03  0.00000000000E+00 0. -1.
         -2   -1    0    0    0  501 -0.00000000000E+00 -0.00000000000E+00 -0.41228310177E+03  0.41228310177E+03  0.00000000000E+00 0.  1.
          6    1    1    2  502    0  0.11994659195E+03 -0.56725331877E+03  0.43562919702E+03  0.74533234860E+03  0.17200000000E+03 0. -1.
         -6    1    1    2    0  501 -0.11994659195E+03  0.56725331877E+03  0.97757597782E+02  0.61262064975E+03  0.17200000000E+03 0.  1.
</event>
<event>
 4    1  0.3094855E-002  0.2707462E+03  0.7818608E-02  0.1100853E+00
         -1   -1    0    0    0  501 -0.00000000000E+00  0.00000000000E+00  0.32145254537E+02  0.32145254537E+02  0.00000000000E+00 0.  1.
          1   -1    0    0  502    0  0.00000000000E+00 -0.00000000000E+00 -0.22814158555E+04  0.22814158555E+04  0.00000000000E+00 0. -1.
          6    1    1    2  502    0 -0.20759814646E+03 -0.24950185818E+02 -0.11492447416E+04  0.11807061355E+04  0.17200000000E+03 0.  1.
         -6    1    1    2    0  501  0.20759814646E+03  0.24950185818E+02 -0.11000258593E+04  0.11328549746E+04  0.17200000000E+03 0.  1.
</event>
<event>
 4    1  0.3094855E-002  0.1791210E+03  0.7818608E-02  0.1168656E+00
          2   -1    0    0  502    0  0.00000000000E+00  0.00000000000E+00  0.47050025780E+03  0.47050025780E+03  0.00000000000E+00 0. -1.
         -2   -1    0    0    0  501 -0.00000000000E+00 -0.00000000000E+00 -0.71164356209E+02  0.71164356209E+02  0.00000000000E+00 0.  1.
          6    1    1    2  502    0  0.29608246667E+02  0.40294989814E+02  0.25501858488E+03  0.31163891462E+03  0.17200000000E+03 0. -1.
         -6    1    1    2    0  501 -0.29608246667E+02 -0.40294989814E+02  0.14431731672E+03  0.23002569939E+03  0.17200000000E+03 0.  1.
</event>
<event>
 4    1  0.3094855E-002  0.1992787E+03  0.7818608E-02  0.1150349E+00
         -2   -1    0    0    0  501 -0.00000000000E+00  0.00000000000E+00  0.34247804866E+02  0.34247804866E+02  0.00000000000E+00 0.  1.
          2   -1    0    0  502    0  0.00000000000E+00 -0.00000000000E+00 -0.24955563552E+04  0.24955563552E+04  0.00000000000E+00 0. -1.
          6    1    1    2  502    0 -0.75731442413E+01 -0.10035257820E+03 -0.21561570254E+04  0.21653464181E+04  0.17200000000E+03 0. -1.
         -6    1    1    2    0  501  0.75731442413E+01  0.10035257820E+03 -0.30515152494E+03  0.36445774191E+03  0.17200000000E+03 0.  1.
</event>
<event>
 4    1  0.3094855E-002  0.2132896E+03  0.7818608E-02  0.1138987E+00
         -1   -1    0    0    0  501 -0.00000000000E+00  0.00000000000E+00  0.50609924698E+03  0.50609924698E+03  0.00000000000E+00 0.  1.
          1   -1    0    0  502    0  0.00000000000E+00 -0.00000000000E+00 -0.22521914084E+03  0.22521914084E+03  0.00000000000E+00 0. -1.
          6    1    1    2  502    0  0.11614922298E+03  0.49171205078E+02 -0.14300709083E+03  0.25679462112E+03  0.17200000000E+03 0. -1.
         -6    1    1    2    0  501 -0.11614922298E+03 -0.49171205078E+02  0.42388719697E+03  0.47452376670E+03  0.17200000000E+03 0.  1.
</event>
<event>
 4    1  0.3094855E-002  0.2880296E+03  0.7818608E-02  0.1091382E+00
          2   -1    0    0  502    0  0.00000000000E+00  0.00000000000E+00  0.95419589690E+03  0.95419589690E+03  0.00000000000E+00 0. -1.
         -2   -1    0    0    0  501 -0.00000000000E+00 -0.00000000000E+00 -0.94566700633E+02  0.94566700633E+02  0.00000000000E+00 0.  1.
          6    1    1    2  502    0 -0.23087658966E+03  0.85454177336E+01  0.57869925690E+03  0.64641616143E+03  0.17200000000E+03 0. -1.
         -6    1    1    2    0  501  0.23087658966E+03 -0.85454177336E+01  0.28092993936E+03  0.40234643611E+03  0.17200000000E+03 0.  1.
</event>
<event>
 4    1  0.3094855E-002  0.1937613E+03  0.7818608E-02  0.1155112E+00
         -1   -1    0    0    0  501 -0.00000000000E+00  0.00000000000E+00  0.30855786529E+02  0.30855786529E+02  0.00000000000E+00 0.  1.
          1   -1    0    0  502    0  0.00000000000E+00 -0.00000000000E+00 -0.12577305382E+04  0.12577305382E+04  0.00000000000E+00 0. -1.
          6    1    1    2  502    0  0.15944126076E+02 -0.87779452422E+02 -0.72975227657E+03  0.75503763653E+03  0.17200000000E+03 0. -1.
         -6    1    1    2    0  501 -0.15944126076E+02  0.87779452422E+02 -0.49712247509E+03  0.53354868818E+03  0.17200000000E+03 0.  1.
</event>
<event>
 4    1  0.3094855E-002  0.3357901E+03  0.7818608E-02  0.1068603E+00
         -1   -1    0    0    0  501 -0.00000000000E+00  0.00000000000E+00  0.15120404980E+03  0.15120404980E+03  0.00000000000E+00 0.  1.
          1   -1    0    0  502    0  0.00000000000E+00 -0.00000000000E+00 -0.10053660355E+04  0.10053660355E+04  0.00000000000E+00 0. -1.
          6    1    1    2  502    0 -0.16180569435E+03  0.23872558395E+03 -0.72096480396E+03  0.79532712496E+03  0.17200000000E+03 0. -1.
         -6    1    1    2    0  501  0.16180569435E+03 -0.23872558395E+03 -0.13319718172E+03  0.36124296031E+03  0.17200000000E+03 0.  1.
</event>
<event>
 4    1  0.3094855E-002  0.1986817E+03  0.7818608E-02  0.1150856E+00
          2   -1    0    0  502    0  0.00000000000E+00  0.00000000000E+00  0.32243860891E+03  0.32243860891E+03  0.00000000000E+00 0. -1.
         -2   -1    0    0    0  501 -0.00000000000E+00 -0.00000000000E+00 -0.22319443451E+03  0.22319443451E+03  0.00000000000E+00 0.  1.
          6    1    1    2  502    0 -0.89076345372E+02  0.44224482261E+02  0.23293555672E+03  0.30615906604E+03  0.17200000000E+03 0. -1.
         -6    1    1    2    0  501  0.89076345372E+02 -0.44224482261E+02 -0.13369138232E+03  0.23947397738E+03  0.17200000000E+03 0.  1.
</event>
<event>
 4    1  0.3094855E-002  0.1800083E+03  0.7818608E-02  0.1167795E+00
         -1   -1    0    0    0  501 -0.00000000000E+00  0.00000000000E+00  0.58549860548E+02  0.58549860548E+02  0.00000000000E+00 0.  1.
          1   -1    0    0  502    0  0.00000000000E+00 -0.00000000000E+00 -0.55353188008E+03  0.55353188008E+03  0.00000000000E+00 0. -1.
          6    1    1    2  502    0 -0.51667325618E+01  0.52841988507E+02 -0.24324325274E+03  0.30260576808E+03  0.17200000000E+03 0. -1.
         -6    1    1    2    0  501  0.51667325618E+01 -0.52841988507E+02 -0.25173876679E+03  0.30947597254E+03  0.17200000000E+03 0.  1.
</event>
<event>
 4    1  0.3094855E-002  0.2140722E+03  0.7818608E-02  0.1138381E+00
         -2   -1    0    0    0  501 -0.00000000000E+00  0.00000000000E+00  0.37146629425E+02  0.37146629425E+02  0.00000000000E+00 0.  1.
          2   -1    0    0  502    0  0.00000000000E+00 -0.00000000000E+00 -0.14696297503E+04  0.14696297503E+04  0.00000000000E+00 0. -1.
          6    1    1    2  502    0 -0.11996241324E+03 -0.43034251442E+02 -0.10181169670E+04  0.10403792991E+04  0.17200000000E+03 0.  1.
         -6    1    1    2    0  501  0.11996241324E+03  0.43034251442E+02 -0.41436615382E+03  0.46639708063E+03  0.17200000000E+03 0.  1.
</event>
<event>
 4    1  0.3094855E-002  0.2384511E+03  0.7818608E-02  0.1120829E+00
         -1   -1    0    0    0  501 -0.00000000000E+00  0.00000000000E+00  0.35768003637E+02  0.35768003637E+02  0.00000000000E+00 0.  1.
          1   -1    0    0  502    0  0.00000000000E+00 -0.00000000000E+00 -0.16451794118E+04  0.16451794118E+04  0.00000000000E+00 0. -1.
          6    1    1    2  502    0 -0.58184016128E+02  0.15456245907E+03 -0.95910429636E+03  0.98830156571E+03  0.17200000000E+03 0.  1.
         -6    1    1    2    0  501  0.58184016128E+02 -0.15456245907E+03 -0.65030711182E+03  0.69264584974E+03  0.17200000000E+03 0.  1.
</event>
<event>
 4    1  0.3094855E-002  0.1887107E+03  0.7818608E-02  0.1159629E+00
         -1   -1    0    0    0  501 -0.00000000000E+00  0.00000000000E+00  0.42911282510E+02  0.42911282510E+02  0.00000000000E+00 0.  1.
          1   -1    0    0  502    0  0.00000000000E+00 -0.00000000000E+00 -0.90981632698E+03  0.90981632698E+03  0.00000000000E+00 0. -1.
          6    1    1    2  502    0 -0.71096220071E+02  0.31194068148E+02 -0.57464143875E+03  0.60483429592E+03  0.17200000000E+03 0. -1.
         -6    1    1    2    0  501  0.71096220071E+02 -0.31194068148E+02 -0.29226360572E+03  0.34789331357E+03  0.17200000000E+03 0.  1.
</event>
<event>
 4    1  0.3094855E-002  0.1948883E+03  0.7818608E-02  0.1154125E+00
          1   -1    0    0  502    0  0.00000000000E+00  0.00000000000E+00  0.29522630008E+03  0.29522630008E+03  0.00000000000E+00 0. -1.
         -1   -1    0    0    0  501 -0.00000000000E+00 -0.00000000000E+00 -0.13844924940E+03  0.13844924940E+03  0.00000000000E+00 0.  1.
          6    1    1    2  502    0  0.64144384207E+02  0.65444376993E+02  0.13607056765E+03  0.23769027722E+03  0.17200000000E+03 0. -1.
         -6    1    1    2    0  501 -0.64144384207E+02 -0.65444376993E+02  0.20706483034E+02  0.19598527227E+03  0.17200000000E+03 0.  1.
</event>
<event>
 4    1  0.3094855E-002  0.2394398E+03  0.7818608E-02  0.1120167E+00
         -2   -1    0    0    0  501 -0.00000000000E+00  0.00000000000E+00  0.14276826368E+03  0.14276826368E+03  0.00000000000E+00 0.  1.
          2   -1    0    0  502    0  0.00000000000E+00 -0.00000000000E+00 -0.40179141837E+03  0.40179141837E+03  0.00000000000E+00 0. -1.
          6    1    1    2  502    0 -0.10664066179E+01 -0.16657213263E+03 -0.12311584795E+03  0.26923767309E+03  0.17200000000E+03 0.  1.
         -6    1    1    2    0  501  0.10664066179E+01  0.16657213263E+03 -0.13590730674E+03  0.27532200896E+03  0.17200000000E+03 0.  1.
</event>
<event>
 4    1  0.3094855E-002  0.2581019E+03  0.7818608E-02  0.1108289E+00
         -2   -1    0    0    0  501 -0.00000000000E+00  0.00000000000E+00  0.22349870444E+03  0.22349870444E+03  0.00000000000E+00 0.  1.
          2   -1    0    0  502    0  0.00000000000E+00 -0.00000000000E+00 -0.49431738922E+03  0.49431738922E+03  0.00000000000E+00 0. -1.
          6    1    1    2  502    0  0.38221717736E+02 -0.18860455130E+03 -0.36155618258E+03  0.44422905087E+03  0.17200000000E+03 0. -1.
         -6    1    1    2    0  501 -0.38221717736E+02  0.18860455130E+03  0.90737497794E+02  0.27358704279E+03  0.17200000000E+03 0.  1.
</event>
<event>
 4    1  0.3094855E-002  0.2098673E+03  0.7818608E-02  0.1141671E+00
          1   -1    0    0  502    0  0.00000000000E+00  0.00000000000E+00  0.17004470604E+03  0.17004470604E+03  0.00000000000E+00 0. -1.
         -1   -1    0    0    0  501 -0.00000000000E+00 -0.00000000000E+00 -0.33441635703E+03  0.33441635703E+03  0.00000000000E+00 0.  1.
          6    1    1    2  502    0  0.12010645098E+03  0.58928573793E+01  0.37582186742E+02  0.21320578345E+03  0.17200000000E+03 0. -1.
         -6    1    1    2    0  501 -0.12010645098E+03 -0.58928573793E+01 -0.20195383773E+03  0.29125527963E+03  0.17200000000E+03 0.  1.
</event>
<event>
 4    1  0.3094855E-002  0.2180682E+03  0.7818608E-02  0.1135332E+00
         -2   -1    0    0    0  501 -0.00000000000E+00  0.00000000000E+00  0.18751023313E+03  0.18751023313E+03  0.00000000000E+00 0.  1.
          2   -1    0    0  502    0  0.00000000000E+00 -0.00000000000E+00 -0.29175540170E+03  0.29175540170E+03  0.00000000000E+00 0. -1.
          6    1    1    2  502    0  0.12522814861E+03  0.47829509738E+02 -0.13877481853E+03  0.25848056303E+03  0.17200000000E+03 0. -1.
         -6    1    1    2    0  501 -0.12522814861E+03 -0.47829509738E+02  0.34529649962E+02  0.22078507181E+03  0.17200000000E+03 0.  1.
</event>
<event>
 4    1  0.3094855E-002  0.1740870E+03  0.7818608E-02  0.1173652E+00
          1   -1    0    0  502    0  0.00000000000E+00  0.00000000000E+00  0.23798157547E+03  0.23798157547E+03  0.00000000000E+00 0. -1.
         -1   -1    0    0    0  501 -0.00000000000E+00 -0.00000000000E+00 -0.20642070455E+03  0.20642070455E+03  0.00000000000E+00 0.  1.
          6    1    1    2  502    0  0.86777385898E+01  0.25435792584E+02  0.15330655892E+03  0.23196806612E+03  0.17200000000E+03 0. -1.
         -6    1    1    2    0  501 -0.86777385898E+01 -0.25435792584E+02 -0.12174568800E+03  0.21243421391E+03  0.17200000000E+03 0.  1.
</event>
<event>
 4    1  0.3094855E-002  0.2024018E+03  0.7818608E-02  0.1147728E+00
          2   -1    0    0  502    0  0.00000000000E+00  0.00000000000E+00  0.38199198023E+03  0.38199198023E+03  0.00000000000E+00 0. -1.
         -2   -1    0    0    0  501 -0.00000000000E+00 -0.00000000000E+00 -0.11886236427E+03  0.11886236427E+03  0.00000000000E+00 0.  1.
          6    1    1    2  502    0 -0.90763963516E+02  0.56074772654E+02  0.20985825904E+03  0.29155954124E+03  0.17200000000E+03 0. -1.
         -6    1    1    2    0  501  0.90763963516E+02 -0.56074772654E+02  0.53271356916E+02  0.20929480325E+03  0.17200000000E+03 0.  1.
</event>
<event>
 4    1  0.3094855E-002  0.1918182E+03  0.7818608E-02  0.1156832E+00
         -1   -1    0    0    0  501 -0.00000000000E+00  0.00000000000E+00  0.53750309806E+02  0.53750309806E+02  0.00000000000E+00 0.  1.
          1   -1    0    0  502    0  0.00000000000E+00 -0.00000000000E+00 -0.97569789259E+03  0.97569789259E+03  0.00000000000E+00 0. -1.
          6    1    1    2  502    0 -0.58988204371E+02 -0.61078658061E+02 -0.74215187698E+03  0.76654003107E+03  0.17200000000E+03 0. -1.
         -6    1    1    2    0  501  0.58988204371E+02  0.61078658061E+02 -0.17979570580E+03  0.26290817133E+03  0.17200000000E+03 0.  1.
</event>
<event>
 4    1  0.3094855E-002  0.1884101E+03  0.7818608E-02  0.1159903E+00
         -2   -1    0    0    0  501 -0.00000000000E+00  0.00000000000E+00  0.15868972821E+03  0.15868972821E+03  0.00000000000E+00 0.  1.
          2   -1    0    0  502    0  0.00000000000E+00 -0.00000000000E+00 -0.22669534173E+03  0.22669534173E+03  0.00000000000E+00 0. -1.
          6    1    1    2  502    0 -0.16453191945E+02 -0.75124378867E+02 -0.56164387048E+02  0.19660319987E+03  0.17200000000E+03 0. -1.
         -6    1    1    2    0  501  0.16453191945E+02  0.75124378867E+02 -0.11841226466E+02  0.18878187008E+03  0.17200000000E+03 0.  1.
</event>
<event>
 4    1  0.3094855E-002  0.8291237E+03  0.7818608E-02  0.9518793E-01
         -2   -1    0    0    0  501 -0.00000000000E+00  0.00000000000E+00  0.12843691326E+04  0.12843691326E+04  0.00000000000E+00 0.  1.
          2   -1    0    0  502    0  0.00000000000E+00 -0.00000000000E+00 -0.11452214740E+04  0.11452214740E+04  0.00000000000E+00 0. -1.
          6    1    1    2  502    0  0.19339609415E+03 -0.78769291960E+03 -0.81700337489E+03  0.11640192006E+04  0.17200000000E+03 0. -1.
         -6    1    1    2    0  501 -0.19339609415E+03  0.78769291960E+03  0.95615103344E+03  0.12655714060E+04  0.17200000000E+03 0.  1.
</event>
<event>
 4    1  0.3094855E-002  0.3397663E+03  0.7818608E-02  0.1066895E+00
          2   -1    0    0  502    0  0.00000000000E+00  0.00000000000E+00  0.80274079736E+03  0.80274079736E+03  0.00000000000E+00 0. -1.
         -2   -1    0    0    0  501 -0.00000000000E+00 -0.00000000000E+00 -0.14382769057E+03  0.14382769057E+03  0.00000000000E+00 0.  1.
          6    1    1    2  502    0  0.17047604335E+03 -0.23831717265E+03  0.33488679123E+03  0.47706427143E+03  0.17200000000E+03 0. -1.
         -6    1    1    2    0  501 -0.17047604335E+03  0.23831717265E+03  0.32402631556E+03  0.46950421650E+03  0.17200000000E+03 0.  1.
</event>
<event>
 4    1  0.3094855E-002  0.2695569E+03  0.7818608E-02  0.1101533E+00
         -4   -1    0    0    0  501 -0.00000000000E+00  0.00000000000E+00  0.75519213583E+03  0.75519213583E+03  0.00000000000E+00 0.  1.
          4   -1    0    0  502    0  0.00000000000E+00 -0.00000000000E+00 -0.75112422640E+03  0.75112422640E+03  0.00000000000E+00 0. -1.
          6    1    1    2  502    0 -0.20116039343E+03 -0.51101848359E+02 -0.70123399782E+03  0.75125895835E+03  0.17200000000E+03 0. -1.
         -6    1    1    2    0  501  0.20116039343E+03  0.51101848359E+02  0.70530190725E+03  0.75505740388E+03  0.17200000000E+03 0.  1.
</event>
<event>
 4    1  0.3094855E-002  0.2673164E+03  0.7818608E-02  0.1102825E+00
         -2   -1    0    0    0  501 -0.00000000000E+00  0.00000000000E+00  0.32415310846E+02  0.32415310846E+02  0.00000000000E+00 0.  1.
          2   -1    0    0  502    0  0.00000000000E+00 -0.00000000000E+00 -0.24603683532E+04  0.24603683532E+04  0.00000000000E+00 0. -1.
          6    1    1    2  502    0  0.19734640361E+03 -0.54115024918E+02 -0.16159546692E+04  0.16379156058E+04  0.17200000000E+03 0. -1.
         -6    1    1    2    0  501 -0.19734640361E+03  0.54115024918E+02 -0.81199837319E+03  0.85486805824E+03  0.17200000000E+03 0.  1.
</event>
<event>
 4    1  0.3094855E-002  0.1900370E+03  0.7818608E-02  0.1158428E+00
         -2   -1    0    0    0  501 -0.00000000000E+00  0.00000000000E+00  0.20808021856E+02  0.20808021856E+02  0.00000000000E+00 0.  1.
          2   -1    0    0  502    0  0.00000000000E+00 -0.00000000000E+00 -0.17432920324E+04  0.17432920324E+04  0.00000000000E+00 0. -1.
          6    1    1    2  502    0 -0.80801477658E+02 -0.10875869311E+01 -0.91989510481E+03  0.93931946934E+03  0.17200000000E+03 0. -1.
         -6    1    1    2    0  501  0.80801477658E+02  0.10875869311E+01 -0.80258890569E+03  0.82478058486E+03  0.17200000000E+03 0.  1.
</event>
<event>
 4    1  0.3094855E-002  0.1724259E+03  0.7818608E-02  0.1175341E+00
         -1   -1    0    0    0  501 -0.00000000000E+00  0.00000000000E+00  0.17845849062E+02  0.17845849062E+02  0.00000000000E+00 0.  1.
          1   -1    0    0  502    0  0.00000000000E+00 -0.00000000000E+00 -0.18847507665E+04  0.18847507665E+04  0.00000000000E+00 0. -1.
          6    1    1    2  502    0  0.80468585973E+01  0.90510772984E+01 -0.12575628476E+04  0.12693285586E+04  0.17200000000E+03 0. -1.
         -6    1    1    2    0  501 -0.80468585973E+01 -0.90510772984E+01 -0.60934206982E+03  0.63326805697E+03  0.17200000000E+03 0.  1.
</event>
<event>
 4    1  0.3094855E-002  0.1780303E+03  0.7818608E-02  0.1169723E+00
         -2   -1    0    0    0  501 -0.00000000000E+00  0.00000000000E+00  0.37784997947E+03  0.37784997947E+03  0.00000000000E+00 0.  1.
          2   -1    0    0  502    0  0.00000000000E+00 -0.00000000000E+00 -0.85644642364E+02  0.85644642364E+02  0.00000000000E+00 0. -1.
          6    1    1    2  502    0 -0.17118459686E+02  0.42635078773E+02  0.17934973627E+03  0.25270757706E+03  0.17200000000E+03 0.  1.
         -6    1    1    2    0  501  0.17118459686E+02 -0.42635078773E+02  0.11285560083E+03  0.21078704477E+03  0.17200000000E+03 0.  1.
</event>
<event>
 4    1  0.3094855E-002  0.2345006E+03  0.7818608E-02  0.1123512E+00
          3   -1    0    0  502    0  0.00000000000E+00  0.00000000000E+00  0.19049110162E+03  0.19049110162E+03  0.00000000000E+00 0. -1.
         -3   -1    0    0    0  501 -0.00000000000E+00 -0.00000000000E+00 -0.57977141132E+03  0.57977141132E+03  0.00000000000E+00 0.  1.
          6    1    1    2  502    0  0.15179712921E+03 -0.48622716334E+02  0.78255590465E+02  0.24721341877E+03  0.17200000000E+03 0. -1.
         -6    1    1    2    0  501 -0.15179712921E+03  0.48622716334E+02 -0.46753590016E+03  0.52304909418E+03  0.17200000000E+03 0.  1.
</event>
<event>
 4    1  0.3094855E-002  0.6150851E+03  0.7818608E-02  0.9874594E-01
          1   -1    0    0  502    0  0.00000000000E+00  0.00000000000E+00  0.54164963133E+03  0.54164963133E+03  0.00000000000E+00 0. -1.
         -1   -1    0    0    0  501 -0.00000000000E+00 -0.00000000000E+00 -0.74476005314E+03  0.74476005314E+03  0.00000000000E+00 0.  1.
          6    1    1    2  502    0  0.22949347588E+03  0.54413084464E+03  0.58789138523E+02  0.61788817303E+03  0.17200000000E+03 0. -1.
         -6    1    1    2    0  501 -0.22949347588E+03 -0.54413084464E+03 -0.26189956034E+03  0.66852151144E+03  0.17200000000E+03 0.  1.
</event>
<event>
 4    1  0.3094855E-002  0.2116566E+03  0.7818608E-02  0.1140261E+00
         -2   -1    0    0    0  501 -0.00000000000E+00  0.00000000000E+00  0.52529716494E+02  0.52529716494E+02  0.00000000000E+00 0.  1.
          2   -1    0    0  502    0  0.00000000000E+00 -0.00000000000E+00 -0.86374285230E+03  0.86374285230E+03  0.00000000000E+00 0. -1.
          6    1    1    2  502    0  0.93712932014E+02 -0.80202229555E+02 -0.45712061384E+03  0.50374375118E+03  0.17200000000E+03 0. -1.
         -6    1    1    2    0  501 -0.93712932014E+02  0.80202229555E+02 -0.35409252196E+03  0.41252881761E+03  0.17200000000E+03 0.  1.
</event>
<event>
 4    1  0.3094855E-002  0.2024572E+03  0.7818608E-02  0.1147682E+00
         -4   -1    0    0    0  501 -0.00000000000E+00  0.00000000000E+00  0.46232076719E+03  0.46232076719E+03  0.00000000000E+00 0.  1.
          4   -1    0    0  502    0  0.00000000000E+00 -0.00000000000E+00 -0.88716002477E+02  0.88716002477E+02  0.00000000000E+00 0. -1.
          6    1    1    2  502    0  0.97274608669E+02  0.44074715014E+02  0.19378187060E+03  0.28025050110E+03  0.17200000000E+03 0. -1.
         -6    1    1    2    0  501 -0.97274608669E+02 -0.44074715014E+02  0.17982289411E+03  0.27078626856E+03  0.17200000000E+03 0.  1.
</event>
<event>
 4    1  0.3094855E-002  0.2622688E+03  0.7818608E-02  0.1105788E+00
         -2   -1    0    0    0  501 -0.00000000000E+00  0.00000000000E+00  0.21607776235E+03  0.21607776235E+03  0.00000000000E+00 0.  1.
          2   -1    0    0  502    0  0.00000000000E+00 -0.00000000000E+00 -0.49279000718E+03  0.49279000718E+03  0.00000000000E+00 0. -1.
          6    1    1    2  502    0 -0.18058113666E+03 -0.81187188809E+02 -0.34924185848E+03  0.43675483084E+03  0.17200000000E+03 0. -1.
         -6    1    1    2    0  501  0.18058113666E+03  0.81187188809E+02  0.72529613655E+02  0.27211293869E+03  0.17200000000E+03 0.  1.
</event>
<event>
 4    1  0.3094855E-002  0.2381596E+03  0.7818608E-02  0.1121025E+00
         -4   -1    0    0    0  501 -0.00000000000E+00  0.00000000000E+00  0.22383013252E+03  0.22383013252E+03  0.00000000000E+00 0.  1.
          4   -1    0    0  502    0  0.00000000000E+00 -0.00000000000E+00 -0.26021240119E+03  0.26021240119E+03  0.00000000000E+00 0. -1.
          6    1    1    2  502    0 -0.87929868112E+02 -0.13929938522E+03  0.20950291116E+02  0.23907926536E+03  0.17200000000E+03 0. -1.
         -6    1    1    2    0  501  0.87929868112E+02  0.13929938522E+03 -0.57332559785E+02  0.24496326835E+03  0.17200000000E+03 0.  1.
</event>
<event>
 4    1  0.3094855E-002  0.2742899E+03  0.7818608E-02  0.1098849E+00
          1   -1    0    0  502    0  0.00000000000E+00  0.00000000000E+00  0.11658759498E+03  0.11658759498E+03  0.00000000000E+00 0. -1.
         -1   -1    0    0    0  501 -0.00000000000E+00 -0.00000000000E+00 -0.64618109059E+03  0.64618109059E+03  0.00000000000E+00 0.  1.
          6    1    1    2  502    0  0.18547899695E+02 -0.21285420187E+03 -0.25077973562E+03  0.37165227248E+03  0.17200000000E+03 0. -1.
         -6    1    1    2    0  501 -0.18547899695E+02  0.21285420187E+03 -0.27881375998E+03  0.39111641309E+03  0.17200000000E+03 0.  1.
</event>
<event>
 4    1  0.3094855E-002  0.1913434E+03  0.7818608E-02  0.1157255E+00
         -2   -1    0    0    0  501 -0.00000000000E+00  0.00000000000E+00  0.85142505153E+02  0.85142505153E+02  0.00000000000E+00 0.  1.
          2   -1    0    0  502    0  0.00000000000E+00 -0.00000000000E+00 -0.54978004245E+03  0.54978004245E+03  0.00000000000E+00 0. -1.
          6    1    1    2  502    0 -0.75124816148E+01  0.83497719591E+02 -0.38049091858E+03  0.42589393713E+03  0.17200000000E+03 0. -1.
         -6    1    1    2    0  501  0.75124816148E+01 -0.83497719591E+02 -0.84146618713E+02  0.20902861048E+03  0.17200000000E+03 0.  1.
</event>
<event>
 4    1  0.3094855E-002  0.2041557E+03  0.7818608E-02  0.1146279E+00
          2   -1    0    0  502    0  0.00000000000E+00  0.00000000000E+00  0.18126270554E+04  0.18126270554E+04  0.00000000000E+00 0. -1.
         -2   -1    0    0    0  501 -0.00000000000E+00 -0.00000000000E+00 -0.45046611202E+02  0.45046611202E+02  0.00000000000E+00 0.  1.
          6    1    1    2  502    0 -0.78604920007E+02  0.76920747500E+02  0.15336781060E+04  0.15472065368E+04  0.17200000000E+03 0. -1.
         -6    1    1    2    0  501  0.78604920007E+02 -0.76920747500E+02  0.23390233822E+03  0.31046712977E+03  0.17200000000E+03 0.  1.
</event>
<event>
 4    1  0.3094855E-002  0.2757401E+03  0.7818608E-02  0.1098039E+00
         -2   -1    0    0    0  501 -0.00000000000E+00  0.00000000000E+00  0.64699090452E+02  0.64699090452E+02  0.00000000000E+00 0.  1.
          2   -1    0    0  502    0  0.00000000000E+00 -0.00000000000E+00 -0.12543658488E+04  0.12543658488E+04  0.00000000000E+00 0. -1.
          6    1    1    2  502    0 -0.49342245461E+02 -0.20979504528E+03 -0.76055047305E+03  0.80899297912E+03  0.17200000000E+03 0.  1.
         -6    1    1    2    0  501  0.49342245461E+02  0.20979504528E+03 -0.42911628533E+03  0.51007196016E+03  0.17200000000E+03 0. -1.
</event>
<event>
 4    1  0.3094855E-002  0.2416280E+03  0.7818608E-02  0.1118713E+00
         -1   -1    0    0    0  501 -0.00000000000E+00  0.00000000000E+00  0.11243537986E+03  0.11243537986E+03  0.00000000000E+00 0.  1.
          1   -1    0    0  502    0  0.00000000000E+00 -0.00000000000E+00 -0.98102253395E+03  0.98102253395E+03  0.00000000000E+00 0. -1.
          6    1    1    2  502    0  0.14677408239E+03  0.85190627395E+02 -0.80938596875E+03  0.84468320728E+03  0.17200000000E+03 0. -1.
         -6    1    1    2    0  501 -0.14677408239E+03 -0.85190627395E+02 -0.59201185338E+02  0.24877470652E+03  0.17200000000E+03 0.  1.
</event>
<event>
 4    1  0.3094855E-002  0.3116110E+03  0.7818608E-02  0.1079576E+00
         -2   -1    0    0    0  501 -0.00000000000E+00  0.00000000000E+00  0.12316613992E+03  0.12316613992E+03  0.00000000000E+00 0.  1.
          2   -1    0    0  502    0  0.00000000000E+00 -0.00000000000E+00 -0.78938679204E+03  0.78938679204E+03  0.00000000000E+00 0. -1.
          6    1    1    2  502    0 -0.23714170241E+03  0.10621309776E+03 -0.31679487443E+03  0.44436516698E+03  0.17200000000E+03 0. -1.
         -6    1    1    2    0  501  0.23714170241E+03 -0.10621309776E+03 -0.34942577769E+03  0.46818776498E+03  0.17200000000E+03 0.  1.
</event>
<event>
 4    1  0.3094855E-002  0.2522804E+03  0.7818608E-02  0.1111872E+00
         -2   -1    0    0    0  501 -0.00000000000E+00  0.00000000000E+00  0.22215243662E+03  0.22215243662E+03  0.00000000000E+00 0.  1.
          2   -1    0    0  502    0  0.00000000000E+00 -0.00000000000E+00 -0.48694625588E+03  0.48694625588E+03  0.00000000000E+00 0. -1.
          6    1    1    2  502    0  0.14772337996E+03 -0.11063094495E+03 -0.35987592583E+03  0.43949526159E+03  0.17200000000E+03 0. -1.
         -6    1    1    2    0  501 -0.14772337996E+03  0.11063094495E+03  0.95082106563E+02  0.26960343091E+03  0.17200000000E+03 0. -1.
</event>
<event>
 4    1  0.3094855E-002  0.2822719E+03  0.7818608E-02  0.1094455E+00
          2   -1    0    0  502    0  0.00000000000E+00  0.00000000000E+00  0.37162004435E+03  0.37162004435E+03  0.00000000000E+00 0. -1.
         -2   -1    0    0    0  501 -0.00000000000E+00 -0.00000000000E+00 -0.22281671560E+03  0.22281671560E+03  0.00000000000E+00 0.  1.
          6    1    1    2  502    0  0.34875258185E+02 -0.22108176606E+03  0.13214843771E+03  0.31167393299E+03  0.17200000000E+03 0. -1.
         -6    1    1    2    0  501 -0.34875258185E+02  0.22108176606E+03  0.16654891032E+02  0.28276282696E+03  0.17200000000E+03 0.  1.
</event>
<event>
 4    1  0.3094855E-002  0.2441905E+03  0.7818608E-02  0.1117032E+00
         -1   -1    0    0    0  501 -0.00000000000E+00  0.00000000000E+00  0.57038253301E+03  0.57038253301E+03  0.00000000000E+00 0.  1.
          1   -1    0    0  502    0  0.00000000000E+00 -0.00000000000E+00 -0.12754316611E+03  0.12754316611E+03  0.00000000000E+00 0. -1.
          6    1    1    2  502    0 -0.17332494897E+03  0.18557929723E+01  0.73227710977E+02  0.25493387291E+03  0.17200000000E+03 0. -1.
         -6    1    1    2    0  501  0.17332494897E+03 -0.18557929723E+01  0.36961165592E+03  0.44299182621E+03  0.17200000000E+03 0.  1.
</event>
<event>
 4    1  0.3094855E-002  0.3946919E+03  0.7818608E-02  0.1045633E+00
          2   -1    0    0  502    0  0.00000000000E+00  0.00000000000E+00  0.92950985518E+03  0.92950985518E+03  0.00000000000E+00 0. -1.
         -2   -1    0    0    0  501 -0.00000000000E+00 -0.00000000000E+00 -0.19329477127E+03  0.19329477127E+03  0.00000000000E+00 0.  1.
          6    1    1    2  502    0  0.34230291645E+03  0.95007539546E+02  0.57281048763E+03  0.69562459266E+03  0.17200000000E+03 0. -1.
         -6    1    1    2    0  501 -0.34230291645E+03 -0.95007539546E+02  0.16340459628E+03  0.42718003379E+03  0.17200000000E+03 0.  1.
</event>
<event>
 4    1  0.3094855E-002  0.7925777E+03  0.7818608E-02  0.9570823E-01
         -2   -1    0    0    0  501 -0.00000000000E+00  0.00000000000E+00  0.52655005410E+03  0.52655005410E+03  0.00000000000E+00 0.  1.
          2   -1    0    0  502    0  0.00000000000E+00 -0.00000000000E+00 -0.14881289290E+04  0.14881289290E+04  0.00000000000E+00 0. -1.
          6    1    1    2  502    0 -0.43553416723E+03  0.63945710270E+03 -0.92938423186E+03  0.12214476851E+04  0.17200000000E+03 0. -1.
         -6    1    1    2    0  501  0.43553416723E+03 -0.63945710270E+03 -0.32194642991E+02  0.79323129795E+03  0.17200000000E+03 0.  1.
</event>
<event>
 4    1  0.3094855E-002  0.3194400E+03  0.7818608E-02  0.1075907E+00
          1   -1    0    0  502    0  0.00000000000E+00  0.00000000000E+00  0.20261792942E+04  0.20261792942E+04  0.00000000000E+00 0. -1.
         -1   -1    0    0    0  501 -0.00000000000E+00 -0.00000000000E+00 -0.77994005846E+02  0.77994005846E+02  0.00000000000E+00 0.  1.
          6    1    1    2  502    0  0.42370306588E+02 -0.26582454099E+03  0.16003157516E+04  0.16318861585E+04  0.17200000000E+03 0. -1.
         -6    1    1    2    0  501 -0.42370306588E+02  0.26582454099E+03  0.34786953676E+03  0.47228714155E+03  0.17200000000E+03 0.  1.
</event>
<event>
 4    1  0.3094855E-002  0.3027324E+03  0.7818608E-02  0.1083883E+00
          2   -1    0    0  502    0  0.00000000000E+00  0.00000000000E+00  0.18889792707E+04  0.18889792707E+04  0.00000000000E+00 0. -1.
         -2   -1    0    0    0  501 -0.00000000000E+00 -0.00000000000E+00 -0.51092189727E+02  0.51092189727E+02  0.00000000000E+00 0.  1.
          6    1    1    2  502    0  0.24850440294E+03  0.17563441492E+02  0.11367376299E+04  0.11763585134E+04  0.17200000000E+03 0. -1.
         -6    1    1    2    0  501 -0.24850440294E+03 -0.17563441492E+02  0.70114945110E+03  0.76371294708E+03  0.17200000000E+03 0.  1.
</event>
<event>
 4    1  0.3094855E-002  0.1927111E+03  0.7818608E-02  0.1156039E+00
         -2   -1    0    0    0  501 -0.00000000000E+00  0.00000000000E+00  0.14752053544E+02  0.14752053544E+02  0.00000000000E+00 0.  1.
          2   -1    0    0  502    0  0.00000000000E+00 -0.00000000000E+00 -0.25186071972E+04  0.25186071972E+04  0.00000000000E+00 0. -1.
          6    1    1    2  502    0  0.76895067111E+02  0.40505755004E+02 -0.12790706236E+04  0.12935065627E+04  0.17200000000E+03 0. -1.
         -6    1    1    2    0  501 -0.76895067111E+02 -0.40505755004E+02 -0.12247845200E+04  0.12398526880E+04  0.17200000000E+03 0.  1.
</event>
<event>
 4    1  0.3094855E-002  0.1753052E+03  0.7818608E-02  0.1172426E+00
          1   -1    0    0  502    0  0.00000000000E+00  0.00000000000E+00  0.13676995250E+02  0.13676995250E+02  0.00000000000E+00 0. -1.
         -1   -1    0    0    0  501 -0.00000000000E+00 -0.00000000000E+00 -0.22500242516E+04  0.22500242516E+04  0.00000000000E+00 0.  1.
          6    1    1    2  502    0 -0.24695858031E+02  0.23195569674E+02 -0.10765333478E+04  0.10907135136E+04  0.17200000000E+03 0. -1.
         -6    1    1    2    0  501  0.24695858031E+02 -0.23195569674E+02 -0.11598139086E+04  0.11729877333E+04  0.17200000000E+03 0.  1.
</event>
<event>
 4    1  0.3094855E-002  0.1887329E+03  0.7818608E-02  0.1159609E+00
          2   -1    0    0  502    0  0.00000000000E+00  0.00000000000E+00  0.32151220350E+03  0.32151220350E+03  0.00000000000E+00 0. -1.
         -2   -1    0    0    0  501 -0.00000000000E+00 -0.00000000000E+00 -0.12507414163E+03  0.12507414163E+03  0.00000000000E+00 0.  1.
          6    1    1    2  502    0  0.66323602533E+02  0.40463479115E+02  0.17368120729E+03  0.25648640346E+03  0.17200000000E+03 0. -1.
         -6    1    1    2    0  501 -0.66323602533E+02 -0.40463479115E+02  0.22756854585E+02  0.19009994168E+03  0.17200000000E+03 0.  1.
</event>
<event>
 4    1  0.3094855E-002  0.2077137E+03  0.7818608E-02  0.1143389E+00
         -2   -1    0    0    0  501 -0.00000000000E+00  0.00000000000E+00  0.19142035997E+02  0.19142035997E+02  0.00000000000E+00 0.  1.
          2   -1    0    0  502    0  0.00000000000E+00 -0.00000000000E+00 -0.29598780746E+04  0.29598780746E+04  0.00000000000E+00 0. -1.
          6    1    1    2  502    0  0.78109316345E+02  0.86370795040E+02 -0.21977962815E+04  0.22075899697E+04  0.17200000000E+03 0. -1.
         -6    1    1    2    0  501 -0.78109316345E+02 -0.86370795040E+02 -0.74293975712E+03  0.77143014087E+03  0.17200000000E+03 0.  1.
</event>
<event>
 4    1  0.3094855E-002  0.1741559E+03  0.7818608E-02  0.1173582E+00
         -1   -1    0    0    0  501 -0.00000000000E+00  0.00000000000E+00  0.11495708718E+03  0.11495708718E+03  0.00000000000E+00 0.  1.
          1   -1    0    0  502    0  0.00000000000E+00 -0.00000000000E+00 -0.27823142008E+03  0.27823142008E+03  0.00000000000E+00 0. -1.
          6    1    1    2  502    0 -0.36343747481E+01 -0.27075492083E+02 -0.36925810278E+02  0.17802754398E+03  0.17200000000E+03 0.  1.
         -6    1    1    2    0  501  0.36343747481E+01  0.27075492083E+02 -0.12634852262E+03  0.21516096328E+03  0.17200000000E+03 0. -1.
</event>
<event>
 4    1  0.3094855E-002  0.3950571E+03  0.7818608E-02  0.1045505E+00
          2   -1    0    0  502    0  0.00000000000E+00  0.00000000000E+00  0.33962230301E+04  0.33962230301E+04  0.00000000000E+00 0. -1.
         -2   -1    0    0    0  501 -0.00000000000E+00 -0.00000000000E+00 -0.79946665097E+02  0.79946665097E+02  0.00000000000E+00 0.  1.
          6    1    1    2  502    0 -0.35626875621E+02  0.35385990214E+03  0.27914861514E+04  0.28193022254E+04  0.17200000000E+03 0. -1.
         -6    1    1    2    0  501  0.35626875621E+02 -0.35385990214E+03  0.52479021362E+03  0.65686746982E+03  0.17200000000E+03 0.  1.
</event>
<event>
 4    1  0.3094855E-002  0.2557769E+03  0.7818608E-02  0.1109707E+00
          1   -1    0    0  502    0  0.00000000000E+00  0.00000000000E+00  0.28552646925E+04  0.28552646925E+04  0.00000000000E+00 0. -1.
         -1   -1    0    0    0  501 -0.00000000000E+00 -0.00000000000E+00 -0.28074787024E+02  0.28074787024E+02  0.00000000000E+00 0.  1.
          6    1    1    2  502    0 -0.12282280320E+03  0.14405679123E+03  0.20317829248E+04  0.20478192434E+04  0.17200000000E+03 0. -1.
         -6    1    1    2    0  501  0.12282280320E+03 -0.14405679123E+03  0.79540698067E+03  0.83552023613E+03  0.17200000000E+03 0.  1.
</event>
<event>
 4    1  0.3094855E-002  0.1796559E+03  0.7818608E-02  0.1168137E+00
          1   -1    0    0  502    0  0.00000000000E+00  0.00000000000E+00  0.24398113262E+03  0.24398113262E+03  0.00000000000E+00 0. -1.
         -1   -1    0    0    0  501 -0.00000000000E+00 -0.00000000000E+00 -0.13236239983E+03  0.13236239983E+03  0.00000000000E+00 0.  1.
          6    1    1    2  502    0  0.51886216359E+02 -0.23457592839E+00  0.60213941253E+02  0.18947810743E+03  0.17200000000E+03 0.  1.
         -6    1    1    2    0  501 -0.51886216359E+02  0.23457592839E+00  0.51404791536E+02  0.18686542502E+03  0.17200000000E+03 0.  1.
</event>
<event>
 4    1  0.3094855E-002  0.1735049E+03  0.7818608E-02  0.1174241E+00
         -4   -1    0    0    0  501 -0.00000000000E+00  0.00000000000E+00  0.98385560868E+03  0.98385560868E+03  0.00000000000E+00 0.  1.
          4   -1    0    0  502    0  0.00000000000E+00 -0.00000000000E+00 -0.61190138194E+02  0.61190138194E+02  0.00000000000E+00 0. -1.
          6    1    1    2  502    0 -0.19293049008E+02 -0.12153922687E+02  0.91870509715E+02  0.19632659049E+03  0.17200000000E+03 0. -1.
         -6    1    1    2    0  501  0.19293049008E+02  0.12153922687E+02  0.83079496077E+03  0.84871915639E+03  0.17200000000E+03 0.  1.
</event>
<event>
 4    1  0.3094855E-002  0.2083300E+03  0.7818608E-02  0.1142895E+00
          3   -1    0    0  502    0  0.00000000000E+00  0.00000000000E+00  0.22439787045E+03  0.22439787045E+03  0.00000000000E+00 0. -1.
         -3   -1    0    0    0  501 -0.00000000000E+00 -0.00000000000E+00 -0.23194233117E+03  0.23194233117E+03  0.00000000000E+00 0.  1.
          6    1    1    2  502    0  0.37389281139E+02 -0.11144242616E+03 -0.96768769546E+02  0.22970756942E+03  0.17200000000E+03 0.  1.
         -6    1    1    2    0  501 -0.37389281139E+02  0.11144242616E+03  0.89224308819E+02  0.22663263220E+03  0.17200000000E+03 0. -1.
</event>
<event>
 4    1  0.3094855E-002  0.1973735E+03  0.7818608E-02  0.1151974E+00
          1   -1    0    0  502    0  0.00000000000E+00  0.00000000000E+00  0.80046614922E+03  0.80046614922E+03  0.00000000000E+00 0. -1.
         -1   -1    0    0    0  501 -0.00000000000E+00 -0.00000000000E+00 -0.49265072622E+02  0.49265072622E+02  0.00000000000E+00 0.  1.
          6    1    1    2  502    0  0.32124780111E+02  0.91325222569E+02  0.32878891786E+03  0.38348200777E+03  0.17200000000E+03 0. -1.
         -6    1    1    2    0  501 -0.32124780111E+02 -0.91325222569E+02  0.42241215874E+03  0.46624921407E+03  0.17200000000E+03 0. -1.
</event>
<event>
 4    1  0.3094855E-002  0.2061587E+03  0.7818608E-02  0.1144645E+00
         -2   -1    0    0    0  501 -0.00000000000E+00  0.00000000000E+00  0.23860841085E+02  0.23860841085E+02  0.00000000000E+00 0.  1.
          2   -1    0    0  502    0  0.00000000000E+00 -0.00000000000E+00 -0.17812519316E+04  0.17812519316E+04  0.00000000000E+00 0. -1.
          6    1    1    2  502    0  0.20447365731E+02 -0.11180024704E+03 -0.87483087419E+03  0.89879388540E+03  0.17200000000E+03 0. -1.
         -6    1    1    2    0  501 -0.20447365731E+02  0.11180024704E+03 -0.88256021632E+03  0.90631888727E+03  0.17200000000E+03 0. -1.
</event>
<event>
 4    1  0.3094855E-002  0.2738264E+03  0.7818608E-02  0.1099109E+00
         -4   -1    0    0    0  501 -0.00000000000E+00  0.00000000000E+00  0.34763043899E+03  0.34763043899E+03  0.00000000000E+00 0.  1.
          4   -1    0    0  502    0  0.00000000000E+00 -0.00000000000E+00 -0.23559295744E+03  0.23559295744E+03  0.00000000000E+00 0. -1.
          6    1    1    2  502    0  0.15535678631E+03 -0.14581205388E+03 -0.28736709376E+02  0.27533013743E+03  0.17200000000E+03 0. -1.
         -6    1    1    2    0  501 -0.15535678631E+03  0.14581205388E+03  0.14077419092E+03  0.30789325900E+03  0.17200000000E+03 0.  1.
</event>
<event>
 4    1  0.3094855E-002  0.2476411E+03  0.7818608E-02  0.1114805E+00
         -2   -1    0    0    0  501 -0.00000000000E+00  0.00000000000E+00  0.69119479598E+02  0.69119479598E+02  0.00000000000E+00 0.  1.
          2   -1    0    0  502    0  0.00000000000E+00 -0.00000000000E+00 -0.11108072813E+04  0.11108072813E+04  0.00000000000E+00 0. -1.
          6    1    1    2  502    0 -0.13244753233E+03  0.11916280723E+03 -0.78551224540E+03  0.82362346441E+03  0.17200000000E+03 0. -1.
         -6    1    1    2    0  501  0.13244753233E+03 -0.11916280723E+03 -0.25617555631E+03  0.35630329650E+03  0.17200000000E+03 0.  1.
</event>
<event>
 4    1  0.3094855E-002  0.4704824E+03  0.7818608E-02  0.1021784E+00
          1   -1    0    0  502    0  0.00000000000E+00  0.00000000000E+00  0.19737701560E+04  0.19737701560E+04  0.00000000000E+00 0. -1.
         -1   -1    0    0    0  501 -0.00000000000E+00 -0.00000000000E+00 -0.54320985111E+03  0.54320985111E+03  0.00000000000E+00 0.  1.
          6    1    1    2  502    0 -0.24116850195E+03 -0.36552350731E+03  0.18363583940E+04  0.18956702857E+04  0.17200000000E+03 0. -1.
         -6    1    1    2    0  501  0.24116850195E+03  0.36552350731E+03 -0.40579808917E+03  0.62130972140E+03  0.17200000000E+03 0.  1.
</event>
<event>
 4    1  0.3094855E-002  0.3025645E+03  0.7818608E-02  0.1083966E+00
          1   -1    0    0  502    0  0.00000000000E+00  0.00000000000E+00  0.16177498074E+04  0.16177498074E+04  0.00000000000E+00 0. -1.
         -1   -1    0    0    0  501 -0.00000000000E+00 -0.00000000000E+00 -0.87104209245E+02  0.87104209245E+02  0.00000000000E+00 0.  1.
          6    1    1    2  502    0 -0.17872063335E+03  0.17326334166E+03  0.12698711785E+04  0.13054187299E+04  0.17200000000E+03 0. -1.
         -6    1    1    2    0  501  0.17872063335E+03 -0.17326334166E+03  0.26077441961E+03  0.39943528672E+03  0.17200000000E+03 0.  1.
</event>
<event>
 4    1  0.3094855E-002  0.1855499E+03  0.7818608E-02  0.1162537E+00
         -1   -1    0    0    0  501 -0.00000000000E+00  0.00000000000E+00  0.16068874701E+02  0.16068874701E+02  0.00000000000E+00 0.  1.
          1   -1    0    0  502    0  0.00000000000E+00 -0.00000000000E+00 -0.31570738987E+04  0.31570738987E+04  0.00000000000E+00 0. -1.
          6    1    1    2  502    0 -0.22773860426E+02 -0.65773307159E+02 -0.67112311472E+03  0.69630094913E+03  0.17200000000E+03 0.  1.
         -6    1    1    2    0  501  0.22773860426E+02  0.65773307159E+02 -0.24698819093E+04  0.24768418243E+04  0.17200000000E+03 0. -1.
</event>
<event>
 4    1  0.3094855E-002  0.9007168E+03  0.7818608E-02  0.9424686E-01
          1   -1    0    0  502    0  0.00000000000E+00  0.00000000000E+00  0.14599096364E+04  0.14599096364E+04  0.00000000000E+00 0. -1.
         -1   -1    0    0    0  501 -0.00000000000E+00 -0.00000000000E+00 -0.70374038083E+03  0.70374038083E+03  0.00000000000E+00 0.  1.
          6    1    1    2  502    0 -0.76213329784E+03  0.44817361564E+03  0.87424470761E+03  0.12552268967E+04  0.17200000000E+03 0. -1.
         -6    1    1    2    0  501  0.76213329784E+03 -0.44817361564E+03 -0.11807545208E+03  0.90842312048E+03  0.17200000000E+03 0.  1.
</event>
<event>
 4    1  0.3094855E-002  0.2446213E+03  0.7818608E-02  0.1116752E+00
          2   -1    0    0  502    0  0.00000000000E+00  0.00000000000E+00  0.74700355274E+03  0.74700355274E+03  0.00000000000E+00 0. -1.
         -2   -1    0    0    0  501 -0.00000000000E+00 -0.00000000000E+00 -0.87394275376E+02  0.87394275376E+02  0.00000000000E+00 0.  1.
          6    1    1    2  502    0 -0.11942748212E+03 -0.12646198527E+03  0.20932588973E+03  0.32195789370E+03  0.17200000000E+03 0. -1.
         -6    1    1    2    0  501  0.11942748212E+03  0.12646198527E+03  0.45028338764E+03  0.51243993442E+03  0.17200000000E+03 0. -1.
</event>
<event>
 4    1  0.3094855E-002  0.3258970E+03  0.7818608E-02  0.1072967E+00
          1   -1    0    0  502    0  0.00000000000E+00  0.00000000000E+00  0.68107761098E+03  0.68107761098E+03  0.00000000000E+00 0. -1.
         -1   -1    0    0    0  501 -0.00000000000E+00 -0.00000000000E+00 -0.16402712122E+03  0.16402712122E+03  0.00000000000E+00 0.  1.
          6    1    1    2  502    0  0.27540011817E+03 -0.27921487024E+02  0.16471356441E+03  0.36515666888E+03  0.17200000000E+03 0. -1.
         -6    1    1    2    0  501 -0.27540011817E+03  0.27921487024E+02  0.35233692535E+03  0.47994806333E+03  0.17200000000E+03 0.  1.
</event>
<event>
 4    1  0.3094855E-002  0.1798383E+03  0.7818608E-02  0.1167960E+00
          2   -1    0    0  502    0  0.00000000000E+00  0.00000000000E+00  0.33512453630E+04  0.33512453630E+04  0.00000000000E+00 0. -1.
         -2   -1    0    0    0  501 -0.00000000000E+00 -0.00000000000E+00 -0.12184233512E+02  0.12184233512E+02  0.00000000000E+00 0.  1.
          6    1    1    2  502    0 -0.64930283303E+01  0.52111877118E+02  0.24363939632E+04  0.24430221757E+04  0.17200000000E+03 0. -1.
         -6    1    1    2    0  501  0.64930283303E+01 -0.52111877118E+02  0.90266716637E+03  0.92040742088E+03  0.17200000000E+03 0.  1.
</event>
<event>
 4    1  0.3094855E-002  0.1734415E+03  0.7818608E-02  0.1174306E+00
          2   -1    0    0  502    0  0.00000000000E+00  0.00000000000E+00  0.53078858427E+03  0.53078858427E+03  0.00000000000E+00 0. -1.
         -2   -1    0    0    0  501 -0.00000000000E+00 -0.00000000000E+00 -0.57117213326E+02  0.57117213326E+02  0.00000000000E+00 0.  1.
          6    1    1    2  502    0 -0.16178514414E+02 -0.15369055171E+02  0.26272757579E+03  0.31481380412E+03  0.17200000000E+03 0. -1.
         -6    1    1    2    0  501  0.16178514414E+02  0.15369055171E+02  0.21094379515E+03  0.27309199347E+03  0.17200000000E+03 0. -1.
</event>
<event>
 4    1  0.3094855E-002  0.3807691E+03  0.7818608E-02  0.1050650E+00
         -1   -1    0    0    0  501 -0.00000000000E+00  0.00000000000E+00  0.11089785488E+03  0.11089785488E+03  0.00000000000E+00 0.  1.
          1   -1    0    0  502    0  0.00000000000E+00 -0.00000000000E+00 -0.15116979834E+04  0.15116979834E+04  0.00000000000E+00 0. -1.
          6    1    1    2  502    0  0.15804492217E+03 -0.30070398876E+03 -0.99866790108E+03  0.10687949583E+04  0.17200000000E+03 0. -1.
         -6    1    1    2    0  501 -0.15804492217E+03  0.30070398876E+03 -0.40213222741E+03  0.55380087993E+03  0.17200000000E+03 0.  1.
</event>
<event>
 4    1  0.3094855E-002  0.6600395E+03  0.7818608E-02  0.9788121E-01
         -2   -1    0    0    0  501 -0.00000000000E+00  0.00000000000E+00  0.59612597674E+03  0.59612597674E+03  0.00000000000E+00 0.  1.
          2   -1    0    0  502    0  0.00000000000E+00 -0.00000000000E+00 -0.13879646033E+04  0.13879646033E+04  0.00000000000E+00 0. -1.
          6    1    1    2  502    0  0.62017609319E+03 -0.14645748618E+03 -0.10785370155E+04  0.12644739126E+04  0.17200000000E+03 0. -1.
         -6    1    1    2    0  501 -0.62017609319E+03  0.14645748618E+03  0.28669838895E+03  0.71961666743E+03  0.17200000000E+03 0.  1.
</event>
<event>
 4    1  0.3094855E-002  0.1751346E+03  0.7818608E-02  0.1172597E+00
          3   -1    0    0  502    0  0.00000000000E+00  0.00000000000E+00  0.82786042880E+02  0.82786042880E+02  0.00000000000E+00 0. -1.
         -3   -1    0    0    0  501 -0.00000000000E+00 -0.00000000000E+00 -0.37085490215E+03  0.37085490215E+03  0.00000000000E+00 0.  1.
          6    1    1    2  502    0 -0.15158455718E+02 -0.29297868193E+02 -0.15106130186E+03  0.23128264262E+03  0.17200000000E+03 0. -1.
         -6    1    1    2    0  501  0.15158455718E+02  0.29297868193E+02 -0.13700755742E+03  0.22235830241E+03  0.17200000000E+03 0. -1.
</event>
<event>
 4    1  0.3094855E-002  0.2835789E+03  0.7818608E-02  0.1093750E+00
         -2   -1    0    0    0  501 -0.00000000000E+00  0.00000000000E+00  0.23529028826E+02  0.23529028826E+02  0.00000000000E+00 0.  1.
          2   -1    0    0  502    0  0.00000000000E+00 -0.00000000000E+00 -0.48488881301E+04  0.48488881301E+04  0.00000000000E+00 0. -1.
          6    1    1    2  502    0  0.97887723500E+02 -0.20310342632E+03 -0.10891615806E+04  0.11254732146E+04  0.17200000000E+03 0.  1.
         -6    1    1    2    0  501 -0.97887723500E+02  0.20310342632E+03 -0.37361975207E+04  0.37469439444E+04  0.17200000000E+03 0.  1.
</event>
<event>
 4    1  0.3094855E-002  0.1780189E+03  0.7818608E-02  0.1169734E+00
          2   -1    0    0  502    0  0.00000000000E+00  0.00000000000E+00  0.12033185607E+04  0.12033185607E+04  0.00000000000E+00 0. -1.
         -2   -1    0    0    0  501 -0.00000000000E+00 -0.00000000000E+00 -0.27030047679E+02  0.27030047679E+02  0.00000000000E+00 0.  1.
          6    1    1    2  502    0  0.41030627237E+02  0.20572120598E+02  0.48957614493E+03  0.52093716147E+03  0.17200000000E+03 0.  1.
         -6    1    1    2    0  501 -0.41030627237E+02 -0.20572120598E+02  0.68671236813E+03  0.70941144695E+03  0.17200000000E+03 0. -1.
</event>
<event>
 4    1  0.3094855E-002  0.1850061E+03  0.7818608E-02  0.1163044E+00
          2   -1    0    0  502    0  0.00000000000E+00  0.00000000000E+00  0.94587569342E+03  0.94587569342E+03  0.00000000000E+00 0. -1.
         -2   -1    0    0    0  501 -0.00000000000E+00 -0.00000000000E+00 -0.39190763384E+02  0.39190763384E+02  0.00000000000E+00 0.  1.
          6    1    1    2  502    0 -0.67973446630E+02 -0.47824109361E+01  0.31695832826E+03  0.36700114816E+03  0.17200000000E+03 0.  1.
         -6    1    1    2    0  501  0.67973446630E+02  0.47824109361E+01  0.58972660178E+03  0.61806530864E+03  0.17200000000E+03 0.  1.
</event>
<event>
 4    1  0.3094855E-002  0.4362369E+03  0.7818608E-02  0.1031908E+00
          2   -1    0    0  502    0  0.00000000000E+00  0.00000000000E+00  0.26623707523E+04  0.26623707523E+04  0.00000000000E+00 0. -1.
         -2   -1    0    0    0  501 -0.00000000000E+00 -0.00000000000E+00 -0.71483219968E+02  0.71483219968E+02  0.00000000000E+00 0.  1.
          6    1    1    2  502    0  0.38790050423E+03  0.10125133979E+03  0.13063877024E+04  0.13772986110E+04  0.17200000000E+03 0. -1.
         -6    1    1    2    0  501 -0.38790050423E+03 -0.10125133979E+03  0.12844998300E+04  0.13565553613E+04  0.17200000000E+03 0. -1.
</event>
<event>
 4    1  0.3094855E-002  0.2600270E+03  0.7818608E-02  0.1107127E+00
         -1   -1    0    0    0  501 -0.00000000000E+00  0.00000000000E+00  0.84626029801E+02  0.84626029801E+02  0.00000000000E+00 0.  1.
          1   -1    0    0  502    0  0.00000000000E+00 -0.00000000000E+00 -0.85721707090E+03  0.85721707090E+03  0.00000000000E+00 0. -1.
          6    1    1    2  502    0 -0.19421263701E+03  0.17648908084E+02 -0.50904615890E+03  0.57161352697E+03  0.17200000000E+03 0. -1.
         -6    1    1    2    0  501  0.19421263701E+03 -0.17648908084E+02 -0.26354488221E+03  0.37022957373E+03  0.17200000000E+03 0.  1.
</event>
<event>
 4    1  0.3094855E-002  0.2760447E+03  0.7818608E-02  0.1097869E+00
         -1   -1    0    0    0  501 -0.00000000000E+00  0.00000000000E+00  0.12739268023E+04  0.12739268023E+04  0.00000000000E+00 0.  1.
          1   -1    0    0  502    0  0.00000000000E+00 -0.00000000000E+00 -0.23215260112E+04  0.23215260112E+04  0.00000000000E+00 0. -1.
          6    1    1    2  502    0  0.16351526985E+03  0.14099434841E+03 -0.22982151060E+04  0.23147339638E+04  0.17200000000E+03 0. -1.
         -6    1    1    2    0  501 -0.16351526985E+03 -0.14099434841E+03  0.12506158971E+04  0.12807188497E+04  0.17200000000E+03 0.  1.
</event>
<event>
 4    1  0.3094855E-002  0.5234758E+03  0.7818608E-02  0.1007827E+00
          2   -1    0    0  502    0  0.00000000000E+00  0.00000000000E+00  0.76054390800E+03  0.76054390800E+03  0.00000000000E+00 0. -1.
         -2   -1    0    0    0  501 -0.00000000000E+00 -0.00000000000E+00 -0.38531350031E+03  0.38531350031E+03  0.00000000000E+00 0.  1.
          6    1    1    2  502    0 -0.34323472852E+03  0.35585505375E+03  0.33357971535E+03  0.62072725463E+03  0.17200000000E+03 0. -1.
         -6    1    1    2    0  501  0.34323472852E+03 -0.35585505375E+03  0.41650692334E+02  0.52513015369E+03  0.17200000000E+03 0.  1.
</event>
<event>
 4    1  0.3094855E-002  0.2452257E+03  0.7818608E-02  0.1116360E+00
          2   -1    0    0  502    0  0.00000000000E+00  0.00000000000E+00  0.17495287494E+04  0.17495287494E+04  0.00000000000E+00 0. -1.
         -2   -1    0    0    0  501 -0.00000000000E+00 -0.00000000000E+00 -0.42808362637E+02  0.42808362637E+02  0.00000000000E+00 0.  1.
          6    1    1    2  502    0  0.91390363570E+02 -0.14899475223E+03  0.12511839955E+04  0.12749890295E+04  0.17200000000E+03 0. -1.
         -6    1    1    2    0  501 -0.91390363570E+02  0.14899475223E+03  0.45553639131E+03  0.51734808258E+03  0.17200000000E+03 0.  1.
</event>
<event>
 4    1  0.3094855E-002  0.3490384E+03  0.7818608E-02  0.1063010E+00
          1   -1    0    0  502    0  0.00000000000E+00  0.00000000000E+00  0.69513352499E+03  0.69513352499E+03  0.00000000000E+00 0. -1.
         -1   -1    0    0    0  501 -0.00000000000E+00 -0.00000000000E+00 -0.18809633656E+03  0.18809633656E+03  0.00000000000E+00 0.  1.
          6    1    1    2  502    0 -0.16191771880E+03 -0.25695607888E+03  0.13814499807E+03  0.37538222471E+03  0.17200000000E+03 0. -1.
         -6    1    1    2    0  501  0.16191771880E+03  0.25695607888E+03  0.36889219036E+03  0.50784763684E+03  0.17200000000E+03 0. -1.
</event>
<event>
 4    1  0.3094855E-002  0.1857134E+03  0.7818608E-02  0.1162385E+00
          2   -1    0    0  502    0  0.00000000000E+00  0.00000000000E+00  0.18777594609E+04  0.18777594609E+04  0.00000000000E+00 0. -1.
         -2   -1    0    0    0  501 -0.00000000000E+00 -0.00000000000E+00 -0.18386021933E+02  0.18386021933E+02  0.00000000000E+00 0.  1.
          6    1    1    2  502    0 -0.29433459491E+02 -0.63554235173E+02  0.95989784775E+03  0.97769798377E+03  0.17200000000E+03 0.  1.
         -6    1    1    2    0  501  0.29433459491E+02  0.63554235173E+02  0.89947559125E+03  0.91844749910E+03  0.17200000000E+03 0.  1.
</event>
<event>
 4    1  0.3094855E-002  0.6023271E+03  0.7818608E-02  0.9900590E-01
          1   -1    0    0  502    0  0.00000000000E+00  0.00000000000E+00  0.16622926408E+04  0.16622926408E+04  0.00000000000E+00 0. -1.
         -1   -1    0    0    0  501 -0.00000000000E+00 -0.00000000000E+00 -0.32233292088E+03  0.32233292088E+03  0.00000000000E+00 0.  1.
          6    1    1    2  502    0 -0.54219909105E+03  0.19807580801E+03  0.12338548561E+04  0.13730242846E+04  0.17200000000E+03 0. -1.
         -6    1    1    2    0  501  0.54219909105E+03 -0.19807580801E+03  0.10610486383E+03  0.61160127713E+03  0.17200000000E+03 0.  1.
</event>
<event>
 4    1  0.3094855E-002  0.2726462E+03  0.7818608E-02  0.1099775E+00
         -2   -1    0    0    0  501 -0.00000000000E+00  0.00000000000E+00  0.20538519323E+03  0.20538519323E+03  0.00000000000E+00 0.  1.
          2   -1    0    0  502    0  0.00000000000E+00 -0.00000000000E+00 -0.37052474216E+03  0.37052474216E+03  0.00000000000E+00 0. -1.
          6    1    1    2  502    0 -0.19633508049E+02 -0.21063349648E+03 -0.12641516394E+03  0.30052743327E+03  0.17200000000E+03 0. -1.
         -6    1    1    2    0  501  0.19633508049E+02  0.21063349648E+03 -0.38724384997E+02  0.27538250211E+03  0.17200000000E+03 0.  1.
</event>
<event>
 4    1  0.3094855E-002  0.2182831E+03  0.7818608E-02  0.1135170E+00
         -1   -1    0    0    0  501 -0.00000000000E+00  0.00000000000E+00  0.16436141274E+03  0.16436141274E+03  0.00000000000E+00 0.  1.
          1   -1    0    0  502    0  0.00000000000E+00 -0.00000000000E+00 -0.21861377223E+04  0.21861377223E+04  0.00000000000E+00 0. -1.
          6    1    1    2  502    0  0.11312572880E+03 -0.72567846462E+02 -0.21054450082E+04  0.21167300738E+04  0.17200000000E+03 0. -1.
         -6    1    1    2    0  501 -0.11312572880E+03  0.72567846462E+02  0.83668698632E+02  0.23376906123E+03  0.17200000000E+03 0.  1.
</event>
<event>
 4    1  0.3094855E-002  0.2236931E+03  0.7818608E-02  0.1131159E+00
          2   -1    0    0  502    0  0.00000000000E+00  0.00000000000E+00  0.67082161176E+03  0.67082161176E+03  0.00000000000E+00 0. -1.
         -2   -1    0    0    0  501 -0.00000000000E+00 -0.00000000000E+00 -0.14296541439E+03  0.14296541439E+03  0.00000000000E+00 0.  1.
          6    1    1    2  502    0 -0.94897969582E+02  0.10699997093E+03  0.54531613369E+03  0.58941352552E+03  0.17200000000E+03 0. -1.
         -6    1    1    2    0  501  0.94897969582E+02 -0.10699997093E+03 -0.17459936310E+02  0.22437350063E+03  0.17200000000E+03 0.  1.
</event>
<event>
 4    1  0.3094855E-002  0.2001616E+03  0.7818608E-02  0.1149603E+00
         -1   -1    0    0    0  501 -0.00000000000E+00  0.00000000000E+00  0.22610736237E+02  0.22610736237E+02  0.00000000000E+00 0.  1.
          1   -1    0    0  502    0  0.00000000000E+00 -0.00000000000E+00 -0.20543659462E+04  0.20543659462E+04  0.00000000000E+00 0. -1.
          6    1    1    2  502    0 -0.10204923252E+03 -0.81618131959E+01 -0.14009319723E+04  0.14151590200E+04  0.17200000000E+03 0. -1.
         -6    1    1    2    0  501  0.10204923252E+03  0.81618131959E+01 -0.63082323764E+03  0.66181766235E+03  0.17200000000E+03 0.  1.
</event>
<event>
 4    1  0.3094855E-002  0.1859417E+03  0.7818608E-02  0.1162173E+00
         -2   -1    0    0    0  501 -0.00000000000E+00  0.00000000000E+00  0.23702710802E+02  0.23702710802E+02  0.00000000000E+00 0.  1.
          2   -1    0    0  502    0  0.00000000000E+00 -0.00000000000E+00 -0.14706121381E+04  0.14706121381E+04  0.00000000000E+00 0. -1.
          6    1    1    2  502    0 -0.25319428761E+02  0.65948684080E+02 -0.65610986565E+03  0.68194901438E+03  0.17200000000E+03 0.  1.
         -6    1    1    2    0  501  0.25319428761E+02 -0.65948684080E+02 -0.79079956169E+03  0.81236583457E+03  0.17200000000E+03 0. -1.
</event>
<event>
 4    1  0.3094855E-002  0.1820619E+03  0.7818608E-02  0.1165822E+00
          2   -1    0    0  502    0  0.00000000000E+00  0.00000000000E+00  0.37583966490E+04  0.37583966490E+04  0.00000000000E+00 0. -1.
         -2   -1    0    0    0  501 -0.00000000000E+00 -0.00000000000E+00 -0.88260515360E+01  0.88260515360E+01  0.00000000000E+00 0.  1.
          6    1    1    2  502    0 -0.43813588612E+02 -0.40532677882E+02  0.19267781573E+04  0.19353605855E+04  0.17200000000E+03 0.  1.
         -6    1    1    2    0  501  0.43813588612E+02  0.40532677882E+02  0.18227924402E+04  0.18318621150E+04  0.17200000000E+03 0.  1.
</event>
<event>
 4    1  0.3094855E-002  0.2683573E+03  0.7818608E-02  0.1102223E+00
         -2   -1    0    0    0  501 -0.00000000000E+00  0.00000000000E+00  0.10866415454E+03  0.10866415454E+03  0.00000000000E+00 0.  1.
          2   -1    0    0  502    0  0.00000000000E+00 -0.00000000000E+00 -0.87522892000E+03  0.87522892000E+03  0.00000000000E+00 0. -1.
          6    1    1    2  502    0  0.20055665174E+03 -0.46996642564E+02 -0.62568049686E+03  0.68080227608E+03  0.17200000000E+03 0. -1.
         -6    1    1    2    0  501 -0.20055665174E+03  0.46996642564E+02 -0.14088426860E+03  0.30309079845E+03  0.17200000000E+03 0.  1.
</event>
<event>
 4    1  0.3094855E-002  0.8758900E+03  0.7818608E-02  0.9456232E-01
         -2   -1    0    0    0  501 -0.00000000000E+00  0.00000000000E+00  0.38698451008E+03  0.38698451008E+03  0.00000000000E+00 0.  1.
          2   -1    0    0  502    0  0.00000000000E+00 -0.00000000000E+00 -0.20925865370E+04  0.20925865370E+04  0.00000000000E+00 0. -1.
          6    1    1    2  502    0 -0.16619529767E+03 -0.84260218387E+03 -0.11372082357E+04  0.14354183671E+04  0.17200000000E+03 0. -1.
         -6    1    1    2    0  501  0.16619529767E+03  0.84260218387E+03 -0.56839379122E+03  0.10441526800E+04  0.17200000000E+03 0.  1.
</event>
<event>
 4    1  0.3094855E-002  0.2018662E+03  0.7818608E-02  0.1148174E+00
          2   -1    0    0  502    0  0.00000000000E+00  0.00000000000E+00  0.16429881757E+04  0.16429881757E+04  0.00000000000E+00 0. -1.
         -2   -1    0    0    0  501 -0.00000000000E+00 -0.00000000000E+00 -0.35617733804E+02  0.35617733804E+02  0.00000000000E+00 0.  1.
          6    1    1    2  502    0 -0.10386509135E+03 -0.19442791094E+02  0.34119086529E+03  0.39643560118E+03  0.17200000000E+03 0.  1.
         -6    1    1    2    0  501  0.10386509135E+03  0.19442791094E+02  0.12661795766E+04  0.12821703084E+04  0.17200000000E+03 0. -1.
</event>
<event>
 4    1  0.3094855E-002  0.1783527E+03  0.7818608E-02  0.1169407E+00
          2   -1    0    0  502    0  0.00000000000E+00  0.00000000000E+00  0.87004058269E+03  0.87004058269E+03  0.00000000000E+00 0. -1.
         -2   -1    0    0    0  501 -0.00000000000E+00 -0.00000000000E+00 -0.59075385867E+02  0.59075385867E+02  0.00000000000E+00 0.  1.
          6    1    1    2  502    0 -0.40377707869E+02 -0.24399132483E+02  0.69227347521E+03  0.71487917961E+03  0.17200000000E+03 0. -1.
         -6    1    1    2    0  501  0.40377707869E+02  0.24399132483E+02  0.11869172161E+03  0.21423678895E+03  0.17200000000E+03 0.  1.
</event>
<event>
 4    1  0.3094855E-002  0.2413155E+03  0.7818608E-02  0.1118920E+00
          2   -1    0    0  502    0  0.00000000000E+00  0.00000000000E+00  0.21953585946E+04  0.21953585946E+04  0.00000000000E+00 0. -1.
         -2   -1    0    0    0  501 -0.00000000000E+00 -0.00000000000E+00 -0.27084289153E+02  0.27084289153E+02  0.00000000000E+00 0.  1.
          6    1    1    2  502    0  0.72689918979E+02  0.15285722990E+03  0.12437380440E+04  0.12669323104E+04  0.17200000000E+03 0.  1.
         -6    1    1    2    0  501 -0.72689918979E+02 -0.15285722990E+03  0.92453626147E+03  0.95551057338E+03  0.17200000000E+03 0. -1.
</event>
<event>
 4    1  0.3094855E-002  0.1814563E+03  0.7818608E-02  0.1166401E+00
         -1   -1    0    0    0  501 -0.00000000000E+00  0.00000000000E+00  0.87042951972E+02  0.87042951972E+02  0.00000000000E+00 0.  1.
          1   -1    0    0  502    0  0.00000000000E+00 -0.00000000000E+00 -0.41593308982E+03  0.41593308982E+03  0.00000000000E+00 0. -1.
          6    1    1    2  502    0  0.52125506913E+02 -0.25006702537E+02 -0.24011431518E+03  0.30096725403E+03  0.17200000000E+03 0. -1.
         -6    1    1    2    0  501 -0.52125506913E+02  0.25006702537E+02 -0.88775822663E+02  0.20200878776E+03  0.17200000000E+03 0.  1.
</event>
<event>
 4    1  0.3094855E-002  0.2830328E+03  0.7818608E-02  0.1094044E+00
         -2   -1    0    0    0  501 -0.00000000000E+00  0.00000000000E+00  0.12934864092E+03  0.12934864092E+03  0.00000000000E+00 0.  1.
          2   -1    0    0  502    0  0.00000000000E+00 -0.00000000000E+00 -0.95497517265E+03  0.95497517265E+03  0.00000000000E+00 0. -1.
          6    1    1    2  502    0  0.15235181560E+03  0.16526497524E+03 -0.73424051782E+03  0.78690325057E+03  0.17200000000E+03 0. -1.
         -6    1    1    2    0  501 -0.15235181560E+03 -0.16526497524E+03 -0.91386013911E+02  0.29742056300E+03  0.17200000000E+03 0.  1.
</event>
<event>
 4    1  0.3094855E-002  0.2434965E+03  0.7818608E-02  0.1117485E+00
         -1   -1    0    0    0  501 -0.00000000000E+00  0.00000000000E+00  0.16280493911E+03  0.16280493911E+03  0.00000000000E+00 0.  1.
          1   -1    0    0  502    0  0.00000000000E+00 -0.00000000000E+00 -0.12019987377E+04  0.12019987377E+04  0.00000000000E+00 0. -1.
          6    1    1    2  502    0 -0.11507078110E+03  0.12831704950E+03 -0.10893186805E+04  0.11162014772E+04  0.17200000000E+03 0. -1.
         -6    1    1    2    0  501  0.11507078110E+03 -0.12831704950E+03  0.50124881984E+02  0.24860219961E+03  0.17200000000E+03 0.  1.
</event>
<event>
 4    1  0.3094855E-002  0.3557046E+03  0.7818608E-02  0.1060298E+00
         -1   -1    0    0    0  501 -0.00000000000E+00  0.00000000000E+00  0.95256000462E+02  0.95256000462E+02  0.00000000000E+00 0.  1.
          1   -1    0    0  502    0  0.00000000000E+00 -0.00000000000E+00 -0.14319671807E+04  0.14319671807E+04  0.00000000000E+00 0. -1.
          6    1    1    2  502    0 -0.28799762140E+03  0.11831780143E+03 -0.87384454311E+03  0.94346701988E+03  0.17200000000E+03 0. -1.
         -6    1    1    2    0  501  0.28799762140E+03 -0.11831780143E+03 -0.46286663708E+03  0.58375616124E+03  0.17200000000E+03 0.  1.
</event>
<event>
 4    1  0.3094855E-002  0.2753637E+03  0.7818608E-02  0.1098248E+00
         -2   -1    0    0    0  501 -0.00000000000E+00  0.00000000000E+00  0.33026435859E+02  0.33026435859E+02  0.00000000000E+00 0.  1.
          2   -1    0    0  502    0  0.00000000000E+00 -0.00000000000E+00 -0.24676472854E+04  0.24676472854E+04  0.00000000000E+00 0. -1.
          6    1    1    2  502    0 -0.78115687403E+02 -0.20034750953E+03 -0.15471770903E+04  0.15714904180E+04  0.17200000000E+03 0. -1.
         -6    1    1    2    0  501  0.78115687403E+02  0.20034750953E+03 -0.88744375923E+03  0.92918330322E+03  0.17200000000E+03 0.  1.
</event>
<event>
 4    1  0.3094855E-002  0.2185520E+03  0.7818608E-02  0.1134967E+00
         -2   -1    0    0    0  501 -0.00000000000E+00  0.00000000000E+00  0.25062253121E+03  0.25062253121E+03  0.00000000000E+00 0.  1.
          2   -1    0    0  502    0  0.00000000000E+00 -0.00000000000E+00 -0.58078536832E+03  0.58078536832E+03  0.00000000000E+00 0. -1.
          6    1    1    2  502    0 -0.29456889241E+02 -0.13157989865E+03 -0.50581894858E+03  0.55101523281E+03  0.17200000000E+03 0. -1.
         -6    1    1    2    0  501  0.29456889241E+02  0.13157989865E+03  0.17565611147E+03  0.28039266672E+03  0.17200000000E+03 0.  1.
</event>
<event>
 4    1  0.3094855E-002  0.2230346E+03  0.7818608E-02  0.1131641E+00
         -3   -1    0    0    0  501 -0.00000000000E+00  0.00000000000E+00  0.30680478273E+03  0.30680478273E+03  0.00000000000E+00 0.  1.
          3   -1    0    0  502    0  0.00000000000E+00 -0.00000000000E+00 -0.16784271993E+03  0.16784271993E+03  0.00000000000E+00 0. -1.
          6    1    1    2  502    0  0.13287665869E+02  0.14136428420E+03  0.25724467720E+02  0.22451318703E+03  0.17200000000E+03 0. -1.
         -6    1    1    2    0  501 -0.13287665869E+02 -0.14136428420E+03  0.11323759508E+03  0.25013431562E+03  0.17200000000E+03 0.  1.
</event>
<event>
 4    1  0.3094855E-002  0.2164351E+03  0.7818608E-02  0.1136569E+00
          4   -1    0    0  502    0  0.00000000000E+00  0.00000000000E+00  0.26386306162E+03  0.26386306162E+03  0.00000000000E+00 0. -1.
         -4   -1    0    0    0  501 -0.00000000000E+00 -0.00000000000E+00 -0.19485674204E+03  0.19485674204E+03  0.00000000000E+00 0.  1.
          6    1    1    2  502    0  0.47397147944E+02  0.12253024167E+03 -0.33886833424E+02  0.21907183122E+03  0.17200000000E+03 0.  1.
         -6    1    1    2    0  501 -0.47397147944E+02 -0.12253024167E+03  0.10289315301E+03  0.23964797244E+03  0.17200000000E+03 0. -1.
</event>
<event>
 4    1  0.3094855E-002  0.3934160E+03  0.7818608E-02  0.1046084E+00
         -2   -1    0    0    0  501 -0.00000000000E+00  0.00000000000E+00  0.85583908995E+02  0.85583908995E+02  0.00000000000E+00 0.  1.
          2   -1    0    0  502    0  0.00000000000E+00 -0.00000000000E+00 -0.23200031679E+04  0.23200031679E+04  0.00000000000E+00 0. -1.
          6    1    1    2  502    0 -0.34275481472E+03  0.87814096397E+02 -0.55242551437E+03  0.67819623080E+03  0.17200000000E+03 0.  1.
         -6    1    1    2    0  501  0.34275481472E+03 -0.87814096397E+02 -0.16819937445E+04  0.17273908461E+04  0.17200000000E+03 0.  1.
</event>
<event>
 4    1  0.3094855E-002  0.7475407E+03  0.7818608E-02  0.9639217E-01
          2   -1    0    0  502    0  0.00000000000E+00  0.00000000000E+00  0.25804917484E+04  0.25804917484E+04  0.00000000000E+00 0. -1.
         -2   -1    0    0    0  501 -0.00000000000E+00 -0.00000000000E+00 -0.28345159957E+03  0.28345159957E+03  0.00000000000E+00 0.  1.
          6    1    1    2  502    0 -0.72391136602E+02 -0.72387334640E+03  0.18441826143E+04  0.19899313086E+04  0.17200000000E+03 0. -1.
         -6    1    1    2    0  501  0.72391136602E+02  0.72387334640E+03  0.45285753454E+03  0.87401203932E+03  0.17200000000E+03 0.  1.
</event>
<event>
 4    1  0.3094855E-002  0.1738317E+03  0.7818608E-02  0.1173910E+00
         -4   -1    0    0    0  501 -0.00000000000E+00  0.00000000000E+00  0.13392158629E+03  0.13392158629E+03  0.00000000000E+00 0.  1.
          4   -1    0    0  502    0  0.00000000000E+00 -0.00000000000E+00 -0.29887928690E+03  0.29887928690E+03  0.00000000000E+00 0. -1.
          6    1    1    2  502    0  0.17642323443E+02 -0.17950619337E+02  0.24647262909E+02  0.17557039580E+03  0.17200000000E+03 0.  1.
         -6    1    1    2    0  501 -0.17642323443E+02  0.17950619337E+02 -0.18960496352E+03  0.25723047740E+03  0.17200000000E+03 0. -1.
</event>
<event>
 4    1  0.3094855E-002  0.4006167E+03  0.7818608E-02  0.1043566E+00
          1   -1    0    0  502    0  0.00000000000E+00  0.00000000000E+00  0.12933470971E+04  0.12933470971E+04  0.00000000000E+00 0. -1.
         -1   -1    0    0    0  501 -0.00000000000E+00 -0.00000000000E+00 -0.15275612491E+03  0.15275612491E+03  0.00000000000E+00 0.  1.
          6    1    1    2  502    0 -0.19177213793E+03  0.30681132109E+03  0.88350937687E+03  0.97009409783E+03  0.17200000000E+03 0. -1.
         -6    1    1    2    0  501  0.19177213793E+03 -0.30681132109E+03  0.25708159530E+03  0.47600912415E+03  0.17200000000E+03 0.  1.
</event>
<event>
 4    1  0.3094855E-002  0.3117339E+03  0.7818608E-02  0.1079518E+00
         -1   -1    0    0    0  501 -0.00000000000E+00  0.00000000000E+00  0.57257907985E+03  0.57257907985E+03  0.00000000000E+00 0.  1.
          1   -1    0    0  502    0  0.00000000000E+00 -0.00000000000E+00 -0.21609503372E+03  0.21609503372E+03  0.00000000000E+00 0. -1.
          6    1    1    2  502    0 -0.10327367302E+03 -0.23859709969E+03 -0.44367494914E+01  0.31176547638E+03  0.17200000000E+03 0. -1.
         -6    1    1    2    0  501  0.10327367302E+03  0.23859709969E+03  0.36092079562E+03  0.47690863719E+03  0.17200000000E+03 0.  1.
</event>
<event>
 4    1  0.3094855E-002  0.1888997E+03  0.7818608E-02  0.1159458E+00
         -2   -1    0    0    0  501 -0.00000000000E+00  0.00000000000E+00  0.21374584839E+02  0.21374584839E+02  0.00000000000E+00 0.  1.
          2   -1    0    0  502    0  0.00000000000E+00 -0.00000000000E+00 -0.16695571081E+04  0.16695571081E+04  0.00000000000E+00 0. -1.
          6    1    1    2  502    0  0.59217649039E+02 -0.50915143563E+02 -0.81632872918E+03  0.83789956193E+03  0.17200000000E+03 0. -1.
         -6    1    1    2    0  501 -0.59217649039E+02  0.50915143563E+02 -0.83185379409E+03  0.85303213101E+03  0.17200000000E+03 0. -1.
</event>
<event>
 4    1  0.3094855E-002  0.2041556E+03  0.7818608E-02  0.1146280E+00
         -4   -1    0    0    0  501 -0.00000000000E+00  0.00000000000E+00  0.10651375255E+03  0.10651375255E+03  0.00000000000E+00 0.  1.
          4   -1    0    0  502    0  0.00000000000E+00 -0.00000000000E+00 -0.57013893261E+03  0.57013893261E+03  0.00000000000E+00 0. -1.
          6    1    1    2  502    0  0.88896869611E+02 -0.64752178710E+02 -0.42129499972E+03  0.46815486205E+03  0.17200000000E+03 0. -1.
         -6    1    1    2    0  501 -0.88896869611E+02  0.64752178710E+02 -0.42330180342E+02  0.20849782311E+03  0.17200000000E+03 0.  1.
</event>
<event>
 4    1  0.3094855E-002  0.5321808E+03  0.7818608E-02  0.1005705E+00
          2   -1    0    0  502    0  0.00000000000E+00  0.00000000000E+00  0.11746179459E+04  0.11746179459E+04  0.00000000000E+00 0. -1.
         -2   -1    0    0    0  501 -0.00000000000E+00 -0.00000000000E+00 -0.30019749722E+03  0.30019749722E+03  0.00000000000E+00 0.  1.
          6    1    1    2  502    0  0.24520175780E+03 -0.43989604370E+03  0.76435387533E+03  0.93137171850E+03  0.17200000000E+03 0. -1.
         -6    1    1    2    0  501 -0.24520175780E+03  0.43989604370E+03  0.11006657340E+03  0.54344372466E+03  0.17200000000E+03 0.  1.
</event>
<event>
 4    1  0.3094855E-002  0.2648977E+03  0.7818608E-02  0.1104236E+00
         -2   -1    0    0    0  501 -0.00000000000E+00  0.00000000000E+00  0.42032934798E+02  0.42032934798E+02  0.00000000000E+00 0.  1.
          2   -1    0    0  502    0  0.00000000000E+00 -0.00000000000E+00 -0.17040308675E+04  0.17040308675E+04  0.00000000000E+00 0. -1.
          6    1    1    2  502    0 -0.23817626579E+02  0.20004883264E+03 -0.70658508118E+03  0.75460803847E+03  0.17200000000E+03 0.  1.
         -6    1    1    2    0  501  0.23817626579E+02 -0.20004883264E+03 -0.95541285153E+03  0.99145576383E+03  0.17200000000E+03 0. -1.
</event>
<event>
 4    1  0.3094855E-002  0.1868979E+03  0.7818608E-02  0.1161289E+00
         -1   -1    0    0    0  501 -0.00000000000E+00  0.00000000000E+00  0.13838077565E+03  0.13838077565E+03  0.00000000000E+00 0.  1.
          1   -1    0    0  502    0  0.00000000000E+00 -0.00000000000E+00 -0.31699808586E+03  0.31699808586E+03  0.00000000000E+00 0. -1.
          6    1    1    2  502    0  0.48982698727E+02 -0.54290977707E+02 -0.19207222006E+03  0.26799729990E+03  0.17200000000E+03 0.  1.
         -6    1    1    2    0  501 -0.48982698727E+02  0.54290977707E+02  0.13454909846E+02  0.18738156162E+03  0.17200000000E+03 0.  1.
</event>
<event>
 4    1  0.3094855E-002  0.2624434E+03  0.7818608E-02  0.1105684E+00
         -2   -1    0    0    0  501 -0.00000000000E+00  0.00000000000E+00  0.47282136255E+02  0.47282136255E+02  0.00000000000E+00 0.  1.
          2   -1    0    0  502    0  0.00000000000E+00 -0.00000000000E+00 -0.15354140330E+04  0.15354140330E+04  0.00000000000E+00 0. -1.
          6    1    1    2  502    0 -0.12349988790E+03 -0.15504933822E+03 -0.92322717387E+03  0.95980463333E+03  0.17200000000E+03 0. -1.
         -6    1    1    2    0  501  0.12349988790E+03  0.15504933822E+03 -0.56490472283E+03  0.62289153588E+03  0.17200000000E+03 0.  1.
</event>
<event>
 4    1  0.3094855E-002  0.1743123E+03  0.7818608E-02  0.1173424E+00
         -2   -1    0    0    0  501 -0.00000000000E+00  0.00000000000E+00  0.22156965507E+02  0.22156965507E+02  0.00000000000E+00 0.  1.
          2   -1    0    0  502    0  0.00000000000E+00 -0.00000000000E+00 -0.22538035533E+04  0.22538035533E+04  0.00000000000E+00 0. -1.
          6    1    1    2  502    0 -0.24724775188E+02 -0.13763960178E+02 -0.18278967162E+04  0.18361893057E+04  0.17200000000E+03 0. -1.
         -6    1    1    2    0  501  0.24724775188E+02  0.13763960178E+02 -0.40374987161E+03  0.43977121317E+03  0.17200000000E+03 0.  1.
</event>
<event>
 4    1  0.3094855E-002  0.2781349E+03  0.7818608E-02  0.1096712E+00
         -2   -1    0    0    0  501 -0.00000000000E+00  0.00000000000E+00  0.27387116179E+02  0.27387116179E+02  0.00000000000E+00 0.  1.
          2   -1    0    0  502    0  0.00000000000E+00 -0.00000000000E+00 -0.28274714989E+04  0.28274714989E+04  0.00000000000E+00 0. -1.
          6    1    1    2  502    0  0.40380679492E+02 -0.21481249735E+03 -0.13549478643E+04  0.13832001747E+04  0.17200000000E+03 0. -1.
         -6    1    1    2    0  501 -0.40380679492E+02  0.21481249735E+03 -0.14451365184E+04  0.14716584404E+04  0.17200000000E+03 0.  1.
</event>
<event>
 4    1  0.3094855E-002  0.2898785E+03  0.7818608E-02  0.1090413E+00
         -2   -1    0    0    0  501 -0.00000000000E+00  0.00000000000E+00  0.15377787228E+03  0.15377787228E+03  0.00000000000E+00 0.  1.
          2   -1    0    0  502    0  0.00000000000E+00 -0.00000000000E+00 -0.55351779748E+03  0.55351779748E+03  0.00000000000E+00 0. -1.
          6    1    1    2  502    0 -0.22599244614E+03  0.58077292157E+02 -0.23987534252E+03  0.37625754149E+03  0.17200000000E+03 0. -1.
         -6    1    1    2    0  501  0.22599244614E+03 -0.58077292157E+02 -0.15986458268E+03  0.33103812828E+03  0.17200000000E+03 0.  1.
</event>
<event>
 4    1  0.3094855E-002  0.1745652E+03  0.7818608E-02  0.1173169E+00
          2   -1    0    0  502    0  0.00000000000E+00  0.00000000000E+00  0.37794976434E+03  0.37794976434E+03  0.00000000000E+00 0. -1.
         -2   -1    0    0    0  501 -0.00000000000E+00 -0.00000000000E+00 -0.10527363753E+03  0.10527363753E+03  0.00000000000E+00 0.  1.
          6    1    1    2  502    0 -0.11023280106E+02  0.27704003960E+02  0.25324368118E+03  0.30757988653E+03  0.17200000000E+03 0. -1.
         -6    1    1    2    0  501  0.11023280106E+02 -0.27704003960E+02  0.19432445641E+02  0.17564351535E+03  0.17200000000E+03 0.  1.
</event>
<event>
 4    1  0.3094855E-002  0.1932578E+03  0.7818608E-02  0.1155555E+00
         -2   -1    0    0    0  501 -0.00000000000E+00  0.00000000000E+00  0.25769263003E+03  0.25769263003E+03  0.00000000000E+00 0.  1.
          2   -1    0    0  502    0  0.00000000000E+00 -0.00000000000E+00 -0.14616885485E+03  0.14616885485E+03  0.00000000000E+00 0. -1.
          6    1    1    2  502    0 -0.30688240775E+02 -0.82600222707E+02  0.37205794148E+02  0.19680659550E+03  0.17200000000E+03 0. -1.
         -6    1    1    2    0  501  0.30688240775E+02  0.82600222707E+02  0.74317981032E+02  0.20705488938E+03  0.17200000000E+03 0.  1.
</event>
<event>
 4    1  0.3094855E-002  0.2297627E+03  0.7818608E-02  0.1126807E+00
         -2   -1    0    0    0  501 -0.00000000000E+00  0.00000000000E+00  0.13306419634E+03  0.13306419634E+03  0.00000000000E+00 0.  1.
          2   -1    0    0  502    0  0.00000000000E+00 -0.00000000000E+00 -0.89248377779E+03  0.89248377779E+03  0.00000000000E+00 0. -1.
          6    1    1    2  502    0  0.42660072656E+02 -0.14624300519E+03 -0.76188078104E+03  0.79577209230E+03  0.17200000000E+03 0. -1.
         -6    1    1    2    0  501 -0.42660072656E+02  0.14624300519E+03  0.24611995872E+01  0.22977588183E+03  0.17200000000E+03 0.  1.
</event>
<event>
 4    1  0.3094855E-002  0.1767878E+03  0.7818608E-02  0.1170949E+00
          1   -1    0    0  502    0  0.00000000000E+00  0.00000000000E+00  0.55446614256E+02  0.55446614256E+02  0.00000000000E+00 0. -1.
         -1   -1    0    0    0  501 -0.00000000000E+00 -0.00000000000E+00 -0.78054345908E+03  0.78054345908E+03  0.00000000000E+00 0.  1.
          6    1    1    2  502    0  0.31389868139E+02  0.26164885940E+02 -0.14222037380E+03  0.22689327844E+03  0.17200000000E+03 0. -1.
         -6    1    1    2    0  501 -0.31389868139E+02 -0.26164885940E+02 -0.58287647102E+03  0.60909679489E+03  0.17200000000E+03 0.  1.
</event>
<event>
 4    1  0.3094855E-002  0.2790991E+03  0.7818608E-02  0.1096182E+00
         -2   -1    0    0    0  501 -0.00000000000E+00  0.00000000000E+00  0.11129927852E+03  0.11129927852E+03  0.00000000000E+00 0.  1.
          2   -1    0    0  502    0  0.00000000000E+00 -0.00000000000E+00 -0.11887451998E+04  0.11887451998E+04  0.00000000000E+00 0. -1.
          6    1    1    2  502    0  0.17061343838E+03 -0.13857617969E+03 -0.12187494866E+03  0.30454852822E+03  0.17200000000E+03 0.  1.
         -6    1    1    2    0  501 -0.17061343838E+03  0.13857617969E+03 -0.95557097258E+03  0.99549595005E+03  0.17200000000E+03 0. -1.
</event>
<event>
 4    1  0.3094855E-002  0.2383580E+03  0.7818608E-02  0.1120892E+00
         -2   -1    0    0    0  501 -0.00000000000E+00  0.00000000000E+00  0.93469131888E+03  0.93469131888E+03  0.00000000000E+00 0.  1.
          2   -1    0    0  502    0  0.00000000000E+00 -0.00000000000E+00 -0.61502031882E+02  0.61502031882E+02  0.00000000000E+00 0. -1.
          6    1    1    2  502    0 -0.10738422425E+03 -0.12529623741E+03  0.38278469324E+03  0.45093085957E+03  0.17200000000E+03 0. -1.
         -6    1    1    2    0  501  0.10738422425E+03  0.12529623741E+03  0.49040459375E+03  0.54526249119E+03  0.17200000000E+03 0. -1.
</event>
<event>
 4    1  0.3094855E-002  0.4334628E+03  0.7818608E-02  0.1032772E+00
         -2   -1    0    0    0  501 -0.00000000000E+00  0.00000000000E+00  0.10779605508E+03  0.10779605508E+03  0.00000000000E+00 0.  1.
          2   -1    0    0  502    0  0.00000000000E+00 -0.00000000000E+00 -0.17709642190E+04  0.17709642190E+04  0.00000000000E+00 0. -1.
          6    1    1    2  502    0 -0.54856213294E+02  0.39407710133E+03 -0.94959819074E+03  0.10438518524E+04  0.17200000000E+03 0. -1.
         -6    1    1    2    0  501  0.54856213294E+02 -0.39407710133E+03 -0.71356997314E+03  0.83490842162E+03  0.17200000000E+03 0.  1.
</event>
<event>
 4    1  0.3094855E-002  0.1949242E+03  0.7818608E-02  0.1154094E+00
          2   -1    0    0  502    0  0.00000000000E+00  0.00000000000E+00  0.11109956227E+04  0.11109956227E+04  0.00000000000E+00 0. -1.
         -2   -1    0    0    0  501 -0.00000000000E+00 -0.00000000000E+00 -0.50444747834E+02  0.50444747834E+02  0.00000000000E+00 0.  1.
          6    1    1    2  502    0 -0.54201887911E+01 -0.91553650747E+02  0.20072441686E+03  0.27979589156E+03  0.17200000000E+03 0.  1.
         -6    1    1    2    0  501  0.54201887911E+01  0.91553650747E+02  0.85982645802E+03  0.88164447898E+03  0.17200000000E+03 0. -1.
</event>
<event>
 4    1  0.3094855E-002  0.2519634E+03  0.7818608E-02  0.1112070E+00
          4   -1    0    0  502    0  0.00000000000E+00  0.00000000000E+00  0.49240076712E+03  0.49240076712E+03  0.00000000000E+00 0. -1.
         -4   -1    0    0    0  501 -0.00000000000E+00 -0.00000000000E+00 -0.13795927939E+03  0.13795927939E+03  0.00000000000E+00 0.  1.
          6    1    1    2  502    0  0.31591367545E+02  0.18139339623E+03  0.25785002416E+03  0.36051659276E+03  0.17200000000E+03 0. -1.
         -6    1    1    2    0  501 -0.31591367545E+02 -0.18139339623E+03  0.96591463566E+02  0.26984345375E+03  0.17200000000E+03 0.  1.
</event>
<event>
 4    1  0.3094855E-002  0.1858530E+03  0.7818608E-02  0.1162256E+00
          3   -1    0    0  502    0  0.00000000000E+00  0.00000000000E+00  0.68867709998E+03  0.68867709998E+03  0.00000000000E+00 0. -1.
         -3   -1    0    0    0  501 -0.00000000000E+00 -0.00000000000E+00 -0.52626646875E+02  0.52626646875E+02  0.00000000000E+00 0.  1.
          6    1    1    2  502    0 -0.64880376082E+02 -0.27347161606E+02  0.23771638696E+03  0.30174560656E+03  0.17200000000E+03 0. -1.
         -6    1    1    2    0  501  0.64880376082E+02  0.27347161606E+02  0.39833406614E+03  0.43955814029E+03  0.17200000000E+03 0. -1.
</event>
<event>
 4    1  0.3094855E-002  0.2508163E+03  0.7818608E-02  0.1112790E+00
         -1   -1    0    0    0  501 -0.00000000000E+00  0.00000000000E+00  0.61070954338E+02  0.61070954338E+02  0.00000000000E+00 0.  1.
          1   -1    0    0  502    0  0.00000000000E+00 -0.00000000000E+00 -0.12703471210E+04  0.12703471210E+04  0.00000000000E+00 0. -1.
          6    1    1    2  502    0  0.16765072037E+03  0.72235926320E+02 -0.89414451753E+03  0.92865667031E+03  0.17200000000E+03 0. -1.
         -6    1    1    2    0  501 -0.16765072037E+03 -0.72235926320E+02 -0.31513164914E+03  0.40276140503E+03  0.17200000000E+03 0.  1.
</event>
<event>
 4    1  0.3094855E-002  0.5866106E+03  0.7818608E-02  0.9933581E-01
         -1   -1    0    0    0  501 -0.00000000000E+00  0.00000000000E+00  0.35867008213E+03  0.35867008213E+03  0.00000000000E+00 0.  1.
          1   -1    0    0  502    0  0.00000000000E+00 -0.00000000000E+00 -0.95941754638E+03  0.95941754638E+03  0.00000000000E+00 0. -1.
          6    1    1    2  502    0 -0.80236299576E+02  0.55505865679E+03 -0.29863546376E+03  0.65825156016E+03  0.17200000000E+03 0. -1.
         -6    1    1    2    0  501  0.80236299576E+02 -0.55505865679E+03 -0.30211200049E+03  0.65983606834E+03  0.17200000000E+03 0.  1.
</event>
<event>
 4    1  0.3094855E-002  0.4499701E+03  0.7818608E-02  0.1027731E+00
         -1   -1    0    0    0  501 -0.00000000000E+00  0.00000000000E+00  0.26341476748E+03  0.26341476748E+03  0.00000000000E+00 0.  1.
          1   -1    0    0  502    0  0.00000000000E+00 -0.00000000000E+00 -0.16395938032E+04  0.16395938032E+04  0.00000000000E+00 0. -1.
          6    1    1    2  502    0  0.41399675155E+03 -0.38674947316E+02 -0.13815765477E+04  0.14530061318E+04  0.17200000000E+03 0. -1.
         -6    1    1    2    0  501 -0.41399675155E+03  0.38674947316E+02  0.53975120101E+01  0.45000243886E+03  0.17200000000E+03 0.  1.
</event>
<event>
 4    1  0.3094855E-002  0.3147782E+03  0.7818608E-02  0.1078078E+00
         -2   -1    0    0    0  501 -0.00000000000E+00  0.00000000000E+00  0.56965829262E+02  0.56965829262E+02  0.00000000000E+00 0.  1.
          2   -1    0    0  502    0  0.00000000000E+00 -0.00000000000E+00 -0.18178467348E+04  0.18178467348E+04  0.00000000000E+00 0. -1.
          6    1    1    2  502    0  0.44924209505E+02 -0.25977514262E+03 -0.10751951216E+04  0.11203257824E+04  0.17200000000E+03 0. -1.
         -6    1    1    2    0  501 -0.44924209505E+02  0.25977514262E+03 -0.68568578393E+03  0.75448678160E+03  0.17200000000E+03 0.  1.
</event>
<event>
 4    1  0.3094855E-002  0.7806225E+03  0.7818608E-02  0.9588497E-01
         -2   -1    0    0    0  501 -0.00000000000E+00  0.00000000000E+00  0.52743565762E+03  0.52743565762E+03  0.00000000000E+00 0.  1.
          2   -1    0    0  502    0  0.00000000000E+00 -0.00000000000E+00 -0.12614404384E+04  0.12614404384E+04  0.00000000000E+00 0. -1.
          6    1    1    2  502    0 -0.36813984299E+03 -0.66652876803E+03 -0.62639633994E+03  0.10008715788E+04  0.17200000000E+03 0. -1.
         -6    1    1    2    0  501  0.36813984299E+03  0.66652876803E+03 -0.10760844087E+03  0.78800451722E+03  0.17200000000E+03 0.  1.
</event>
<event>
 4    1  0.3094855E-002  0.1925765E+03  0.7818608E-02  0.1156158E+00
          2   -1    0    0  502    0  0.00000000000E+00  0.00000000000E+00  0.23020875501E+03  0.23020875501E+03  0.00000000000E+00 0. -1.
         -2   -1    0    0    0  501 -0.00000000000E+00 -0.00000000000E+00 -0.16595577830E+03  0.16595577830E+03  0.00000000000E+00 0.  1.
          6    1    1    2  502    0  0.29176607436E+02 -0.81550084930E+02 -0.17705137196E+01  0.19258459308E+03  0.17200000000E+03 0. -1.
         -6    1    1    2    0  501 -0.29176607436E+02  0.81550084930E+02  0.66023490437E+02  0.20357994023E+03  0.17200000000E+03 0.  1.
</event>
<event>
 4    1  0.3094855E-002  0.2083510E+03  0.7818608E-02  0.1142879E+00
         -4   -1    0    0    0  501 -0.00000000000E+00  0.00000000000E+00  0.12191491692E+04  0.12191491692E+04  0.00000000000E+00 0.  1.
          4   -1    0    0  502    0  0.00000000000E+00 -0.00000000000E+00 -0.36195638236E+02  0.36195638236E+02  0.00000000000E+00 0. -1.
          6    1    1    2  502    0  0.11755399597E+03 -0.26834704263E+01  0.67152649260E+03  0.70310594738E+03  0.17200000000E+03 0. -1.
         -6    1    1    2    0  501 -0.11755399597E+03  0.26834704263E+01  0.51142703834E+03  0.55223886003E+03  0.17200000000E+03 0.  1.
</event>
<event>
 4    1  0.3094855E-002  0.2492429E+03  0.7818608E-02  0.1113784E+00
          2   -1    0    0  502    0  0.00000000000E+00  0.00000000000E+00  0.94084726959E+03  0.94084726959E+03  0.00000000000E+00 0. -1.
         -2   -1    0    0    0  501 -0.00000000000E+00 -0.00000000000E+00 -0.11176170237E+03  0.11176170237E+03  0.00000000000E+00 0.  1.
          6    1    1    2  502    0  0.16583399039E+03  0.70972558502E+02  0.77868460961E+02  0.26112356011E+03  0.17200000000E+03 0.  1.
         -6    1    1    2    0  501 -0.16583399039E+03 -0.70972558502E+02  0.75121710626E+03  0.79148541185E+03  0.17200000000E+03 0. -1.
</event>
<event>
 4    1  0.3094855E-002  0.1864405E+03  0.7818608E-02  0.1161712E+00
          2   -1    0    0  502    0  0.00000000000E+00  0.00000000000E+00  0.82871322564E+02  0.82871322564E+02  0.00000000000E+00 0. -1.
         -2   -1    0    0    0  501 -0.00000000000E+00 -0.00000000000E+00 -0.44903205196E+03  0.44903205196E+03  0.00000000000E+00 0.  1.
          6    1    1    2  502    0  0.13783838348E+02  0.70612055823E+02 -0.11481403780E+03  0.21895734722E+03  0.17200000000E+03 0. -1.
         -6    1    1    2    0  501 -0.13783838348E+02 -0.70612055823E+02 -0.25134669160E+03  0.31294602731E+03  0.17200000000E+03 0.  1.
</event>
<event>
 4    1  0.3094855E-002  0.1876248E+03  0.7818608E-02  0.1160621E+00
          2   -1    0    0  502    0  0.00000000000E+00  0.00000000000E+00  0.27391335802E+03  0.27391335802E+03  0.00000000000E+00 0. -1.
         -2   -1    0    0    0  501 -0.00000000000E+00 -0.00000000000E+00 -0.15946117652E+03  0.15946117652E+03  0.00000000000E+00 0.  1.
          6    1    1    2  502    0 -0.33041250690E+02  0.67285441322E+02 -0.38225187809E+02  0.19147903239E+03  0.17200000000E+03 0.  1.
         -6    1    1    2    0  501  0.33041250690E+02 -0.67285441322E+02  0.15267736931E+03  0.24189550215E+03  0.17200000000E+03 0. -1.
</event>
<event>
 4    1  0.3094855E-002  0.3791134E+03  0.7818608E-02  0.1051262E+00
         -2   -1    0    0    0  501 -0.00000000000E+00  0.00000000000E+00  0.47798658083E+03  0.47798658083E+03  0.00000000000E+00 0.  1.
          2   -1    0    0  502    0  0.00000000000E+00 -0.00000000000E+00 -0.30649476332E+03  0.30649476332E+03  0.00000000000E+00 0. -1.
          6    1    1    2  502    0 -0.80907018938E+02  0.32801985331E+03  0.31777377250E+02  0.38044286244E+03  0.17200000000E+03 0. -1.
         -6    1    1    2    0  501  0.80907018938E+02 -0.32801985331E+03  0.13971444026E+03  0.40403848170E+03  0.17200000000E+03 0.  1.
</event>
<event>
 4    1  0.3094855E-002  0.2936549E+03  0.7818608E-02  0.1088456E+00
          2   -1    0    0  502    0  0.00000000000E+00  0.00000000000E+00  0.27545303157E+03  0.27545303157E+03  0.00000000000E+00 0. -1.
         -2   -1    0    0    0  501 -0.00000000000E+00 -0.00000000000E+00 -0.32330524831E+03  0.32330524831E+03  0.00000000000E+00 0.  1.
          6    1    1    2  502    0  0.21583108212E+03  0.10033004344E+03  0.29369096086E+02  0.29511983571E+03  0.17200000000E+03 0. -1.
         -6    1    1    2    0  501 -0.21583108212E+03 -0.10033004344E+03 -0.77221312822E+02  0.30363844417E+03  0.17200000000E+03 0.  1.
</event>
<event>
 4    1  0.3094855E-002  0.3052747E+03  0.7818608E-02  0.1082633E+00
          2   -1    0    0  502    0  0.00000000000E+00  0.00000000000E+00  0.24413650805E+04  0.24413650805E+04  0.00000000000E+00 0. -1.
         -2   -1    0    0    0  501 -0.00000000000E+00 -0.00000000000E+00 -0.85464395733E+02  0.85464395733E+02  0.00000000000E+00 0.  1.
          6    1    1    2  502    0  0.18656292181E+02 -0.25151657261E+03  0.21177761656E+04  0.21396655185E+04  0.17200000000E+03 0. -1.
         -6    1    1    2    0  501 -0.18656292181E+02  0.25151657261E+03  0.23812451919E+03  0.38716395774E+03  0.17200000000E+03 0.  1.
</event>
<event>
 4    1  0.3094855E-002  0.2119011E+03  0.7818608E-02  0.1140069E+00
          2   -1    0    0  502    0  0.00000000000E+00  0.00000000000E+00  0.13445821932E+04  0.13445821932E+04  0.00000000000E+00 0. -1.
         -2   -1    0    0    0  501 -0.00000000000E+00 -0.00000000000E+00 -0.33411667760E+02  0.33411667760E+02  0.00000000000E+00 0.  1.
          6    1    1    2  502    0  0.96002048438E+02  0.78113395369E+02  0.67105170556E+03  0.70371335598E+03  0.17200000000E+03 0.  1.
         -6    1    1    2    0  501 -0.96002048438E+02 -0.78113395369E+02  0.64011881988E+03  0.67428050499E+03  0.17200000000E+03 0. -1.
</event>
<event>
 4    1  0.3094855E-002  0.2194939E+03  0.7818608E-02  0.1134261E+00
          1   -1    0    0  502    0  0.00000000000E+00  0.00000000000E+00  0.15031915455E+04  0.15031915455E+04  0.00000000000E+00 0. -1.
         -1   -1    0    0    0  501 -0.00000000000E+00 -0.00000000000E+00 -0.33446100106E+02  0.33446100106E+02  0.00000000000E+00 0.  1.
          6    1    1    2  502    0 -0.12055837363E+03  0.63712137876E+02  0.57790903936E+03  0.61818801003E+03  0.17200000000E+03 0.  1.
         -6    1    1    2    0  501  0.12055837363E+03 -0.63712137876E+02  0.89183640599E+03  0.91844963553E+03  0.17200000000E+03 0. -1.
</event>
<event>
 4    1  0.3094855E-002  0.4403984E+03  0.7818608E-02  0.1030625E+00
         -2   -1    0    0    0  501 -0.00000000000E+00  0.00000000000E+00  0.60187975624E+03  0.60187975624E+03  0.00000000000E+00 0.  1.
          2   -1    0    0  502    0  0.00000000000E+00 -0.00000000000E+00 -0.35621315150E+03  0.35621315150E+03  0.00000000000E+00 0. -1.
          6    1    1    2  502    0 -0.16381944089E+03  0.37085026271E+03 -0.25104791095E+02  0.44111333816E+03  0.17200000000E+03 0. -1.
         -6    1    1    2    0  501  0.16381944089E+03 -0.37085026271E+03  0.27077139583E+03  0.51697956959E+03  0.17200000000E+03 0.  1.
</event>
<event>
 4    1  0.3094855E-002  0.1813791E+03  0.7818608E-02  0.1166475E+00
         -1   -1    0    0    0  501 -0.00000000000E+00  0.00000000000E+00  0.11642963326E+03  0.11642963326E+03  0.00000000000E+00 0.  1.
          1   -1    0    0  502    0  0.00000000000E+00 -0.00000000000E+00 -0.58685218391E+03  0.58685218391E+03  0.00000000000E+00 0. -1.
          6    1    1    2  502    0 -0.37500362133E+01  0.57448220231E+02 -0.48842101542E+03  0.52101194716E+03  0.17200000000E+03 0. -1.
         -6    1    1    2    0  501  0.37500362133E+01 -0.57448220231E+02  0.17998464768E+02  0.18226987001E+03  0.17200000000E+03 0.  1.
</event>
<event>
 4    1  0.3094855E-002  0.5970902E+03  0.7818608E-02  0.9911461E-01
         -2   -1    0    0    0  501 -0.00000000000E+00  0.00000000000E+00  0.14340431400E+03  0.14340431400E+03  0.00000000000E+00 0.  1.
          2   -1    0    0  502    0  0.00000000000E+00 -0.00000000000E+00 -0.24934960677E+04  0.24934960677E+04  0.00000000000E+00 0. -1.
          6    1    1    2  502    0 -0.37037272106E+03 -0.43561075077E+03 -0.12468783394E+04  0.13824696279E+04  0.17200000000E+03 0. -1.
         -6    1    1    2    0  501  0.37037272106E+03  0.43561075077E+03 -0.11032134143E+04  0.12544307538E+04  0.17200000000E+03 0.  1.
</event>
<event>
 4    1  0.3094855E-002  0.1942477E+03  0.7818608E-02  0.1154685E+00
          1   -1    0    0  502    0  0.00000000000E+00  0.00000000000E+00  0.10284882766E+03  0.10284882766E+03  0.00000000000E+00 0. -1.
         -1   -1    0    0    0  501 -0.00000000000E+00 -0.00000000000E+00 -0.37948373553E+03  0.37948373553E+03  0.00000000000E+00 0.  1.
          6    1    1    2  502    0  0.88036892812E+02  0.19942006940E+02 -0.94349419147E+02  0.21594904730E+03  0.17200000000E+03 0. -1.
         -6    1    1    2    0  501 -0.88036892812E+02 -0.19942006940E+02 -0.18228548872E+03  0.26638351589E+03  0.17200000000E+03 0.  1.
</event>
<event>
 4    1  0.3094855E-002  0.2227532E+03  0.7818608E-02  0.1131847E+00
          1   -1    0    0  502    0  0.00000000000E+00  0.00000000000E+00  0.64781427763E+03  0.64781427763E+03  0.00000000000E+00 0. -1.
         -1   -1    0    0    0  501 -0.00000000000E+00 -0.00000000000E+00 -0.21604520713E+03  0.21604520713E+03  0.00000000000E+00 0.  1.
          6    1    1    2  502    0 -0.27923472732E+02 -0.13876330960E+03  0.56290192205E+03  0.60537389295E+03  0.17200000000E+03 0. -1.
         -6    1    1    2    0  501  0.27923472732E+02  0.13876330960E+03 -0.13113285154E+03  0.25848559181E+03  0.17200000000E+03 0.  1.
</event>
<event>
 4    1  0.3094855E-002  0.1865704E+03  0.7818608E-02  0.1161591E+00
          2   -1    0    0  502    0  0.00000000000E+00  0.00000000000E+00  0.34858726186E+03  0.34858726186E+03  0.00000000000E+00 0. -1.
         -2   -1    0    0    0  501 -0.00000000000E+00 -0.00000000000E+00 -0.11120319835E+03  0.11120319835E+03  0.00000000000E+00 0.  1.
          6    1    1    2  502    0  0.71309467736E+02 -0.11809550703E+02  0.19212937536E+03  0.26781001205E+03  0.17200000000E+03 0. -1.
         -6    1    1    2    0  501 -0.71309467736E+02  0.11809550703E+02  0.45254688145E+02  0.19198044816E+03  0.17200000000E+03 0.  1.
</event>
<event>
 4    1  0.3094855E-002  0.1974930E+03  0.7818608E-02  0.1151872E+00
         -1   -1    0    0    0  501 -0.00000000000E+00  0.00000000000E+00  0.28966697114E+02  0.28966697114E+02  0.00000000000E+00 0.  1.
          1   -1    0    0  502    0  0.00000000000E+00 -0.00000000000E+00 -0.14287898552E+04  0.14287898552E+04  0.00000000000E+00 0. -1.
          6    1    1    2  502    0 -0.96986491551E+02 -0.36179952834E+01 -0.87484030115E+03  0.89685507300E+03  0.17200000000E+03 0. -1.
         -6    1    1    2    0  501  0.96986491551E+02  0.36179952834E+01 -0.52498285697E+03  0.56090147935E+03  0.17200000000E+03 0.  1.
</event>
<event>
 4    1  0.3094855E-002  0.2724897E+03  0.7818608E-02  0.1099863E+00
          2   -1    0    0  502    0  0.00000000000E+00  0.00000000000E+00  0.91353279745E+03  0.91353279745E+03  0.00000000000E+00 0. -1.
         -2   -1    0    0    0  501 -0.00000000000E+00 -0.00000000000E+00 -0.23905136275E+03  0.23905136275E+03  0.00000000000E+00 0.  1.
          6    1    1    2  502    0  0.18012718850E+03  0.11054793041E+03  0.80542095900E+03  0.85026676411E+03  0.17200000000E+03 0. -1.
         -6    1    1    2    0  501 -0.18012718850E+03 -0.11054793041E+03 -0.13093952430E+03  0.30231739609E+03  0.17200000000E+03 0.  1.
</event>
<event>
 4    1  0.3094855E-002  0.1720530E+03  0.7818608E-02  0.1175724E+00
          1   -1    0    0  502    0  0.00000000000E+00  0.00000000000E+00  0.97953930023E+03  0.97953930023E+03  0.00000000000E+00 0. -1.
         -1   -1    0    0    0  501 -0.00000000000E+00 -0.00000000000E+00 -0.56719572554E+02  0.56719572554E+02  0.00000000000E+00 0.  1.
          6    1    1    2  502    0 -0.33632345238E+01 -0.26283037916E+01  0.10726031348E+03  0.20274859845E+03  0.17200000000E+03 0.  1.
         -6    1    1    2    0  501  0.33632345238E+01  0.26283037916E+01  0.81555941420E+03  0.83351027433E+03  0.17200000000E+03 0. -1.
</event>
<event>
 4    1  0.3094855E-002  0.6077432E+03  0.7818608E-02  0.9889470E-01
          1   -1    0    0  502    0  0.00000000000E+00  0.00000000000E+00  0.75631287871E+03  0.75631287871E+03  0.00000000000E+00 0. -1.
         -1   -1    0    0    0  501 -0.00000000000E+00 -0.00000000000E+00 -0.49494070845E+03  0.49494070845E+03  0.00000000000E+00 0.  1.
          6    1    1    2  502    0  0.56206415125E+03  0.15443997690E+03  0.20283417655E+03  0.64069768203E+03  0.17200000000E+03 0. -1.
         -6    1    1    2    0  501 -0.56206415125E+03 -0.15443997690E+03  0.58537993707E+02  0.61055590513E+03  0.17200000000E+03 0.  1.
</event>
<event>
 4    1  0.3094855E-002  0.2628457E+03  0.7818608E-02  0.1105445E+00
          1   -1    0    0  502    0  0.00000000000E+00  0.00000000000E+00  0.24555100315E+04  0.24555100315E+04  0.00000000000E+00 0. -1.
         -1   -1    0    0    0  501 -0.00000000000E+00 -0.00000000000E+00 -0.72246461365E+02  0.72246461365E+02  0.00000000000E+00 0.  1.
          6    1    1    2  502    0 -0.95498814373E+02 -0.17430965583E+03  0.21792030657E+04  0.21949974673E+04  0.17200000000E+03 0. -1.
         -6    1    1    2    0  501  0.95498814373E+02  0.17430965583E+03  0.20406050445E+03  0.33275902563E+03  0.17200000000E+03 0.  1.
</event>
<event>
 4    1  0.3094855E-002  0.1830100E+03  0.7818608E-02  0.1164921E+00
         -2   -1    0    0    0  501 -0.00000000000E+00  0.00000000000E+00  0.47891614006E+03  0.47891614006E+03  0.00000000000E+00 0.  1.
          2   -1    0    0  502    0  0.00000000000E+00 -0.00000000000E+00 -0.75190783693E+02  0.75190783693E+02  0.00000000000E+00 0. -1.
          6    1    1    2  502    0 -0.32529180923E+02 -0.53390223881E+02  0.12860906402E+03  0.22368047516E+03  0.17200000000E+03 0. -1.
         -6    1    1    2    0  501  0.32529180923E+02  0.53390223881E+02  0.27511629235E+03  0.33042644860E+03  0.17200000000E+03 0.  1.
</event>
<event>
 4    1  0.3094855E-002  0.2307009E+03  0.7818608E-02  0.1126147E+00
          3   -1    0    0  502    0  0.00000000000E+00  0.00000000000E+00  0.92146821375E+02  0.92146821375E+02  0.00000000000E+00 0. -1.
         -3   -1    0    0    0  501 -0.00000000000E+00 -0.00000000000E+00 -0.60723831497E+03  0.60723831497E+03  0.00000000000E+00 0.  1.
          6    1    1    2  502    0  0.15292125877E+03 -0.15936827096E+02 -0.33481768869E+03  0.40660272810E+03  0.17200000000E+03 0. -1.
         -6    1    1    2    0  501 -0.15292125877E+03  0.15936827096E+02 -0.18027380491E+03  0.29278240824E+03  0.17200000000E+03 0. -1.
</event>
<event>
 4    1  0.3094855E-002  0.6362119E+03  0.7818608E-02  0.9833001E-01
          1   -1    0    0  502    0  0.00000000000E+00  0.00000000000E+00  0.91300482509E+03  0.91300482509E+03  0.00000000000E+00 0. -1.
         -1   -1    0    0    0  501 -0.00000000000E+00 -0.00000000000E+00 -0.51978348550E+03  0.51978348550E+03  0.00000000000E+00 0.  1.
          6    1    1    2  502    0 -0.58126494340E+03  0.19316496301E+03  0.47135545594E+03  0.79179644051E+03  0.17200000000E+03 0. -1.
         -6    1    1    2    0  501  0.58126494340E+03 -0.19316496301E+03 -0.78134116355E+02  0.64099187008E+03  0.17200000000E+03 0.  1.
</event>
<event>
 4    1  0.3094855E-002  0.2213197E+03  0.7818608E-02  0.1132903E+00
          1   -1    0    0  502    0  0.00000000000E+00  0.00000000000E+00  0.11690914335E+04  0.11690914335E+04  0.00000000000E+00 0. -1.
         -1   -1    0    0    0  501 -0.00000000000E+00 -0.00000000000E+00 -0.42562260788E+02  0.42562260788E+02  0.00000000000E+00 0.  1.
          6    1    1    2  502    0  0.11621457875E+03 -0.76763119214E+02  0.48757117680E+03  0.53545126504E+03  0.17200000000E+03 0.  1.
         -6    1    1    2    0  501 -0.11621457875E+03  0.76763119214E+02  0.63895799592E+03  0.67620242925E+03  0.17200000000E+03 0.  1.
</event>
<event>
 4    1  0.3094855E-002  0.2107002E+03  0.7818608E-02  0.1141013E+00
         -2   -1    0    0    0  501 -0.00000000000E+00  0.00000000000E+00  0.31844478793E+02  0.31844478793E+02  0.00000000000E+00 0.  1.
          2   -1    0    0  502    0  0.00000000000E+00 -0.00000000000E+00 -0.14096530788E+04  0.14096530788E+04  0.00000000000E+00 0. -1.
          6    1    1    2  502    0  0.10793666527E+03 -0.56216020895E+02 -0.76459777396E+03  0.79309792627E+03  0.17200000000E+03 0. -1.
         -6    1    1    2    0  501 -0.10793666527E+03  0.56216020895E+02 -0.61321082607E+03  0.64839963134E+03  0.17200000000E+03 0.  1.
</event>
<event>
 4    1  0.3094855E-002  0.1770413E+03  0.7818608E-02  0.1170698E+00
         -1   -1    0    0    0  501 -0.00000000000E+00  0.00000000000E+00  0.27748227655E+02  0.27748227655E+02  0.00000000000E+00 0.  1.
          1   -1    0    0  502    0  0.00000000000E+00 -0.00000000000E+00 -0.11340575081E+04  0.11340575081E+04  0.00000000000E+00 0. -1.
          6    1    1    2  502    0  0.41869240500E+02  0.25692863651E+01 -0.58968619949E+03  0.61568940904E+03  0.17200000000E+03 0. -1.
         -6    1    1    2    0  501 -0.41869240500E+02 -0.25692863651E+01 -0.51662308098E+03  0.54611632675E+03  0.17200000000E+03 0.  1.
</event>
<event>
 4    1  0.3094855E-002  0.2233008E+03  0.7818608E-02  0.1131446E+00
          3   -1    0    0  502    0  0.00000000000E+00  0.00000000000E+00  0.25324114101E+03  0.25324114101E+03  0.00000000000E+00 0. -1.
         -3   -1    0    0    0  501 -0.00000000000E+00 -0.00000000000E+00 -0.20657179903E+03  0.20657179903E+03  0.00000000000E+00 0.  1.
          6    1    1    2  502    0 -0.11617422460E+03 -0.82357707427E+02  0.73081320157E+02  0.23495557408E+03  0.17200000000E+03 0. -1.
         -6    1    1    2    0  501  0.11617422460E+03  0.82357707427E+02 -0.26411978172E+02  0.22485736596E+03  0.17200000000E+03 0. -1.
</event>
<event>
 4    1  0.3094855E-002  0.1818744E+03  0.7818608E-02  0.1166001E+00
          3   -1    0    0  502    0  0.00000000000E+00  0.00000000000E+00  0.22525850535E+03  0.22525850535E+03  0.00000000000E+00 0. -1.
         -3   -1    0    0    0  501 -0.00000000000E+00 -0.00000000000E+00 -0.44725486890E+03  0.44725486890E+03  0.00000000000E+00 0.  1.
          6    1    1    2  502    0 -0.29078088987E+02 -0.51466111040E+02  0.16458316192E+03  0.24528740904E+03  0.17200000000E+03 0. -1.
         -6    1    1    2    0  501  0.29078088987E+02  0.51466111040E+02 -0.38657952546E+03  0.42722596521E+03  0.17200000000E+03 0.  1.
</event>
<event>
 4    1  0.3094855E-002  0.1991542E+03  0.7818608E-02  0.1150455E+00
         -2   -1    0    0    0  501 -0.00000000000E+00  0.00000000000E+00  0.16051206784E+04  0.16051206784E+04  0.00000000000E+00 0.  1.
          2   -1    0    0  502    0  0.00000000000E+00 -0.00000000000E+00 -0.79224402528E+02  0.79224402528E+02  0.00000000000E+00 0. -1.
          6    1    1    2  502    0 -0.58199416723E+02 -0.81799808262E+02  0.14615465500E+04  0.14750527782E+04  0.17200000000E+03 0.  1.
         -6    1    1    2    0  501  0.58199416723E+02  0.81799808262E+02  0.64349725834E+02  0.20929230266E+03  0.17200000000E+03 0. -1.
</event>
<event>
 4    1  0.3094855E-002  0.2053287E+03  0.7818608E-02  0.1145320E+00
          1   -1    0    0  502    0  0.00000000000E+00  0.00000000000E+00  0.18395031387E+04  0.18395031387E+04  0.00000000000E+00 0. -1.
         -1   -1    0    0    0  501 -0.00000000000E+00 -0.00000000000E+00 -0.26770991833E+02  0.26770991833E+02  0.00000000000E+00 0.  1.
          6    1    1    2  502    0  0.43780147986E+02 -0.10324318512E+03  0.55241178463E+03  0.58933745548E+03  0.17200000000E+03 0.  1.
         -6    1    1    2    0  501 -0.43780147986E+02  0.10324318512E+03  0.12603203622E+04  0.12769366750E+04  0.17200000000E+03 0. -1.
</event>
<event>
 4    1  0.3094855E-002  0.1800248E+03  0.7818608E-02  0.1167779E+00
         -1   -1    0    0    0  501 -0.00000000000E+00  0.00000000000E+00  0.12882145626E+03  0.12882145626E+03  0.00000000000E+00 0.  1.
          1   -1    0    0  502    0  0.00000000000E+00 -0.00000000000E+00 -0.30755744798E+03  0.30755744798E+03  0.00000000000E+00 0. -1.
          6    1    1    2  502    0 -0.52183383158E+02  0.10089921982E+02 -0.18245238921E+03  0.25631579415E+03  0.17200000000E+03 0. -1.
         -6    1    1    2    0  501  0.52183383158E+02 -0.10089921982E+02  0.37163974874E+01  0.18006311009E+03  0.17200000000E+03 0.  1.
</event>
<event>
 4    1  0.3094855E-002  0.2093905E+03  0.7818608E-02  0.1142050E+00
          1   -1    0    0  502    0  0.00000000000E+00  0.00000000000E+00  0.18543567133E+03  0.18543567133E+03  0.00000000000E+00 0. -1.
         -1   -1    0    0    0  501 -0.00000000000E+00 -0.00000000000E+00 -0.31820069352E+03  0.31820069352E+03  0.00000000000E+00 0.  1.
          6    1    1    2  502    0 -0.67997716691E+02  0.98166576101E+02 -0.19402916576E+03  0.28546748204E+03  0.17200000000E+03 0.  1.
         -6    1    1    2    0  501  0.67997716691E+02 -0.98166576101E+02  0.61264143563E+02  0.21816888281E+03  0.17200000000E+03 0.  1.
</event>
<event>
 4    1  0.3094855E-002  0.2602504E+03  0.7818608E-02  0.1106993E+00
          2   -1    0    0  502    0  0.00000000000E+00  0.00000000000E+00  0.19224424629E+03  0.19224424629E+03  0.00000000000E+00 0. -1.
         -2   -1    0    0    0  501 -0.00000000000E+00 -0.00000000000E+00 -0.41397429660E+03  0.41397429660E+03  0.00000000000E+00 0.  1.
          6    1    1    2  502    0  0.17306098872E+03 -0.90532564878E+02  0.61164123655E+01  0.26032222652E+03  0.17200000000E+03 0. -1.
         -6    1    1    2    0  501 -0.17306098872E+03  0.90532564878E+02 -0.22784646268E+03  0.34589631637E+03  0.17200000000E+03 0.  1.
</event>
<event>
 4    1  0.3094855E-002  0.1801167E+03  0.7818608E-02  0.1167690E+00
          2   -1    0    0  502    0  0.00000000000E+00  0.00000000000E+00  0.14032425994E+04  0.14032425994E+04  0.00000000000E+00 0. -1.
         -2   -1    0    0    0  501 -0.00000000000E+00 -0.00000000000E+00 -0.24827672745E+02  0.24827672745E+02  0.00000000000E+00 0.  1.
          6    1    1    2  502    0  0.45777224593E+02 -0.27612603166E+02  0.50190617541E+03  0.53324648996E+03  0.17200000000E+03 0.  1.
         -6    1    1    2    0  501 -0.45777224593E+02  0.27612603166E+02  0.87650875125E+03  0.89482378219E+03  0.17200000000E+03 0. -1.
</event>
<event>
 4    1  0.3094855E-002  0.2476978E+03  0.7818608E-02  0.1114768E+00
         -1   -1    0    0    0  501 -0.00000000000E+00  0.00000000000E+00  0.18157709401E+03  0.18157709401E+03  0.00000000000E+00 0.  1.
          1   -1    0    0  502    0  0.00000000000E+00 -0.00000000000E+00 -0.34652560234E+03  0.34652560234E+03  0.00000000000E+00 0. -1.
          6    1    1    2  502    0 -0.89170506197E+02  0.15433353869E+03 -0.12414292637E+03  0.27706621322E+03  0.17200000000E+03 0. -1.
         -6    1    1    2    0  501  0.89170506197E+02 -0.15433353869E+03 -0.40805581958E+02  0.25103648313E+03  0.17200000000E+03 0. -1.
</event>
<event>
 4    1  0.3094855E-002  0.2660829E+03  0.7818608E-02  0.1103543E+00
          2   -1    0    0  502    0  0.00000000000E+00  0.00000000000E+00  0.27025182336E+04  0.27025182336E+04  0.00000000000E+00 0. -1.
         -2   -1    0    0    0  501 -0.00000000000E+00 -0.00000000000E+00 -0.74254128018E+02  0.74254128018E+02  0.00000000000E+00 0.  1.
          6    1    1    2  502    0  0.11902535392E+03 -0.16446597212E+03  0.24310600433E+04  0.24455782599E+04  0.17200000000E+03 0. -1.
         -6    1    1    2    0  501 -0.11902535392E+03  0.16446597212E+03  0.19720406223E+03  0.33119410173E+03  0.17200000000E+03 0.  1.
</event>
<event>
 4    1  0.3094855E-002  0.3406730E+03  0.7818608E-02  0.1066510E+00
         -1   -1    0    0    0  501 -0.00000000000E+00  0.00000000000E+00  0.78488967201E+03  0.78488967201E+03  0.00000000000E+00 0.  1.
          1   -1    0    0  502    0  0.00000000000E+00 -0.00000000000E+00 -0.26080327279E+03  0.26080327279E+03  0.00000000000E+00 0. -1.
          6    1    1    2  502    0  0.15340304844E+02 -0.29366438470E+03 -0.82019262462E+02  0.35040727048E+03  0.17200000000E+03 0. -1.
         -6    1    1    2    0  501 -0.15340304844E+02  0.29366438470E+03  0.60610566168E+03  0.69528567432E+03  0.17200000000E+03 0.  1.
</event>
<event>
 4    1  0.3094855E-002  0.1784659E+03  0.7818608E-02  0.1169296E+00
          2   -1    0    0  502    0  0.00000000000E+00  0.00000000000E+00  0.86475829356E+03  0.86475829356E+03  0.00000000000E+00 0. -1.
         -2   -1    0    0    0  501 -0.00000000000E+00 -0.00000000000E+00 -0.37651515499E+02  0.37651515499E+02  0.00000000000E+00 0.  1.
          6    1    1    2  502    0 -0.38754589902E+02 -0.27643520360E+02  0.34695342100E+03  0.39016247744E+03  0.17200000000E+03 0. -1.
         -6    1    1    2    0  501  0.38754589902E+02  0.27643520360E+02  0.48015335706E+03  0.51224733162E+03  0.17200000000E+03 0.  1.
</event>
<event>
 4    1  0.3094855E-002  0.2804350E+03  0.7818608E-02  0.1095452E+00
         -2   -1    0    0    0  501 -0.00000000000E+00  0.00000000000E+00  0.10561616447E+03  0.10561616447E+03  0.00000000000E+00 0.  1.
          2   -1    0    0  502    0  0.00000000000E+00 -0.00000000000E+00 -0.12212202820E+04  0.12212202820E+04  0.00000000000E+00 0. -1.
          6    1    1    2  502    0 -0.10714922350E+03 -0.19385260616E+03 -0.97224815680E+03  0.10118845129E+04  0.17200000000E+03 0. -1.
         -6    1    1    2    0  501  0.10714922350E+03  0.19385260616E+03 -0.14335596077E+03  0.31495193363E+03  0.17200000000E+03 0.  1.
</event>
<event>
 4    1  0.3094855E-002  0.2042809E+03  0.7818608E-02  0.1146177E+00
          1   -1    0    0  502    0  0.00000000000E+00  0.00000000000E+00  0.28455353100E+03  0.28455353100E+03  0.00000000000E+00 0. -1.
         -1   -1    0    0    0  501 -0.00000000000E+00 -0.00000000000E+00 -0.16495233062E+03  0.16495233062E+03  0.00000000000E+00 0.  1.
          6    1    1    2  502    0  0.10006473320E+03 -0.46192411130E+02 -0.15057914620E+02  0.20483512997E+03  0.17200000000E+03 0.  1.
         -6    1    1    2    0  501 -0.10006473320E+03  0.46192411130E+02  0.13465911500E+03  0.24467073166E+03  0.17200000000E+03 0.  1.
</event>
<event>
 4    1  0.3094855E-002  0.2263658E+03  0.7818608E-02  0.1129224E+00
         -3   -1    0    0    0  501 -0.00000000000E+00  0.00000000000E+00  0.24627711920E+03  0.24627711920E+03  0.00000000000E+00 0.  1.
          3   -1    0    0  502    0  0.00000000000E+00 -0.00000000000E+00 -0.21097207783E+03  0.21097207783E+03  0.00000000000E+00 0. -1.
          6    1    1    2  502    0 -0.12449914196E+02 -0.14663724975E+03  0.44492919441E+02  0.23069699447E+03  0.17200000000E+03 0.  1.
         -6    1    1    2    0  501  0.12449914196E+02  0.14663724975E+03 -0.91878780686E+01  0.22655220255E+03  0.17200000000E+03 0. -1.
</event>
<event>
 4    1  0.3094855E-002  0.2389202E+03  0.7818608E-02  0.1120514E+00
         -1   -1    0    0    0  501 -0.00000000000E+00  0.00000000000E+00  0.16528816978E+03  0.16528816978E+03  0.00000000000E+00 0.  1.
          1   -1    0    0  502    0  0.00000000000E+00 -0.00000000000E+00 -0.77063700377E+03  0.77063700377E+03  0.00000000000E+00 0. -1.
          6    1    1    2  502    0  0.16298201475E+02  0.16502498229E+03 -0.65031093005E+03  0.69281107229E+03  0.17200000000E+03 0. -1.
         -6    1    1    2    0  501 -0.16298201475E+02 -0.16502498229E+03  0.44962096061E+02  0.24311410126E+03  0.17200000000E+03 0.  1.
</event>
<event>
 4    1  0.3094855E-002  0.2649064E+03  0.7818608E-02  0.1104231E+00
          2   -1    0    0  502    0  0.00000000000E+00  0.00000000000E+00  0.11302204217E+04  0.11302204217E+04  0.00000000000E+00 0. -1.
         -2   -1    0    0    0  501 -0.00000000000E+00 -0.00000000000E+00 -0.65326997737E+02  0.65326997737E+02  0.00000000000E+00 0.  1.
          6    1    1    2  502    0 -0.16795496175E+03  0.11127684774E+03  0.39938274414E+03  0.47925148131E+03  0.17200000000E+03 0. -1.
         -6    1    1    2    0  501  0.16795496175E+03 -0.11127684774E+03  0.66551067978E+03  0.71629593809E+03  0.17200000000E+03 0.  1.
</event>
<event>
 4    1  0.3094855E-002  0.2601293E+03  0.7818608E-02  0.1107066E+00
          1   -1    0    0  502    0  0.00000000000E+00  0.00000000000E+00  0.11478069746E+04  0.11478069746E+04  0.00000000000E+00 0. -1.
         -1   -1    0    0    0  501 -0.00000000000E+00 -0.00000000000E+00 -0.60689852174E+02  0.60689852174E+02  0.00000000000E+00 0.  1.
          6    1    1    2  502    0  0.18920016520E+03 -0.47817960029E+02  0.44135310951E+03  0.51230833205E+03  0.17200000000E+03 0. -1.
         -6    1    1    2    0  501 -0.18920016520E+03  0.47817960029E+02  0.64576401291E+03  0.69618849473E+03  0.17200000000E+03 0. -1.
</event>
<event>
 4    1  0.3094855E-002  0.2290838E+03  0.7818608E-02  0.1127286E+00
          2   -1    0    0  502    0  0.00000000000E+00  0.00000000000E+00  0.10038553463E+04  0.10038553463E+04  0.00000000000E+00 0. -1.
         -2   -1    0    0    0  501 -0.00000000000E+00 -0.00000000000E+00 -0.10082091947E+03  0.10082091947E+03  0.00000000000E+00 0.  1.
          6    1    1    2  502    0  0.11414434374E+02 -0.15088111214E+03  0.68257370496E+02  0.23903654101E+03  0.17200000000E+03 0.  1.
         -6    1    1    2    0  501 -0.11414434374E+02  0.15088111214E+03  0.83477705634E+03  0.86563972478E+03  0.17200000000E+03 0. -1.
</event>
<event>
 4    1  0.3094855E-002  0.2437856E+03  0.7818608E-02  0.1117296E+00
         -1   -1    0    0    0  501 -0.00000000000E+00  0.00000000000E+00  0.54886956244E+02  0.54886956244E+02  0.00000000000E+00 0.  1.
          1   -1    0    0  502    0  0.00000000000E+00 -0.00000000000E+00 -0.17342831232E+04  0.17342831232E+04  0.00000000000E+00 0. -1.
          6    1    1    2  502    0 -0.15874238059E+03 -0.68178308003E+02 -0.29140312027E+03  0.37993052467E+03  0.17200000000E+03 0. -1.
         -6    1    1    2    0  501  0.15874238059E+03  0.68178308003E+02 -0.13879930467E+04  0.14092395548E+04  0.17200000000E+03 0. -1.
</event>
<event>
 4    1  0.3094855E-002  0.2341636E+03  0.7818608E-02  0.1123743E+00
          1   -1    0    0  502    0  0.00000000000E+00  0.00000000000E+00  0.44296501617E+03  0.44296501617E+03  0.00000000000E+00 0. -1.
         -1   -1    0    0    0  501 -0.00000000000E+00 -0.00000000000E+00 -0.14769002273E+03  0.14769002273E+03  0.00000000000E+00 0.  1.
          6    1    1    2  502    0 -0.16508715164E+02  0.15803815225E+03  0.26645198956E+03  0.35472419988E+03  0.17200000000E+03 0. -1.
         -6    1    1    2    0  501  0.16508715164E+02 -0.15803815225E+03  0.28823003882E+02  0.23593083901E+03  0.17200000000E+03 0.  1.
</event>
<event>
 4    1  0.3094855E-002  0.1766173E+03  0.7818608E-02  0.1171118E+00
         -2   -1    0    0    0  501 -0.00000000000E+00  0.00000000000E+00  0.18924196950E+03  0.18924196950E+03  0.00000000000E+00 0.  1.
          2   -1    0    0  502    0  0.00000000000E+00 -0.00000000000E+00 -0.16988367387E+03  0.16988367387E+03  0.00000000000E+00 0. -1.
          6    1    1    2  502    0 -0.21528660536E+02  0.33855484146E+02 -0.21276114463E+02  0.17789421036E+03  0.17200000000E+03 0. -1.
         -6    1    1    2    0  501  0.21528660536E+02 -0.33855484146E+02  0.40634410092E+02  0.18123143302E+03  0.17200000000E+03 0.  1.
</event>
<event>
 4    1  0.3094855E-002  0.2842541E+03  0.7818608E-02  0.1093388E+00
          1   -1    0    0  502    0  0.00000000000E+00  0.00000000000E+00  0.99413244205E+03  0.99413244205E+03  0.00000000000E+00 0. -1.
         -1   -1    0    0    0  501 -0.00000000000E+00 -0.00000000000E+00 -0.33376873316E+03  0.33376873316E+03  0.00000000000E+00 0.  1.
          6    1    1    2  502    0 -0.15032636258E+02  0.22581061874E+03  0.90766092019E+03  0.95113025487E+03  0.17200000000E+03 0. -1.
         -6    1    1    2    0  501  0.15032636258E+02 -0.22581061874E+03 -0.24729721131E+03  0.37677092034E+03  0.17200000000E+03 0.  1.
</event>
<event>
 4    1  0.3094855E-002  0.2376930E+03  0.7818608E-02  0.1121339E+00
          1   -1    0    0  502    0  0.00000000000E+00  0.00000000000E+00  0.10145906986E+04  0.10145906986E+04  0.00000000000E+00 0. -1.
         -1   -1    0    0    0  501 -0.00000000000E+00 -0.00000000000E+00 -0.92943575637E+02  0.92943575637E+02  0.00000000000E+00 0.  1.
          6    1    1    2  502    0  0.14429817871E+03 -0.78051273348E+02  0.81143642290E+03  0.84553357950E+03  0.17200000000E+03 0. -1.
         -6    1    1    2    0  501 -0.14429817871E+03  0.78051273348E+02  0.11021070011E+03  0.26200069479E+03  0.17200000000E+03 0.  1.
</event>
<event>
 4    1  0.3094855E-002  0.4136808E+03  0.7818608E-02  0.1039143E+00
         -2   -1    0    0    0  501 -0.00000000000E+00  0.00000000000E+00  0.64174266538E+03  0.64174266538E+03  0.00000000000E+00 0.  1.
          2   -1    0    0  502    0  0.00000000000E+00 -0.00000000000E+00 -0.26675296462E+03  0.26675296462E+03  0.00000000000E+00 0. -1.
          6    1    1    2  502    0  0.22934383032E+03  0.29824357160E+03  0.17935729025E+03  0.45088896424E+03  0.17200000000E+03 0. -1.
         -6    1    1    2    0  501 -0.22934383032E+03 -0.29824357160E+03  0.19563241051E+03  0.45760666576E+03  0.17200000000E+03 0.  1.
</event>
<event>
 4    1  0.3094855E-002  0.4351137E+03  0.7818608E-02  0.1032257E+00
         -2   -1    0    0    0  501 -0.00000000000E+00  0.00000000000E+00  0.19695570215E+03  0.19695570215E+03  0.00000000000E+00 0.  1.
          2   -1    0    0  502    0  0.00000000000E+00 -0.00000000000E+00 -0.98949560377E+03  0.98949560377E+03  0.00000000000E+00 0. -1.
          6    1    1    2  502    0 -0.25441920584E+03 -0.30823828511E+03 -0.29604483819E+03  0.52627608622E+03  0.17200000000E+03 0. -1.
         -6    1    1    2    0  501  0.25441920584E+03  0.30823828511E+03 -0.49649506343E+03  0.66017521971E+03  0.17200000000E+03 0.  1.
</event>
<event>
 4    1  0.3094855E-002  0.3111856E+03  0.7818608E-02  0.1079779E+00
         -1   -1    0    0    0  501 -0.00000000000E+00  0.00000000000E+00  0.11251661708E+03  0.11251661708E+03  0.00000000000E+00 0.  1.
          1   -1    0    0  502    0  0.00000000000E+00 -0.00000000000E+00 -0.10957358038E+04  0.10957358038E+04  0.00000000000E+00 0. -1.
          6    1    1    2  502    0 -0.15668176093E+03  0.20664773969E+03 -0.77144062097E+03  0.83183958443E+03  0.17200000000E+03 0. -1.
         -6    1    1    2    0  501  0.15668176093E+03 -0.20664773969E+03 -0.21177856572E+03  0.37641283642E+03  0.17200000000E+03 0.  1.
</event>
<event>
 4    1  0.3094855E-002  0.2052430E+03  0.7818608E-02  0.1145389E+00
         -1   -1    0    0    0  501 -0.00000000000E+00  0.00000000000E+00  0.14675069836E+03  0.14675069836E+03  0.00000000000E+00 0.  1.
          1   -1    0    0  502    0  0.00000000000E+00 -0.00000000000E+00 -0.37991532925E+03  0.37991532925E+03  0.00000000000E+00 0. -1.
          6    1    1    2  502    0 -0.10152978713E+03 -0.47248153534E+02 -0.24677612413E+03  0.32097218124E+03  0.17200000000E+03 0. -1.
         -6    1    1    2    0  501  0.10152978713E+03  0.47248153534E+02  0.13611493245E+02  0.20569384637E+03  0.17200000000E+03 0.  1.
</event>
<event>
 4    1  0.3094855E-002  0.1807546E+03  0.7818608E-02  0.1167075E+00
          2   -1    0    0  502    0  0.00000000000E+00  0.00000000000E+00  0.15480315483E+04  0.15480315483E+04  0.00000000000E+00 0. -1.
         -2   -1    0    0    0  501 -0.00000000000E+00 -0.00000000000E+00 -0.26966160609E+02  0.26966160609E+02  0.00000000000E+00 0.  1.
          6    1    1    2  502    0  0.56182694628E+01 -0.55287198146E+02  0.39341319666E+03  0.43295055437E+03  0.17200000000E+03 0.  1.
         -6    1    1    2    0  501 -0.56182694628E+01  0.55287198146E+02  0.11276521910E+04  0.11420471545E+04  0.17200000000E+03 0.  1.
</event>
<event>
 4    1  0.3094855E-002  0.1721351E+03  0.7818608E-02  0.1175639E+00
          1   -1    0    0  502    0  0.00000000000E+00  0.00000000000E+00  0.37595391577E+03  0.37595391577E+03  0.00000000000E+00 0. -1.
         -1   -1    0    0    0  501 -0.00000000000E+00 -0.00000000000E+00 -0.90185962573E+02  0.90185962573E+02  0.00000000000E+00 0.  1.
          6    1    1    2  502    0 -0.10749769936E+01  0.67327611666E+01  0.60121825099E+02  0.18233244226E+03  0.17200000000E+03 0.  1.
         -6    1    1    2    0  501  0.10749769936E+01 -0.67327611666E+01  0.22564612810E+03  0.28380743608E+03  0.17200000000E+03 0. -1.
</event>
<event>
 4    1  0.3094855E-002  0.1996577E+03  0.7818608E-02  0.1150028E+00
          2   -1    0    0  502    0  0.00000000000E+00  0.00000000000E+00  0.16344990864E+04  0.16344990864E+04  0.00000000000E+00 0. -1.
         -2   -1    0    0    0  501 -0.00000000000E+00 -0.00000000000E+00 -0.37932983070E+02  0.37932983070E+02  0.00000000000E+00 0.  1.
          6    1    1    2  502    0  0.13751018897E+02  0.10044962183E+03  0.12979595164E+04  0.13132258463E+04  0.17200000000E+03 0. -1.
         -6    1    1    2    0  501 -0.13751018897E+02 -0.10044962183E+03  0.29860658696E+03  0.35920622325E+03  0.17200000000E+03 0.  1.
</event>
<event>
 4    1  0.3094855E-002  0.2518626E+03  0.7818608E-02  0.1112133E+00
         -2   -1    0    0    0  501 -0.00000000000E+00  0.00000000000E+00  0.11414021664E+03  0.11414021664E+03  0.00000000000E+00 0.  1.
          2   -1    0    0  502    0  0.00000000000E+00 -0.00000000000E+00 -0.56803431711E+03  0.56803431711E+03  0.00000000000E+00 0. -1.
          6    1    1    2  502    0 -0.17167334639E+03  0.66174438276E+02 -0.27708212306E+03  0.37444531919E+03  0.17200000000E+03 0. -1.
         -6    1    1    2    0  501  0.17167334639E+03 -0.66174438276E+02 -0.17681197741E+03  0.30772921456E+03  0.17200000000E+03 0.  1.
</event>
<event>
 4    1  0.3094855E-002  0.3748600E+03  0.7818608E-02  0.1052850E+00
          2   -1    0    0  502    0  0.00000000000E+00  0.00000000000E+00  0.91784161086E+03  0.91784161086E+03  0.00000000000E+00 0. -1.
         -2   -1    0    0    0  501 -0.00000000000E+00 -0.00000000000E+00 -0.20914043001E+03  0.20914043001E+03  0.00000000000E+00 0.  1.
          6    1    1    2  502    0 -0.29344438944E+03 -0.15756407023E+03  0.64604296988E+03  0.74692139134E+03  0.17200000000E+03 0. -1.
         -6    1    1    2    0  501  0.29344438944E+03  0.15756407023E+03  0.62658210971E+02  0.38006064953E+03  0.17200000000E+03 0.  1.
</event>
<event>
 4    1  0.3094855E-002  0.1740815E+03  0.7818608E-02  0.1173657E+00
         -2   -1    0    0    0  501 -0.00000000000E+00  0.00000000000E+00  0.18792936566E+02  0.18792936566E+02  0.00000000000E+00 0.  1.
          2   -1    0    0  502    0  0.00000000000E+00 -0.00000000000E+00 -0.16410146981E+04  0.16410146981E+04  0.00000000000E+00 0. -1.
          6    1    1    2  502    0 -0.20644848965E+02  0.17151191134E+02 -0.92043010462E+03  0.93674753837E+03  0.17200000000E+03 0.  1.
         -6    1    1    2    0  501  0.20644848965E+02 -0.17151191134E+02 -0.70179165693E+03  0.72306009631E+03  0.17200000000E+03 0. -1.
</event>
<event>
 4    1  0.3094855E-002  0.1919846E+03  0.7818608E-02  0.1156683E+00
          2   -1    0    0  502    0  0.00000000000E+00  0.00000000000E+00  0.22036940650E+03  0.22036940650E+03  0.00000000000E+00 0. -1.
         -2   -1    0    0    0  501 -0.00000000000E+00 -0.00000000000E+00 -0.16729687238E+03  0.16729687238E+03  0.00000000000E+00 0.  1.
          6    1    1    2  502    0 -0.68450651036E+02 -0.50878200530E+02  0.23502782841E+02  0.19341784746E+03  0.17200000000E+03 0. -1.
         -6    1    1    2    0  501  0.68450651036E+02  0.50878200530E+02  0.29569751274E+02  0.19424843141E+03  0.17200000000E+03 0. -1.
</event>
<event>
 4    1  0.3094855E-002  0.2099588E+03  0.7818608E-02  0.1141599E+00
          2   -1    0    0  502    0  0.00000000000E+00  0.00000000000E+00  0.11177793160E+04  0.11177793160E+04  0.00000000000E+00 0. -1.
         -2   -1    0    0    0  501 -0.00000000000E+00 -0.00000000000E+00 -0.48903488765E+02  0.48903488765E+02  0.00000000000E+00 0.  1.
          6    1    1    2  502    0 -0.11549625950E+03 -0.34048722409E+02  0.79108133274E+03  0.81846953301E+03  0.17200000000E+03 0. -1.
         -6    1    1    2    0  501  0.11549625950E+03  0.34048722409E+02  0.27779449450E+03  0.34821327176E+03  0.17200000000E+03 0.  1.
</event>
<event>
 4    1  0.3094855E-002  0.2494683E+03  0.7818608E-02  0.1113641E+00
         -2   -1    0    0    0  501 -0.00000000000E+00  0.00000000000E+00  0.53366542595E+03  0.53366542595E+03  0.00000000000E+00 0.  1.
          2   -1    0    0  502    0  0.00000000000E+00 -0.00000000000E+00 -0.22816232850E+03  0.22816232850E+03  0.00000000000E+00 0. -1.
          6    1    1    2  502    0 -0.71777231166E+02 -0.16582656582E+03 -0.11358493672E+03  0.27410939184E+03  0.17200000000E+03 0. -1.
         -6    1    1    2    0  501  0.71777231166E+02  0.16582656582E+03  0.41908803417E+03  0.48771836261E+03  0.17200000000E+03 0.  1.
</event>
<event>
 4    1  0.3094855E-002  0.2150473E+03  0.7818608E-02  0.1137630E+00
         -2   -1    0    0    0  501 -0.00000000000E+00  0.00000000000E+00  0.20321967954E+03  0.20321967954E+03  0.00000000000E+00 0.  1.
          2   -1    0    0  502    0  0.00000000000E+00 -0.00000000000E+00 -0.12633808686E+04  0.12633808686E+04  0.00000000000E+00 0. -1.
          6    1    1    2  502    0  0.61253840881E+02  0.11361919888E+03 -0.11940626168E+04  0.12132728004E+04  0.17200000000E+03 0. -1.
         -6    1    1    2    0  501 -0.61253840881E+02 -0.11361919888E+03  0.13390142780E+03  0.25332774768E+03  0.17200000000E+03 0.  1.
</event>
<event>
 4    1  0.3094855E-002  0.1769802E+03  0.7818608E-02  0.1170758E+00
         -2   -1    0    0    0  501 -0.00000000000E+00  0.00000000000E+00  0.25478755502E+03  0.25478755502E+03  0.00000000000E+00 0.  1.
          2   -1    0    0  502    0  0.00000000000E+00 -0.00000000000E+00 -0.28540289853E+03  0.28540289853E+03  0.00000000000E+00 0. -1.
          6    1    1    2  502    0  0.21887099712E+01  0.41631713456E+02 -0.21909312023E+03  0.28164478576E+03  0.17200000000E+03 0. -1.
         -6    1    1    2    0  501 -0.21887099712E+01 -0.41631713456E+02  0.18847777672E+03  0.25854566779E+03  0.17200000000E+03 0.  1.
</event>
<event>
 4    1  0.3094855E-002  0.3278373E+03  0.7818608E-02  0.1072098E+00
          2   -1    0    0  502    0  0.00000000000E+00  0.00000000000E+00  0.60516803027E+03  0.60516803027E+03  0.00000000000E+00 0. -1.
         -2   -1    0    0    0  501 -0.00000000000E+00 -0.00000000000E+00 -0.19259967428E+03  0.19259967428E+03  0.00000000000E+00 0.  1.
          6    1    1    2  502    0  0.82456064250E+02 -0.26663517303E+03  0.94964450709E+02  0.34131446633E+03  0.17200000000E+03 0. -1.
         -6    1    1    2    0  501 -0.82456064250E+02  0.26663517303E+03  0.31760390528E+03  0.45645323822E+03  0.17200000000E+03 0. -1.
</event>
<event>
 4    1  0.3094855E-002  0.1963549E+03  0.7818608E-02  0.1152851E+00
          2   -1    0    0  502    0  0.00000000000E+00  0.00000000000E+00  0.15420388960E+04  0.15420388960E+04  0.00000000000E+00 0. -1.
         -2   -1    0    0    0  501 -0.00000000000E+00 -0.00000000000E+00 -0.26539120480E+02  0.26539120480E+02  0.00000000000E+00 0.  1.
          6    1    1    2  502    0 -0.46331045690E+02  0.82611731767E+02  0.94645174163E+03  0.96660548480E+03  0.17200000000E+03 0. -1.
         -6    1    1    2    0  501  0.46331045690E+02 -0.82611731767E+02  0.56904803393E+03  0.60197253172E+03  0.17200000000E+03 0.  1.
</event>
<event>
 4    1  0.3094855E-002  0.1850014E+03  0.7818608E-02  0.1163049E+00
         -2   -1    0    0    0  501 -0.00000000000E+00  0.00000000000E+00  0.33371571419E+02  0.33371571419E+02  0.00000000000E+00 0.  1.
          2   -1    0    0  502    0  0.00000000000E+00 -0.00000000000E+00 -0.18545122245E+04  0.18545122245E+04  0.00000000000E+00 0. -1.
          6    1    1    2  502    0 -0.34048940222E+02  0.59009966995E+02 -0.15416550182E+04  0.15527155894E+04  0.17200000000E+03 0. -1.
         -6    1    1    2    0  501  0.34048940222E+02 -0.59009966995E+02 -0.27948563490E+03  0.33516820651E+03  0.17200000000E+03 0.  1.
</event>
<event>
 4    1  0.3094855E-002  0.3203990E+03  0.7818608E-02  0.1075466E+00
          2   -1    0    0  502    0  0.00000000000E+00  0.00000000000E+00  0.40981068782E+03  0.40981068782E+03  0.00000000000E+00 0. -1.
         -2   -1    0    0    0  501 -0.00000000000E+00 -0.00000000000E+00 -0.28563964584E+03  0.28563964584E+03  0.00000000000E+00 0.  1.
          6    1    1    2  502    0  0.13788750131E+03 -0.23250500025E+03  0.18405644595E+03  0.36950279222E+03  0.17200000000E+03 0. -1.
         -6    1    1    2    0  501 -0.13788750131E+03  0.23250500025E+03 -0.59885403980E+02  0.32594754144E+03  0.17200000000E+03 0.  1.
</event>
<event>
 4    1  0.3094855E-002  0.3026321E+03  0.7818608E-02  0.1083932E+00
          1   -1    0    0  502    0  0.00000000000E+00  0.00000000000E+00  0.97409151390E+03  0.97409151390E+03  0.00000000000E+00 0. -1.
         -1   -1    0    0    0  501 -0.00000000000E+00 -0.00000000000E+00 -0.10286791008E+03  0.10286791008E+03  0.00000000000E+00 0.  1.
          6    1    1    2  502    0 -0.20805419442E+03  0.13680512120E+03  0.59351709883E+03  0.66621973523E+03  0.17200000000E+03 0. -1.
         -6    1    1    2    0  501  0.20805419442E+03 -0.13680512120E+03  0.27770650498E+03  0.41073968875E+03  0.17200000000E+03 0.  1.
</event>
<event>
 4    1  0.3094855E-002  0.2284028E+03  0.7818608E-02  0.1127769E+00
          1   -1    0    0  502    0  0.00000000000E+00  0.00000000000E+00  0.19628579234E+04  0.19628579234E+04  0.00000000000E+00 0. -1.
         -1   -1    0    0    0  501 -0.00000000000E+00 -0.00000000000E+00 -0.27053050956E+02  0.27053050956E+02  0.00000000000E+00 0.  1.
          6    1    1    2  502    0 -0.40556992356E+02 -0.14470297092E+03  0.10998200150E+04  0.11232861990E+04  0.17200000000E+03 0. -1.
         -6    1    1    2    0  501  0.40556992356E+02  0.14470297092E+03  0.83598485746E+03  0.86662477540E+03  0.17200000000E+03 0.  1.
</event>
<event>
 4    1  0.3094855E-002  0.9181294E+03  0.7818608E-02  0.9403198E-01
          1   -1    0    0  502    0  0.00000000000E+00  0.00000000000E+00  0.17064284596E+04  0.17064284596E+04  0.00000000000E+00 0. -1.
         -1   -1    0    0    0  501 -0.00000000000E+00 -0.00000000000E+00 -0.97457533177E+03  0.97457533177E+03  0.00000000000E+00 0.  1.
          6    1    1    2  502    0 -0.60573911120E+03  0.66817497187E+03  0.13072614808E+04  0.15974649427E+04  0.17200000000E+03 0. -1.
         -6    1    1    2    0  501  0.60573911120E+03 -0.66817497187E+03 -0.57540835300E+03  0.10835388487E+04  0.17200000000E+03 0.  1.
</event>
<event>
 4    1  0.3094855E-002  0.2510905E+03  0.7818608E-02  0.1112618E+00
          1   -1    0    0  502    0  0.00000000000E+00  0.00000000000E+00  0.89833317448E+03  0.89833317448E+03  0.00000000000E+00 0. -1.
         -1   -1    0    0    0  501 -0.00000000000E+00 -0.00000000000E+00 -0.71106664184E+02  0.71106664184E+02  0.00000000000E+00 0.  1.
          6    1    1    2  502    0 -0.18097496900E+03 -0.26654942914E+02  0.35832529503E+03  0.43754250359E+03  0.17200000000E+03 0. -1.
         -6    1    1    2    0  501  0.18097496900E+03  0.26654942914E+02  0.46890121526E+03  0.53189733507E+03  0.17200000000E+03 0.  1.
</event>
<event>
 4    1  0.3094855E-002  0.2896342E+03  0.7818608E-02  0.1090540E+00
         -2   -1    0    0    0  501 -0.00000000000E+00  0.00000000000E+00  0.28509867094E+03  0.28509867094E+03  0.00000000000E+00 0.  1.
          2   -1    0    0  502    0  0.00000000000E+00 -0.00000000000E+00 -0.49021718525E+03  0.49021718525E+03  0.00000000000E+00 0. -1.
          6    1    1    2  502    0 -0.16534129241E+02 -0.23244484110E+03 -0.34766587080E+03  0.45250363457E+03  0.17200000000E+03 0. -1.
         -6    1    1    2    0  501  0.16534129241E+02  0.23244484110E+03  0.14254735649E+03  0.32281222162E+03  0.17200000000E+03 0.  1.
</event>
<event>
 4    1  0.3094855E-002  0.2004336E+03  0.7818608E-02  0.1149374E+00
         -1   -1    0    0    0  501 -0.00000000000E+00  0.00000000000E+00  0.59620331967E+03  0.59620331967E+03  0.00000000000E+00 0.  1.
          1   -1    0    0  502    0  0.00000000000E+00 -0.00000000000E+00 -0.10217125756E+03  0.10217125756E+03  0.00000000000E+00 0. -1.
          6    1    1    2  502    0  0.99662186407E+02 -0.25633408289E+02  0.43258340511E+02  0.20504854802E+03  0.17200000000E+03 0. -1.
         -6    1    1    2    0  501 -0.99662186407E+02  0.25633408289E+02  0.45077372160E+03  0.49332602921E+03  0.17200000000E+03 0.  1.
</event>
<event>
 4    1  0.3094855E-002  0.2676832E+03  0.7818608E-02  0.1102613E+00
          1   -1    0    0  502    0  0.00000000000E+00  0.00000000000E+00  0.16374011548E+04  0.16374011548E+04  0.00000000000E+00 0. -1.
         -1   -1    0    0    0  501 -0.00000000000E+00 -0.00000000000E+00 -0.55924358762E+02  0.55924358762E+02  0.00000000000E+00 0.  1.
          6    1    1    2  502    0 -0.17540137823E+03  0.10632326049E+03  0.11855928735E+04  0.12154360292E+04  0.17200000000E+03 0. -1.
         -6    1    1    2    0  501  0.17540137823E+03 -0.10632326049E+03  0.39588392250E+03  0.47788948440E+03  0.17200000000E+03 0.  1.
</event>
<event>
 4    1  0.3094855E-002  0.2080174E+03  0.7818608E-02  0.1143146E+00
         -2   -1    0    0    0  501 -0.00000000000E+00  0.00000000000E+00  0.51939899725E+03  0.51939899725E+03  0.00000000000E+00 0.  1.
          2   -1    0    0  502    0  0.00000000000E+00 -0.00000000000E+00 -0.46596665782E+03  0.46596665782E+03  0.00000000000E+00 0. -1.
          6    1    1    2  502    0 -0.10190912442E+03 -0.57461130291E+02 -0.41975611980E+03  0.46847246584E+03  0.17200000000E+03 0. -1.
         -6    1    1    2    0  501  0.10190912442E+03  0.57461130291E+02  0.47318845923E+03  0.51689318924E+03  0.17200000000E+03 0.  1.
</event>
<event>
 4    1  0.3094855E-002  0.6763079E+03  0.7818608E-02  0.9758629E-01
          2   -1    0    0  502    0  0.00000000000E+00  0.00000000000E+00  0.85915721882E+03  0.85915721882E+03  0.00000000000E+00 0. -1.
         -2   -1    0    0    0  501 -0.00000000000E+00 -0.00000000000E+00 -0.12595759788E+04  0.12595759788E+04  0.00000000000E+00 0.  1.
          6    1    1    2  502    0  0.19620143072E+03  0.62394986970E+03  0.60472744993E+03  0.90724182554E+03  0.17200000000E+03 0. -1.
         -6    1    1    2    0  501 -0.19620143072E+03 -0.62394986970E+03 -0.10051462099E+04  0.12114913721E+04  0.17200000000E+03 0.  1.
</event>
<event>
 4    1  0.3094855E-002  0.1779586E+03  0.7818608E-02  0.1169793E+00
         -1   -1    0    0    0  501 -0.00000000000E+00  0.00000000000E+00  0.89775213433E+02  0.89775213433E+02  0.00000000000E+00 0.  1.
          1   -1    0    0  502    0  0.00000000000E+00 -0.00000000000E+00 -0.44419620898E+03  0.44419620898E+03  0.00000000000E+00 0. -1.
          6    1    1    2  502    0  0.32560683588E+02 -0.32016773959E+02 -0.29834148764E+03  0.34738583042E+03  0.17200000000E+03 0. -1.
         -6    1    1    2    0  501 -0.32560683588E+02  0.32016773959E+02 -0.56079507901E+02  0.18658559199E+03  0.17200000000E+03 0.  1.
</event>
<event>
 4    1  0.3094855E-002  0.1732195E+03  0.7818608E-02  0.1174531E+00
          1   -1    0    0  502    0  0.00000000000E+00  0.00000000000E+00  0.58802446400E+03  0.58802446400E+03  0.00000000000E+00 0. -1.
         -1   -1    0    0    0  501 -0.00000000000E+00 -0.00000000000E+00 -0.51032913434E+02  0.51032913434E+02  0.00000000000E+00 0.  1.
          6    1    1    2  502    0  0.19173518319E+02 -0.73065223799E+01  0.27199188482E+03  0.32246642380E+03  0.17200000000E+03 0. -1.
         -6    1    1    2    0  501 -0.19173518319E+02  0.73065223799E+01  0.26499966575E+03  0.31659095364E+03  0.17200000000E+03 0.  1.
</event>
<event>
 4    1  0.3094855E-002  0.1835313E+03  0.7818608E-02  0.1164429E+00
         -2   -1    0    0    0  501 -0.00000000000E+00  0.00000000000E+00  0.26170009794E+02  0.26170009794E+02  0.00000000000E+00 0.  1.
          2   -1    0    0  502    0  0.00000000000E+00 -0.00000000000E+00 -0.13114409019E+04  0.13114409019E+04  0.00000000000E+00 0. -1.
          6    1    1    2  502    0 -0.36907936336E+00 -0.64028011994E+02 -0.73372959576E+03  0.75633513884E+03  0.17200000000E+03 0.  1.
         -6    1    1    2    0  501  0.36907936336E+00  0.64028011994E+02 -0.55154129633E+03  0.58127577285E+03  0.17200000000E+03 0.  1.
</event>
<event>
 4    1  0.3094855E-002  0.1896888E+03  0.7818608E-02  0.1158742E+00
         -1   -1    0    0    0  501 -0.00000000000E+00  0.00000000000E+00  0.17886084735E+03  0.17886084735E+03  0.00000000000E+00 0.  1.
          1   -1    0    0  502    0  0.00000000000E+00 -0.00000000000E+00 -0.78262794588E+03  0.78262794588E+03  0.00000000000E+00 0. -1.
          6    1    1    2  502    0 -0.77939877249E+02 -0.17978370571E+02 -0.71625979829E+03  0.74095205305E+03  0.17200000000E+03 0. -1.
         -6    1    1    2    0  501  0.77939877249E+02  0.17978370571E+02  0.11249269976E+03  0.22053674019E+03  0.17200000000E+03 0.  1.
</event>
<event>
 4    1  0.3094855E-002  0.4301072E+03  0.7818608E-02  0.1033826E+00
         -2   -1    0    0    0  501 -0.00000000000E+00  0.00000000000E+00  0.12466663439E+03  0.12466663439E+03  0.00000000000E+00 0.  1.
          2   -1    0    0  502    0  0.00000000000E+00 -0.00000000000E+00 -0.15459981019E+04  0.15459981019E+04  0.00000000000E+00 0. -1.
          6    1    1    2  502    0 -0.32586782415E+01 -0.39420499244E+03 -0.54324413320E+03  0.69289709431E+03  0.17200000000E+03 0. -1.
         -6    1    1    2    0  501  0.32586782415E+01  0.39420499244E+03 -0.87808733432E+03  0.97776764200E+03  0.17200000000E+03 0. -1.
</event>
<event>
 4    1  0.3094855E-002  0.2449277E+03  0.7818608E-02  0.1116553E+00
         -2   -1    0    0    0  501 -0.00000000000E+00  0.00000000000E+00  0.68357099456E+02  0.68357099456E+02  0.00000000000E+00 0.  1.
          2   -1    0    0  502    0  0.00000000000E+00 -0.00000000000E+00 -0.10388738372E+04  0.10388738372E+04  0.00000000000E+00 0. -1.
          6    1    1    2  502    0  0.17248710078E+03  0.25569248626E+02 -0.70339101585E+03  0.74481441151E+03  0.17200000000E+03 0. -1.
         -6    1    1    2    0  501 -0.17248710078E+03 -0.25569248626E+02 -0.26712572192E+03  0.36241652518E+03  0.17200000000E+03 0.  1.
</event>
<event>
 4    1  0.3094855E-002  0.1907867E+03  0.7818608E-02  0.1157754E+00
          1   -1    0    0  502    0  0.00000000000E+00  0.00000000000E+00  0.13267587796E+04  0.13267587796E+04  0.00000000000E+00 0. -1.
         -1   -1    0    0    0  501 -0.00000000000E+00 -0.00000000000E+00 -0.28075818904E+02  0.28075818904E+02  0.00000000000E+00 0.  1.
          6    1    1    2  502    0  0.38739973357E+02 -0.72902656349E+02  0.75168704667E+03  0.77552111446E+03  0.17200000000E+03 0. -1.
         -6    1    1    2    0  501 -0.38739973357E+02  0.72902656349E+02  0.54699591407E+03  0.57931348408E+03  0.17200000000E+03 0.  1.
</event>
<event>
 4    1  0.3094855E-002  0.3097815E+03  0.7818608E-02  0.1080451E+00
          2   -1    0    0  502    0  0.00000000000E+00  0.00000000000E+00  0.29802313143E+04  0.29802313143E+04  0.00000000000E+00 0. -1.
         -2   -1    0    0    0  501 -0.00000000000E+00 -0.00000000000E+00 -0.32201893634E+02  0.32201893634E+02  0.00000000000E+00 0.  1.
          6    1    1    2  502    0  0.25682587018E+03 -0.20519445293E+02  0.14843476897E+04  0.15163286712E+04  0.17200000000E+03 0. -1.
         -6    1    1    2    0  501 -0.25682587018E+03  0.20519445293E+02  0.14636817309E+04  0.14961045367E+04  0.17200000000E+03 0.  1.
</event>
<event>
 4    1  0.3094855E-002  0.1839804E+03  0.7818608E-02  0.1164005E+00
          2   -1    0    0  502    0  0.00000000000E+00  0.00000000000E+00  0.22431813894E+04  0.22431813894E+04  0.00000000000E+00 0. -1.
         -2   -1    0    0    0  501 -0.00000000000E+00 -0.00000000000E+00 -0.18050008131E+02  0.18050008131E+02  0.00000000000E+00 0.  1.
          6    1    1    2  502    0 -0.63744729466E+01  0.64993397264E+02  0.65468750174E+03  0.68004742520E+03  0.17200000000E+03 0.  1.
         -6    1    1    2    0  501  0.63744729466E+01 -0.64993397264E+02  0.15704438796E+04  0.15811839724E+04  0.17200000000E+03 0. -1.
</event>
<event>
 4    1  0.3094855E-002  0.2641853E+03  0.7818608E-02  0.1104654E+00
         -1   -1    0    0    0  501 -0.00000000000E+00  0.00000000000E+00  0.14923063244E+04  0.14923063244E+04  0.00000000000E+00 0.  1.
          1   -1    0    0  502    0  0.00000000000E+00 -0.00000000000E+00 -0.16181883134E+03  0.16181883134E+03  0.00000000000E+00 0. -1.
          6    1    1    2  502    0 -0.15879501100E+03  0.12245003919E+03 -0.32131598763E+02  0.26613212368E+03  0.17200000000E+03 0. -1.
         -6    1    1    2    0  501  0.15879501100E+03 -0.12245003919E+03  0.13626190918E+04  0.13879930320E+04  0.17200000000E+03 0.  1.
</event>
<event>
 4    1  0.3094855E-002  0.4368632E+03  0.7818608E-02  0.1031714E+00
         -2   -1    0    0    0  501 -0.00000000000E+00  0.00000000000E+00  0.12540393016E+03  0.12540393016E+03  0.00000000000E+00 0.  1.
          2   -1    0    0  502    0  0.00000000000E+00 -0.00000000000E+00 -0.17476109625E+04  0.17476109625E+04  0.00000000000E+00 0. -1.
          6    1    1    2  502    0  0.40154852040E+03  0.49264924520E+01 -0.11476819839E+04  0.12280160506E+04  0.17200000000E+03 0. -1.
         -6    1    1    2    0  501 -0.40154852040E+03 -0.49264924520E+01 -0.47452504847E+03  0.64499884200E+03  0.17200000000E+03 0.  1.
</event>
<event>
 4    1  0.3094855E-002  0.2135031E+03  0.7818608E-02  0.1138822E+00
          2   -1    0    0  502    0  0.00000000000E+00  0.00000000000E+00  0.54000591196E+02  0.54000591196E+02  0.00000000000E+00 0. -1.
         -2   -1    0    0    0  501 -0.00000000000E+00 -0.00000000000E+00 -0.10229492191E+04  0.10229492191E+04  0.00000000000E+00 0.  1.
          6    1    1    2  502    0 -0.72950266680E+02 -0.10333349624E+03 -0.25933840628E+03  0.33591659951E+03  0.17200000000E+03 0.  1.
         -6    1    1    2    0  501  0.72950266680E+02  0.10333349624E+03 -0.70961022159E+03  0.74103321076E+03  0.17200000000E+03 0.  1.
</event>
<event>
 4    1  0.3094855E-002  0.1980613E+03  0.7818608E-02  0.1151385E+00
         -2   -1    0    0    0  501 -0.00000000000E+00  0.00000000000E+00  0.31259115503E+02  0.31259115503E+02  0.00000000000E+00 0.  1.
          2   -1    0    0  502    0  0.00000000000E+00 -0.00000000000E+00 -0.13208523638E+04  0.13208523638E+04  0.00000000000E+00 0. -1.
          6    1    1    2  502    0 -0.83741534063E+02  0.51299326940E+02 -0.79581992788E+03  0.82009610601E+03  0.17200000000E+03 0. -1.
         -6    1    1    2    0  501  0.83741534063E+02 -0.51299326940E+02 -0.49377332043E+03  0.53201537331E+03  0.17200000000E+03 0.  1.
</event>
<event>
 4    1  0.3094855E-002  0.1952590E+03  0.7818608E-02  0.1153802E+00
         -3   -1    0    0    0  501 -0.00000000000E+00  0.00000000000E+00  0.20108906840E+03  0.20108906840E+03  0.00000000000E+00 0.  1.
          3   -1    0    0  502    0  0.00000000000E+00 -0.00000000000E+00 -0.19041479292E+03  0.19041479292E+03  0.00000000000E+00 0. -1.
          6    1    1    2  502    0  0.78103765139E+02 -0.49415512027E+02  0.18157611321E+02  0.19610147834E+03  0.17200000000E+03 0. -1.
         -6    1    1    2    0  501 -0.78103765139E+02  0.49415512027E+02 -0.74833358377E+01  0.19540238298E+03  0.17200000000E+03 0.  1.
</event>
<event>
 4    1  0.3094855E-002  0.4844522E+03  0.7818608E-02  0.1017919E+00
         -1   -1    0    0    0  501 -0.00000000000E+00  0.00000000000E+00  0.26360540828E+03  0.26360540828E+03  0.00000000000E+00 0.  1.
          1   -1    0    0  502    0  0.00000000000E+00 -0.00000000000E+00 -0.12733402906E+04  0.12733402906E+04  0.00000000000E+00 0. -1.
          6    1    1    2  502    0 -0.29404428141E+03 -0.34445305879E+03 -0.92633630502E+03  0.10453673513E+04  0.17200000000E+03 0. -1.
         -6    1    1    2    0  501  0.29404428141E+03  0.34445305879E+03 -0.83398577320E+02  0.49157834761E+03  0.17200000000E+03 0.  1.
</event>
<event>
 4    1  0.3094855E-002  0.1762342E+03  0.7818608E-02  0.1171498E+00
          2   -1    0    0  502    0  0.00000000000E+00  0.00000000000E+00  0.72642151114E+03  0.72642151114E+03  0.00000000000E+00 0. -1.
         -2   -1    0    0    0  501 -0.00000000000E+00 -0.00000000000E+00 -0.54527256481E+02  0.54527256481E+02  0.00000000000E+00 0.  1.
          6    1    1    2  502    0 -0.15335374640E+02  0.35203765431E+02  0.51737636524E+03  0.54656818616E+03  0.17200000000E+03 0. -1.
         -6    1    1    2    0  501  0.15335374640E+02 -0.35203765431E+02  0.15451788943E+03  0.23438058147E+03  0.17200000000E+03 0.  1.
</event>
<event>
 4    1  0.3094855E-002  0.2123524E+03  0.7818608E-02  0.1139717E+00
          2   -1    0    0  502    0  0.00000000000E+00  0.00000000000E+00  0.73809068683E+03  0.73809068683E+03  0.00000000000E+00 0. -1.
         -2   -1    0    0    0  501 -0.00000000000E+00 -0.00000000000E+00 -0.86745636805E+02  0.86745636805E+02  0.00000000000E+00 0.  1.
          6    1    1    2  502    0 -0.54354445419E+02 -0.11204977204E+03  0.54993887198E+03  0.58951363010E+03  0.17200000000E+03 0.  1.
         -6    1    1    2    0  501  0.54354445419E+02  0.11204977204E+03  0.10140617804E+03  0.23532269354E+03  0.17200000000E+03 0.  1.
</event>
<event>
 4    1  0.3094855E-002  0.2986486E+03  0.7818608E-02  0.1085918E+00
         -2   -1    0    0    0  501 -0.00000000000E+00  0.00000000000E+00  0.45322373074E+02  0.45322373074E+02  0.00000000000E+00 0.  1.
          2   -1    0    0  502    0  0.00000000000E+00 -0.00000000000E+00 -0.25794842297E+04  0.25794842297E+04  0.00000000000E+00 0. -1.
          6    1    1    2  502    0 -0.24606155000E+01  0.24413301561E+03 -0.19061098395E+04  0.19293640673E+04  0.17200000000E+03 0. -1.
         -6    1    1    2    0  501  0.24606155000E+01 -0.24413301561E+03 -0.62805201716E+03  0.69544253551E+03  0.17200000000E+03 0.  1.
</event>
<event>
 4    1  0.3094855E-002  0.2356950E+03  0.7818608E-02  0.1122694E+00
         -1   -1    0    0    0  501 -0.00000000000E+00  0.00000000000E+00  0.34466903297E+03  0.34466903297E+03  0.00000000000E+00 0.  1.
          1   -1    0    0  502    0  0.00000000000E+00 -0.00000000000E+00 -0.16219465469E+03  0.16219465469E+03  0.00000000000E+00 0. -1.
          6    1    1    2  502    0 -0.49761556435E+02  0.15327071018E+03  0.71145668755E+02  0.24619875971E+03  0.17200000000E+03 0. -1.
         -6    1    1    2    0  501  0.49761556435E+02 -0.15327071018E+03  0.11132870952E+03  0.26066492795E+03  0.17200000000E+03 0. -1.
</event>
<event>
 4    1  0.3094855E-002  0.2423234E+03  0.7818608E-02  0.1118255E+00
         -2   -1    0    0    0  501 -0.00000000000E+00  0.00000000000E+00  0.78528372770E+02  0.78528372770E+02  0.00000000000E+00 0.  1.
          2   -1    0    0  502    0  0.00000000000E+00 -0.00000000000E+00 -0.77333569521E+03  0.77333569521E+03  0.00000000000E+00 0. -1.
          6    1    1    2  502    0 -0.14486003241E+03  0.90289612104E+02 -0.26995014692E+03  0.36275849386E+03  0.17200000000E+03 0.  1.
         -6    1    1    2    0  501  0.14486003241E+03 -0.90289612104E+02 -0.42485717552E+03  0.48910557412E+03  0.17200000000E+03 0.  1.
</event>
<event>
 4    1  0.3094855E-002  0.2081560E+03  0.7818608E-02  0.1143035E+00
         -1   -1    0    0    0  501 -0.00000000000E+00  0.00000000000E+00  0.44419670364E+03  0.44419670364E+03  0.00000000000E+00 0.  1.
          1   -1    0    0  502    0  0.00000000000E+00 -0.00000000000E+00 -0.17573190243E+03  0.17573190243E+03  0.00000000000E+00 0. -1.
          6    1    1    2  502    0 -0.92878169001E+02 -0.71544194843E+02  0.34098686169E+03  0.39950089604E+03  0.17200000000E+03 0.  1.
         -6    1    1    2    0  501  0.92878169001E+02  0.71544194843E+02 -0.72522060478E+02  0.22042771003E+03  0.17200000000E+03 0. -1.
</event>
<event>
 4    1  0.3094855E-002  0.2526696E+03  0.7818608E-02  0.1111629E+00
          2   -1    0    0  502    0  0.00000000000E+00  0.00000000000E+00  0.59089385923E+03  0.59089385923E+03  0.00000000000E+00 0. -1.
         -2   -1    0    0    0  501 -0.00000000000E+00 -0.00000000000E+00 -0.10858082401E+03  0.10858082401E+03  0.00000000000E+00 0.  1.
          6    1    1    2  502    0 -0.52158550179E+02 -0.17758770645E+03  0.21654088053E+03  0.33276397158E+03  0.17200000000E+03 0. -1.
         -6    1    1    2    0  501  0.52158550179E+02  0.17758770645E+03  0.26577215469E+03  0.36671071166E+03  0.17200000000E+03 0.  1.
</event>
<event>
 4    1  0.3094855E-002  0.2481097E+03  0.7818608E-02  0.1114505E+00
         -2   -1    0    0    0  501 -0.00000000000E+00  0.00000000000E+00  0.44467976482E+03  0.44467976482E+03  0.00000000000E+00 0.  1.
          2   -1    0    0  502    0  0.00000000000E+00 -0.00000000000E+00 -0.19989168975E+03  0.19989168975E+03  0.00000000000E+00 0. -1.
          6    1    1    2  502    0  0.27662007187E+02  0.17666134173E+03 -0.56310202049E+02  0.25441944729E+03  0.17200000000E+03 0. -1.
         -6    1    1    2    0  501 -0.27662007187E+02 -0.17666134173E+03  0.30109827711E+03  0.39015200728E+03  0.17200000000E+03 0.  1.
</event>
<event>
 4    1  0.3094855E-002  0.1825027E+03  0.7818608E-02  0.1165403E+00
         -1   -1    0    0    0  501 -0.00000000000E+00  0.00000000000E+00  0.89727272203E+02  0.89727272203E+02  0.00000000000E+00 0.  1.
          1   -1    0    0  502    0  0.00000000000E+00 -0.00000000000E+00 -0.37232702962E+03  0.37232702962E+03  0.00000000000E+00 0. -1.
          6    1    1    2  502    0  0.15009901454E+02 -0.59143333503E+02 -0.12861863063E+03  0.22327109796E+03  0.17200000000E+03 0.  1.
         -6    1    1    2    0  501 -0.15009901454E+02  0.59143333503E+02 -0.15398112678E+03  0.23878320386E+03  0.17200000000E+03 0. -1.
</event>
<event>
 4    1  0.3094855E-002  0.2343831E+03  0.7818608E-02  0.1123592E+00
          2   -1    0    0  502    0  0.00000000000E+00  0.00000000000E+00  0.10971793537E+04  0.10971793537E+04  0.00000000000E+00 0. -1.
         -2   -1    0    0    0  501 -0.00000000000E+00 -0.00000000000E+00 -0.52424772968E+02  0.52424772968E+02  0.00000000000E+00 0.  1.
          6    1    1    2  502    0 -0.20181242515E+02 -0.15793722054E+03  0.40054802461E+03  0.46408422533E+03  0.17200000000E+03 0. -1.
         -6    1    1    2    0  501  0.20181242515E+02  0.15793722054E+03  0.64420655616E+03  0.68551990137E+03  0.17200000000E+03 0. -1.
</event>
<event>
 4    1  0.3094855E-002  0.2666954E+03  0.7818608E-02  0.1103186E+00
         -2   -1    0    0    0  501 -0.00000000000E+00  0.00000000000E+00  0.96798207991E+02  0.96798207991E+02  0.00000000000E+00 0.  1.
          2   -1    0    0  502    0  0.00000000000E+00 -0.00000000000E+00 -0.85034481880E+03  0.85034481880E+03  0.00000000000E+00 0. -1.
          6    1    1    2  502    0 -0.17303354104E+03 -0.10771191086E+03 -0.55134747801E+03  0.61246265484E+03  0.17200000000E+03 0. -1.
         -6    1    1    2    0  501  0.17303354104E+03  0.10771191086E+03 -0.20219913280E+03  0.33468037195E+03  0.17200000000E+03 0.  1.
</event>
<event>
 4    1  0.3094855E-002  0.2620638E+03  0.7818608E-02  0.1105910E+00
         -2   -1    0    0    0  501 -0.00000000000E+00  0.00000000000E+00  0.38033995317E+03  0.38033995317E+03  0.00000000000E+00 0.  1.
          2   -1    0    0  502    0  0.00000000000E+00 -0.00000000000E+00 -0.34063586081E+03  0.34063586081E+03  0.00000000000E+00 0. -1.
          6    1    1    2  502    0 -0.16878877141E+03 -0.10297476244E+03 -0.22726162909E+03  0.34687937256E+03  0.17200000000E+03 0. -1.
         -6    1    1    2    0  501  0.16878877141E+03  0.10297476244E+03  0.26696572145E+03  0.37409644142E+03  0.17200000000E+03 0.  1.
</event>
<event>
 4    1  0.3094855E-002  0.2731066E+03  0.7818608E-02  0.1099515E+00
         -2   -1    0    0    0  501 -0.00000000000E+00  0.00000000000E+00  0.16863590682E+03  0.16863590682E+03  0.00000000000E+00 0.  1.
          2   -1    0    0  502    0  0.00000000000E+00 -0.00000000000E+00 -0.13600805373E+04  0.13600805373E+04  0.00000000000E+00 0. -1.
          6    1    1    2  502    0  0.15433843494E+03 -0.14554329338E+03 -0.12236139458E+04  0.12537217758E+04  0.17200000000E+03 0. -1.
         -6    1    1    2    0  501 -0.15433843494E+03  0.14554329338E+03  0.32169315339E+02  0.27499466831E+03  0.17200000000E+03 0.  1.
</event>
<event>
 4    1  0.3094855E-002  0.3071795E+03  0.7818608E-02  0.1081706E+00
          1   -1    0    0  502    0  0.00000000000E+00  0.00000000000E+00  0.99459916260E+03  0.99459916260E+03  0.00000000000E+00 0. -1.
         -1   -1    0    0    0  501 -0.00000000000E+00 -0.00000000000E+00 -0.10422359198E+03  0.10422359198E+03  0.00000000000E+00 0.  1.
          6    1    1    2  502    0 -0.12484891197E+03  0.22178371703E+03  0.60976337935E+03  0.68276690514E+03  0.17200000000E+03 0.  1.
         -6    1    1    2    0  501  0.12484891197E+03 -0.22178371703E+03  0.28061219127E+03  0.41605584944E+03  0.17200000000E+03 0.  1.
</event>
<event>
 4    1  0.3094855E-002  0.1755937E+03  0.7818608E-02  0.1172137E+00
          2   -1    0    0  502    0  0.00000000000E+00  0.00000000000E+00  0.36329176624E+03  0.36329176624E+03  0.00000000000E+00 0. -1.
         -2   -1    0    0    0  501 -0.00000000000E+00 -0.00000000000E+00 -0.18659282507E+03  0.18659282507E+03  0.00000000000E+00 0.  1.
          6    1    1    2  502    0 -0.27887229373E+02 -0.21713086796E+02  0.29135125822E+03  0.34017453074E+03  0.17200000000E+03 0. -1.
         -6    1    1    2    0  501  0.27887229373E+02  0.21713086796E+02 -0.11465231705E+03  0.20971006057E+03  0.17200000000E+03 0.  1.
</event>
<event>
 4    1  0.3094855E-002  0.1816829E+03  0.7818608E-02  0.1166184E+00
          2   -1    0    0  502    0  0.00000000000E+00  0.00000000000E+00  0.26423783990E+04  0.26423783990E+04  0.00000000000E+00 0. -1.
         -2   -1    0    0    0  501 -0.00000000000E+00 -0.00000000000E+00 -0.16347722795E+02  0.16347722795E+02  0.00000000000E+00 0.  1.
          6    1    1    2  502    0  0.19381062508E+01  0.58488503783E+02  0.19586195812E+04  0.19670280439E+04  0.17200000000E+03 0. -1.
         -6    1    1    2    0  501 -0.19381062508E+01 -0.58488503783E+02  0.66741109495E+03  0.69169807792E+03  0.17200000000E+03 0.  1.
</event>
<event>
 4    1  0.3094855E-002  0.2082674E+03  0.7818608E-02  0.1142945E+00
          1   -1    0    0  502    0  0.00000000000E+00  0.00000000000E+00  0.30006433577E+03  0.30006433577E+03  0.00000000000E+00 0. -1.
         -1   -1    0    0    0  501 -0.00000000000E+00 -0.00000000000E+00 -0.15056781433E+03  0.15056781433E+03  0.00000000000E+00 0.  1.
          6    1    1    2  502    0  0.11616136896E+03  0.17258072544E+02  0.29715910808E+02  0.21037666235E+03  0.17200000000E+03 0.  1.
         -6    1    1    2    0  501 -0.11616136896E+03 -0.17258072544E+02  0.11978061063E+03  0.24025548774E+03  0.17200000000E+03 0. -1.
</event>
<event>
 4    1  0.3094855E-002  0.3343467E+03  0.7818608E-02  0.1069230E+00
          1   -1    0    0  502    0  0.00000000000E+00  0.00000000000E+00  0.80668872866E+02  0.80668872866E+02  0.00000000000E+00 0. -1.
         -1   -1    0    0    0  501 -0.00000000000E+00 -0.00000000000E+00 -0.13868962115E+04  0.13868962115E+04  0.00000000000E+00 0.  1.
          6    1    1    2  502    0 -0.28666749719E+03 -0.50459538906E+01 -0.63211307675E+03  0.71509066376E+03  0.17200000000E+03 0. -1.
         -6    1    1    2    0  501  0.28666749719E+03  0.50459538906E+01 -0.67411426192E+03  0.75247442065E+03  0.17200000000E+03 0.  1.
</event>
<event>
 4    1  0.3094855E-002  0.1767900E+03  0.7818608E-02  0.1170946E+00
         -2   -1    0    0    0  501 -0.00000000000E+00  0.00000000000E+00  0.34377501484E+03  0.34377501484E+03  0.00000000000E+00 0.  1.
          2   -1    0    0  502    0  0.00000000000E+00 -0.00000000000E+00 -0.10593188857E+03  0.10593188857E+03  0.00000000000E+00 0. -1.
          6    1    1    2  502    0  0.38256887062E+02  0.14391195329E+02  0.20357795545E+03  0.26962692717E+03  0.17200000000E+03 0.  1.
         -6    1    1    2    0  501 -0.38256887062E+02 -0.14391195329E+02  0.34265170823E+02  0.18007997624E+03  0.17200000000E+03 0. -1.
</event>
<event>
 4    1  0.3094855E-002  0.2134877E+03  0.7818608E-02  0.1138834E+00
         -2   -1    0    0    0  501 -0.00000000000E+00  0.00000000000E+00  0.70738510095E+02  0.70738510095E+02  0.00000000000E+00 0.  1.
          2   -1    0    0  502    0  0.00000000000E+00 -0.00000000000E+00 -0.11559284513E+04  0.11559284513E+04  0.00000000000E+00 0. -1.
          6    1    1    2  502    0  0.30221605128E+02  0.12279917028E+03 -0.95063952111E+03  0.97431641716E+03  0.17200000000E+03 0. -1.
         -6    1    1    2    0  501 -0.30221605128E+02 -0.12279917028E+03 -0.13455042013E+03  0.25235054427E+03  0.17200000000E+03 0.  1.
</event>
<event>
 4    1  0.3094855E-002  0.2651772E+03  0.7818608E-02  0.1104072E+00
          1   -1    0    0  502    0  0.00000000000E+00  0.00000000000E+00  0.74315236559E+02  0.74315236559E+02  0.00000000000E+00 0. -1.
         -1   -1    0    0    0  501 -0.00000000000E+00 -0.00000000000E+00 -0.94664439900E+03  0.94664439900E+03  0.00000000000E+00 0.  1.
          6    1    1    2  502    0 -0.18376092390E+03  0.83467757121E+02 -0.44690785631E+03  0.51965909562E+03  0.17200000000E+03 0. -1.
         -6    1    1    2    0  501  0.18376092390E+03 -0.83467757121E+02 -0.42542130613E+03  0.50130053994E+03  0.17200000000E+03 0.  1.
</event>
<event>
 4    1  0.3094855E-002  0.2586654E+03  0.7818608E-02  0.1107948E+00
         -2   -1    0    0    0  501 -0.00000000000E+00  0.00000000000E+00  0.51812160763E+03  0.51812160763E+03  0.00000000000E+00 0.  1.
          2   -1    0    0  502    0  0.00000000000E+00 -0.00000000000E+00 -0.31014470349E+03  0.31014470349E+03  0.00000000000E+00 0. -1.
          6    1    1    2  502    0 -0.16805423958E+03 -0.95297305429E+02 -0.21239105994E+03  0.33469055291E+03  0.17200000000E+03 0. -1.
         -6    1    1    2    0  501  0.16805423958E+03  0.95297305429E+02  0.42036796409E+03  0.49357575821E+03  0.17200000000E+03 0.  1.
</event>
<event>
 4    1  0.3094855E-002  0.2880800E+03  0.7818608E-02  0.1091356E+00
          2   -1    0    0  502    0  0.00000000000E+00  0.00000000000E+00  0.17205552657E+04  0.17205552657E+04  0.00000000000E+00 0. -1.
         -2   -1    0    0    0  501 -0.00000000000E+00 -0.00000000000E+00 -0.56254502763E+02  0.56254502763E+02  0.00000000000E+00 0.  1.
          6    1    1    2  502    0 -0.22749354941E+03 -0.40654284837E+02  0.49670629925E+03  0.57420138768E+03  0.17200000000E+03 0. -1.
         -6    1    1    2    0  501  0.22749354941E+03  0.40654284837E+02  0.11675944636E+04  0.12026083807E+04  0.17200000000E+03 0. -1.
</event>
<event>
 4    1  0.3094855E-002  0.2238862E+03  0.7818608E-02  0.1131018E+00
         -2   -1    0    0    0  501 -0.00000000000E+00  0.00000000000E+00  0.35550916528E+02  0.35550916528E+02  0.00000000000E+00 0.  1.
          2   -1    0    0  502    0  0.00000000000E+00 -0.00000000000E+00 -0.15252947630E+04  0.15252947630E+04  0.00000000000E+00 0. -1.
          6    1    1    2  502    0  0.71197622669E+02 -0.12438623213E+03 -0.53026146316E+03  0.57558861657E+03  0.17200000000E+03 0. -1.
         -6    1    1    2    0  501 -0.71197622669E+02  0.12438623213E+03 -0.95948238330E+03  0.98525706294E+03  0.17200000000E+03 0. -1.
</event>
<event>
 4    1  0.3094855E-002  0.2413518E+03  0.7818608E-02  0.1118896E+00
          1   -1    0    0  502    0  0.00000000000E+00  0.00000000000E+00  0.64209423957E+03  0.64209423957E+03  0.00000000000E+00 0. -1.
         -1   -1    0    0    0  501 -0.00000000000E+00 -0.00000000000E+00 -0.16164430406E+03  0.16164430406E+03  0.00000000000E+00 0.  1.
          6    1    1    2  502    0  0.16690409652E+03  0.28455331656E+02  0.50642165371E+03  0.56099338203E+03  0.17200000000E+03 0. -1.
         -6    1    1    2    0  501 -0.16690409652E+03 -0.28455331656E+02 -0.25971718204E+02  0.24274516160E+03  0.17200000000E+03 0.  1.
</event>
<event>
 4    1  0.3094855E-002  0.1723357E+03  0.7818608E-02  0.1175434E+00
          2   -1    0    0  502    0  0.00000000000E+00  0.00000000000E+00  0.29196745160E+03  0.29196745160E+03  0.00000000000E+00 0. -1.
         -2   -1    0    0    0  501 -0.00000000000E+00 -0.00000000000E+00 -0.15616272783E+03  0.15616272783E+03  0.00000000000E+00 0.  1.
          6    1    1    2  502    0  0.10749868213E+02  0.18019661974E+00  0.20019826197E+03  0.26415702950E+03  0.17200000000E+03 0. -1.
         -6    1    1    2    0  501 -0.10749868213E+02 -0.18019661974E+00 -0.64393538196E+02  0.18397314994E+03  0.17200000000E+03 0.  1.
</event>
<event>
 4    1  0.3094855E-002  0.2774589E+03  0.7818608E-02  0.1097085E+00
          1   -1    0    0  502    0  0.00000000000E+00  0.00000000000E+00  0.34036724563E+04  0.34036724563E+04  0.00000000000E+00 0. -1.
         -1   -1    0    0    0  501 -0.00000000000E+00 -0.00000000000E+00 -0.25190517234E+02  0.25190517234E+02  0.00000000000E+00 0.  1.
          6    1    1    2  502    0  0.47404749821E+02 -0.21249055299E+03  0.22371406265E+04  0.22542807341E+04  0.17200000000E+03 0. -1.
         -6    1    1    2    0  501 -0.47404749821E+02  0.21249055299E+03  0.11413413126E+04  0.11745822395E+04  0.17200000000E+03 0. -1.
</event>
<event>
 4    1  0.3094855E-002  0.1912373E+03  0.7818608E-02  0.1157350E+00
         -2   -1    0    0    0  501 -0.00000000000E+00  0.00000000000E+00  0.16714142426E+03  0.16714142426E+03  0.00000000000E+00 0.  1.
          2   -1    0    0  502    0  0.00000000000E+00 -0.00000000000E+00 -0.49107772672E+03  0.49107772672E+03  0.00000000000E+00 0. -1.
          6    1    1    2  502    0  0.61107479360E+02  0.57040182192E+02 -0.40702447243E+03  0.44971171608E+03  0.17200000000E+03 0. -1.
         -6    1    1    2    0  501 -0.61107479360E+02 -0.57040182192E+02  0.83088169971E+02  0.20850743490E+03  0.17200000000E+03 0.  1.
</event>
<event>
 4    1  0.3094855E-002  0.2122591E+03  0.7818608E-02  0.1139789E+00
          2   -1    0    0  502    0  0.00000000000E+00  0.00000000000E+00  0.42591245988E+03  0.42591245988E+03  0.00000000000E+00 0. -1.
         -2   -1    0    0    0  501 -0.00000000000E+00 -0.00000000000E+00 -0.10720730609E+03  0.10720730609E+03  0.00000000000E+00 0.  1.
          6    1    1    2  502    0  0.77698432455E+02 -0.97122981112E+02  0.19008660506E+03  0.28493304001E+03  0.17200000000E+03 0.  1.
         -6    1    1    2    0  501 -0.77698432455E+02  0.97122981112E+02  0.12861854872E+03  0.24818672596E+03  0.17200000000E+03 0.  1.
</event>
<event>
 4    1  0.3094855E-002  0.3424323E+03  0.7818608E-02  0.1065765E+00
         -2   -1    0    0    0  501 -0.00000000000E+00  0.00000000000E+00  0.22801701532E+04  0.22801701532E+04  0.00000000000E+00 0.  1.
          2   -1    0    0  502    0  0.00000000000E+00 -0.00000000000E+00 -0.52506535482E+02  0.52506535482E+02  0.00000000000E+00 0. -1.
          6    1    1    2  502    0 -0.25758430897E+03 -0.14603502174E+03  0.94651154653E+03  0.10065505509E+04  0.17200000000E+03 0.  1.
         -6    1    1    2    0  501  0.25758430897E+03  0.14603502174E+03  0.12811520711E+04  0.13261261377E+04  0.17200000000E+03 0.  1.
</event>
<event>
 4    1  0.3094855E-002  0.1980873E+03  0.7818608E-02  0.1151363E+00
          2   -1    0    0  502    0  0.00000000000E+00  0.00000000000E+00  0.22316456284E+04  0.22316456284E+04  0.00000000000E+00 0. -1.
         -2   -1    0    0    0  501 -0.00000000000E+00 -0.00000000000E+00 -0.19615818146E+02  0.19615818146E+02  0.00000000000E+00 0.  1.
          6    1    1    2  502    0  0.66370210200E+02 -0.72454077865E+02  0.14683934041E+04  0.14816942287E+04  0.17200000000E+03 0. -1.
         -6    1    1    2    0  501 -0.66370210200E+02  0.72454077865E+02  0.74363640611E+03  0.76956721779E+03  0.17200000000E+03 0.  1.
</event>
<event>
 4    1  0.3094855E-002  0.3804108E+03  0.7818608E-02  0.1050782E+00
         -2   -1    0    0    0  501 -0.00000000000E+00  0.00000000000E+00  0.38358489212E+02  0.38358489212E+02  0.00000000000E+00 0.  1.
          2   -1    0    0  502    0  0.00000000000E+00 -0.00000000000E+00 -0.38482655413E+04  0.38482655413E+04  0.00000000000E+00 0. -1.
          6    1    1    2  502    0  0.26549934028E+03 -0.21127820882E+03 -0.21773951274E+04  0.22103759685E+04  0.17200000000E+03 0. -1.
         -6    1    1    2    0  501 -0.26549934028E+03  0.21127820882E+03 -0.16325119247E+04  0.16762480621E+04  0.17200000000E+03 0.  1.
</event>
<event>
 4    1  0.3094855E-002  0.1923573E+03  0.7818608E-02  0.1156352E+00
          2   -1    0    0  502    0  0.00000000000E+00  0.00000000000E+00  0.15663378924E+04  0.15663378924E+04  0.00000000000E+00 0. -1.
         -2   -1    0    0    0  501 -0.00000000000E+00 -0.00000000000E+00 -0.11018367197E+03  0.11018367197E+03  0.00000000000E+00 0.  1.
          6    1    1    2  502    0 -0.34988865667E+02 -0.78696311138E+02  0.14710642033E+04  0.14835872810E+04  0.17200000000E+03 0. -1.
         -6    1    1    2    0  501  0.34988865667E+02  0.78696311138E+02 -0.14909982879E+02  0.19293428336E+03  0.17200000000E+03 0.  1.
</event>
<event>
 4    1  0.3094855E-002  0.1737438E+03  0.7818608E-02  0.1173999E+00
          1   -1    0    0  502    0  0.00000000000E+00  0.00000000000E+00  0.13244430010E+04  0.13244430010E+04  0.00000000000E+00 0. -1.
         -1   -1    0    0    0  501 -0.00000000000E+00 -0.00000000000E+00 -0.24838165763E+02  0.24838165763E+02  0.00000000000E+00 0.  1.
          6    1    1    2  502    0 -0.22317552011E+02 -0.10239583905E+02  0.45617551668E+03  0.48814242207E+03  0.17200000000E+03 0.  1.
         -6    1    1    2    0  501  0.22317552011E+02  0.10239583905E+02  0.84342931852E+03  0.86113874466E+03  0.17200000000E+03 0. -1.
</event>
<event>
 4    1  0.3094855E-002  0.1745351E+03  0.7818608E-02  0.1173199E+00
         -2   -1    0    0    0  501 -0.00000000000E+00  0.00000000000E+00  0.53527837303E+02  0.53527837303E+02  0.00000000000E+00 0.  1.
          2   -1    0    0  502    0  0.00000000000E+00 -0.00000000000E+00 -0.82831286590E+03  0.82831286590E+03  0.00000000000E+00 0. -1.
          6    1    1    2  502    0 -0.21466501704E+02 -0.20437868532E+02 -0.14073522308E+03  0.22420731518E+03  0.17200000000E+03 0.  1.
         -6    1    1    2    0  501  0.21466501704E+02  0.20437868532E+02 -0.63404980552E+03  0.65763338802E+03  0.17200000000E+03 0. -1.
</event>
<event>
 4    1  0.3094855E-002  0.1850064E+03  0.7818608E-02  0.1163044E+00
          1   -1    0    0  502    0  0.00000000000E+00  0.00000000000E+00  0.19650390516E+04  0.19650390516E+04  0.00000000000E+00 0. -1.
         -1   -1    0    0    0  501 -0.00000000000E+00 -0.00000000000E+00 -0.19735239614E+02  0.19735239614E+02  0.00000000000E+00 0.  1.
          6    1    1    2  502    0 -0.65433671553E+02 -0.19021024157E+02  0.13126922137E+04  0.13256651963E+04  0.17200000000E+03 0. -1.
         -6    1    1    2    0  501  0.65433671553E+02  0.19021024157E+02  0.63261159831E+03  0.65910909496E+03  0.17200000000E+03 0.  1.
</event>
<event>
 4    1  0.3094855E-002  0.1734268E+03  0.7818608E-02  0.1174321E+00
          2   -1    0    0  502    0  0.00000000000E+00  0.00000000000E+00  0.53385074085E+03  0.53385074085E+03  0.00000000000E+00 0. -1.
         -2   -1    0    0    0  501 -0.00000000000E+00 -0.00000000000E+00 -0.16248218321E+03  0.16248218321E+03  0.00000000000E+00 0.  1.
          6    1    1    2  502    0  0.52020490039E+01 -0.21582212461E+02  0.46708759414E+03  0.49824459236E+03  0.17200000000E+03 0. -1.
         -6    1    1    2    0  501 -0.52020490039E+01  0.21582212461E+02 -0.95719036504E+02  0.19808833171E+03  0.17200000000E+03 0.  1.
</event>
<event>
 4    1  0.3094855E-002  0.2453279E+03  0.7818608E-02  0.1116294E+00
          2   -1    0    0  502    0  0.00000000000E+00  0.00000000000E+00  0.93916848832E+02  0.93916848832E+02  0.00000000000E+00 0. -1.
         -2   -1    0    0    0  501 -0.00000000000E+00 -0.00000000000E+00 -0.71286743616E+03  0.71286743616E+03  0.00000000000E+00 0.  1.
          6    1    1    2  502    0  0.10267498325E+03 -0.14163206526E+03 -0.18125163930E+03  0.30502123016E+03  0.17200000000E+03 0. -1.
         -6    1    1    2    0  501 -0.10267498325E+03  0.14163206526E+03 -0.43769894803E+03  0.50176305484E+03  0.17200000000E+03 0.  1.
</event>
<event>
 4    1  0.3094855E-002  0.3499271E+03  0.7818608E-02  0.1062645E+00
          2   -1    0    0  502    0  0.00000000000E+00  0.00000000000E+00  0.67760567903E+03  0.67760567903E+03  0.00000000000E+00 0. -1.
         -2   -1    0    0    0  501 -0.00000000000E+00 -0.00000000000E+00 -0.19595717989E+03  0.19595717989E+03  0.00000000000E+00 0.  1.
          6    1    1    2  502    0 -0.74311303347E+02 -0.29553811225E+03  0.36266794615E+03  0.50396129292E+03  0.17200000000E+03 0. -1.
         -6    1    1    2    0  501  0.74311303347E+02  0.29553811225E+03  0.11898055299E+03  0.36960156600E+03  0.17200000000E+03 0.  1.
</event>
<event>
 4    1  0.3094855E-002  0.1976037E+03  0.7818608E-02  0.1151777E+00
          2   -1    0    0  502    0  0.00000000000E+00  0.00000000000E+00  0.42973483957E+03  0.42973483957E+03  0.00000000000E+00 0. -1.
         -2   -1    0    0    0  501 -0.00000000000E+00 -0.00000000000E+00 -0.10991392579E+03  0.10991392579E+03  0.00000000000E+00 0.  1.
          6    1    1    2  502    0  0.32963107023E+02 -0.91524047554E+02  0.27224336796E+03  0.33639808130E+03  0.17200000000E+03 0. -1.
         -6    1    1    2    0  501 -0.32963107023E+02  0.91524047554E+02  0.47577545812E+02  0.20325068406E+03  0.17200000000E+03 0.  1.
</event>
<event>
 4    1  0.3094855E-002  0.1892448E+03  0.7818608E-02  0.1159144E+00
         -1   -1    0    0    0  501 -0.00000000000E+00  0.00000000000E+00  0.39098371131E+02  0.39098371131E+02  0.00000000000E+00 0.  1.
          1   -1    0    0  502    0  0.00000000000E+00 -0.00000000000E+00 -0.93209144325E+03  0.93209144325E+03  0.00000000000E+00 0. -1.
          6    1    1    2  502    0 -0.49057673821E+02  0.61829833345E+02 -0.51032630125E+03  0.54428532720E+03  0.17200000000E+03 0. -1.
         -6    1    1    2    0  501  0.49057673821E+02 -0.61829833345E+02 -0.38266677087E+03  0.42690448719E+03  0.17200000000E+03 0.  1.
</event>
<event>
 4    1  0.3094855E-002  0.1782537E+03  0.7818608E-02  0.1169504E+00
          2   -1    0    0  502    0  0.00000000000E+00  0.00000000000E+00  0.26919894200E+03  0.26919894200E+03  0.00000000000E+00 0. -1.
         -2   -1    0    0    0  501 -0.00000000000E+00 -0.00000000000E+00 -0.20053627882E+03  0.20053627882E+03  0.00000000000E+00 0.  1.
          6    1    1    2  502    0 -0.16114513791E+02 -0.43939772930E+02 -0.11631620616E+03  0.21284698968E+03  0.17200000000E+03 0.  1.
         -6    1    1    2    0  501  0.16114513791E+02  0.43939772930E+02  0.18497886933E+03  0.25688823114E+03  0.17200000000E+03 0. -1.
</event>
<event>
 4    1  0.3094855E-002  0.4589566E+03  0.7818608E-02  0.1025084E+00
         -2   -1    0    0    0  501 -0.00000000000E+00  0.00000000000E+00  0.82903837639E+02  0.82903837639E+02  0.00000000000E+00 0.  1.
          2   -1    0    0  502    0  0.00000000000E+00 -0.00000000000E+00 -0.31883283792E+04  0.31883283792E+04  0.00000000000E+00 0. -1.
          6    1    1    2  502    0  0.41461433386E+03 -0.95666804085E+02 -0.81560134293E+03  0.93586683553E+03  0.17200000000E+03 0. -1.
         -6    1    1    2    0  501 -0.41461433386E+03  0.95666804085E+02 -0.22898231987E+04  0.23353653814E+04  0.17200000000E+03 0.  1.
</event>
<event>
 4    1  0.3094855E-002  0.3279416E+03  0.7818608E-02  0.1072051E+00
         -2   -1    0    0    0  501 -0.00000000000E+00  0.00000000000E+00  0.15577874283E+03  0.15577874283E+03  0.00000000000E+00 0.  1.
          2   -1    0    0  502    0  0.00000000000E+00 -0.00000000000E+00 -0.71720709072E+03  0.71720709072E+03  0.00000000000E+00 0. -1.
          6    1    1    2  502    0  0.25956158519E+03  0.10290508574E+03 -0.19628624433E+03  0.38219623610E+03  0.17200000000E+03 0. -1.
         -6    1    1    2    0  501 -0.25956158519E+03 -0.10290508574E+03 -0.36514210355E+03  0.49078959745E+03  0.17200000000E+03 0.  1.
</event>
<event>
 4    1  0.3094855E-002  0.3135076E+03  0.7818608E-02  0.1078677E+00
         -2   -1    0    0    0  501 -0.00000000000E+00  0.00000000000E+00  0.94368006195E+02  0.94368006195E+02  0.00000000000E+00 0.  1.
          2   -1    0    0  502    0  0.00000000000E+00 -0.00000000000E+00 -0.10900400982E+04  0.10900400982E+04  0.00000000000E+00 0. -1.
          6    1    1    2  502    0 -0.63796746941E+02  0.25423013291E+03 -0.62276758816E+03  0.69722769184E+03  0.17200000000E+03 0. -1.
         -6    1    1    2    0  501  0.63796746941E+02 -0.25423013291E+03 -0.37290450386E+03  0.48718041258E+03  0.17200000000E+03 0.  1.
</event>
<event>
 4    1  0.3094855E-002  0.2378557E+03  0.7818608E-02  0.1121230E+00
          2   -1    0    0  502    0  0.00000000000E+00  0.00000000000E+00  0.63566812285E+02  0.63566812285E+02  0.00000000000E+00 0. -1.
         -2   -1    0    0    0  501 -0.00000000000E+00 -0.00000000000E+00 -0.91042902243E+03  0.91042902243E+03  0.00000000000E+00 0.  1.
          6    1    1    2  502    0  0.38834735213E+02 -0.15963453424E+03 -0.49635742360E+03  0.55040531715E+03  0.17200000000E+03 0.  1.
         -6    1    1    2    0  501 -0.38834735213E+02  0.15963453424E+03 -0.35050478654E+03  0.42359051757E+03  0.17200000000E+03 0. -1.
</event>
<event>
 4    1  0.3094855E-002  0.2111256E+03  0.7818608E-02  0.1140678E+00
          1   -1    0    0  502    0  0.00000000000E+00  0.00000000000E+00  0.11943094705E+03  0.11943094705E+03  0.00000000000E+00 0. -1.
         -1   -1    0    0    0  501 -0.00000000000E+00 -0.00000000000E+00 -0.47077138138E+03  0.47077138138E+03  0.00000000000E+00 0.  1.
          6    1    1    2  502    0  0.28588178286E+02  0.11904932804E+03 -0.41337298318E+02  0.21513437354E+03  0.17200000000E+03 0. -1.
         -6    1    1    2    0  501 -0.28588178286E+02 -0.11904932804E+03 -0.31000313602E+03  0.37506795489E+03  0.17200000000E+03 0.  1.
</event>
<event>
 4    1  0.3094855E-002  0.1851648E+03  0.7818608E-02  0.1162896E+00
         -2   -1    0    0    0  501 -0.00000000000E+00  0.00000000000E+00  0.26224473386E+02  0.26224473386E+02  0.00000000000E+00 0.  1.
          2   -1    0    0  502    0  0.00000000000E+00 -0.00000000000E+00 -0.17029446925E+04  0.17029446925E+04  0.00000000000E+00 0. -1.
          6    1    1    2  502    0 -0.25463002167E+02  0.63668218286E+02 -0.12550397442E+04  0.12686255421E+04  0.17200000000E+03 0. -1.
         -6    1    1    2    0  501  0.25463002167E+02 -0.63668218286E+02 -0.42168047484E+03  0.46054362374E+03  0.17200000000E+03 0.  1.
</event>
<event>
 4    1  0.3094855E-002  0.2025810E+03  0.7818608E-02  0.1147580E+00
         -1   -1    0    0    0  501 -0.00000000000E+00  0.00000000000E+00  0.12301785064E+03  0.12301785064E+03  0.00000000000E+00 0.  1.
          1   -1    0    0  502    0  0.00000000000E+00 -0.00000000000E+00 -0.12105862203E+04  0.12105862203E+04  0.00000000000E+00 0. -1.
          6    1    1    2  502    0  0.10631335684E+03 -0.12349833422E+02 -0.11113220580E+04  0.11296352353E+04  0.17200000000E+03 0. -1.
         -6    1    1    2    0  501 -0.10631335684E+03  0.12349833422E+02  0.23753688289E+02  0.20396883570E+03  0.17200000000E+03 0.  1.
</event>
<event>
 4    1  0.3094855E-002  0.3740309E+03  0.7818608E-02  0.1053162E+00
         -2   -1    0    0    0  501 -0.00000000000E+00  0.00000000000E+00  0.38680145407E+03  0.38680145407E+03  0.00000000000E+00 0.  1.
          2   -1    0    0  502    0  0.00000000000E+00 -0.00000000000E+00 -0.36458570984E+03  0.36458570984E+03  0.00000000000E+00 0. -1.
          6    1    1    2  502    0  0.32167792366E+03  0.82694687263E+02 -0.22420735591E+02  0.37470226482E+03  0.17200000000E+03 0. -1.
         -6    1    1    2    0  501 -0.32167792366E+03 -0.82694687263E+02  0.44636479818E+02  0.37668489909E+03  0.17200000000E+03 0.  1.
</event>
<event>
 4    1  0.3094855E-002  0.3170230E+03  0.7818608E-02  0.1077028E+00
          1   -1    0    0  502    0  0.00000000000E+00  0.00000000000E+00  0.20112990843E+04  0.20112990843E+04  0.00000000000E+00 0. -1.
         -1   -1    0    0    0  501 -0.00000000000E+00 -0.00000000000E+00 -0.23296043945E+03  0.23296043945E+03  0.00000000000E+00 0.  1.
          6    1    1    2  502    0 -0.20912198462E+03  0.16488653838E+03  0.18836968455E+04  0.19101877868E+04  0.17200000000E+03 0. -1.
         -6    1    1    2    0  501  0.20912198462E+03 -0.16488653838E+03 -0.10535820067E+03  0.33407173696E+03  0.17200000000E+03 0.  1.
</event>
<event>
 4    1  0.3094855E-002  0.2152010E+03  0.7818608E-02  0.1137512E+00
         -2   -1    0    0    0  501 -0.00000000000E+00  0.00000000000E+00  0.42596990194E+03  0.42596990194E+03  0.00000000000E+00 0.  1.
          2   -1    0    0  502    0  0.00000000000E+00 -0.00000000000E+00 -0.24577017646E+03  0.24577017646E+03  0.00000000000E+00 0. -1.
          6    1    1    2  502    0 -0.55053972135E+02  0.11703216518E+03 -0.16071103358E+03  0.26858798158E+03  0.17200000000E+03 0. -1.
         -6    1    1    2    0  501  0.55053972135E+02 -0.11703216518E+03  0.34091075905E+03  0.40315209682E+03  0.17200000000E+03 0.  1.
</event>
<event>
 4    1  0.3094855E-002  0.2147059E+03  0.7818608E-02  0.1137893E+00
          2   -1    0    0  502    0  0.00000000000E+00  0.00000000000E+00  0.15283272306E+04  0.15283272306E+04  0.00000000000E+00 0. -1.
         -2   -1    0    0    0  501 -0.00000000000E+00 -0.00000000000E+00 -0.36232039036E+02  0.36232039036E+02  0.00000000000E+00 0.  1.
          6    1    1    2  502    0 -0.10273009233E+03  0.77208529496E+02  0.42587603685E+03  0.47693713177E+03  0.17200000000E+03 0.  1.
         -6    1    1    2    0  501  0.10273009233E+03 -0.77208529496E+02  0.10662191547E+04  0.10876221378E+04  0.17200000000E+03 0.  1.
</event>
<event>
 4    1  0.3094855E-002  0.2311285E+03  0.7818608E-02  0.1125848E+00
         -1   -1    0    0    0  501 -0.00000000000E+00  0.00000000000E+00  0.46169242188E+02  0.46169242188E+02  0.00000000000E+00 0.  1.
          1   -1    0    0  502    0  0.00000000000E+00 -0.00000000000E+00 -0.11647130106E+04  0.11647130106E+04  0.00000000000E+00 0. -1.
          6    1    1    2  502    0  0.74106192410E+02  0.13544239892E+03 -0.60836368627E+03  0.65078932532E+03  0.17200000000E+03 0. -1.
         -6    1    1    2    0  501 -0.74106192410E+02 -0.13544239892E+03 -0.51018008210E+03  0.56009292743E+03  0.17200000000E+03 0.  1.
</event>
<event>
 4    1  0.3094855E-002  0.2188332E+03  0.7818608E-02  0.1134756E+00
          2   -1    0    0  502    0  0.00000000000E+00  0.00000000000E+00  0.80337431393E+03  0.80337431393E+03  0.00000000000E+00 0. -1.
         -2   -1    0    0    0  501 -0.00000000000E+00 -0.00000000000E+00 -0.59609512529E+02  0.59609512529E+02  0.00000000000E+00 0.  1.
          6    1    1    2  502    0 -0.78253429772E+02  0.11036475685E+03  0.37361532277E+03  0.43298543651E+03  0.17200000000E+03 0. -1.
         -6    1    1    2    0  501  0.78253429772E+02 -0.11036475685E+03  0.37014947864E+03  0.42999838995E+03  0.17200000000E+03 0.  1.
</event>
<event>
 4    1  0.3094855E-002  0.1991986E+03  0.7818608E-02  0.1150417E+00
         -2   -1    0    0    0  501 -0.00000000000E+00  0.00000000000E+00  0.10913386181E+03  0.10913386181E+03  0.00000000000E+00 0.  1.
          2   -1    0    0  502    0  0.00000000000E+00 -0.00000000000E+00 -0.37301775263E+03  0.37301775263E+03  0.00000000000E+00 0. -1.
          6    1    1    2  502    0 -0.80425466582E+02  0.60231527686E+02 -0.93618073984E+02  0.22010096860E+03  0.17200000000E+03 0.  1.
         -6    1    1    2    0  501  0.80425466582E+02 -0.60231527686E+02 -0.17026581683E+03  0.26205064584E+03  0.17200000000E+03 0. -1.
</event>
<event>
 4    1  0.3094855E-002  0.3312148E+03  0.7818608E-02  0.1070601E+00
          2   -1    0    0  502    0  0.00000000000E+00  0.00000000000E+00  0.92599399218E+03  0.92599399218E+03  0.00000000000E+00 0. -1.
         -2   -1    0    0    0  501 -0.00000000000E+00 -0.00000000000E+00 -0.12261175029E+03  0.12261175029E+03  0.00000000000E+00 0.  1.
          6    1    1    2  502    0 -0.26702742366E+03 -0.93891478566E+02  0.30533797999E+03  0.45048255988E+03  0.17200000000E+03 0. -1.
         -6    1    1    2    0  501  0.26702742366E+03  0.93891478566E+02  0.49804426191E+03  0.59812318259E+03  0.17200000000E+03 0.  1.
</event>
<event>
 4    1  0.3094855E-002  0.1814159E+03  0.7818608E-02  0.1166440E+00
          2   -1    0    0  502    0  0.00000000000E+00  0.00000000000E+00  0.14990924786E+04  0.14990924786E+04  0.00000000000E+00 0. -1.
         -2   -1    0    0    0  501 -0.00000000000E+00 -0.00000000000E+00 -0.22967809953E+02  0.22967809953E+02  0.00000000000E+00 0.  1.
          6    1    1    2  502    0 -0.57544042292E+02  0.40504368036E+01  0.57820670260E+03  0.60599893875E+03  0.17200000000E+03 0. -1.
         -6    1    1    2    0  501  0.57544042292E+02 -0.40504368036E+01  0.89791796601E+03  0.91606134976E+03  0.17200000000E+03 0. -1.
</event>
<event>
 4    1  0.3094855E-002  0.1776993E+03  0.7818608E-02  0.1170048E+00
         -2   -1    0    0    0  501 -0.00000000000E+00  0.00000000000E+00  0.19696205989E+02  0.19696205989E+02  0.00000000000E+00 0.  1.
          2   -1    0    0  502    0  0.00000000000E+00 -0.00000000000E+00 -0.16721505000E+04  0.16721505000E+04  0.00000000000E+00 0. -1.
          6    1    1    2  502    0  0.43906311350E+02 -0.80793621424E+01 -0.99799773358E+03  0.10136944887E+04  0.17200000000E+03 0. -1.
         -6    1    1    2    0  501 -0.43906311350E+02  0.80793621424E+01 -0.65445656039E+03  0.67815221721E+03  0.17200000000E+03 0. -1.
</event>
<event>
 4    1  0.3094855E-002  0.2652922E+03  0.7818608E-02  0.1104005E+00
          1   -1    0    0  502    0  0.00000000000E+00  0.00000000000E+00  0.14644565976E+04  0.14644565976E+04  0.00000000000E+00 0. -1.
         -1   -1    0    0    0  501 -0.00000000000E+00 -0.00000000000E+00 -0.97014413324E+02  0.97014413324E+02  0.00000000000E+00 0.  1.
          6    1    1    2  502    0 -0.14510741830E+03  0.14049839404E+03  0.12383305158E+04  0.12664290063E+04  0.17200000000E+03 0. -1.
         -6    1    1    2    0  501  0.14510741830E+03 -0.14049839404E+03  0.12911166848E+03  0.29504200466E+03  0.17200000000E+03 0.  1.
</event>
<event>
 4    1  0.3094855E-002  0.2417711E+03  0.7818608E-02  0.1118619E+00
          2   -1    0    0  502    0  0.00000000000E+00  0.00000000000E+00  0.12562060905E+04  0.12562060905E+04  0.00000000000E+00 0. -1.
         -2   -1    0    0    0  501 -0.00000000000E+00 -0.00000000000E+00 -0.92255074433E+02  0.92255074433E+02  0.00000000000E+00 0.  1.
          6    1    1    2  502    0 -0.15534685876E+03  0.68823076477E+02  0.10566358985E+04  0.10839431186E+04  0.17200000000E+03 0. -1.
         -6    1    1    2    0  501  0.15534685876E+03 -0.68823076477E+02  0.10731511760E+03  0.26451804636E+03  0.17200000000E+03 0.  1.
</event>
<event>
 4    1  0.3094855E-002  0.2654606E+03  0.7818608E-02  0.1103906E+00
          1   -1    0    0  502    0  0.00000000000E+00  0.00000000000E+00  0.36796081650E+03  0.36796081650E+03  0.00000000000E+00 0. -1.
         -1   -1    0    0    0  501 -0.00000000000E+00 -0.00000000000E+00 -0.20725712413E+03  0.20725712413E+03  0.00000000000E+00 0.  1.
          6    1    1    2  502    0 -0.18819087200E+03  0.73956204794E+02  0.10825008831E+01  0.26546279652E+03  0.17200000000E+03 0.  1.
         -6    1    1    2    0  501  0.18819087200E+03 -0.73956204794E+02  0.15962119148E+03  0.30975514411E+03  0.17200000000E+03 0.  1.
</event>
<event>
 4    1  0.3094855E-002  0.6017398E+03  0.7818608E-02  0.9901803E-01
         -1   -1    0    0    0  501 -0.00000000000E+00  0.00000000000E+00  0.74027997253E+03  0.74027997253E+03  0.00000000000E+00 0.  1.
          1   -1    0    0  502    0  0.00000000000E+00 -0.00000000000E+00 -0.15875436906E+04  0.15875436906E+04  0.00000000000E+00 0. -1.
          6    1    1    2  502    0 -0.30898388279E+03  0.48686311063E+03 -0.13917778542E+04  0.15162903165E+04  0.17200000000E+03 0. -1.
         -6    1    1    2    0  501  0.30898388279E+03 -0.48686311063E+03  0.54451413614E+03  0.81153334668E+03  0.17200000000E+03 0.  1.
</event>
<event>
 4    1  0.3094855E-002  0.2762347E+03  0.7818608E-02  0.1097763E+00
          1   -1    0    0  502    0  0.00000000000E+00  0.00000000000E+00  0.17275374416E+03  0.17275374416E+03  0.00000000000E+00 0. -1.
         -1   -1    0    0    0  501 -0.00000000000E+00 -0.00000000000E+00 -0.67497138042E+03  0.67497138042E+03  0.00000000000E+00 0.  1.
          6    1    1    2  502    0  0.10636371759E+03 -0.18817106332E+03 -0.50028797086E+03  0.57148372092E+03  0.17200000000E+03 0.  1.
         -6    1    1    2    0  501 -0.10636371759E+03  0.18817106332E+03 -0.19296653962E+01  0.27624140366E+03  0.17200000000E+03 0. -1.
</event>
<event>
 4    1  0.3094855E-002  0.2738279E+03  0.7818608E-02  0.1099109E+00
          2   -1    0    0  502    0  0.00000000000E+00  0.00000000000E+00  0.11429538717E+04  0.11429538717E+04  0.00000000000E+00 0. -1.
         -2   -1    0    0    0  501 -0.00000000000E+00 -0.00000000000E+00 -0.75533795069E+02  0.75533795069E+02  0.00000000000E+00 0.  1.
          6    1    1    2  502    0 -0.18597929357E+03 -0.10396831540E+03  0.75461365699E+03  0.80275991402E+03  0.17200000000E+03 0. -1.
         -6    1    1    2    0  501  0.18597929357E+03  0.10396831540E+03  0.31280641967E+03  0.41572775277E+03  0.17200000000E+03 0.  1.
</event>
<event>
 4    1  0.3094855E-002  0.2200795E+03  0.7818608E-02  0.1133824E+00
          2   -1    0    0  502    0  0.00000000000E+00  0.00000000000E+00  0.62844549466E+03  0.62844549466E+03  0.00000000000E+00 0. -1.
         -2   -1    0    0    0  501 -0.00000000000E+00 -0.00000000000E+00 -0.28429319871E+03  0.28429319871E+03  0.00000000000E+00 0.  1.
          6    1    1    2  502    0 -0.13729765707E+03  0.58834848643E+00  0.56170512929E+03  0.60328073486E+03  0.17200000000E+03 0. -1.
         -6    1    1    2    0  501  0.13729765707E+03 -0.58834848643E+00 -0.21755283334E+03  0.30945795851E+03  0.17200000000E+03 0.  1.
</event>
<event>
 4    1  0.3094855E-002  0.2325471E+03  0.7818608E-02  0.1124860E+00
         -2   -1    0    0    0  501 -0.00000000000E+00  0.00000000000E+00  0.53022033975E+02  0.53022033975E+02  0.00000000000E+00 0.  1.
          2   -1    0    0  502    0  0.00000000000E+00 -0.00000000000E+00 -0.11362574927E+04  0.11362574927E+04  0.00000000000E+00 0. -1.
          6    1    1    2  502    0 -0.14328460793E+03  0.62957814842E+02 -0.35134445340E+03  0.42133251744E+03  0.17200000000E+03 0. -1.
         -6    1    1    2    0  501  0.14328460793E+03 -0.62957814842E+02 -0.73189100536E+03  0.76794700927E+03  0.17200000000E+03 0. -1.
</event>
<event>
 4    1  0.3094855E-002  0.2738069E+03  0.7818608E-02  0.1099120E+00
         -2   -1    0    0    0  501 -0.00000000000E+00  0.00000000000E+00  0.16766151203E+03  0.16766151203E+03  0.00000000000E+00 0.  1.
          2   -1    0    0  502    0  0.00000000000E+00 -0.00000000000E+00 -0.54243706287E+03  0.54243706287E+03  0.00000000000E+00 0. -1.
          6    1    1    2  502    0  0.16460532288E+03  0.13524526174E+03 -0.33619575053E+03  0.43358710292E+03  0.17200000000E+03 0. -1.
         -6    1    1    2    0  501 -0.16460532288E+03 -0.13524526174E+03 -0.38579800305E+02  0.27651147198E+03  0.17200000000E+03 0.  1.
</event>
<event>
 4    1  0.3094855E-002  0.1780282E+03  0.7818608E-02  0.1169725E+00
         -1   -1    0    0    0  501 -0.00000000000E+00  0.00000000000E+00  0.78113283553E+02  0.78113283553E+02  0.00000000000E+00 0.  1.
          1   -1    0    0  502    0  0.00000000000E+00 -0.00000000000E+00 -0.42416671075E+03  0.42416671075E+03  0.00000000000E+00 0. -1.
          6    1    1    2  502    0 -0.36654268727E+02 -0.27686138016E+02 -0.12068896029E+03  0.21508110747E+03  0.17200000000E+03 0.  1.
         -6    1    1    2    0  501  0.36654268727E+02  0.27686138016E+02 -0.22536446691E+03  0.28719888683E+03  0.17200000000E+03 0. -1.
</event>
<event>
 4    1  0.3094855E-002  0.2039687E+03  0.7818608E-02  0.1146433E+00
          1   -1    0    0  502    0  0.00000000000E+00  0.00000000000E+00  0.46281875004E+03  0.46281875004E+03  0.00000000000E+00 0. -1.
         -1   -1    0    0    0  501 -0.00000000000E+00 -0.00000000000E+00 -0.11286919493E+03  0.11286919493E+03  0.00000000000E+00 0.  1.
          6    1    1    2  502    0 -0.98626623155E+02  0.47874962258E+02  0.30485042844E+03  0.36679286597E+03  0.17200000000E+03 0. -1.
         -6    1    1    2    0  501  0.98626623155E+02 -0.47874962258E+02  0.45099126664E+02  0.20889507900E+03  0.17200000000E+03 0.  1.
</event>
<event>
 4    1  0.3094855E-002  0.2047216E+03  0.7818608E-02  0.1145815E+00
         -1   -1    0    0    0  501 -0.00000000000E+00  0.00000000000E+00  0.61492850376E+03  0.61492850376E+03  0.00000000000E+00 0.  1.
          1   -1    0    0  502    0  0.00000000000E+00 -0.00000000000E+00 -0.11860699919E+03  0.11860699919E+03  0.00000000000E+00 0. -1.
          6    1    1    2  502    0  0.95161998525E+02  0.57193857489E+02  0.48736656905E+03  0.52861811918E+03  0.17200000000E+03 0.  1.
         -6    1    1    2    0  501 -0.95161998525E+02 -0.57193857489E+02  0.89549355207E+01  0.20491738376E+03  0.17200000000E+03 0. -1.
</event>
<event>
 4    1  0.3094855E-002  0.2089710E+03  0.7818608E-02  0.1142383E+00
         -2   -1    0    0    0  501 -0.00000000000E+00  0.00000000000E+00  0.98091729728E+02  0.98091729728E+02  0.00000000000E+00 0.  1.
          2   -1    0    0  502    0  0.00000000000E+00 -0.00000000000E+00 -0.60914101394E+03  0.60914101394E+03  0.00000000000E+00 0. -1.
          6    1    1    2  502    0 -0.45305065655E+02  0.10969204866E+03 -0.43898324982E+03  0.48618431498E+03  0.17200000000E+03 0. -1.
         -6    1    1    2    0  501  0.45305065655E+02 -0.10969204866E+03 -0.72066034397E+02  0.22104842869E+03  0.17200000000E+03 0.  1.
</event>
<event>
 4    1  0.3094855E-002  0.3216817E+03  0.7818608E-02  0.1074878E+00
          2   -1    0    0  502    0  0.00000000000E+00  0.00000000000E+00  0.15288892793E+03  0.15288892793E+03  0.00000000000E+00 0. -1.
         -2   -1    0    0    0  501 -0.00000000000E+00 -0.00000000000E+00 -0.94812892717E+03  0.94812892717E+03  0.00000000000E+00 0.  1.
          6    1    1    2  502    0  0.29976414479E+02  0.27017871506E+03 -0.10313829655E+03  0.33781153283E+03  0.17200000000E+03 0. -1.
         -6    1    1    2    0  501 -0.29976414479E+02 -0.27017871506E+03 -0.69210170269E+03  0.76320632228E+03  0.17200000000E+03 0.  1.
</event>
<event>
 4    1  0.3094855E-002  0.2687207E+03  0.7818608E-02  0.1102014E+00
          1   -1    0    0  502    0  0.00000000000E+00  0.00000000000E+00  0.54121774168E+03  0.54121774168E+03  0.00000000000E+00 0. -1.
         -1   -1    0    0    0  501 -0.00000000000E+00 -0.00000000000E+00 -0.17965394681E+03  0.17965394681E+03  0.00000000000E+00 0.  1.
          6    1    1    2  502    0 -0.20073850214E+03 -0.48279155420E+02  0.36362416903E+03  0.45214307403E+03  0.17200000000E+03 0. -1.
         -6    1    1    2    0  501  0.20073850214E+03  0.48279155420E+02 -0.20603741687E+01  0.26872861446E+03  0.17200000000E+03 0. -1.
</event>
<event>
 4    1  0.3094855E-002  0.3869192E+03  0.7818608E-02  0.1048406E+00
         -2   -1    0    0    0  501 -0.00000000000E+00  0.00000000000E+00  0.55545241157E+03  0.55545241157E+03  0.00000000000E+00 0.  1.
          2   -1    0    0  502    0  0.00000000000E+00 -0.00000000000E+00 -0.29262826195E+03  0.29262826195E+03  0.00000000000E+00 0. -1.
          6    1    1    2  502    0  0.34416539203E+03 -0.40898096187E+02  0.12255826984E+02  0.38711326074E+03  0.17200000000E+03 0. -1.
         -6    1    1    2    0  501 -0.34416539203E+03  0.40898096187E+02  0.25056832263E+03  0.46096741279E+03  0.17200000000E+03 0.  1.
</event>
<event>
 4    1  0.3094855E-002  0.2950636E+03  0.7818608E-02  0.1087735E+00
         -2   -1    0    0    0  501 -0.00000000000E+00  0.00000000000E+00  0.34623261031E+03  0.34623261031E+03  0.00000000000E+00 0.  1.
          2   -1    0    0  502    0  0.00000000000E+00 -0.00000000000E+00 -0.84638333708E+03  0.84638333708E+03  0.00000000000E+00 0. -1.
          6    1    1    2  502    0 -0.22119652856E+03  0.92469599017E+02 -0.75001635692E+03  0.80596964374E+03  0.17200000000E+03 0. -1.
         -6    1    1    2    0  501  0.22119652856E+03 -0.92469599017E+02  0.24986563015E+03  0.38664630364E+03  0.17200000000E+03 0.  1.
</event>
<event>
 4    1  0.3094855E-002  0.1825029E+03  0.7818608E-02  0.1165402E+00
          2   -1    0    0  502    0  0.00000000000E+00  0.00000000000E+00  0.16432199552E+04  0.16432199552E+04  0.00000000000E+00 0. -1.
         -2   -1    0    0    0  501 -0.00000000000E+00 -0.00000000000E+00 -0.42885492617E+02  0.42885492617E+02  0.00000000000E+00 0.  1.
          6    1    1    2  502    0  0.60584557913E+02 -0.72685470093E+01  0.18794805109E+03  0.26197669809E+03  0.17200000000E+03 0.  1.
         -6    1    1    2    0  501 -0.60584557913E+02  0.72685470093E+01  0.14123864115E+04  0.14241287498E+04  0.17200000000E+03 0.  1.
</event>
<event>
 4    1  0.3094855E-002  0.2030104E+03  0.7818608E-02  0.1147224E+00
         -1   -1    0    0    0  501 -0.00000000000E+00  0.00000000000E+00  0.18012313074E+03  0.18012313074E+03  0.00000000000E+00 0.  1.
          1   -1    0    0  502    0  0.00000000000E+00 -0.00000000000E+00 -0.31033181439E+03  0.31033181439E+03  0.00000000000E+00 0. -1.
          6    1    1    2  502    0  0.10045871963E+03 -0.39208122521E+02 -0.19079525095E+03  0.27859658829E+03  0.17200000000E+03 0. -1.
         -6    1    1    2    0  501 -0.10045871963E+03  0.39208122521E+02  0.60586567308E+02  0.21185835683E+03  0.17200000000E+03 0.  1.
</event>
<event>
 4    1  0.3094855E-002  0.1744850E+03  0.7818608E-02  0.1173250E+00
          2   -1    0    0  502    0  0.00000000000E+00  0.00000000000E+00  0.27419285376E+04  0.27419285376E+04  0.00000000000E+00 0. -1.
         -2   -1    0    0    0  501 -0.00000000000E+00 -0.00000000000E+00 -0.13635213418E+02  0.13635213418E+02  0.00000000000E+00 0.  1.
          6    1    1    2  502    0 -0.13130006674E+02  0.26241755380E+02  0.77046171055E+03  0.78997232498E+03  0.17200000000E+03 0.  1.
         -6    1    1    2    0  501  0.13130006674E+02 -0.26241755380E+02  0.19578316136E+04  0.19655914260E+04  0.17200000000E+03 0.  1.
</event>
<event>
 4    1  0.3094855E-002  0.1147410E+04  0.7818608E-02  0.9160176E-01
         -2   -1    0    0    0  501 -0.00000000000E+00  0.00000000000E+00  0.14054953962E+04  0.14054953962E+04  0.00000000000E+00 0.  1.
          2   -1    0    0  502    0  0.00000000000E+00 -0.00000000000E+00 -0.93694309571E+03  0.93694309571E+03  0.00000000000E+00 0. -1.
          6    1    1    2  502    0 -0.20358445476E+03  0.11160283996E+04  0.21604178755E+03  0.11675718705E+04  0.17200000000E+03 0. -1.
         -6    1    1    2    0  501  0.20358445476E+03 -0.11160283996E+04  0.25251051295E+03  0.11748666214E+04  0.17200000000E+03 0.  1.
</event>
<event>
 4    1  0.3094855E-002  0.2803141E+03  0.7818608E-02  0.1095517E+00
          1   -1    0    0  502    0  0.00000000000E+00  0.00000000000E+00  0.98861746811E+03  0.98861746811E+03  0.00000000000E+00 0. -1.
         -1   -1    0    0    0  501 -0.00000000000E+00 -0.00000000000E+00 -0.94053151539E+02  0.94053151539E+02  0.00000000000E+00 0.  1.
          6    1    1    2  502    0  0.11828377855E+03 -0.18708542002E+03  0.66036379095E+03  0.71739552762E+03  0.17200000000E+03 0. -1.
         -6    1    1    2    0  501 -0.11828377855E+03  0.18708542002E+03  0.23420052562E+03  0.36527509203E+03  0.17200000000E+03 0.  1.
</event>
<event>
 4    1  0.3094855E-002  0.2284575E+03  0.7818608E-02  0.1127730E+00
          2   -1    0    0  502    0  0.00000000000E+00  0.00000000000E+00  0.70910909127E+03  0.70910909127E+03  0.00000000000E+00 0. -1.
         -2   -1    0    0    0  501 -0.00000000000E+00 -0.00000000000E+00 -0.86270833958E+02  0.86270833958E+02  0.00000000000E+00 0.  1.
          6    1    1    2  502    0  0.97969952335E+02 -0.11406446410E+03  0.46380952484E+03  0.51702232917E+03  0.17200000000E+03 0. -1.
         -6    1    1    2    0  501 -0.97969952335E+02  0.11406446410E+03  0.15902873247E+03  0.27835759606E+03  0.17200000000E+03 0.  1.
</event>
<event>
 4    1  0.3094855E-002  0.3827486E+03  0.7818608E-02  0.1049923E+00
          2   -1    0    0  502    0  0.00000000000E+00  0.00000000000E+00  0.50144094568E+03  0.50144094568E+03  0.00000000000E+00 0. -1.
         -2   -1    0    0    0  501 -0.00000000000E+00 -0.00000000000E+00 -0.41486115181E+03  0.41486115181E+03  0.00000000000E+00 0.  1.
          6    1    1    2  502    0  0.28958542127E+03 -0.18180427167E+03  0.29246085462E+03  0.48169477981E+03  0.17200000000E+03 0. -1.
         -6    1    1    2    0  501 -0.28958542127E+03  0.18180427167E+03 -0.20588106075E+03  0.43460731769E+03  0.17200000000E+03 0.  1.
</event>
<event>
 4    1  0.3094855E-002  0.1931055E+03  0.7818608E-02  0.1155690E+00
          3   -1    0    0  502    0  0.00000000000E+00  0.00000000000E+00  0.40437219732E+03  0.40437219732E+03  0.00000000000E+00 0. -1.
         -3   -1    0    0    0  501 -0.00000000000E+00 -0.00000000000E+00 -0.12164365779E+03  0.12164365779E+03  0.00000000000E+00 0.  1.
          6    1    1    2  502    0  0.23680123370E+02 -0.84528117209E+02  0.12004583322E+02  0.19347832143E+03  0.17200000000E+03 0. -1.
         -6    1    1    2    0  501 -0.23680123370E+02  0.84528117209E+02  0.27072395621E+03  0.33253753368E+03  0.17200000000E+03 0. -1.
</event>
<event>
 4    1  0.3094855E-002  0.4400286E+03  0.7818608E-02  0.1030738E+00
         -2   -1    0    0    0  501 -0.00000000000E+00  0.00000000000E+00  0.42362437275E+03  0.42362437275E+03  0.00000000000E+00 0.  1.
          2   -1    0    0  502    0  0.00000000000E+00 -0.00000000000E+00 -0.53910643023E+03  0.53910643023E+03  0.00000000000E+00 0. -1.
          6    1    1    2  502    0 -0.24242557256E+03 -0.32445488345E+03 -0.24551975185E+03  0.50388994649E+03  0.17200000000E+03 0. -1.
         -6    1    1    2    0  501  0.24242557256E+03  0.32445488345E+03  0.13003769438E+03  0.45884085649E+03  0.17200000000E+03 0.  1.
</event>
<event>
 4    1  0.3094855E-002  0.1801779E+03  0.7818608E-02  0.1167631E+00
          2   -1    0    0  502    0  0.00000000000E+00  0.00000000000E+00  0.18732403405E+03  0.18732403405E+03  0.00000000000E+00 0. -1.
         -2   -1    0    0    0  501 -0.00000000000E+00 -0.00000000000E+00 -0.19827651085E+03  0.19827651085E+03  0.00000000000E+00 0.  1.
          6    1    1    2  502    0 -0.53657082788E+02  0.10031709802E+01  0.62946301691E+02  0.19085682011E+03  0.17200000000E+03 0. -1.
         -6    1    1    2    0  501  0.53657082788E+02 -0.10031709802E+01 -0.73898778485E+02  0.19474372479E+03  0.17200000000E+03 0.  1.
</event>
<event>
 4    1  0.3094855E-002  0.8326176E+03  0.7818608E-02  0.9513969E-01
          2   -1    0    0  502    0  0.00000000000E+00  0.00000000000E+00  0.22354961575E+04  0.22354961575E+04  0.00000000000E+00 0. -1.
         -2   -1    0    0    0  501 -0.00000000000E+00 -0.00000000000E+00 -0.31375410120E+03  0.31375410120E+03  0.00000000000E+00 0.  1.
          6    1    1    2  502    0  0.25319163017E+02 -0.81426467978E+03  0.82352337001E+03  0.11710861496E+04  0.17200000000E+03 0. -1.
         -6    1    1    2    0  501 -0.25319163017E+02  0.81426467978E+03  0.10982186863E+04  0.13781641091E+04  0.17200000000E+03 0.  1.
</event>
<event>
 4    1  0.3094855E-002  0.1840821E+03  0.7818608E-02  0.1163910E+00
         -2   -1    0    0    0  501 -0.00000000000E+00  0.00000000000E+00  0.96992714383E+02  0.96992714383E+02  0.00000000000E+00 0.  1.
          2   -1    0    0  502    0  0.00000000000E+00 -0.00000000000E+00 -0.41725626087E+03  0.41725626087E+03  0.00000000000E+00 0. -1.
          6    1    1    2  502    0  0.16173287992E+02 -0.63565957475E+02 -0.26384580514E+03  0.32171542563E+03  0.17200000000E+03 0. -1.
         -6    1    1    2    0  501 -0.16173287992E+02  0.63565957475E+02 -0.56417741347E+02  0.19253354963E+03  0.17200000000E+03 0.  1.
</event>
<event>
 4    1  0.3094855E-002  0.1822831E+03  0.7818608E-02  0.1165612E+00
         -2   -1    0    0    0  501 -0.00000000000E+00  0.00000000000E+00  0.43603547970E+03  0.43603547970E+03  0.00000000000E+00 0.  1.
          2   -1    0    0  502    0  0.00000000000E+00 -0.00000000000E+00 -0.93764607738E+02  0.93764607738E+02  0.00000000000E+00 0. -1.
          6    1    1    2  502    0  0.33829369830E+02 -0.49986985287E+02  0.56492538425E+02  0.19083640077E+03  0.17200000000E+03 0. -1.
         -6    1    1    2    0  501 -0.33829369830E+02  0.49986985287E+02  0.28577833354E+03  0.33896368667E+03  0.17200000000E+03 0.  1.
</event>
<event>
 4    1  0.3094855E-002  0.4345871E+03  0.7818608E-02  0.1032421E+00
          1   -1    0    0  502    0  0.00000000000E+00  0.00000000000E+00  0.41865148449E+03  0.41865148449E+03  0.00000000000E+00 0. -1.
         -1   -1    0    0    0  501 -0.00000000000E+00 -0.00000000000E+00 -0.16981440227E+04  0.16981440227E+04  0.00000000000E+00 0.  1.
          6    1    1    2  502    0 -0.37184800335E+03 -0.14495188621E+03  0.26723313395E+03  0.51017598414E+03  0.17200000000E+03 0. -1.
         -6    1    1    2    0  501  0.37184800335E+03  0.14495188621E+03 -0.15467256721E+04  0.16066195230E+04  0.17200000000E+03 0.  1.
</event>
<event>
 4    1  0.3094855E-002  0.2423010E+03  0.7818608E-02  0.1118269E+00
          1   -1    0    0  502    0  0.00000000000E+00  0.00000000000E+00  0.56983932334E+03  0.56983932334E+03  0.00000000000E+00 0. -1.
         -1   -1    0    0    0  501 -0.00000000000E+00 -0.00000000000E+00 -0.47154522877E+03  0.47154522877E+03  0.00000000000E+00 0.  1.
          6    1    1    2  502    0 -0.16494244826E+03  0.43815218623E+02  0.50945445554E+03  0.56413972284E+03  0.17200000000E+03 0. -1.
         -6    1    1    2    0  501  0.16494244826E+03 -0.43815218623E+02 -0.41116036097E+03  0.47724482926E+03  0.17200000000E+03 0.  1.
</event>
<event>
 4    1  0.3094855E-002  0.5872053E+03  0.7818608E-02  0.9932312E-01
          1   -1    0    0  502    0  0.00000000000E+00  0.00000000000E+00  0.21924806483E+04  0.21924806483E+04  0.00000000000E+00 0. -1.
         -1   -1    0    0    0  501 -0.00000000000E+00 -0.00000000000E+00 -0.15735913952E+03  0.15735913952E+03  0.00000000000E+00 0.  1.
          6    1    1    2  502    0 -0.34654878097E+03 -0.44173527963E+03  0.98950283359E+03  0.11506198210E+04  0.17200000000E+03 0. -1.
         -6    1    1    2    0  501  0.34654878097E+03  0.44173527963E+03  0.10456186752E+04  0.11992199668E+04  0.17200000000E+03 0.  1.
</event>
<event>
 4    1  0.3094855E-002  0.1868982E+03  0.7818608E-02  0.1161289E+00
          2   -1    0    0  502    0  0.00000000000E+00  0.00000000000E+00  0.75634139506E+03  0.75634139506E+03  0.00000000000E+00 0. -1.
         -2   -1    0    0    0  501 -0.00000000000E+00 -0.00000000000E+00 -0.57859721936E+02  0.57859721936E+02  0.00000000000E+00 0.  1.
          6    1    1    2  502    0 -0.44158615158E+01  0.72989176903E+02  0.53211577762E+03  0.56398414922E+03  0.17200000000E+03 0. -1.
         -6    1    1    2    0  501  0.44158615158E+01 -0.72989176903E+02  0.16636589551E+03  0.25021696778E+03  0.17200000000E+03 0.  1.
</event>
<event>
 4    1  0.3094855E-002  0.3652013E+03  0.7818608E-02  0.1056543E+00
          3   -1    0    0  502    0  0.00000000000E+00  0.00000000000E+00  0.37208861769E+03  0.37208861769E+03  0.00000000000E+00 0. -1.
         -3   -1    0    0    0  501 -0.00000000000E+00 -0.00000000000E+00 -0.89910617259E+03  0.89910617259E+03  0.00000000000E+00 0.  1.
          6    1    1    2  502    0 -0.31062506873E+03 -0.85440340171E+02  0.22937058537E+03  0.43125729035E+03  0.17200000000E+03 0. -1.
         -6    1    1    2    0  501  0.31062506873E+03  0.85440340171E+02 -0.75638814027E+03  0.83993749993E+03  0.17200000000E+03 0.  1.
</event>
<event>
 4    1  0.3094855E-002  0.2107388E+03  0.7818608E-02  0.1140982E+00
          2   -1    0    0  502    0  0.00000000000E+00  0.00000000000E+00  0.11686760213E+04  0.11686760213E+04  0.00000000000E+00 0. -1.
         -2   -1    0    0    0  501 -0.00000000000E+00 -0.00000000000E+00 -0.38036355792E+02  0.38036355792E+02  0.00000000000E+00 0.  1.
          6    1    1    2  502    0  0.11287272880E+03 -0.45679329960E+02  0.54692387391E+03  0.58611993478E+03  0.17200000000E+03 0.  1.
         -6    1    1    2    0  501 -0.11287272880E+03  0.45679329960E+02  0.58371579159E+03  0.62059244230E+03  0.17200000000E+03 0. -1.
</event>
<event>
 4    1  0.3094855E-002  0.7252169E+03  0.7818608E-02  0.9675054E-01
         -2   -1    0    0    0  501 -0.00000000000E+00  0.00000000000E+00  0.19628326417E+03  0.19628326417E+03  0.00000000000E+00 0.  1.
          2   -1    0    0  502    0  0.00000000000E+00 -0.00000000000E+00 -0.27717413983E+04  0.27717413983E+04  0.00000000000E+00 0. -1.
          6    1    1    2  502    0 -0.67998707908E+03  0.18431810087E+03 -0.10169961389E+04  0.12490879619E+04  0.17200000000E+03 0. -1.
         -6    1    1    2    0  501  0.67998707908E+03 -0.18431810087E+03 -0.15584619952E+04  0.17189367006E+04  0.17200000000E+03 0.  1.
</event>
<event>
 4    1  0.3094855E-002  0.1972160E+03  0.7818608E-02  0.1152109E+00
         -2   -1    0    0    0  501 -0.00000000000E+00  0.00000000000E+00  0.25179076755E+03  0.25179076755E+03  0.00000000000E+00 0.  1.
          2   -1    0    0  502    0  0.00000000000E+00 -0.00000000000E+00 -0.39759318459E+03  0.39759318459E+03  0.00000000000E+00 0. -1.
          6    1    1    2  502    0  0.12798814631E+02 -0.95636555085E+02  0.18100021456E+03  0.26768496034E+03  0.17200000000E+03 0.  1.
         -6    1    1    2    0  501 -0.12798814631E+02  0.95636555085E+02 -0.32680263159E+03  0.38169899179E+03  0.17200000000E+03 0. -1.
</event>
<event>
 4    1  0.3094855E-002  0.2299871E+03  0.7818608E-02  0.1126649E+00
         -2   -1    0    0    0  501 -0.00000000000E+00  0.00000000000E+00  0.32823048789E+03  0.32823048789E+03  0.00000000000E+00 0.  1.
          2   -1    0    0  502    0  0.00000000000E+00 -0.00000000000E+00 -0.16120457350E+03  0.16120457350E+03  0.00000000000E+00 0. -1.
          6    1    1    2  502    0 -0.13911857807E+03  0.62897260161E+02  0.78972889967E+02  0.24316817524E+03  0.17200000000E+03 0. -1.
         -6    1    1    2    0  501  0.13911857807E+03 -0.62897260161E+02  0.88053024423E+02  0.24626688614E+03  0.17200000000E+03 0.  1.
</event>
<event>
 4    1  0.3094855E-002  0.2178146E+03  0.7818608E-02  0.1135523E+00
         -2   -1    0    0    0  501 -0.00000000000E+00  0.00000000000E+00  0.49648398246E+02  0.49648398246E+02  0.00000000000E+00 0.  1.
          2   -1    0    0  502    0  0.00000000000E+00 -0.00000000000E+00 -0.97483319916E+03  0.97483319916E+03  0.00000000000E+00 0. -1.
          6    1    1    2  502    0 -0.57885894083E+02 -0.12045086581E+03 -0.53457400433E+03  0.57724566167E+03  0.17200000000E+03 0. -1.
         -6    1    1    2    0  501  0.57885894083E+02  0.12045086581E+03 -0.39061079658E+03  0.44723593573E+03  0.17200000000E+03 0. -1.
</event>
<event>
 4    1  0.3094855E-002  0.3431929E+03  0.7818608E-02  0.1065444E+00
          1   -1    0    0  502    0  0.00000000000E+00  0.00000000000E+00  0.67837219494E+03  0.67837219494E+03  0.00000000000E+00 0. -1.
         -1   -1    0    0    0  501 -0.00000000000E+00 -0.00000000000E+00 -0.17477711463E+03  0.17477711463E+03  0.00000000000E+00 0.  1.
          6    1    1    2  502    0  0.18713627801E+03  0.23060221957E+03  0.28645357425E+03  0.44703134165E+03  0.17200000000E+03 0. -1.
         -6    1    1    2    0  501 -0.18713627801E+03 -0.23060221957E+03  0.21714150606E+03  0.40611796792E+03  0.17200000000E+03 0.  1.
</event>
<event>
 4    1  0.3094855E-002  0.1742546E+03  0.7818608E-02  0.1173482E+00
          2   -1    0    0  502    0  0.00000000000E+00  0.00000000000E+00  0.38366985125E+03  0.38366985125E+03  0.00000000000E+00 0. -1.
         -2   -1    0    0    0  501 -0.00000000000E+00 -0.00000000000E+00 -0.93329671793E+02  0.93329671793E+02  0.00000000000E+00 0.  1.
          6    1    1    2  502    0 -0.17756277966E+02  0.21572685878E+02  0.23815725373E+03  0.29509920990E+03  0.17200000000E+03 0. -1.
         -6    1    1    2    0  501  0.17756277966E+02 -0.21572685878E+02  0.52182925733E+02  0.18190031314E+03  0.17200000000E+03 0.  1.
</event>
<event>
 4    1  0.3094855E-002  0.3282606E+03  0.7818608E-02  0.1071909E+00
          4   -1    0    0  502    0  0.00000000000E+00  0.00000000000E+00  0.15229217786E+03  0.15229217786E+03  0.00000000000E+00 0. -1.
         -4   -1    0    0    0  501 -0.00000000000E+00 -0.00000000000E+00 -0.75547362921E+03  0.75547362921E+03  0.00000000000E+00 0.  1.
          6    1    1    2  502    0  0.71219525082E+02 -0.27036788847E+03 -0.41590188392E+03  0.52983902548E+03  0.17200000000E+03 0.  1.
         -6    1    1    2    0  501 -0.71219525082E+02  0.27036788847E+03 -0.18727956742E+03  0.37792678159E+03  0.17200000000E+03 0.  1.
</event>
<event>
 4    1  0.3094855E-002  0.1760022E+03  0.7818608E-02  0.1171729E+00
         -2   -1    0    0    0  501 -0.00000000000E+00  0.00000000000E+00  0.11774611304E+02  0.11774611304E+02  0.00000000000E+00 0.  1.
          2   -1    0    0  502    0  0.00000000000E+00 -0.00000000000E+00 -0.34510723851E+04  0.34510723851E+04  0.00000000000E+00 0. -1.
          6    1    1    2  502    0  0.37200805521E+02 -0.29809546129E+01 -0.25637650230E+04  0.25697991905E+04  0.17200000000E+03 0. -1.
         -6    1    1    2    0  501 -0.37200805521E+02  0.29809546129E+01 -0.87553275078E+03  0.89304780595E+03  0.17200000000E+03 0.  1.
</event>
<event>
 4    1  0.3094855E-002  0.1835907E+03  0.7818608E-02  0.1164373E+00
         -1   -1    0    0    0  501 -0.00000000000E+00  0.00000000000E+00  0.58361792531E+02  0.58361792531E+02  0.00000000000E+00 0.  1.
          1   -1    0    0  502    0  0.00000000000E+00 -0.00000000000E+00 -0.86188244256E+03  0.86188244256E+03  0.00000000000E+00 0. -1.
          6    1    1    2  502    0  0.49058901395E+02 -0.41409696427E+02 -0.66604957688E+03  0.69088897634E+03  0.17200000000E+03 0. -1.
         -6    1    1    2    0  501 -0.49058901395E+02  0.41409696427E+02 -0.13747107315E+03  0.22935525875E+03  0.17200000000E+03 0.  1.
</event>
<event>
 4    1  0.3094855E-002  0.2325628E+03  0.7818608E-02  0.1124849E+00
         -2   -1    0    0    0  501 -0.00000000000E+00  0.00000000000E+00  0.22576734289E+03  0.22576734289E+03  0.00000000000E+00 0.  1.
          2   -1    0    0  502    0  0.00000000000E+00 -0.00000000000E+00 -0.58592252622E+03  0.58592252622E+03  0.00000000000E+00 0. -1.
          6    1    1    2  502    0  0.15486032437E+03  0.22798001334E+02 -0.49211286629E+03  0.54429821063E+03  0.17200000000E+03 0. -1.
         -6    1    1    2    0  501 -0.15486032437E+03 -0.22798001334E+02  0.13195768296E+03  0.26739165847E+03  0.17200000000E+03 0.  1.
</event>
<event>
 4    1  0.3094855E-002  0.1855502E+03  0.7818608E-02  0.1162537E+00
          1   -1    0    0  502    0  0.00000000000E+00  0.00000000000E+00  0.14808588599E+04  0.14808588599E+04  0.00000000000E+00 0. -1.
         -1   -1    0    0    0  501 -0.00000000000E+00 -0.00000000000E+00 -0.24716136689E+02  0.24716136689E+02  0.00000000000E+00 0.  1.
          6    1    1    2  502    0  0.69397213065E+02  0.53750652451E+01  0.91146308094E+03  0.93015795026E+03  0.17200000000E+03 0. -1.
         -6    1    1    2    0  501 -0.69397213065E+02 -0.53750652451E+01  0.54467964228E+03  0.57541704634E+03  0.17200000000E+03 0.  1.
</event>
<event>
 4    1  0.3094855E-002  0.1724411E+03  0.7818608E-02  0.1175326E+00
          2   -1    0    0  502    0  0.00000000000E+00  0.00000000000E+00  0.26317733297E+04  0.26317733297E+04  0.00000000000E+00 0. -1.
         -2   -1    0    0    0  501 -0.00000000000E+00 -0.00000000000E+00 -0.13819528001E+02  0.13819528001E+02  0.00000000000E+00 0.  1.
          6    1    1    2  502    0 -0.28545657012E+01  0.11991436528E+02  0.18739234400E+04  0.18818408546E+04  0.17200000000E+03 0. -1.
         -6    1    1    2    0  501  0.28545657012E+01 -0.11991436528E+02  0.74403036169E+03  0.76375200308E+03  0.17200000000E+03 0.  1.
</event>
<event>
 4    1  0.3094855E-002  0.6166913E+03  0.7818608E-02  0.9871369E-01
          2   -1    0    0  502    0  0.00000000000E+00  0.00000000000E+00  0.20084403880E+04  0.20084403880E+04  0.00000000000E+00 0. -1.
         -2   -1    0    0    0  501 -0.00000000000E+00 -0.00000000000E+00 -0.18936198427E+03  0.18936198427E+03  0.00000000000E+00 0.  1.
          6    1    1    2  502    0 -0.42401768240E+03  0.41344066763E+03  0.90285375366E+03  0.10933677703E+04  0.17200000000E+03 0. -1.
         -6    1    1    2    0  501  0.42401768240E+03 -0.41344066763E+03  0.91622465008E+03  0.11044346020E+04  0.17200000000E+03 0.  1.
</event>
<event>
 4    1  0.3094855E-002  0.4491127E+03  0.7818608E-02  0.1027987E+00
          2   -1    0    0  502    0  0.00000000000E+00  0.00000000000E+00  0.10669874584E+04  0.10669874584E+04  0.00000000000E+00 0. -1.
         -2   -1    0    0    0  501 -0.00000000000E+00 -0.00000000000E+00 -0.23670164416E+03  0.23670164416E+03  0.00000000000E+00 0.  1.
          6    1    1    2  502    0 -0.90967260053E+02  0.40477550237E+03  0.70764732907E+03  0.83813303959E+03  0.17200000000E+03 0. -1.
         -6    1    1    2    0  501  0.90967260053E+02 -0.40477550237E+03  0.12263848517E+03  0.46555606296E+03  0.17200000000E+03 0.  1.
</event>
<event>
 4    1  0.3094855E-002  0.4690314E+03  0.7818608E-02  0.1022194E+00
         -2   -1    0    0    0  501 -0.00000000000E+00  0.00000000000E+00  0.15202672995E+03  0.15202672995E+03  0.00000000000E+00 0.  1.
          2   -1    0    0  502    0  0.00000000000E+00 -0.00000000000E+00 -0.14565096506E+04  0.14565096506E+04  0.00000000000E+00 0. -1.
          6    1    1    2  502    0 -0.40032674191E+03  0.17362305770E+03 -0.58742974165E+03  0.75170750151E+03  0.17200000000E+03 0. -1.
         -6    1    1    2    0  501  0.40032674191E+03 -0.17362305770E+03 -0.71705317904E+03  0.85682887909E+03  0.17200000000E+03 0.  1.
</event>
<event>
 4    1  0.3094855E-002  0.1876302E+03  0.7818608E-02  0.1160616E+00
          4   -1    0    0  502    0  0.00000000000E+00  0.00000000000E+00  0.16976240544E+03  0.16976240544E+03  0.00000000000E+00 0. -1.
         -4   -1    0    0    0  501 -0.00000000000E+00 -0.00000000000E+00 -0.21098019001E+03  0.21098019001E+03  0.00000000000E+00 0.  1.
          6    1    1    2  502    0 -0.67870510599E+02  0.31854194259E+02 -0.45481748679E+02  0.19306394113E+03  0.17200000000E+03 0.  1.
         -6    1    1    2    0  501  0.67870510599E+02 -0.31854194259E+02  0.42639641094E+01  0.18767865433E+03  0.17200000000E+03 0. -1.
</event>
<event>
 4    1  0.3094855E-002  0.2390716E+03  0.7818608E-02  0.1120413E+00
          4   -1    0    0  502    0  0.00000000000E+00  0.00000000000E+00  0.14368573837E+03  0.14368573837E+03  0.00000000000E+00 0. -1.
         -4   -1    0    0    0  501 -0.00000000000E+00 -0.00000000000E+00 -0.79955315271E+03  0.79955315271E+03  0.00000000000E+00 0.  1.
          6    1    1    2  502    0 -0.12912108084E+03 -0.10439821009E+03  0.63835270245E+01  0.23915682973E+03  0.17200000000E+03 0. -1.
         -6    1    1    2    0  501  0.12912108084E+03  0.10439821009E+03 -0.66225094136E+03  0.70408206135E+03  0.17200000000E+03 0.  1.
</event>
<event>
 4    1  0.3094855E-002  0.3043951E+03  0.7818608E-02  0.1083064E+00
          1   -1    0    0  502    0  0.00000000000E+00  0.00000000000E+00  0.67873814303E+03  0.67873814303E+03  0.00000000000E+00 0. -1.
         -1   -1    0    0    0  501 -0.00000000000E+00 -0.00000000000E+00 -0.20354037256E+03  0.20354037256E+03  0.00000000000E+00 0.  1.
          6    1    1    2  502    0  0.10401431890E+03 -0.22859003239E+03  0.49074861709E+03  0.57748643848E+03  0.17200000000E+03 0. -1.
         -6    1    1    2    0  501 -0.10401431890E+03  0.22859003239E+03 -0.15550846625E+02  0.30479207712E+03  0.17200000000E+03 0.  1.
</event>
<event>
 4    1  0.3094855E-002  0.1869502E+03  0.7818608E-02  0.1161241E+00
          3   -1    0    0  502    0  0.00000000000E+00  0.00000000000E+00  0.38395203834E+02  0.38395203834E+02  0.00000000000E+00 0. -1.
         -3   -1    0    0    0  501 -0.00000000000E+00 -0.00000000000E+00 -0.10556165095E+04  0.10556165095E+04  0.00000000000E+00 0.  1.
          6    1    1    2  502    0  0.54501528515E+02 -0.48948680240E+02 -0.30564333819E+03  0.35828513797E+03  0.17200000000E+03 0. -1.
         -6    1    1    2    0  501 -0.54501528515E+02  0.48948680240E+02 -0.71157796752E+03  0.73572657541E+03  0.17200000000E+03 0.  1.
</event>
<event>
 4    1  0.3094855E-002  0.2268097E+03  0.7818608E-02  0.1128906E+00
         -2   -1    0    0    0  501 -0.00000000000E+00  0.00000000000E+00  0.12063746150E+03  0.12063746150E+03  0.00000000000E+00 0.  1.
          2   -1    0    0  502    0  0.00000000000E+00 -0.00000000000E+00 -0.43307290149E+03  0.43307290149E+03  0.00000000000E+00 0. -1.
          6    1    1    2  502    0  0.89537050445E+02 -0.11765095004E+03 -0.19052360317E+03  0.29621254668E+03  0.17200000000E+03 0. -1.
         -6    1    1    2    0  501 -0.89537050445E+02  0.11765095004E+03 -0.12191183682E+03  0.25749781631E+03  0.17200000000E+03 0.  1.
</event>
<event>
 4    1  0.3094855E-002  0.2131573E+03  0.7818608E-02  0.1139090E+00
          2   -1    0    0  502    0  0.00000000000E+00  0.00000000000E+00  0.55452602972E+03  0.55452602972E+03  0.00000000000E+00 0. -1.
         -2   -1    0    0    0  501 -0.00000000000E+00 -0.00000000000E+00 -0.85812185370E+02  0.85812185370E+02  0.00000000000E+00 0.  1.
          6    1    1    2  502    0  0.12444706689E+03 -0.19104271297E+02  0.16631654508E+03  0.27036501032E+03  0.17200000000E+03 0.  1.
         -6    1    1    2    0  501 -0.12444706689E+03  0.19104271297E+02  0.30239729927E+03  0.36997320477E+03  0.17200000000E+03 0. -1.
</event>
<event>
 4    1  0.3094855E-002  0.3935788E+03  0.7818608E-02  0.1046026E+00
          1   -1    0    0  502    0  0.00000000000E+00  0.00000000000E+00  0.48482131891E+03  0.48482131891E+03  0.00000000000E+00 0. -1.
         -1   -1    0    0    0  501 -0.00000000000E+00 -0.00000000000E+00 -0.35029293015E+03  0.35029293015E+03  0.00000000000E+00 0.  1.
          6    1    1    2  502    0 -0.32550819841E+03 -0.13915692396E+03  0.19104977926E+03  0.43749771985E+03  0.17200000000E+03 0. -1.
         -6    1    1    2    0  501  0.32550819841E+03  0.13915692396E+03 -0.56521390493E+02  0.39761652921E+03  0.17200000000E+03 0.  1.
</event>
<event>
 4    1  0.3094855E-002  0.2740306E+03  0.7818608E-02  0.1098995E+00
          2   -1    0    0  502    0  0.00000000000E+00  0.00000000000E+00  0.79052262525E+03  0.79052262525E+03  0.00000000000E+00 0. -1.
         -2   -1    0    0    0  501 -0.00000000000E+00 -0.00000000000E+00 -0.58288491594E+03  0.58288491594E+03  0.00000000000E+00 0.  1.
          6    1    1    2  502    0 -0.83775208930E+02  0.19618995186E+03  0.73208055483E+03  0.78168709955E+03  0.17200000000E+03 0. -1.
         -6    1    1    2    0  501  0.83775208930E+02 -0.19618995186E+03 -0.52444284552E+03  0.59172044165E+03  0.17200000000E+03 0.  1.
</event>
<event>
 4    1  0.3094855E-002  0.1153447E+04  0.7818608E-02  0.9154610E-01
          2   -1    0    0  502    0  0.00000000000E+00  0.00000000000E+00  0.38144042224E+04  0.38144042224E+04  0.00000000000E+00 0. -1.
         -2   -1    0    0    0  501 -0.00000000000E+00 -0.00000000000E+00 -0.36772166011E+03  0.36772166011E+03  0.00000000000E+00 0.  1.
          6    1    1    2  502    0  0.80423731073E+03 -0.80873808814E+03  0.21977613576E+04  0.24820543773E+04  0.17200000000E+03 0. -1.
         -6    1    1    2    0  501 -0.80423731073E+03  0.80873808814E+03  0.12489212047E+04  0.17000715052E+04  0.17200000000E+03 0.  1.
</event>
<event>
 4    1  0.3094855E-002  0.2286399E+03  0.7818608E-02  0.1127601E+00
          1   -1    0    0  502    0  0.00000000000E+00  0.00000000000E+00  0.92480482915E+02  0.92480482915E+02  0.00000000000E+00 0. -1.
         -1   -1    0    0    0  501 -0.00000000000E+00 -0.00000000000E+00 -0.12807387706E+04  0.12807387706E+04  0.00000000000E+00 0.  1.
          6    1    1    2  502    0  0.15063802868E+03  0.63801735117E+00 -0.11073161746E+04  0.11306747248E+04  0.17200000000E+03 0.  1.
         -6    1    1    2    0  501 -0.15063802868E+03 -0.63801735117E+00 -0.80942113103E+02  0.24254452874E+03  0.17200000000E+03 0. -1.
</event>
<event>
 4    1  0.3094855E-002  0.2109740E+03  0.7818608E-02  0.1140797E+00
          1   -1    0    0  502    0  0.00000000000E+00  0.00000000000E+00  0.91674791393E+03  0.91674791393E+03  0.00000000000E+00 0. -1.
         -1   -1    0    0    0  501 -0.00000000000E+00 -0.00000000000E+00 -0.75121675815E+02  0.75121675815E+02  0.00000000000E+00 0.  1.
          6    1    1    2  502    0  0.11677853578E+03  0.35899780876E+02  0.71575360823E+03  0.74619920154E+03  0.17200000000E+03 0. -1.
         -6    1    1    2    0  501 -0.11677853578E+03 -0.35899780876E+02  0.12587262988E+03  0.24567038820E+03  0.17200000000E+03 0.  1.
</event>
<event>
 4    1  0.3094855E-002  0.2084005E+03  0.7818608E-02  0.1142839E+00
         -2   -1    0    0    0  501 -0.00000000000E+00  0.00000000000E+00  0.29753565445E+02  0.29753565445E+02  0.00000000000E+00 0.  1.
          2   -1    0    0  502    0  0.00000000000E+00 -0.00000000000E+00 -0.14692062039E+04  0.14692062039E+04  0.00000000000E+00 0. -1.
          6    1    1    2  502    0 -0.11759886468E+03 -0.41555679172E+01 -0.78006826433E+03  0.80742631784E+03  0.17200000000E+03 0. -1.
         -6    1    1    2    0  501  0.11759886468E+03  0.41555679172E+01 -0.65938437413E+03  0.69153345151E+03  0.17200000000E+03 0.  1.
</event>
<event>
 4    1  0.3094855E-002  0.2660782E+03  0.7818608E-02  0.1103545E+00
         -1   -1    0    0    0  501 -0.00000000000E+00  0.00000000000E+00  0.79617249652E+03  0.79617249652E+03  0.00000000000E+00 0.  1.
          1   -1    0    0  502    0  0.00000000000E+00 -0.00000000000E+00 -0.98501039218E+02  0.98501039218E+02  0.00000000000E+00 0. -1.
          6    1    1    2  502    0  0.19799022820E+03  0.44871527987E+02  0.48833298373E+03  0.55611751230E+03  0.17200000000E+03 0. -1.
         -6    1    1    2    0  501 -0.19799022820E+03 -0.44871527987E+02  0.20933847357E+03  0.33855602344E+03  0.17200000000E+03 0.  1.
</event>
<event>
 4    1  0.3094855E-002  0.2139773E+03  0.7818608E-02  0.1138455E+00
          1   -1    0    0  502    0  0.00000000000E+00  0.00000000000E+00  0.87016175155E+03  0.87016175155E+03  0.00000000000E+00 0. -1.
         -1   -1    0    0    0  501 -0.00000000000E+00 -0.00000000000E+00 -0.90317927230E+02  0.90317927230E+02  0.00000000000E+00 0.  1.
          6    1    1    2  502    0  0.35273550847E+02  0.12230306994E+03  0.70019266729E+03  0.73215847713E+03  0.17200000000E+03 0. -1.
         -6    1    1    2    0  501 -0.35273550847E+02 -0.12230306994E+03  0.79651157029E+02  0.22832120165E+03  0.17200000000E+03 0.  1.
</event>
<event>
 4    1  0.3094855E-002  0.1819064E+03  0.7818608E-02  0.1165971E+00
          2   -1    0    0  502    0  0.00000000000E+00  0.00000000000E+00  0.83160974483E+02  0.83160974483E+02  0.00000000000E+00 0. -1.
         -2   -1    0    0    0  501 -0.00000000000E+00 -0.00000000000E+00 -0.39891759520E+03  0.39891759520E+03  0.00000000000E+00 0.  1.
          6    1    1    2  502    0  0.39764006911E+02 -0.43872289863E+02 -0.17003776197E+03  0.24900360351E+03  0.17200000000E+03 0.  1.
         -6    1    1    2    0  501 -0.39764006911E+02  0.43872289863E+02 -0.14571885875E+03  0.23307496618E+03  0.17200000000E+03 0. -1.
</event>
<event>
 4    1  0.3094855E-002  0.7277819E+03  0.7818608E-02  0.9670867E-01
         -1   -1    0    0    0  501 -0.00000000000E+00  0.00000000000E+00  0.33078628106E+03  0.33078628106E+03  0.00000000000E+00 0.  1.
          1   -1    0    0  502    0  0.00000000000E+00 -0.00000000000E+00 -0.23516709668E+04  0.23516709668E+04  0.00000000000E+00 0. -1.
          6    1    1    2  502    0 -0.63608048714E+03  0.30900504670E+03 -0.17680972014E+04  0.19120235926E+04  0.17200000000E+03 0. -1.
         -6    1    1    2    0  501  0.63608048714E+03 -0.30900504670E+03 -0.25278748442E+03  0.77043365534E+03  0.17200000000E+03 0.  1.
</event>
<event>
 4    1  0.3094855E-002  0.5907553E+03  0.7818608E-02  0.9924774E-01
         -2   -1    0    0    0  501 -0.00000000000E+00  0.00000000000E+00  0.10830175261E+04  0.10830175261E+04  0.00000000000E+00 0.  1.
          2   -1    0    0  502    0  0.00000000000E+00 -0.00000000000E+00 -0.32585037741E+03  0.32585037741E+03  0.00000000000E+00 0. -1.
          6    1    1    2  502    0 -0.54558872792E+03 -0.14744768257E+03  0.30443715779E+03  0.66458548146E+03  0.17200000000E+03 0. -1.
         -6    1    1    2    0  501  0.54558872792E+03  0.14744768257E+03  0.45272999089E+03  0.74428242206E+03  0.17200000000E+03 0.  1.
</event>
<event>
 4    1  0.3094855E-002  0.1913034E+03  0.7818608E-02  0.1157291E+00
         -2   -1    0    0    0  501 -0.00000000000E+00  0.00000000000E+00  0.16111014225E+03  0.16111014225E+03  0.00000000000E+00 0.  1.
          2   -1    0    0  502    0  0.00000000000E+00 -0.00000000000E+00 -0.36626575266E+03  0.36626575266E+03  0.00000000000E+00 0. -1.
          6    1    1    2  502    0  0.81433288552E+02 -0.19534411665E+02 -0.26508495748E+03  0.32690519789E+03  0.17200000000E+03 0. -1.
         -6    1    1    2    0  501 -0.81433288552E+02  0.19534411665E+02  0.59929347080E+02  0.20047069702E+03  0.17200000000E+03 0.  1.
</event>
<event>
 4    1  0.3094855E-002  0.4405447E+03  0.7818608E-02  0.1030580E+00
          2   -1    0    0  502    0  0.00000000000E+00  0.00000000000E+00  0.21777724760E+04  0.21777724760E+04  0.00000000000E+00 0. -1.
         -2   -1    0    0    0  501 -0.00000000000E+00 -0.00000000000E+00 -0.11801103143E+03  0.11801103143E+03  0.00000000000E+00 0.  1.
          6    1    1    2  502    0  0.13556422441E+03  0.38225379504E+03  0.15978607942E+04  0.16574796350E+04  0.17200000000E+03 0. -1.
         -6    1    1    2    0  501 -0.13556422441E+03 -0.38225379504E+03  0.46190065038E+03  0.63830387245E+03  0.17200000000E+03 0.  1.
</event>
<event>
 4    1  0.3094855E-002  0.1986336E+03  0.7818608E-02  0.1150897E+00
         -1   -1    0    0    0  501 -0.00000000000E+00  0.00000000000E+00  0.68903198908E+02  0.68903198908E+02  0.00000000000E+00 0.  1.
          1   -1    0    0  502    0  0.00000000000E+00 -0.00000000000E+00 -0.61693576974E+03  0.61693576974E+03  0.00000000000E+00 0. -1.
          6    1    1    2  502    0 -0.29666121889E+02  0.94822112065E+02 -0.36592443866E+03  0.41636042864E+03  0.17200000000E+03 0. -1.
         -6    1    1    2    0  501  0.29666121889E+02 -0.94822112065E+02 -0.18210813217E+03  0.26947854001E+03  0.17200000000E+03 0.  1.
</event>
<event>
 4    1  0.3094855E-002  0.1720518E+03  0.7818608E-02  0.1175725E+00
          1   -1    0    0  502    0  0.00000000000E+00  0.00000000000E+00  0.75436657797E+02  0.75436657797E+02  0.00000000000E+00 0. -1.
         -1   -1    0    0    0  501 -0.00000000000E+00 -0.00000000000E+00 -0.54596739578E+03  0.54596739578E+03  0.00000000000E+00 0.  1.
          6    1    1    2  502    0 -0.47372893457E+00  0.41931124010E+01 -0.40004426170E+03  0.43547355594E+03  0.17200000000E+03 0.  1.
         -6    1    1    2    0  501  0.47372893457E+00 -0.41931124010E+01 -0.70486476287E+02  0.18593049763E+03  0.17200000000E+03 0. -1.
</event>
<event>
 4    1  0.3094855E-002  0.1793388E+03  0.7818608E-02  0.1168444E+00
          2   -1    0    0  502    0  0.00000000000E+00  0.00000000000E+00  0.40970964916E+03  0.40970964916E+03  0.00000000000E+00 0. -1.
         -2   -1    0    0    0  501 -0.00000000000E+00 -0.00000000000E+00 -0.17493912412E+03  0.17493912412E+03  0.00000000000E+00 0.  1.
          6    1    1    2  502    0  0.16104052447E+02  0.48156812344E+02  0.33442888983E+03  0.37948004089E+03  0.17200000000E+03 0. -1.
         -6    1    1    2    0  501 -0.16104052447E+02 -0.48156812344E+02 -0.99658364786E+02  0.20516873239E+03  0.17200000000E+03 0.  1.
</event>
<event>
 4    1  0.3094855E-002  0.1832579E+03  0.7818608E-02  0.1164687E+00
          1   -1    0    0  502    0  0.00000000000E+00  0.00000000000E+00  0.22230452949E+04  0.22230452949E+04  0.00000000000E+00 0. -1.
         -1   -1    0    0    0  501 -0.00000000000E+00 -0.00000000000E+00 -0.29039948140E+02  0.29039948140E+02  0.00000000000E+00 0.  1.
          6    1    1    2  502    0  0.24473907563E+02 -0.58313661528E+02  0.18769747450E+04  0.18858996921E+04  0.17200000000E+03 0. -1.
         -6    1    1    2    0  501 -0.24473907563E+02  0.58313661528E+02  0.31703060178E+03  0.36618555097E+03  0.17200000000E+03 0.  1.
</event>
<event>
 4    1  0.3094855E-002  0.1731618E+03  0.7818608E-02  0.1174590E+00
         -2   -1    0    0    0  501 -0.00000000000E+00  0.00000000000E+00  0.54162855527E+02  0.54162855527E+02  0.00000000000E+00 0.  1.
          2   -1    0    0  502    0  0.00000000000E+00 -0.00000000000E+00 -0.61576154761E+03  0.61576154761E+03  0.00000000000E+00 0. -1.
          6    1    1    2  502    0  0.15872916551E+02  0.12209512068E+02 -0.17438003416E+03  0.24575072325E+03  0.17200000000E+03 0.  1.
         -6    1    1    2    0  501 -0.15872916551E+02 -0.12209512068E+02 -0.38721865793E+03  0.42417367989E+03  0.17200000000E+03 0. -1.
</event>
<event>
 4    1  0.3094855E-002  0.4583814E+03  0.7818608E-02  0.1025252E+00
         -2   -1    0    0    0  501 -0.00000000000E+00  0.00000000000E+00  0.30748169447E+03  0.30748169447E+03  0.00000000000E+00 0.  1.
          2   -1    0    0  502    0  0.00000000000E+00 -0.00000000000E+00 -0.90783662073E+03  0.90783662073E+03  0.00000000000E+00 0. -1.
          6    1    1    2  502    0  0.42488622229E+03  0.11099631470E+01 -0.60235645703E+03  0.75693251696E+03  0.17200000000E+03 0. -1.
         -6    1    1    2    0  501 -0.42488622229E+03 -0.11099631470E+01  0.20015307665E+01  0.45838579825E+03  0.17200000000E+03 0.  1.
</event>
<event>
 4    1  0.3094855E-002  0.1884764E+03  0.7818608E-02  0.1159843E+00
         -2   -1    0    0    0  501 -0.00000000000E+00  0.00000000000E+00  0.75293009020E+02  0.75293009020E+02  0.00000000000E+00 0.  1.
          2   -1    0    0  502    0  0.00000000000E+00 -0.00000000000E+00 -0.10453961989E+04  0.10453961989E+04  0.00000000000E+00 0. -1.
          6    1    1    2  502    0  0.48196142164E+02  0.60137081210E+02 -0.69985374443E+02  0.20105046454E+03  0.17200000000E+03 0.  1.
         -6    1    1    2    0  501 -0.48196142164E+02 -0.60137081210E+02 -0.90011781542E+03  0.91963874336E+03  0.17200000000E+03 0. -1.
</event>
<event>
 4    1  0.3094855E-002  0.1862070E+03  0.7818608E-02  0.1161928E+00
          1   -1    0    0  502    0  0.00000000000E+00  0.00000000000E+00  0.39840099022E+03  0.39840099022E+03  0.00000000000E+00 0. -1.
         -1   -1    0    0    0  501 -0.00000000000E+00 -0.00000000000E+00 -0.20267857372E+03  0.20267857372E+03  0.00000000000E+00 0.  1.
          6    1    1    2  502    0  0.13702193023E+02 -0.70009163405E+02  0.32488285488E+03  0.37446215089E+03  0.17200000000E+03 0. -1.
         -6    1    1    2    0  501 -0.13702193023E+02  0.70009163405E+02 -0.12916043838E+03  0.22661741305E+03  0.17200000000E+03 0.  1.
</event>
<event>
 4    1  0.3094855E-002  0.1919018E+03  0.7818608E-02  0.1156757E+00
         -2   -1    0    0    0  501 -0.00000000000E+00  0.00000000000E+00  0.12571644107E+03  0.12571644107E+03  0.00000000000E+00 0.  1.
          2   -1    0    0  502    0  0.00000000000E+00 -0.00000000000E+00 -0.31633816765E+03  0.31633816765E+03  0.00000000000E+00 0. -1.
          6    1    1    2  502    0  0.28108701777E+02 -0.80325488421E+02 -0.15543399315E+03  0.24695345600E+03  0.17200000000E+03 0.  1.
         -6    1    1    2    0  501 -0.28108701777E+02  0.80325488421E+02 -0.35187733436E+02  0.19510115271E+03  0.17200000000E+03 0.  1.
</event>
<event>
 4    1  0.3094855E-002  0.3386355E+03  0.7818608E-02  0.1067379E+00
         -2   -1    0    0    0  501 -0.00000000000E+00  0.00000000000E+00  0.13470805381E+03  0.13470805381E+03  0.00000000000E+00 0.  1.
          2   -1    0    0  502    0  0.00000000000E+00 -0.00000000000E+00 -0.96790588259E+03  0.96790588259E+03  0.00000000000E+00 0. -1.
          6    1    1    2  502    0  0.76674918521E+01 -0.29160111542E+03 -0.22522702887E+03  0.40669548249E+03  0.17200000000E+03 0. -1.
         -6    1    1    2    0  501 -0.76674918521E+01  0.29160111542E+03 -0.60797079992E+03  0.69591845391E+03  0.17200000000E+03 0.  1.
</event>
<event>
 4    1  0.3094855E-002  0.1979502E+03  0.7818608E-02  0.1151480E+00
          2   -1    0    0  502    0  0.00000000000E+00  0.00000000000E+00  0.76335012463E+03  0.76335012463E+03  0.00000000000E+00 0. -1.
         -2   -1    0    0    0  501 -0.00000000000E+00 -0.00000000000E+00 -0.75185150689E+02  0.75185150689E+02  0.00000000000E+00 0.  1.
          6    1    1    2  502    0 -0.96150201911E+02 -0.18852229557E+02  0.58023818407E+03  0.61307472476E+03  0.17200000000E+03 0. -1.
         -6    1    1    2    0  501  0.96150201911E+02  0.18852229557E+02  0.10792678987E+03  0.22546055056E+03  0.17200000000E+03 0.  1.
</event>
<event>
 4    1  0.3094855E-002  0.1823958E+03  0.7818608E-02  0.1165504E+00
         -2   -1    0    0    0  501 -0.00000000000E+00  0.00000000000E+00  0.81907955414E+02  0.81907955414E+02  0.00000000000E+00 0.  1.
          2   -1    0    0  502    0  0.00000000000E+00 -0.00000000000E+00 -0.40632955748E+03  0.40632955748E+03  0.00000000000E+00 0. -1.
          6    1    1    2  502    0 -0.60538275443E+02  0.43971505927E+01 -0.16711018215E+03  0.24737427252E+03  0.17200000000E+03 0. -1.
         -6    1    1    2    0  501  0.60538275443E+02 -0.43971505927E+01 -0.15731141991E+03  0.24086324037E+03  0.17200000000E+03 0.  1.
</event>
<event>
 4    1  0.3094855E-002  0.1871130E+03  0.7818608E-02  0.1161091E+00
          1   -1    0    0  502    0  0.00000000000E+00  0.00000000000E+00  0.74384483452E+03  0.74384483452E+03  0.00000000000E+00 0. -1.
         -1   -1    0    0    0  501 -0.00000000000E+00 -0.00000000000E+00 -0.48133040735E+02  0.48133040735E+02  0.00000000000E+00 0.  1.
          6    1    1    2  502    0 -0.48773041898E+01 -0.73508335574E+02  0.28895099807E+03  0.34424401634E+03  0.17200000000E+03 0. -1.
         -6    1    1    2    0  501  0.48773041898E+01  0.73508335574E+02  0.40676079571E+03  0.44773385891E+03  0.17200000000E+03 0. -1.
</event>
<event>
 4    1  0.3094855E-002  0.2235995E+03  0.7818608E-02  0.1131228E+00
         -2   -1    0    0    0  501 -0.00000000000E+00  0.00000000000E+00  0.11263979401E+03  0.11263979401E+03  0.00000000000E+00 0.  1.
          2   -1    0    0  502    0  0.00000000000E+00 -0.00000000000E+00 -0.58783680006E+03  0.58783680006E+03  0.00000000000E+00 0. -1.
          6    1    1    2  502    0  0.28665307731E+02 -0.13996803156E+03 -0.41092919476E+03  0.46782427559E+03  0.17200000000E+03 0. -1.
         -6    1    1    2    0  501 -0.28665307731E+02  0.13996803156E+03 -0.64267811289E+02  0.23265231848E+03  0.17200000000E+03 0.  1.
</event>
<event>
 4    1  0.3094855E-002  0.2325754E+03  0.7818608E-02  0.1124840E+00
          2   -1    0    0  502    0  0.00000000000E+00  0.00000000000E+00  0.44921938008E+03  0.44921938008E+03  0.00000000000E+00 0. -1.
         -2   -1    0    0    0  501 -0.00000000000E+00 -0.00000000000E+00 -0.25138648694E+03  0.25138648694E+03  0.00000000000E+00 0.  1.
          6    1    1    2  502    0 -0.15502991608E+03  0.21749816103E+02  0.35176847274E+03  0.42170177590E+03  0.17200000000E+03 0. -1.
         -6    1    1    2    0  501  0.15502991608E+03 -0.21749816103E+02 -0.15393557960E+03  0.27890409113E+03  0.17200000000E+03 0.  1.
</event>
<event>
 4    1  0.3094855E-002  0.2320637E+03  0.7818608E-02  0.1125196E+00
          1   -1    0    0  502    0  0.00000000000E+00  0.00000000000E+00  0.35374282555E+03  0.35374282555E+03  0.00000000000E+00 0. -1.
         -1   -1    0    0    0  501 -0.00000000000E+00 -0.00000000000E+00 -0.16020142184E+03  0.16020142184E+03  0.00000000000E+00 0.  1.
          6    1    1    2  502    0 -0.44398017962E+02 -0.14932639835E+03  0.15405920347E+03  0.27854585874E+03  0.17200000000E+03 0. -1.
         -6    1    1    2    0  501  0.44398017962E+02  0.14932639835E+03  0.39482200237E+02  0.23539838865E+03  0.17200000000E+03 0.  1.
</event>
<event>
 4    1  0.3094855E-002  0.2020911E+03  0.7818608E-02  0.1147987E+00
         -4   -1    0    0    0  501 -0.00000000000E+00  0.00000000000E+00  0.25253675484E+03  0.25253675484E+03  0.00000000000E+00 0.  1.
          4   -1    0    0  502    0  0.00000000000E+00 -0.00000000000E+00 -0.19068747233E+03  0.19068747233E+03  0.00000000000E+00 0. -1.
          6    1    1    2  502    0 -0.98904351339E+02  0.38402566792E+02 -0.55446843109E+02  0.20955949098E+03  0.17200000000E+03 0. -1.
         -6    1    1    2    0  501  0.98904351339E+02 -0.38402566792E+02  0.11729612562E+03  0.23366473618E+03  0.17200000000E+03 0.  1.
</event>
<event>
 4    1  0.3094855E-002  0.1851626E+03  0.7818608E-02  0.1162898E+00
         -1   -1    0    0    0  501 -0.00000000000E+00  0.00000000000E+00  0.58960128367E+02  0.58960128367E+02  0.00000000000E+00 0.  1.
          1   -1    0    0  502    0  0.00000000000E+00 -0.00000000000E+00 -0.73773510942E+03  0.73773510942E+03  0.00000000000E+00 0. -1.
          6    1    1    2  502    0  0.66442686119E+02  0.16928482028E+02 -0.52270498995E+03  0.55453197433E+03  0.17200000000E+03 0. -1.
         -6    1    1    2    0  501 -0.66442686119E+02 -0.16928482028E+02 -0.15606999110E+03  0.24216326345E+03  0.17200000000E+03 0.  1.
</event>
<event>
 4    1  0.3094855E-002  0.2875836E+03  0.7818608E-02  0.1091618E+00
         -1   -1    0    0    0  501 -0.00000000000E+00  0.00000000000E+00  0.30121744018E+03  0.30121744018E+03  0.00000000000E+00 0.  1.
          1   -1    0    0  502    0  0.00000000000E+00 -0.00000000000E+00 -0.38107616967E+03  0.38107616967E+03  0.00000000000E+00 0. -1.
          6    1    1    2  502    0  0.13957303315E+03 -0.18341131037E+03 -0.22028474614E+03  0.36225641434E+03  0.17200000000E+03 0. -1.
         -6    1    1    2    0  501 -0.13957303315E+03  0.18341131037E+03  0.14042601665E+03  0.32003719550E+03  0.17200000000E+03 0.  1.
</event>
<event>
 4    1  0.3094855E-002  0.2192304E+03  0.7818608E-02  0.1134458E+00
         -2   -1    0    0    0  501 -0.00000000000E+00  0.00000000000E+00  0.51607778107E+02  0.51607778107E+02  0.00000000000E+00 0.  1.
          2   -1    0    0  502    0  0.00000000000E+00 -0.00000000000E+00 -0.94922102406E+03  0.94922102406E+03  0.00000000000E+00 0. -1.
          6    1    1    2  502    0 -0.11581202090E+03 -0.71172485999E+02 -0.38003393682E+03  0.43873424767E+03  0.17200000000E+03 0. -1.
         -6    1    1    2    0  501  0.11581202090E+03  0.71172485999E+02 -0.51757930913E+03  0.56209455449E+03  0.17200000000E+03 0. -1.
</event>
<event>
 4    1  0.3094855E-002  0.1876354E+03  0.7818608E-02  0.1160612E+00
         -3   -1    0    0    0  501 -0.00000000000E+00  0.00000000000E+00  0.52743112630E+03  0.52743112630E+03  0.00000000000E+00 0.  1.
          3   -1    0    0  502    0  0.00000000000E+00 -0.00000000000E+00 -0.76648090764E+02  0.76648090764E+02  0.00000000000E+00 0. -1.
          6    1    1    2  502    0 -0.26579624876E+02 -0.70118215981E+02  0.11686226699E+03  0.22105164581E+03  0.17200000000E+03 0. -1.
         -6    1    1    2    0  501  0.26579624876E+02  0.70118215981E+02  0.33392076855E+03  0.38302757125E+03  0.17200000000E+03 0.  1.
</event>
<event>
 4    1  0.3094855E-002  0.3272747E+03  0.7818608E-02  0.1072349E+00
          1   -1    0    0  502    0  0.00000000000E+00  0.00000000000E+00  0.58458313730E+03  0.58458313730E+03  0.00000000000E+00 0. -1.
         -1   -1    0    0    0  501 -0.00000000000E+00 -0.00000000000E+00 -0.21660230344E+03  0.21660230344E+03  0.00000000000E+00 0.  1.
          6    1    1    2  502    0  0.13593927629E+02 -0.27810054396E+03  0.26731870930E+02  0.32836458448E+03  0.17200000000E+03 0. -1.
         -6    1    1    2    0  501 -0.13593927629E+02  0.27810054396E+03  0.34124896293E+03  0.47282085626E+03  0.17200000000E+03 0.  1.
</event>
<event>
 4    1  0.3094855E-002  0.4247769E+03  0.7818608E-02  0.1035523E+00
          2   -1    0    0  502    0  0.00000000000E+00  0.00000000000E+00  0.25485296081E+04  0.25485296081E+04  0.00000000000E+00 0. -1.
         -2   -1    0    0    0  501 -0.00000000000E+00 -0.00000000000E+00 -0.20180724347E+03  0.20180724347E+03  0.00000000000E+00 0.  1.
          6    1    1    2  502    0 -0.20859684793E+03  0.32762595035E+03  0.22813502845E+04  0.23205590983E+04  0.17200000000E+03 0. -1.
         -6    1    1    2    0  501  0.20859684793E+03 -0.32762595035E+03  0.65372080134E+02  0.42977775323E+03  0.17200000000E+03 0.  1.
</event>
<event>
 4    1  0.3094855E-002  0.1887077E+03  0.7818608E-02  0.1159632E+00
         -2   -1    0    0    0  501 -0.00000000000E+00  0.00000000000E+00  0.54455646592E+02  0.54455646592E+02  0.00000000000E+00 0.  1.
          2   -1    0    0  502    0  0.00000000000E+00 -0.00000000000E+00 -0.65550925596E+03  0.65550925596E+03  0.00000000000E+00 0. -1.
          6    1    1    2  502    0 -0.36252664871E+02  0.68646623774E+02 -0.31790664976E+03  0.36969616258E+03  0.17200000000E+03 0.  1.
         -6    1    1    2    0  501  0.36252664871E+02 -0.68646623774E+02 -0.28314695961E+03  0.34026873997E+03  0.17200000000E+03 0.  1.
</event>
<event>
 4    1  0.3094855E-002  0.2938268E+03  0.7818608E-02  0.1088368E+00
         -1   -1    0    0    0  501 -0.00000000000E+00  0.00000000000E+00  0.67288070527E+02  0.67288070527E+02  0.00000000000E+00 0.  1.
          1   -1    0    0  502    0  0.00000000000E+00 -0.00000000000E+00 -0.12909676341E+04  0.12909676341E+04  0.00000000000E+00 0. -1.
          6    1    1    2  502    0  0.72531696500E+02  0.22691264333E+03 -0.66501330615E+03  0.72703293739E+03  0.17200000000E+03 0. -1.
         -6    1    1    2    0  501 -0.72531696500E+02 -0.22691264333E+03 -0.55866625747E+03  0.63122276728E+03  0.17200000000E+03 0.  1.
</event>
<event>
 4    1  0.3094855E-002  0.3353261E+03  0.7818608E-02  0.1068804E+00
         -1   -1    0    0    0  501 -0.00000000000E+00  0.00000000000E+00  0.78932182744E+03  0.78932182744E+03  0.00000000000E+00 0.  1.
          1   -1    0    0  502    0  0.00000000000E+00 -0.00000000000E+00 -0.15440719297E+03  0.15440719297E+03  0.00000000000E+00 0. -1.
          6    1    1    2  502    0 -0.98120280638E+02 -0.27061412421E+03  0.18617990068E+03  0.38354471592E+03  0.17200000000E+03 0. -1.
         -6    1    1    2    0  501  0.98120280638E+02  0.27061412421E+03  0.44873473379E+03  0.56018430449E+03  0.17200000000E+03 0.  1.
</event>
<event>
 4    1  0.3094855E-002  0.6045844E+03  0.7818608E-02  0.9895940E-01
          2   -1    0    0  502    0  0.00000000000E+00  0.00000000000E+00  0.14078124468E+04  0.14078124468E+04  0.00000000000E+00 0. -1.
         -2   -1    0    0    0  501 -0.00000000000E+00 -0.00000000000E+00 -0.26492929927E+03  0.26492929927E+03  0.00000000000E+00 0.  1.
          6    1    1    2  502    0  0.22670648245E+03 -0.53342526531E+03  0.68963508812E+03  0.91712534456E+03  0.17200000000E+03 0. -1.
         -6    1    1    2    0  501 -0.22670648245E+03  0.53342526531E+03  0.45324805936E+03  0.75561640147E+03  0.17200000000E+03 0.  1.
</event>
<event>
 4    1  0.3094855E-002  0.1751306E+03  0.7818608E-02  0.1172601E+00
         -2   -1    0    0    0  501 -0.00000000000E+00  0.00000000000E+00  0.45151768732E+03  0.45151768732E+03  0.00000000000E+00 0.  1.
          2   -1    0    0  502    0  0.00000000000E+00 -0.00000000000E+00 -0.99903844655E+02  0.99903844655E+02  0.00000000000E+00 0. -1.
          6    1    1    2  502    0  0.61416107717E+01 -0.32388458962E+02  0.19825432189E+02  0.17624919693E+03  0.17200000000E+03 0. -1.
         -6    1    1    2    0  501 -0.61416107717E+01  0.32388458962E+02  0.33178841047E+03  0.37517233504E+03  0.17200000000E+03 0.  1.
</event>
<event>
 4    1  0.3094855E-002  0.1931421E+03  0.7818608E-02  0.1155657E+00
          2   -1    0    0  502    0  0.00000000000E+00  0.00000000000E+00  0.41587345568E+02  0.41587345568E+02  0.00000000000E+00 0. -1.
         -2   -1    0    0    0  501 -0.00000000000E+00 -0.00000000000E+00 -0.94029111027E+03  0.94029111027E+03  0.00000000000E+00 0.  1.
          6    1    1    2  502    0  0.48413845102E+02 -0.73321137662E+02 -0.55469132815E+03  0.58735539425E+03  0.17200000000E+03 0. -1.
         -6    1    1    2    0  501 -0.48413845102E+02  0.73321137662E+02 -0.34401243655E+03  0.39452306159E+03  0.17200000000E+03 0.  1.
</event>
<event>
 4    1  0.3094855E-002  0.3149522E+03  0.7818608E-02  0.1077996E+00
          1   -1    0    0  502    0  0.00000000000E+00  0.00000000000E+00  0.30701107597E+04  0.30701107597E+04  0.00000000000E+00 0. -1.
         -1   -1    0    0    0  501 -0.00000000000E+00 -0.00000000000E+00 -0.32428816452E+02  0.32428816452E+02  0.00000000000E+00 0.  1.
          6    1    1    2  502    0 -0.12759448117E+03  0.23093409850E+03  0.16127872816E+04  0.16432521794E+04  0.17200000000E+03 0. -1.
         -6    1    1    2    0  501  0.12759448117E+03 -0.23093409850E+03  0.14248946617E+04  0.14592873968E+04  0.17200000000E+03 0.  1.
</event>
<event>
 4    1  0.3094855E-002  0.2137158E+03  0.7818608E-02  0.1138657E+00
          2   -1    0    0  502    0  0.00000000000E+00  0.00000000000E+00  0.36971928082E+03  0.36971928082E+03  0.00000000000E+00 0. -1.
         -2   -1    0    0    0  501 -0.00000000000E+00 -0.00000000000E+00 -0.13143961210E+03  0.13143961210E+03  0.00000000000E+00 0.  1.
          6    1    1    2  502    0 -0.20658872299E+02  0.12515444716E+03  0.18057780804E+03  0.27979058134E+03  0.17200000000E+03 0.  1.
         -6    1    1    2    0  501  0.20658872299E+02 -0.12515444716E+03  0.57701860682E+02  0.22136831159E+03  0.17200000000E+03 0. -1.
</event>
<event>
 4    1  0.3094855E-002  0.5012930E+03  0.7818608E-02  0.1013442E+00
          3   -1    0    0  502    0  0.00000000000E+00  0.00000000000E+00  0.60756424645E+03  0.60756424645E+03  0.00000000000E+00 0. -1.
         -3   -1    0    0    0  501 -0.00000000000E+00 -0.00000000000E+00 -0.74416364222E+03  0.74416364222E+03  0.00000000000E+00 0.  1.
          6    1    1    2  502    0  0.44881048126E+03  0.14240710179E+03 -0.51874913307E+03  0.72138428995E+03  0.17200000000E+03 0. -1.
         -6    1    1    2    0  501 -0.44881048126E+03 -0.14240710179E+03  0.38214973730E+03  0.63034359872E+03  0.17200000000E+03 0. -1.
</event>
<event>
 4    1  0.3094855E-002  0.2567787E+03  0.7818608E-02  0.1109094E+00
         -2   -1    0    0    0  501 -0.00000000000E+00  0.00000000000E+00  0.72130293211E+02  0.72130293211E+02  0.00000000000E+00 0.  1.
          2   -1    0    0  502    0  0.00000000000E+00 -0.00000000000E+00 -0.93754179582E+03  0.93754179582E+03  0.00000000000E+00 0. -1.
          6    1    1    2  502    0 -0.17023690578E+03 -0.85852887966E+02 -0.51250875890E+03  0.57323690601E+03  0.17200000000E+03 0. -1.
         -6    1    1    2    0  501  0.17023690578E+03  0.85852887966E+02 -0.35290274372E+03  0.43643518303E+03  0.17200000000E+03 0.  1.
</event>
<event>
 4    1  0.3094855E-002  0.2625496E+03  0.7818608E-02  0.1105621E+00
          2   -1    0    0  502    0  0.00000000000E+00  0.00000000000E+00  0.60402908615E+03  0.60402908615E+03  0.00000000000E+00 0. -1.
         -2   -1    0    0    0  501 -0.00000000000E+00 -0.00000000000E+00 -0.13098874470E+03  0.13098874470E+03  0.00000000000E+00 0.  1.
          6    1    1    2  502    0 -0.25078002068E+02  0.19677246960E+03  0.36840090822E+03  0.45238428372E+03  0.17200000000E+03 0. -1.
         -6    1    1    2    0  501  0.25078002068E+02 -0.19677246960E+03  0.10463943323E+03  0.28263354714E+03  0.17200000000E+03 0.  1.
</event>
<event>
 4    1  0.3094855E-002  0.2556067E+03  0.7818608E-02  0.1109812E+00
          1   -1    0    0  502    0  0.00000000000E+00  0.00000000000E+00  0.19662300604E+04  0.19662300604E+04  0.00000000000E+00 0. -1.
         -1   -1    0    0    0  501 -0.00000000000E+00 -0.00000000000E+00 -0.11749469478E+03  0.11749469478E+03  0.00000000000E+00 0.  1.
          6    1    1    2  502    0 -0.18849935534E+03  0.14791383379E+02  0.18066915514E+04  0.18246833023E+04  0.17200000000E+03 0. -1.
         -6    1    1    2    0  501  0.18849935534E+03 -0.14791383379E+02  0.42043814254E+02  0.25904145287E+03  0.17200000000E+03 0.  1.
</event>
<event>
 4    1  0.3094855E-002  0.2023740E+03  0.7818608E-02  0.1147751E+00
          1   -1    0    0  502    0  0.00000000000E+00  0.00000000000E+00  0.58019826353E+03  0.58019826353E+03  0.00000000000E+00 0. -1.
         -1   -1    0    0    0  501 -0.00000000000E+00 -0.00000000000E+00 -0.75267355324E+02  0.75267355324E+02  0.00000000000E+00 0.  1.
          6    1    1    2  502    0 -0.23310293464E+02  0.10405703090E+03  0.17075199922E+03  0.26478572601E+03  0.17200000000E+03 0.  1.
         -6    1    1    2    0  501  0.23310293464E+02 -0.10405703090E+03  0.33417890899E+03  0.39067989285E+03  0.17200000000E+03 0.  1.
</event>
<event>
 4    1  0.3094855E-002  0.2390105E+03  0.7818608E-02  0.1120454E+00
          1   -1    0    0  502    0  0.00000000000E+00  0.00000000000E+00  0.16646120905E+04  0.16646120905E+04  0.00000000000E+00 0. -1.
         -1   -1    0    0    0  501 -0.00000000000E+00 -0.00000000000E+00 -0.54344846759E+02  0.54344846759E+02  0.00000000000E+00 0.  1.
          6    1    1    2  502    0  0.10676446552E+03 -0.12705652975E+03  0.13268843311E+04  0.13482388665E+04  0.17200000000E+03 0. -1.
         -6    1    1    2    0  501 -0.10676446552E+03  0.12705652975E+03  0.28338291261E+03  0.37071807079E+03  0.17200000000E+03 0.  1.
</event>
<event>
 4    1  0.3094855E-002  0.6637158E+03  0.7818608E-02  0.9781377E-01
         -1   -1    0    0    0  501 -0.00000000000E+00  0.00000000000E+00  0.29021648575E+03  0.29021648575E+03  0.00000000000E+00 0.  1.
          1   -1    0    0  502    0  0.00000000000E+00 -0.00000000000E+00 -0.15523036326E+04  0.15523036326E+04  0.00000000000E+00 0. -1.
          6    1    1    2  502    0  0.13150643193E+03  0.62740794397E+03 -0.76820006489E+03  0.10152093427E+04  0.17200000000E+03 0. -1.
         -6    1    1    2    0  501 -0.13150643193E+03 -0.62740794397E+03 -0.49388708197E+03  0.82731077567E+03  0.17200000000E+03 0.  1.
</event>
<event>
 4    1  0.3094855E-002  0.2245313E+03  0.7818608E-02  0.1130549E+00
         -1   -1    0    0    0  501 -0.00000000000E+00  0.00000000000E+00  0.34119182297E+02  0.34119182297E+02  0.00000000000E+00 0.  1.
          1   -1    0    0  502    0  0.00000000000E+00 -0.00000000000E+00 -0.18845508935E+04  0.18845508935E+04  0.00000000000E+00 0. -1.
          6    1    1    2  502    0 -0.48128837350E+02  0.13606578979E+03 -0.47941509072E+03  0.52938937782E+03  0.17200000000E+03 0.  1.
         -6    1    1    2    0  501  0.48128837350E+02 -0.13606578979E+03 -0.13710166204E+04  0.13892806979E+04  0.17200000000E+03 0. -1.
</event>
<event>
 4    1  0.3094855E-002  0.5125788E+03  0.7818608E-02  0.1010547E+00
         -2   -1    0    0    0  501 -0.00000000000E+00  0.00000000000E+00  0.15099780904E+03  0.15099780904E+03  0.00000000000E+00 0.  1.
          2   -1    0    0  502    0  0.00000000000E+00 -0.00000000000E+00 -0.19526865281E+04  0.19526865281E+04  0.00000000000E+00 0. -1.
          6    1    1    2  502    0 -0.24038952885E+03 -0.41876714969E+03 -0.12479794085E+04  0.13491440454E+04  0.17200000000E+03 0. -1.
         -6    1    1    2    0  501  0.24038952885E+03  0.41876714969E+03 -0.55370931059E+03  0.75454029175E+03  0.17200000000E+03 0.  1.
</event>
<event>
 4    1  0.3094855E-002  0.1737902E+03  0.7818608E-02  0.1173952E+00
          2   -1    0    0  502    0  0.00000000000E+00  0.00000000000E+00  0.42400822470E+03  0.42400822470E+03  0.00000000000E+00 0. -1.
         -2   -1    0    0    0  501 -0.00000000000E+00 -0.00000000000E+00 -0.72209326154E+02  0.72209326154E+02  0.00000000000E+00 0.  1.
          6    1    1    2  502    0  0.12805679261E+02 -0.21332201473E+02  0.14703815664E+03  0.22764724411E+03  0.17200000000E+03 0.  1.
         -6    1    1    2    0  501 -0.12805679261E+02  0.21332201473E+02  0.20476074191E+03  0.26857030675E+03  0.17200000000E+03 0.  1.
</event>
<event>
 4    1  0.3094855E-002  0.3056779E+03  0.7818608E-02  0.1082436E+00
          2   -1    0    0  502    0  0.00000000000E+00  0.00000000000E+00  0.11912610694E+04  0.11912610694E+04  0.00000000000E+00 0. -1.
         -2   -1    0    0    0  501 -0.00000000000E+00 -0.00000000000E+00 -0.97329313903E+02  0.97329313903E+02  0.00000000000E+00 0.  1.
          6    1    1    2  502    0  0.14492658044E+03 -0.20700546884E+03  0.83082660691E+03  0.88527500168E+03  0.17200000000E+03 0. -1.
         -6    1    1    2    0  501 -0.14492658044E+03  0.20700546884E+03  0.26310514861E+03  0.40331538165E+03  0.17200000000E+03 0.  1.
</event>
<event>
 4    1  0.3094855E-002  0.2981403E+03  0.7818608E-02  0.1086174E+00
         -2   -1    0    0    0  501 -0.00000000000E+00  0.00000000000E+00  0.31859004703E+03  0.31859004703E+03  0.00000000000E+00 0.  1.
          2   -1    0    0  502    0  0.00000000000E+00 -0.00000000000E+00 -0.61121462547E+03  0.61121462547E+03  0.00000000000E+00 0. -1.
          6    1    1    2  502    0 -0.10631220448E+03  0.21909205946E+03 -0.48905813374E+03  0.57277000054E+03  0.17200000000E+03 0. -1.
         -6    1    1    2    0  501  0.10631220448E+03 -0.21909205946E+03  0.19643355529E+03  0.35703467196E+03  0.17200000000E+03 0.  1.
</event>
<event>
 4    1  0.3094855E-002  0.3003988E+03  0.7818608E-02  0.1085041E+00
         -1   -1    0    0    0  501 -0.00000000000E+00  0.00000000000E+00  0.73089293495E+03  0.73089293495E+03  0.00000000000E+00 0.  1.
          1   -1    0    0  502    0  0.00000000000E+00 -0.00000000000E+00 -0.17480838618E+03  0.17480838618E+03  0.00000000000E+00 0. -1.
          6    1    1    2  502    0  0.17985617897E+03 -0.16824742571E+03  0.32617951005E+02  0.30216447855E+03  0.17200000000E+03 0. -1.
         -6    1    1    2    0  501 -0.17985617897E+03  0.16824742571E+03  0.52346659777E+03  0.60353684258E+03  0.17200000000E+03 0.  1.
</event>
<event>
 4    1  0.3094855E-002  0.3070816E+03  0.7818608E-02  0.1081753E+00
          2   -1    0    0  502    0  0.00000000000E+00  0.00000000000E+00  0.11419461936E+04  0.11419461936E+04  0.00000000000E+00 0. -1.
         -2   -1    0    0    0  501 -0.00000000000E+00 -0.00000000000E+00 -0.11028322081E+04  0.11028322081E+04  0.00000000000E+00 0.  1.
          6    1    1    2  502    0  0.16068008423E+03 -0.19722326815E+03  0.10991077198E+04  0.11411997576E+04  0.17200000000E+03 0. -1.
         -6    1    1    2    0  501 -0.16068008423E+03  0.19722326815E+03 -0.10599937344E+04  0.11035786442E+04  0.17200000000E+03 0.  1.
</event>
<event>
 4    1  0.3094855E-002  0.4885211E+03  0.7818608E-02  0.1016819E+00
         -1   -1    0    0    0  501 -0.00000000000E+00  0.00000000000E+00  0.51185170171E+03  0.51185170171E+03  0.00000000000E+00 0.  1.
          1   -1    0    0  502    0  0.00000000000E+00 -0.00000000000E+00 -0.49297105978E+03  0.49297105978E+03  0.00000000000E+00 0. -1.
          6    1    1    2  502    0  0.56116365527E+02  0.45378392359E+03  0.12640189576E+03  0.50460909132E+03  0.17200000000E+03 0. -1.
         -6    1    1    2    0  501 -0.56116365527E+02 -0.45378392359E+03 -0.10752125383E+03  0.50021367016E+03  0.17200000000E+03 0.  1.
</event>
<event>
 4    1  0.3094855E-002  0.2684037E+03  0.7818608E-02  0.1102197E+00
         -2   -1    0    0    0  501 -0.00000000000E+00  0.00000000000E+00  0.63550558980E+02  0.63550558980E+02  0.00000000000E+00 0.  1.
          2   -1    0    0  502    0  0.00000000000E+00 -0.00000000000E+00 -0.12654559130E+04  0.12654559130E+04  0.00000000000E+00 0. -1.
          6    1    1    2  502    0 -0.54981921587E+02 -0.19857877912E+03 -0.81545549147E+03  0.85849181812E+03  0.17200000000E+03 0. -1.
         -6    1    1    2    0  501  0.54981921587E+02  0.19857877912E+03 -0.38644986251E+03  0.47051465381E+03  0.17200000000E+03 0.  1.
</event>
<event>
 4    1  0.3094855E-002  0.1745411E+03  0.7818608E-02  0.1173193E+00
         -2   -1    0    0    0  501 -0.00000000000E+00  0.00000000000E+00  0.61297210370E+02  0.61297210370E+02  0.00000000000E+00 0.  1.
          2   -1    0    0  502    0  0.00000000000E+00 -0.00000000000E+00 -0.73873423884E+03  0.73873423884E+03  0.00000000000E+00 0. -1.
          6    1    1    2  502    0 -0.29526461214E+02  0.29626925285E+01 -0.10989331350E+03  0.20625501160E+03  0.17200000000E+03 0.  1.
         -6    1    1    2    0  501  0.29526461214E+02 -0.29626925285E+01 -0.56754371497E+03  0.59377643761E+03  0.17200000000E+03 0. -1.
</event>
<event>
 4    1  0.3094855E-002  0.3465837E+03  0.7818608E-02  0.1064026E+00
          1   -1    0    0  502    0  0.00000000000E+00  0.00000000000E+00  0.59579575442E+03  0.59579575442E+03  0.00000000000E+00 0. -1.
         -1   -1    0    0    0  501 -0.00000000000E+00 -0.00000000000E+00 -0.20398218920E+03  0.20398218920E+03  0.00000000000E+00 0.  1.
          6    1    1    2  502    0  0.13518622666E+03 -0.26881391214E+03  0.23900239462E+03  0.42100163880E+03  0.17200000000E+03 0. -1.
         -6    1    1    2    0  501 -0.13518622666E+03  0.26881391214E+03  0.15281117060E+03  0.37877630483E+03  0.17200000000E+03 0.  1.
</event>
<event>
 4    1  0.3094855E-002  0.2149982E+03  0.7818608E-02  0.1137668E+00
         -1   -1    0    0    0  501 -0.00000000000E+00  0.00000000000E+00  0.14912822343E+03  0.14912822343E+03  0.00000000000E+00 0.  1.
          1   -1    0    0  502    0  0.00000000000E+00 -0.00000000000E+00 -0.32037078786E+03  0.32037078786E+03  0.00000000000E+00 0. -1.
          6    1    1    2  502    0  0.68008306601E+02  0.10961345418E+03 -0.43309980537E+02  0.21931710722E+03  0.17200000000E+03 0.  1.
         -6    1    1    2    0  501 -0.68008306601E+02 -0.10961345418E+03 -0.12793258389E+03  0.25018190407E+03  0.17200000000E+03 0.  1.
</event>
<event>
 4    1  0.3094855E-002  0.3009636E+03  0.7818608E-02  0.1084760E+00
         -2   -1    0    0    0  501 -0.00000000000E+00  0.00000000000E+00  0.38633169462E+02  0.38633169462E+02  0.00000000000E+00 0.  1.
          2   -1    0    0  502    0  0.00000000000E+00 -0.00000000000E+00 -0.24143884238E+04  0.24143884238E+04  0.00000000000E+00 0. -1.
          6    1    1    2  502    0  0.22017205347E+03 -0.11188981365E+03 -0.97934169856E+03  0.10245434232E+04  0.17200000000E+03 0. -1.
         -6    1    1    2    0  501 -0.22017205347E+03  0.11188981365E+03 -0.13964135558E+04  0.14284781701E+04  0.17200000000E+03 0.  1.
</event>
<event>
 4    1  0.3094855E-002  0.2087696E+03  0.7818608E-02  0.1142544E+00
         -1   -1    0    0    0  501 -0.00000000000E+00  0.00000000000E+00  0.43609749714E+03  0.43609749714E+03  0.00000000000E+00 0.  1.
          1   -1    0    0  502    0  0.00000000000E+00 -0.00000000000E+00 -0.13477882872E+03  0.13477882872E+03  0.00000000000E+00 0. -1.
          6    1    1    2  502    0  0.11811715298E+03 -0.70068774535E+01  0.55430373901E+01  0.20884320296E+03  0.17200000000E+03 0. -1.
         -6    1    1    2    0  501 -0.11811715298E+03  0.70068774535E+01  0.29577563103E+03  0.36203312289E+03  0.17200000000E+03 0.  1.
</event>
<event>
 4    1  0.3094855E-002  0.3708208E+03  0.7818608E-02  0.1054380E+00
          2   -1    0    0  502    0  0.00000000000E+00  0.00000000000E+00  0.23850825947E+04  0.23850825947E+04  0.00000000000E+00 0. -1.
         -2   -1    0    0    0  501 -0.00000000000E+00 -0.00000000000E+00 -0.58118748991E+02  0.58118748991E+02  0.00000000000E+00 0.  1.
          6    1    1    2  502    0  0.29582139041E+03 -0.14287674919E+03  0.10541687915E+04  0.11174882109E+04  0.17200000000E+03 0. -1.
         -6    1    1    2    0  501 -0.29582139041E+03  0.14287674919E+03  0.12727950542E+04  0.13257131328E+04  0.17200000000E+03 0.  1.
</event>
<event>
 4    1  0.3094855E-002  0.3098800E+03  0.7818608E-02  0.1080403E+00
         -2   -1    0    0    0  501 -0.00000000000E+00  0.00000000000E+00  0.14377808976E+03  0.14377808976E+03  0.00000000000E+00 0.  1.
          2   -1    0    0  502    0  0.00000000000E+00 -0.00000000000E+00 -0.22993204754E+04  0.22993204754E+04  0.00000000000E+00 0. -1.
          6    1    1    2  502    0 -0.14248986009E+01  0.25775878392E+03 -0.21067292673E+04  0.21293975267E+04  0.17200000000E+03 0. -1.
         -6    1    1    2    0  501  0.14248986009E+01 -0.25775878392E+03 -0.48813118364E+02  0.31370103849E+03  0.17200000000E+03 0.  1.
</event>
<event>
 4    1  0.3094855E-002  0.2044169E+03  0.7818608E-02  0.1146065E+00
         -2   -1    0    0    0  501 -0.00000000000E+00  0.00000000000E+00  0.68246238523E+03  0.68246238523E+03  0.00000000000E+00 0.  1.
          2   -1    0    0  502    0  0.00000000000E+00 -0.00000000000E+00 -0.62284520316E+02  0.62284520316E+02  0.00000000000E+00 0. -1.
          6    1    1    2  502    0  0.21647891592E+02 -0.10832187141E+03  0.35857214339E+03  0.41274718782E+03  0.17200000000E+03 0.  1.
         -6    1    1    2    0  501 -0.21647891592E+02  0.10832187141E+03  0.26160572152E+03  0.33199971773E+03  0.17200000000E+03 0.  1.
</event>
<event>
 4    1  0.3094855E-002  0.2757332E+03  0.7818608E-02  0.1098042E+00
          1   -1    0    0  502    0  0.00000000000E+00  0.00000000000E+00  0.93670207937E+03  0.93670207937E+03  0.00000000000E+00 0. -1.
         -1   -1    0    0    0  501 -0.00000000000E+00 -0.00000000000E+00 -0.19396755801E+03  0.19396755801E+03  0.00000000000E+00 0.  1.
          6    1    1    2  502    0  0.52531725203E+01  0.21544657817E+03  0.80248687586E+03  0.84853639273E+03  0.17200000000E+03 0. -1.
         -6    1    1    2    0  501 -0.52531725203E+01 -0.21544657817E+03 -0.59752354490E+02  0.28213324465E+03  0.17200000000E+03 0.  1.
</event>
<event>
 4    1  0.3094855E-002  0.1751289E+03  0.7818608E-02  0.1172602E+00
          1   -1    0    0  502    0  0.00000000000E+00  0.00000000000E+00  0.22966516054E+03  0.22966516054E+03  0.00000000000E+00 0. -1.
         -1   -1    0    0    0  501 -0.00000000000E+00 -0.00000000000E+00 -0.13703345354E+03  0.13703345354E+03  0.00000000000E+00 0.  1.
          6    1    1    2  502    0 -0.32787163927E+02 -0.33370051264E+01  0.75578793541E+02  0.19074141594E+03  0.17200000000E+03 0. -1.
         -6    1    1    2    0  501  0.32787163927E+02  0.33370051264E+01  0.17052913454E+02  0.17595719814E+03  0.17200000000E+03 0.  1.
</event>
<event>
 4    1  0.3094855E-002  0.1742985E+03  0.7818608E-02  0.1173438E+00
         -1   -1    0    0    0  501 -0.00000000000E+00  0.00000000000E+00  0.54282928211E+02  0.54282928211E+02  0.00000000000E+00 0.  1.
          1   -1    0    0  502    0  0.00000000000E+00 -0.00000000000E+00 -0.57024572771E+03  0.57024572771E+03  0.00000000000E+00 0. -1.
          6    1    1    2  502    0 -0.12618000353E+02  0.25234264109E+02 -0.30052677053E+03  0.34741376170E+03  0.17200000000E+03 0.  1.
         -6    1    1    2    0  501  0.12618000353E+02 -0.25234264109E+02 -0.21543602898E+03  0.27711489422E+03  0.17200000000E+03 0.  1.
</event>
<event>
 4    1  0.3094855E-002  0.4927109E+03  0.7818608E-02  0.1015699E+00
         -1   -1    0    0    0  501 -0.00000000000E+00  0.00000000000E+00  0.16905784303E+03  0.16905784303E+03  0.00000000000E+00 0.  1.
          1   -1    0    0  502    0  0.00000000000E+00 -0.00000000000E+00 -0.23557532223E+04  0.23557532223E+04  0.00000000000E+00 0. -1.
          6    1    1    2  502    0  0.48947400302E+02  0.45911235808E+03 -0.18821604380E+04  0.19455826684E+04  0.17200000000E+03 0. -1.
         -6    1    1    2    0  501 -0.48947400302E+02 -0.45911235808E+03 -0.30453494129E+03  0.57922839692E+03  0.17200000000E+03 0.  1.
</event>
<event>
 4    1  0.3094855E-002  0.1769283E+03  0.7818608E-02  0.1170809E+00
         -2   -1    0    0    0  501 -0.00000000000E+00  0.00000000000E+00  0.91719406938E+01  0.91719406938E+01  0.00000000000E+00 0.  1.
          2   -1    0    0  502    0  0.00000000000E+00 -0.00000000000E+00 -0.38617218869E+04  0.38617218869E+04  0.00000000000E+00 0. -1.
          6    1    1    2  502    0  0.51137707369E+01 -0.41151882477E+02 -0.25860414364E+04  0.25920867924E+04  0.17200000000E+03 0. -1.
         -6    1    1    2    0  501 -0.51137707369E+01  0.41151882477E+02 -0.12665085097E+04  0.12788070352E+04  0.17200000000E+03 0.  1.
</event>
<event>
 4    1  0.3094855E-002  0.2212070E+03  0.7818608E-02  0.1132986E+00
         -2   -1    0    0    0  501 -0.00000000000E+00  0.00000000000E+00  0.13465335683E+03  0.13465335683E+03  0.00000000000E+00 0.  1.
          2   -1    0    0  502    0  0.00000000000E+00 -0.00000000000E+00 -0.37911379725E+03  0.37911379725E+03  0.00000000000E+00 0. -1.
          6    1    1    2  502    0 -0.27874217502E+02  0.13627753649E+03 -0.69925306147E+02  0.23199587796E+03  0.17200000000E+03 0. -1.
         -6    1    1    2    0  501  0.27874217502E+02 -0.13627753649E+03 -0.17453513427E+03  0.28177127612E+03  0.17200000000E+03 0.  1.
</event>
<event>
 4    1  0.3094855E-002  0.1812753E+03  0.7818608E-02  0.1166574E+00
         -2   -1    0    0    0  501 -0.00000000000E+00  0.00000000000E+00  0.16679615965E+03  0.16679615965E+03  0.00000000000E+00 0.  1.
          2   -1    0    0  502    0  0.00000000000E+00 -0.00000000000E+00 -0.20961091568E+03  0.20961091568E+03  0.00000000000E+00 0. -1.
          6    1    1    2  502    0  0.37278405414E+02 -0.43440313776E+02 -0.67549571035E+02  0.19345202226E+03  0.17200000000E+03 0. -1.
         -6    1    1    2    0  501 -0.37278405414E+02  0.43440313776E+02  0.24734815008E+02  0.18295505307E+03  0.17200000000E+03 0. -1.
</event>
<event>
 4    1  0.3094855E-002  0.1928451E+03  0.7818608E-02  0.1155920E+00
         -1   -1    0    0    0  501 -0.00000000000E+00  0.00000000000E+00  0.44121774910E+02  0.44121774910E+02  0.00000000000E+00 0.  1.
          1   -1    0    0  502    0  0.00000000000E+00 -0.00000000000E+00 -0.85650175855E+03  0.85650175855E+03  0.00000000000E+00 0. -1.
          6    1    1    2  502    0  0.13778904412E+02  0.86112615012E+02 -0.46298490698E+03  0.50154188734E+03  0.17200000000E+03 0. -1.
         -6    1    1    2    0  501 -0.13778904412E+02 -0.86112615012E+02 -0.34939507666E+03  0.39908164612E+03  0.17200000000E+03 0. -1.
</event>
<event>
 4    1  0.3094855E-002  0.2046431E+03  0.7818608E-02  0.1145880E+00
         -2   -1    0    0    0  501 -0.00000000000E+00  0.00000000000E+00  0.10008914640E+03  0.10008914640E+03  0.00000000000E+00 0.  1.
          2   -1    0    0  502    0  0.00000000000E+00 -0.00000000000E+00 -0.11147683650E+04  0.11147683650E+04  0.00000000000E+00 0. -1.
          6    1    1    2  502    0 -0.11066481782E+03 -0.69362224997E+01 -0.27254949845E+02  0.20645010384E+03  0.17200000000E+03 0.  1.
         -6    1    1    2    0  501  0.11066481782E+03  0.69362224997E+01 -0.98742426871E+03  0.10084074075E+04  0.17200000000E+03 0. -1.
</event>
<event>
 4    1  0.3094855E-002  0.1828739E+03  0.7818608E-02  0.1165050E+00
          2   -1    0    0  502    0  0.00000000000E+00  0.00000000000E+00  0.25006295696E+03  0.25006295696E+03  0.00000000000E+00 0. -1.
         -2   -1    0    0    0  501 -0.00000000000E+00 -0.00000000000E+00 -0.22902835959E+03  0.22902835959E+03  0.00000000000E+00 0.  1.
          6    1    1    2  502    0 -0.61172139058E+02 -0.10808102422E+02 -0.14399705526E+03  0.23276167554E+03  0.17200000000E+03 0.  1.
         -6    1    1    2    0  501  0.61172139058E+02  0.10808102422E+02  0.16503165263E+03  0.24632964102E+03  0.17200000000E+03 0. -1.
</event>
<event>
 4    1  0.3094855E-002  0.2874369E+03  0.7818608E-02  0.1091695E+00
         -2   -1    0    0    0  501 -0.00000000000E+00  0.00000000000E+00  0.17204807695E+03  0.17204807695E+03  0.00000000000E+00 0.  1.
          2   -1    0    0  502    0  0.00000000000E+00 -0.00000000000E+00 -0.70251592753E+03  0.70251592753E+03  0.00000000000E+00 0. -1.
          6    1    1    2  502    0 -0.49604961306E+02 -0.22488956004E+03 -0.51121671664E+03  0.58648316069E+03  0.17200000000E+03 0. -1.
         -6    1    1    2    0  501  0.49604961306E+02  0.22488956004E+03 -0.19251133943E+02  0.28808084379E+03  0.17200000000E+03 0.  1.
</event>
<event>
 4    1  0.3094855E-002  0.2049058E+03  0.7818608E-02  0.1145665E+00
          2   -1    0    0  502    0  0.00000000000E+00  0.00000000000E+00  0.51772781402E+03  0.51772781402E+03  0.00000000000E+00 0. -1.
         -2   -1    0    0    0  501 -0.00000000000E+00 -0.00000000000E+00 -0.89897490775E+02  0.89897490775E+02  0.00000000000E+00 0.  1.
          6    1    1    2  502    0 -0.41698850703E+02  0.10326469246E+03  0.11886012973E+03  0.23688419385E+03  0.17200000000E+03 0.  1.
         -6    1    1    2    0  501  0.41698850703E+02 -0.10326469246E+03  0.30897019352E+03  0.37074111094E+03  0.17200000000E+03 0. -1.
</event>
<event>
 4    1  0.3094855E-002  0.2398663E+03  0.7818608E-02  0.1119882E+00
          2   -1    0    0  502    0  0.00000000000E+00  0.00000000000E+00  0.44547028001E+03  0.44547028001E+03  0.00000000000E+00 0. -1.
         -2   -1    0    0    0  501 -0.00000000000E+00 -0.00000000000E+00 -0.24548270673E+03  0.24548270673E+03  0.00000000000E+00 0.  1.
          6    1    1    2  502    0 -0.16355122764E+03  0.34682088988E+02 -0.13782429334E+03  0.27664306822E+03  0.17200000000E+03 0.  1.
         -6    1    1    2    0  501  0.16355122764E+03 -0.34682088988E+02  0.33781186661E+03  0.41430991852E+03  0.17200000000E+03 0. -1.
</event>
<event>
 4    1  0.3094855E-002  0.2686188E+03  0.7818608E-02  0.1102073E+00
          1   -1    0    0  502    0  0.00000000000E+00  0.00000000000E+00  0.48859009291E+04  0.48859009291E+04  0.00000000000E+00 0. -1.
         -1   -1    0    0    0  501 -0.00000000000E+00 -0.00000000000E+00 -0.39760132471E+02  0.39760132471E+02  0.00000000000E+00 0.  1.
          6    1    1    2  502    0  0.19521083651E+03  0.66819194368E+02  0.43756571362E+04  0.43838945527E+04  0.17200000000E+03 0. -1.
         -6    1    1    2    0  501 -0.19521083651E+03 -0.66819194368E+02  0.47048366042E+03  0.54176650888E+03  0.17200000000E+03 0.  1.
</event>
<event>
 4    1  0.3094855E-002  0.2075706E+03  0.7818608E-02  0.1143504E+00
         -2   -1    0    0    0  501 -0.00000000000E+00  0.00000000000E+00  0.13681828140E+02  0.13681828140E+02  0.00000000000E+00 0.  1.
          2   -1    0    0  502    0  0.00000000000E+00 -0.00000000000E+00 -0.31676932002E+04  0.31676932002E+04  0.00000000000E+00 0. -1.
          6    1    1    2  502    0 -0.15584955042E+02  0.11514621154E+03 -0.14551604525E+04  0.14698902964E+04  0.17200000000E+03 0.  1.
         -6    1    1    2    0  501  0.15584955042E+02 -0.11514621154E+03 -0.16988509195E+04  0.17114847319E+04  0.17200000000E+03 0.  1.
</event>
<event>
 4    1  0.3094855E-002  0.2843448E+03  0.7818608E-02  0.1093339E+00
         -1   -1    0    0    0  501 -0.00000000000E+00  0.00000000000E+00  0.14648510726E+03  0.14648510726E+03  0.00000000000E+00 0.  1.
          1   -1    0    0  502    0  0.00000000000E+00 -0.00000000000E+00 -0.74809604735E+03  0.74809604735E+03  0.00000000000E+00 0. -1.
          6    1    1    2  502    0  0.20108200889E+01 -0.22641534056E+03 -0.52984195354E+03  0.60131892168E+03  0.17200000000E+03 0. -1.
         -6    1    1    2    0  501 -0.20108200889E+01  0.22641534056E+03 -0.71768986550E+02  0.29326223294E+03  0.17200000000E+03 0.  1.
</event>
<event>
 4    1  0.3094855E-002  0.5980542E+03  0.7818608E-02  0.9909451E-01
         -2   -1    0    0    0  501 -0.00000000000E+00  0.00000000000E+00  0.14788333486E+04  0.14788333486E+04  0.00000000000E+00 0.  1.
          2   -1    0    0  502    0  0.00000000000E+00 -0.00000000000E+00 -0.74498968013E+03  0.74498968013E+03  0.00000000000E+00 0. -1.
          6    1    1    2  502    0 -0.56742271578E+03  0.78206475928E+02 -0.54684545167E+03  0.81037567786E+03  0.17200000000E+03 0. -1.
         -6    1    1    2    0  501  0.56742271578E+03 -0.78206475928E+02  0.12806891201E+04  0.14134473509E+04  0.17200000000E+03 0.  1.
</event>
<event>
 4    1  0.3094855E-002  0.2276036E+03  0.7818608E-02  0.1128338E+00
         -3   -1    0    0    0  501 -0.00000000000E+00  0.00000000000E+00  0.52710023216E+03  0.52710023216E+03  0.00000000000E+00 0.  1.
          3   -1    0    0  502    0  0.00000000000E+00 -0.00000000000E+00 -0.11862893436E+03  0.11862893436E+03  0.00000000000E+00 0. -1.
          6    1    1    2  502    0  0.80751587100E+02  0.12529405205E+03  0.70515830873E+02  0.23827694119E+03  0.17200000000E+03 0. -1.
         -6    1    1    2    0  501 -0.80751587100E+02 -0.12529405205E+03  0.33795546694E+03  0.40745222533E+03  0.17200000000E+03 0. -1.
</event>
<event>
 4    1  0.3094855E-002  0.1808810E+03  0.7818608E-02  0.1166953E+00
         -1   -1    0    0    0  501 -0.00000000000E+00  0.00000000000E+00  0.61191372466E+03  0.61191372466E+03  0.00000000000E+00 0.  1.
          1   -1    0    0  502    0  0.00000000000E+00 -0.00000000000E+00 -0.53509280484E+02  0.53509280484E+02  0.00000000000E+00 0. -1.
          6    1    1    2  502    0 -0.10441815133E+02  0.54999075004E+02  0.26998428957E+03  0.32497607046E+03  0.17200000000E+03 0.  1.
         -6    1    1    2    0  501  0.10441815133E+02 -0.54999075004E+02  0.28842015460E+03  0.34044693468E+03  0.17200000000E+03 0. -1.
</event>
<event>
 4    1  0.3094855E-002  0.4565980E+03  0.7818608E-02  0.1025773E+00
          2   -1    0    0  502    0  0.00000000000E+00  0.00000000000E+00  0.12077372453E+04  0.12077372453E+04  0.00000000000E+00 0. -1.
         -2   -1    0    0    0  501 -0.00000000000E+00 -0.00000000000E+00 -0.18817605883E+03  0.18817605883E+03  0.00000000000E+00 0.  1.
          6    1    1    2  502    0 -0.49577753777E+02  0.42004735828E+03  0.71044548438E+03  0.84452029173E+03  0.17200000000E+03 0. -1.
         -6    1    1    2    0  501  0.49577753777E+02 -0.42004735828E+03  0.30911570213E+03  0.55139301244E+03  0.17200000000E+03 0.  1.
</event>
<event>
 4    1  0.3094855E-002  0.2318912E+03  0.7818608E-02  0.1125316E+00
         -2   -1    0    0    0  501 -0.00000000000E+00  0.00000000000E+00  0.15760464232E+03  0.15760464232E+03  0.00000000000E+00 0.  1.
          2   -1    0    0  502    0  0.00000000000E+00 -0.00000000000E+00 -0.53938559819E+03  0.53938559819E+03  0.00000000000E+00 0. -1.
          6    1    1    2  502    0 -0.14617028125E+03 -0.53139419447E+02  0.20356791058E+02  0.23278304913E+03  0.17200000000E+03 0.  1.
         -6    1    1    2    0  501  0.14617028125E+03  0.53139419447E+02 -0.40213774693E+03  0.46420719138E+03  0.17200000000E+03 0. -1.
</event>
<event>
 4    1  0.3094855E-002  0.1743337E+03  0.7818608E-02  0.1173402E+00
          2   -1    0    0  502    0  0.00000000000E+00  0.00000000000E+00  0.84489444974E+03  0.84489444974E+03  0.00000000000E+00 0. -1.
         -2   -1    0    0    0  501 -0.00000000000E+00 -0.00000000000E+00 -0.36578840607E+02  0.36578840607E+02  0.00000000000E+00 0.  1.
          6    1    1    2  502    0  0.25525123457E+02  0.12518607933E+02  0.46094189835E+03  0.49280795562E+03  0.17200000000E+03 0. -1.
         -6    1    1    2    0  501 -0.25525123457E+02 -0.12518607933E+02  0.34737371079E+03  0.38866533473E+03  0.17200000000E+03 0. -1.
</event>
<event>
 4    1  0.3094855E-002  0.2139730E+03  0.7818608E-02  0.1138458E+00
         -3   -1    0    0    0  501 -0.00000000000E+00  0.00000000000E+00  0.28178655773E+03  0.28178655773E+03  0.00000000000E+00 0.  1.
          3   -1    0    0  502    0  0.00000000000E+00 -0.00000000000E+00 -0.16287257286E+03  0.16287257286E+03  0.00000000000E+00 0. -1.
          6    1    1    2  502    0 -0.57877814671E+02  0.11336046373E+03  0.48529732148E+02  0.21940731773E+03  0.17200000000E+03 0. -1.
         -6    1    1    2    0  501  0.57877814671E+02 -0.11336046373E+03  0.70384252726E+02  0.22525181287E+03  0.17200000000E+03 0.  1.
</event>
<event>
 4    1  0.3094855E-002  0.2403325E+03  0.7818608E-02  0.1119571E+00
         -1   -1    0    0    0  501 -0.00000000000E+00  0.00000000000E+00  0.59883024667E+02  0.59883024667E+02  0.00000000000E+00 0.  1.
          1   -1    0    0  502    0  0.00000000000E+00 -0.00000000000E+00 -0.98728130926E+03  0.98728130926E+03  0.00000000000E+00 0. -1.
          6    1    1    2  502    0 -0.76128554483E+02  0.14960005302E+03 -0.38423950151E+03  0.45321046677E+03  0.17200000000E+03 0.  1.
         -6    1    1    2    0  501  0.76128554483E+02 -0.14960005302E+03 -0.54315878308E+03  0.59395386716E+03  0.17200000000E+03 0.  1.
</event>
<event>
 4    1  0.3094855E-002  0.2910751E+03  0.7818608E-02  0.1089789E+00
          1   -1    0    0  502    0  0.00000000000E+00  0.00000000000E+00  0.10046859718E+03  0.10046859718E+03  0.00000000000E+00 0. -1.
         -1   -1    0    0    0  501 -0.00000000000E+00 -0.00000000000E+00 -0.10210275545E+04  0.10210275545E+04  0.00000000000E+00 0.  1.
          6    1    1    2  502    0  0.12704205685E+03  0.19748675865E+03 -0.69423434626E+03  0.75278551499E+03  0.17200000000E+03 0.  1.
         -6    1    1    2    0  501 -0.12704205685E+03 -0.19748675865E+03 -0.22632461111E+03  0.36871063674E+03  0.17200000000E+03 0.  1.
</event>
<event>
 4    1  0.3094855E-002  0.1945514E+03  0.7818608E-02  0.1154419E+00
          2   -1    0    0  502    0  0.00000000000E+00  0.00000000000E+00  0.15630447316E+04  0.15630447316E+04  0.00000000000E+00 0. -1.
         -2   -1    0    0    0  501 -0.00000000000E+00 -0.00000000000E+00 -0.35817539990E+02  0.35817539990E+02  0.00000000000E+00 0.  1.
          6    1    1    2  502    0  0.38890512972E+02  0.82181255910E+02  0.12185980053E+04  0.12340305221E+04  0.17200000000E+03 0. -1.
         -6    1    1    2    0  501 -0.38890512972E+02 -0.82181255910E+02  0.30862918622E+03  0.36483174945E+03  0.17200000000E+03 0.  1.
</event>
<event>
 4    1  0.3094855E-002  0.3180142E+03  0.7818608E-02  0.1076567E+00
          2   -1    0    0  502    0  0.00000000000E+00  0.00000000000E+00  0.16320260154E+04  0.16320260154E+04  0.00000000000E+00 0. -1.
         -2   -1    0    0    0  501 -0.00000000000E+00 -0.00000000000E+00 -0.62069558169E+02  0.62069558169E+02  0.00000000000E+00 0.  1.
          6    1    1    2  502    0 -0.11613278130E+03 -0.24096098290E+03  0.81927949515E+03  0.87883554169E+03  0.17200000000E+03 0. -1.
         -6    1    1    2    0  501  0.11613278130E+03  0.24096098290E+03  0.75067696209E+03  0.81526003188E+03  0.17200000000E+03 0.  1.
</event>
<event>
 4    1  0.3094855E-002  0.5015189E+03  0.7818608E-02  0.1013383E+00
         -2   -1    0    0    0  501 -0.00000000000E+00  0.00000000000E+00  0.12250044887E+03  0.12250044887E+03  0.00000000000E+00 0.  1.
          2   -1    0    0  502    0  0.00000000000E+00 -0.00000000000E+00 -0.22379830652E+04  0.22379830652E+04  0.00000000000E+00 0. -1.
          6    1    1    2  502    0  0.47027664550E+03  0.27875482791E+02 -0.13968528234E+04  0.14841559811E+04  0.17200000000E+03 0. -1.
         -6    1    1    2    0  501 -0.47027664550E+03 -0.27875482791E+02 -0.71862979293E+03  0.87632753302E+03  0.17200000000E+03 0.  1.
</event>
<event>
 4    1  0.3094855E-002  0.2701927E+03  0.7818608E-02  0.1101169E+00
          2   -1    0    0  502    0  0.00000000000E+00  0.00000000000E+00  0.80632280455E+03  0.80632280455E+03  0.00000000000E+00 0. -1.
         -2   -1    0    0    0  501 -0.00000000000E+00 -0.00000000000E+00 -0.90660156578E+02  0.90660156578E+02  0.00000000000E+00 0.  1.
          6    1    1    2  502    0  0.19575391789E+03  0.71417665334E+02  0.34147120875E+03  0.43543847522E+03  0.17200000000E+03 0. -1.
         -6    1    1    2    0  501 -0.19575391789E+03 -0.71417665334E+02  0.37419143922E+03  0.46154448591E+03  0.17200000000E+03 0. -1.
</event>
<event>
 4    1  0.3094855E-002  0.2943247E+03  0.7818608E-02  0.1088113E+00
          2   -1    0    0  502    0  0.00000000000E+00  0.00000000000E+00  0.34174440680E+03  0.34174440680E+03  0.00000000000E+00 0. -1.
         -2   -1    0    0    0  501 -0.00000000000E+00 -0.00000000000E+00 -0.25678518509E+03  0.25678518509E+03  0.00000000000E+00 0.  1.
          6    1    1    2  502    0  0.19372288808E+03 -0.13969415931E+03  0.76407153044E+02  0.30408069414E+03  0.17200000000E+03 0. -1.
         -6    1    1    2    0  501 -0.19372288808E+03  0.13969415931E+03  0.85520686677E+01  0.29444889775E+03  0.17200000000E+03 0.  1.
</event>
<event>
 4    1  0.3094855E-002  0.4279116E+03  0.7818608E-02  0.1034522E+00
         -2   -1    0    0    0  501 -0.00000000000E+00  0.00000000000E+00  0.17103478451E+03  0.17103478451E+03  0.00000000000E+00 0.  1.
          2   -1    0    0  502    0  0.00000000000E+00 -0.00000000000E+00 -0.14484216056E+04  0.14484216056E+04  0.00000000000E+00 0. -1.
          6    1    1    2  502    0 -0.38579071722E+03  0.68482634407E+02 -0.22513184425E+03  0.48352114328E+03  0.17200000000E+03 0.  1.
         -6    1    1    2    0  501  0.38579071722E+03 -0.68482634407E+02 -0.10522549768E+04  0.11359352468E+04  0.17200000000E+03 0. -1.
</event>
<event>
 4    1  0.3094855E-002  0.2736776E+03  0.7818608E-02  0.1099193E+00
         -1   -1    0    0    0  501 -0.00000000000E+00  0.00000000000E+00  0.75017107052E+02  0.75017107052E+02  0.00000000000E+00 0.  1.
          1   -1    0    0  502    0  0.00000000000E+00 -0.00000000000E+00 -0.22799219011E+04  0.22799219011E+04  0.00000000000E+00 0. -1.
          6    1    1    2  502    0 -0.21024540247E+03 -0.33351341861E+02 -0.19852219885E+04  0.20039974513E+04  0.17200000000E+03 0. -1.
         -6    1    1    2    0  501  0.21024540247E+03  0.33351341861E+02 -0.21968280557E+03  0.35094155685E+03  0.17200000000E+03 0.  1.
</event>
<event>
 4    1  0.3094855E-002  0.3248295E+03  0.7818608E-02  0.1073448E+00
         -2   -1    0    0    0  501 -0.00000000000E+00  0.00000000000E+00  0.57357737992E+02  0.57357737992E+02  0.00000000000E+00 0.  1.
          2   -1    0    0  502    0  0.00000000000E+00 -0.00000000000E+00 -0.19176169667E+04  0.19176169667E+04  0.00000000000E+00 0. -1.
          6    1    1    2  502    0  0.21412071218E+03  0.17344315663E+03 -0.73092569727E+03  0.79985410101E+03  0.17200000000E+03 0.  1.
         -6    1    1    2    0  501 -0.21412071218E+03 -0.17344315663E+03 -0.11293335314E+04  0.11751206036E+04  0.17200000000E+03 0. -1.
</event>
<event>
 4    1  0.3094855E-002  0.3020188E+03  0.7818608E-02  0.1084236E+00
         -2   -1    0    0    0  501 -0.00000000000E+00  0.00000000000E+00  0.73297967135E+03  0.73297967135E+03  0.00000000000E+00 0.  1.
          2   -1    0    0  502    0  0.00000000000E+00 -0.00000000000E+00 -0.14194990277E+03  0.14194990277E+03  0.00000000000E+00 0. -1.
          6    1    1    2  502    0 -0.16648225512E+03  0.18416022675E+03  0.14189023661E+03  0.33368873165E+03  0.17200000000E+03 0. -1.
         -6    1    1    2    0  501  0.16648225512E+03 -0.18416022675E+03  0.44913953197E+03  0.54124084248E+03  0.17200000000E+03 0.  1.
</event>
<event>
 4    1  0.3094855E-002  0.3248004E+03  0.7818608E-02  0.1073461E+00
         -1   -1    0    0    0  501 -0.00000000000E+00  0.00000000000E+00  0.71389586783E+02  0.71389586783E+02  0.00000000000E+00 0.  1.
          1   -1    0    0  502    0  0.00000000000E+00 -0.00000000000E+00 -0.19481771506E+04  0.19481771506E+04  0.00000000000E+00 0. -1.
          6    1    1    2  502    0  0.14671389156E+03  0.23320880832E+03 -0.14346024741E+04  0.14709111370E+04  0.17200000000E+03 0. -1.
         -6    1    1    2    0  501 -0.14671389156E+03 -0.23320880832E+03 -0.44218508966E+03  0.54865560033E+03  0.17200000000E+03 0.  1.
</event>
<event>
 4    1  0.3094855E-002  0.2153328E+03  0.7818608E-02  0.1137411E+00
          1   -1    0    0  502    0  0.00000000000E+00  0.00000000000E+00  0.12089541868E+04  0.12089541868E+04  0.00000000000E+00 0. -1.
         -1   -1    0    0    0  501 -0.00000000000E+00 -0.00000000000E+00 -0.48057854061E+02  0.48057854061E+02  0.00000000000E+00 0.  1.
          6    1    1    2  502    0  0.79142086665E+02 -0.10257071458E+03  0.86287081541E+03  0.88933360752E+03  0.17200000000E+03 0. -1.
         -6    1    1    2    0  501 -0.79142086665E+02  0.10257071458E+03  0.29802551735E+03  0.36767843337E+03  0.17200000000E+03 0.  1.
</event>
<event>
 4    1  0.3094855E-002  0.2209570E+03  0.7818608E-02  0.1133172E+00
          2   -1    0    0  502    0  0.00000000000E+00  0.00000000000E+00  0.99188668155E+03  0.99188668155E+03  0.00000000000E+00 0. -1.
         -2   -1    0    0    0  501 -0.00000000000E+00 -0.00000000000E+00 -0.15080261173E+03  0.15080261173E+03  0.00000000000E+00 0.  1.
          6    1    1    2  502    0 -0.11348138869E+03  0.79749458168E+02  0.88946395225E+03  0.91649774905E+03  0.17200000000E+03 0. -1.
         -6    1    1    2    0  501  0.11348138869E+03 -0.79749458168E+02 -0.48379882441E+02  0.22619154423E+03  0.17200000000E+03 0.  1.
</event>
<event>
 4    1  0.3094855E-002  0.2020150E+03  0.7818608E-02  0.1148050E+00
          4   -1    0    0  502    0  0.00000000000E+00  0.00000000000E+00  0.50770606961E+02  0.50770606961E+02  0.00000000000E+00 0. -1.
         -4   -1    0    0    0  501 -0.00000000000E+00 -0.00000000000E+00 -0.80485532694E+03  0.80485532694E+03  0.00000000000E+00 0.  1.
          6    1    1    2  502    0 -0.49518407928E+01  0.10583727037E+03 -0.39244166342E+03  0.44138476154E+03  0.17200000000E+03 0. -1.
         -6    1    1    2    0  501  0.49518407928E+01 -0.10583727037E+03 -0.36164305656E+03  0.41424117236E+03  0.17200000000E+03 0.  1.
</event>
<event>
 4    1  0.3094855E-002  0.1979105E+03  0.7818608E-02  0.1151514E+00
          1   -1    0    0  502    0  0.00000000000E+00  0.00000000000E+00  0.18815457406E+03  0.18815457406E+03  0.00000000000E+00 0. -1.
         -1   -1    0    0    0  501 -0.00000000000E+00 -0.00000000000E+00 -0.20859842233E+03  0.20859842233E+03  0.00000000000E+00 0.  1.
          6    1    1    2  502    0 -0.62107067879E+02 -0.75678808075E+02 -0.12558281397E+01  0.19791449410E+03  0.17200000000E+03 0.  1.
         -6    1    1    2    0  501  0.62107067879E+02  0.75678808075E+02 -0.19188020132E+02  0.19883850228E+03  0.17200000000E+03 0.  1.
</event>
<event>
 4    1  0.3094855E-002  0.1883632E+03  0.7818608E-02  0.1159946E+00
         -1   -1    0    0    0  501 -0.00000000000E+00  0.00000000000E+00  0.76284825571E+02  0.76284825571E+02  0.00000000000E+00 0.  1.
          1   -1    0    0  502    0  0.00000000000E+00 -0.00000000000E+00 -0.83703519350E+03  0.83703519350E+03  0.00000000000E+00 0. -1.
          6    1    1    2  502    0  0.39166651501E+02 -0.66050518023E+02 -0.68477891755E+03  0.71021325209E+03  0.17200000000E+03 0. -1.
         -6    1    1    2    0  501 -0.39166651501E+02  0.66050518023E+02 -0.75971450377E+02  0.20310676698E+03  0.17200000000E+03 0.  1.
</event>
<event>
 4    1  0.3094855E-002  0.1866915E+03  0.7818608E-02  0.1161480E+00
         -1   -1    0    0    0  501 -0.00000000000E+00  0.00000000000E+00  0.62445491490E+03  0.62445491490E+03  0.00000000000E+00 0.  1.
          1   -1    0    0  502    0  0.00000000000E+00 -0.00000000000E+00 -0.82799230980E+02  0.82799230980E+02  0.00000000000E+00 0. -1.
          6    1    1    2  502    0 -0.14038170965E+02  0.71222402392E+02  0.68949094216E+02  0.19901677929E+03  0.17200000000E+03 0. -1.
         -6    1    1    2    0  501  0.14038170965E+02 -0.71222402392E+02  0.47270658971E+03  0.50823736659E+03  0.17200000000E+03 0.  1.
</event>
<event>
 4    1  0.3094855E-002  0.1889096E+03  0.7818608E-02  0.1159448E+00
          2   -1    0    0  502    0  0.00000000000E+00  0.00000000000E+00  0.10024572087E+04  0.10024572087E+04  0.00000000000E+00 0. -1.
         -2   -1    0    0    0  501 -0.00000000000E+00 -0.00000000000E+00 -0.45769289406E+02  0.45769289406E+02  0.00000000000E+00 0.  1.
          6    1    1    2  502    0  0.48948449130E+02  0.60884281796E+02  0.23128717775E+03  0.29863121912E+03  0.17200000000E+03 0.  1.
         -6    1    1    2    0  501 -0.48948449130E+02 -0.60884281796E+02  0.72540074149E+03  0.74959527893E+03  0.17200000000E+03 0.  1.
</event>
<event>
 4    1  0.3094855E-002  0.1735217E+03  0.7818608E-02  0.1174224E+00
         -1   -1    0    0    0  501 -0.00000000000E+00  0.00000000000E+00  0.28305408358E+02  0.28305408358E+02  0.00000000000E+00 0.  1.
          1   -1    0    0  502    0  0.00000000000E+00 -0.00000000000E+00 -0.10670495553E+04  0.10670495553E+04  0.00000000000E+00 0. -1.
          6    1    1    2  502    0  0.14445637501E+02 -0.17807021307E+02 -0.54984539717E+03  0.57657586425E+03  0.17200000000E+03 0.  1.
         -6    1    1    2    0  501 -0.14445637501E+02  0.17807021307E+02 -0.48889874978E+03  0.51877909941E+03  0.17200000000E+03 0.  1.
</event>
<event>
 4    1  0.3094855E-002  0.6882546E+03  0.7818608E-02  0.9737532E-01
          2   -1    0    0  502    0  0.00000000000E+00  0.00000000000E+00  0.21005809029E+04  0.21005809029E+04  0.00000000000E+00 0. -1.
         -2   -1    0    0    0  501 -0.00000000000E+00 -0.00000000000E+00 -0.23722368175E+03  0.23722368175E+03  0.00000000000E+00 0.  1.
          6    1    1    2  502    0 -0.38817705008E+03  0.54169089553E+03  0.67189453427E+03  0.96184027452E+03  0.17200000000E+03 0. -1.
         -6    1    1    2    0  501  0.38817705008E+03 -0.54169089553E+03  0.11914626869E+04  0.13759643101E+04  0.17200000000E+03 0.  1.
</event>
<event>
 4    1  0.3094855E-002  0.2104310E+03  0.7818608E-02  0.1141225E+00
         -1   -1    0    0    0  501 -0.00000000000E+00  0.00000000000E+00  0.15527239395E+03  0.15527239395E+03  0.00000000000E+00 0.  1.
          1   -1    0    0  502    0  0.00000000000E+00 -0.00000000000E+00 -0.45943738942E+03  0.45943738942E+03  0.00000000000E+00 0. -1.
          6    1    1    2  502    0  0.12008572564E+03 -0.16631756382E+02 -0.34136811847E+03  0.40101544750E+03  0.17200000000E+03 0. -1.
         -6    1    1    2    0  501 -0.12008572564E+03  0.16631756382E+02  0.37203123008E+02  0.21369433587E+03  0.17200000000E+03 0.  1.
</event>
<event>
 4    1  0.3094855E-002  0.2055647E+03  0.7818608E-02  0.1145127E+00
         -1   -1    0    0    0  501 -0.00000000000E+00  0.00000000000E+00  0.36690583847E+02  0.36690583847E+02  0.00000000000E+00 0.  1.
          1   -1    0    0  502    0  0.00000000000E+00 -0.00000000000E+00 -0.18299724587E+04  0.18299724587E+04  0.00000000000E+00 0. -1.
          6    1    1    2  502    0  0.92521735453E+02  0.64129368338E+02 -0.14648564852E+04  0.14792097112E+04  0.17200000000E+03 0. -1.
         -6    1    1    2    0  501 -0.92521735453E+02 -0.64129368338E+02 -0.32842538961E+03  0.38745333133E+03  0.17200000000E+03 0.  1.
</event>
<event>
 4    1  0.3094855E-002  0.1841480E+03  0.7818608E-02  0.1163848E+00
         -1   -1    0    0    0  501 -0.00000000000E+00  0.00000000000E+00  0.12209509371E+04  0.12209509371E+04  0.00000000000E+00 0.  1.
          1   -1    0    0  502    0  0.00000000000E+00 -0.00000000000E+00 -0.27785809297E+02  0.27785809297E+02  0.00000000000E+00 0. -1.
          6    1    1    2  502    0 -0.62751172892E+02 -0.19717325447E+02  0.60954724944E+03  0.63675610082E+03  0.17200000000E+03 0. -1.
         -6    1    1    2    0  501  0.62751172892E+02  0.19717325447E+02  0.58361787833E+03  0.61198064555E+03  0.17200000000E+03 0. -1.
</event>
<event>
 4    1  0.3094855E-002  0.1029883E+04  0.7818608E-02  0.9276363E-01
         -2   -1    0    0    0  501 -0.00000000000E+00  0.00000000000E+00  0.10992318379E+04  0.10992318379E+04  0.00000000000E+00 0.  1.
          2   -1    0    0  502    0  0.00000000000E+00 -0.00000000000E+00 -0.10318365510E+04  0.10318365510E+04  0.00000000000E+00 0. -1.
          6    1    1    2  502    0 -0.94883549874E+02 -0.10109758664E+04 -0.23767323019E+03  0.10569520589E+04  0.17200000000E+03 0. -1.
         -6    1    1    2    0  501  0.94883549874E+02  0.10109758664E+04  0.30506851705E+03  0.10741163300E+04  0.17200000000E+03 0.  1.
</event>
<event>
 4    1  0.3094855E-002  0.1876663E+03  0.7818608E-02  0.1160583E+00
          1   -1    0    0  502    0  0.00000000000E+00  0.00000000000E+00  0.79783548794E+03  0.79783548794E+03  0.00000000000E+00 0. -1.
         -1   -1    0    0    0  501 -0.00000000000E+00 -0.00000000000E+00 -0.46858947753E+02  0.46858947753E+02  0.00000000000E+00 0.  1.
          6    1    1    2  502    0 -0.51698623767E+02  0.54423156217E+02  0.47717319092E+03  0.51275031132E+03  0.17200000000E+03 0. -1.
         -6    1    1    2    0  501  0.51698623767E+02 -0.54423156217E+02  0.27380334927E+03  0.33194412437E+03  0.17200000000E+03 0.  1.
</event>
<event>
 4    1  0.3094855E-002  0.2172886E+03  0.7818608E-02  0.1135921E+00
         -2   -1    0    0    0  501 -0.00000000000E+00  0.00000000000E+00  0.36831540442E+02  0.36831540442E+02  0.00000000000E+00 0.  1.
          2   -1    0    0  502    0  0.00000000000E+00 -0.00000000000E+00 -0.18712849168E+04  0.18712849168E+04  0.00000000000E+00 0. -1.
          6    1    1    2  502    0 -0.13094440416E+03  0.21997970818E+02 -0.14526588713E+04  0.14688199836E+04  0.17200000000E+03 0. -1.
         -6    1    1    2    0  501  0.13094440416E+03 -0.21997970818E+02 -0.38179450500E+03  0.43929647364E+03  0.17200000000E+03 0.  1.
</event>
<event>
 4    1  0.3094855E-002  0.2987094E+03  0.7818608E-02  0.1085888E+00
          1   -1    0    0  502    0  0.00000000000E+00  0.00000000000E+00  0.51382053979E+03  0.51382053979E+03  0.00000000000E+00 0. -1.
         -1   -1    0    0    0  501 -0.00000000000E+00 -0.00000000000E+00 -0.18492364049E+03  0.18492364049E+03  0.00000000000E+00 0.  1.
          6    1    1    2  502    0 -0.11481207883E+01  0.24421712960E+03  0.78203325721E+02  0.30877675548E+03  0.17200000000E+03 0.  1.
         -6    1    1    2    0  501  0.11481207883E+01 -0.24421712960E+03  0.25069357358E+03  0.38996742480E+03  0.17200000000E+03 0. -1.
</event>
<event>
 4    1  0.3094855E-002  0.2052639E+03  0.7818608E-02  0.1145372E+00
         -1   -1    0    0    0  501 -0.00000000000E+00  0.00000000000E+00  0.62439297605E+02  0.62439297605E+02  0.00000000000E+00 0.  1.
          1   -1    0    0  502    0  0.00000000000E+00 -0.00000000000E+00 -0.67581255656E+03  0.67581255656E+03  0.00000000000E+00 0. -1.
          6    1    1    2  502    0  0.10627257366E+03  0.35431473802E+02 -0.32106346958E+03  0.38107086053E+03  0.17200000000E+03 0.  1.
         -6    1    1    2    0  501 -0.10627257366E+03 -0.35431473802E+02 -0.29230978938E+03  0.35718099364E+03  0.17200000000E+03 0. -1.
</event>
<event>
 4    1  0.3094855E-002  0.2740217E+03  0.7818608E-02  0.1099000E+00
         -2   -1    0    0    0  501 -0.00000000000E+00  0.00000000000E+00  0.20267356928E+03  0.20267356928E+03  0.00000000000E+00 0.  1.
          2   -1    0    0  502    0  0.00000000000E+00 -0.00000000000E+00 -0.37236041569E+03  0.37236041569E+03  0.00000000000E+00 0. -1.
          6    1    1    2  502    0 -0.20803464080E+03 -0.47175202703E+02 -0.10523755451E+03  0.29353509910E+03  0.17200000000E+03 0. -1.
         -6    1    1    2    0  501  0.20803464080E+03  0.47175202703E+02 -0.64449291896E+02  0.28149888587E+03  0.17200000000E+03 0.  1.
</event>
<event>
 4    1  0.3094855E-002  0.2990750E+03  0.7818608E-02  0.1085704E+00
         -2   -1    0    0    0  501 -0.00000000000E+00  0.00000000000E+00  0.70585095900E+02  0.70585095900E+02  0.00000000000E+00 0.  1.
          2   -1    0    0  502    0  0.00000000000E+00 -0.00000000000E+00 -0.15835722190E+04  0.15835722190E+04  0.00000000000E+00 0. -1.
          6    1    1    2  502    0 -0.10323573481E+02  0.24444896329E+03 -0.11261708629E+04  0.11652067131E+04  0.17200000000E+03 0. -1.
         -6    1    1    2    0  501  0.10323573481E+02 -0.24444896329E+03 -0.38681626012E+03  0.48895060172E+03  0.17200000000E+03 0.  1.
</event>
<event>
 4    1  0.3094855E-002  0.2250549E+03  0.7818608E-02  0.1130170E+00
         -1   -1    0    0    0  501 -0.00000000000E+00  0.00000000000E+00  0.20476559800E+03  0.20476559800E+03  0.00000000000E+00 0.  1.
          1   -1    0    0  502    0  0.00000000000E+00 -0.00000000000E+00 -0.51138841587E+03  0.51138841587E+03  0.00000000000E+00 0. -1.
          6    1    1    2  502    0  0.12564633955E+03  0.72654635960E+02 -0.41060609890E+03  0.46823825903E+03  0.17200000000E+03 0. -1.
         -6    1    1    2    0  501 -0.12564633955E+03 -0.72654635960E+02  0.10398328103E+03  0.24791575485E+03  0.17200000000E+03 0.  1.
</event>
<event>
 4    1  0.3094855E-002  0.3765775E+03  0.7818608E-02  0.1052206E+00
          2   -1    0    0  502    0  0.00000000000E+00  0.00000000000E+00  0.24253621684E+04  0.24253621684E+04  0.00000000000E+00 0. -1.
         -2   -1    0    0    0  501 -0.00000000000E+00 -0.00000000000E+00 -0.60940926188E+02  0.60940926188E+02  0.00000000000E+00 0.  1.
          6    1    1    2  502    0 -0.13351009428E+03  0.30724859350E+03  0.14325387607E+04  0.14812082717E+04  0.17200000000E+03 0. -1.
         -6    1    1    2    0  501  0.13351009428E+03 -0.30724859350E+03  0.93188248151E+03  0.10050948228E+04  0.17200000000E+03 0.  1.
</event>
<event>
 4    1  0.3094855E-002  0.6774466E+03  0.7818608E-02  0.9756598E-01
         -2   -1    0    0    0  501 -0.00000000000E+00  0.00000000000E+00  0.62099359249E+03  0.62099359249E+03  0.00000000000E+00 0.  1.
          2   -1    0    0  502    0  0.00000000000E+00 -0.00000000000E+00 -0.74154615691E+03  0.74154615691E+03  0.00000000000E+00 0. -1.
          6    1    1    2  502    0 -0.23819286309E+03  0.61042122028E+03 -0.99947755597E+02  0.68477986246E+03  0.17200000000E+03 0. -1.
         -6    1    1    2    0  501  0.23819286309E+03 -0.61042122028E+03 -0.20604808819E+02  0.67775988693E+03  0.17200000000E+03 0.  1.
</event>
<event>
 4    1  0.3094855E-002  0.1914991E+03  0.7818608E-02  0.1157116E+00
          2   -1    0    0  502    0  0.00000000000E+00  0.00000000000E+00  0.16142739179E+03  0.16142739179E+03  0.00000000000E+00 0. -1.
         -2   -1    0    0    0  501 -0.00000000000E+00 -0.00000000000E+00 -0.22846271540E+03  0.22846271540E+03  0.00000000000E+00 0.  1.
          6    1    1    2  502    0 -0.74169449439E+02  0.39834560034E+02 -0.48166356215E+02  0.19746366064E+03  0.17200000000E+03 0. -1.
         -6    1    1    2    0  501  0.74169449439E+02 -0.39834560034E+02 -0.18868967397E+02  0.19242644656E+03  0.17200000000E+03 0. -1.
</event>
<event>
 4    1  0.3094855E-002  0.1844648E+03  0.7818608E-02  0.1163551E+00
          2   -1    0    0  502    0  0.00000000000E+00  0.00000000000E+00  0.60591241051E+02  0.60591241051E+02  0.00000000000E+00 0. -1.
         -2   -1    0    0    0  501 -0.00000000000E+00 -0.00000000000E+00 -0.57228524709E+03  0.57228524709E+03  0.00000000000E+00 0.  1.
          6    1    1    2  502    0  0.53377475137E+02  0.39926056782E+02 -0.21258149322E+03  0.28145716570E+03  0.17200000000E+03 0. -1.
         -6    1    1    2    0  501 -0.53377475137E+02 -0.39926056782E+02 -0.29911251281E+03  0.35141932244E+03  0.17200000000E+03 0.  1.
</event>
<event>
 4    1  0.3094855E-002  0.1829845E+03  0.7818608E-02  0.1164945E+00
          2   -1    0    0  502    0  0.00000000000E+00  0.00000000000E+00  0.13581338472E+04  0.13581338472E+04  0.00000000000E+00 0. -1.
         -2   -1    0    0    0  501 -0.00000000000E+00 -0.00000000000E+00 -0.40266907445E+02  0.40266907445E+02  0.00000000000E+00 0.  1.
          6    1    1    2  502    0  0.75737704209E+00  0.62440082907E+02  0.10943153736E+04  0.11095086636E+04  0.17200000000E+03 0. -1.
         -6    1    1    2    0  501 -0.75737704209E+00 -0.62440082907E+02  0.22355156616E+03  0.28889209111E+03  0.17200000000E+03 0.  1.
</event>
<event>
 4    1  0.3094855E-002  0.1732393E+03  0.7818608E-02  0.1174511E+00
          2   -1    0    0  502    0  0.00000000000E+00  0.00000000000E+00  0.10855247163E+04  0.10855247163E+04  0.00000000000E+00 0. -1.
         -2   -1    0    0    0  501 -0.00000000000E+00 -0.00000000000E+00 -0.29222643235E+02  0.29222643235E+02  0.00000000000E+00 0.  1.
          6    1    1    2  502    0 -0.16167008885E+02 -0.12903491965E+02  0.65756126890E+03  0.67999904018E+03  0.17200000000E+03 0. -1.
         -6    1    1    2    0  501  0.16167008885E+02  0.12903491965E+02  0.39874080418E+03  0.43474831937E+03  0.17200000000E+03 0.  1.
</event>
<event>
 4    1  0.3094855E-002  0.2044247E+03  0.7818608E-02  0.1146059E+00
         -2   -1    0    0    0  501 -0.00000000000E+00  0.00000000000E+00  0.15286379467E+03  0.15286379467E+03  0.00000000000E+00 0.  1.
          2   -1    0    0  502    0  0.00000000000E+00 -0.00000000000E+00 -0.30039671681E+03  0.30039671681E+03  0.00000000000E+00 0. -1.
          6    1    1    2  502    0 -0.10956686535E+03 -0.14161805740E+02 -0.57975652898E+01  0.20450688616E+03  0.17200000000E+03 0. -1.
         -6    1    1    2    0  501  0.10956686535E+03  0.14161805740E+02 -0.14173535685E+03  0.24875362531E+03  0.17200000000E+03 0.  1.
</event>
<event>
 4    1  0.3094855E-002  0.4044933E+03  0.7818608E-02  0.1042235E+00
          1   -1    0    0  502    0  0.00000000000E+00  0.00000000000E+00  0.11452494193E+04  0.11452494193E+04  0.00000000000E+00 0. -1.
         -1   -1    0    0    0  501 -0.00000000000E+00 -0.00000000000E+00 -0.14286514511E+03  0.14286514511E+03  0.00000000000E+00 0.  1.
          6    1    1    2  502    0  0.64121776924E+02 -0.36044313994E+03  0.50305246456E+03  0.64550495080E+03  0.17200000000E+03 0. -1.
         -6    1    1    2    0  501 -0.64121776924E+02  0.36044313994E+03  0.49933180966E+03  0.64260961364E+03  0.17200000000E+03 0.  1.
</event>
<event>
 4    1  0.3094855E-002  0.1956833E+03  0.7818608E-02  0.1153433E+00
          2   -1    0    0  502    0  0.00000000000E+00  0.00000000000E+00  0.71437178533E+03  0.71437178533E+03  0.00000000000E+00 0. -1.
         -2   -1    0    0    0  501 -0.00000000000E+00 -0.00000000000E+00 -0.65231385581E+02  0.65231385581E+02  0.00000000000E+00 0.  1.
          6    1    1    2  502    0  0.36798720966E+01  0.93243766918E+02  0.48915466733E+03  0.52684364863E+03  0.17200000000E+03 0. -1.
         -6    1    1    2    0  501 -0.36798720966E+01 -0.93243766918E+02  0.15998573242E+03  0.25275952228E+03  0.17200000000E+03 0.  1.
</event>
<event>
 4    1  0.3094855E-002  0.2187644E+03  0.7818608E-02  0.1134808E+00
          2   -1    0    0  502    0  0.00000000000E+00  0.00000000000E+00  0.18743415538E+03  0.18743415538E+03  0.00000000000E+00 0. -1.
         -2   -1    0    0    0  501 -0.00000000000E+00 -0.00000000000E+00 -0.28230349457E+03  0.28230349457E+03  0.00000000000E+00 0.  1.
          6    1    1    2  502    0  0.12610679517E+03  0.48692494930E+02 -0.12003224439E+03  0.24953080480E+03  0.17200000000E+03 0. -1.
         -6    1    1    2    0  501 -0.12610679517E+03 -0.48692494930E+02  0.25162905200E+02  0.22020684515E+03  0.17200000000E+03 0.  1.
</event>
<event>
 4    1  0.3094855E-002  0.1874789E+03  0.7818608E-02  0.1160755E+00
          1   -1    0    0  502    0  0.00000000000E+00  0.00000000000E+00  0.14609438791E+04  0.14609438791E+04  0.00000000000E+00 0. -1.
         -1   -1    0    0    0  501 -0.00000000000E+00 -0.00000000000E+00 -0.24813910677E+02  0.24813910677E+02  0.00000000000E+00 0.  1.
          6    1    1    2  502    0  0.72286979137E+02 -0.18410336139E+02  0.84766850760E+03  0.86815335431E+03  0.17200000000E+03 0. -1.
         -6    1    1    2    0  501 -0.72286979137E+02  0.18410336139E+02  0.58846146082E+03  0.61760443546E+03  0.17200000000E+03 0.  1.
</event>
<event>
 4    1  0.3094855E-002  0.7208817E+03  0.7818608E-02  0.9682173E-01
         -1   -1    0    0    0  501 -0.00000000000E+00  0.00000000000E+00  0.11229196819E+04  0.11229196819E+04  0.00000000000E+00 0.  1.
          1   -1    0    0  502    0  0.00000000000E+00 -0.00000000000E+00 -0.46720314687E+03  0.46720314687E+03  0.00000000000E+00 0. -1.
          6    1    1    2  502    0 -0.51098391011E+03  0.47852055078E+03  0.40517330642E+03  0.82694369950E+03  0.17200000000E+03 0. -1.
         -6    1    1    2    0  501  0.51098391011E+03 -0.47852055078E+03  0.25054322858E+03  0.76317912924E+03  0.17200000000E+03 0.  1.
</event>
<event>
 4    1  0.3094855E-002  0.1731443E+03  0.7818608E-02  0.1174608E+00
          2   -1    0    0  502    0  0.00000000000E+00  0.00000000000E+00  0.20641685863E+03  0.20641685863E+03  0.00000000000E+00 0. -1.
         -2   -1    0    0    0  501 -0.00000000000E+00 -0.00000000000E+00 -0.24032882506E+03  0.24032882506E+03  0.00000000000E+00 0.  1.
          6    1    1    2  502    0 -0.19544232294E+02  0.36013835607E+01  0.12355285957E+03  0.21270697235E+03  0.17200000000E+03 0. -1.
         -6    1    1    2    0  501  0.19544232294E+02 -0.36013835607E+01 -0.15746482600E+03  0.23403871134E+03  0.17200000000E+03 0.  1.
</event>
<event>
 4    1  0.3094855E-002  0.1977180E+03  0.7818608E-02  0.1151679E+00
          1   -1    0    0  502    0  0.00000000000E+00  0.00000000000E+00  0.63023588818E+02  0.63023588818E+02  0.00000000000E+00 0. -1.
         -1   -1    0    0    0  501 -0.00000000000E+00 -0.00000000000E+00 -0.73065115430E+03  0.73065115430E+03  0.00000000000E+00 0.  1.
          6    1    1    2  502    0  0.93957444681E+02  0.26084820453E+02 -0.17957957330E+03  0.26709781432E+03  0.17200000000E+03 0. -1.
         -6    1    1    2    0  501 -0.93957444681E+02 -0.26084820453E+02 -0.48804799218E+03  0.52657692880E+03  0.17200000000E+03 0.  1.
</event>
<event>
 4    1  0.3094855E-002  0.3751084E+03  0.7818608E-02  0.1052757E+00
          1   -1    0    0  502    0  0.00000000000E+00  0.00000000000E+00  0.15312276506E+04  0.15312276506E+04  0.00000000000E+00 0. -1.
         -1   -1    0    0    0  501 -0.00000000000E+00 -0.00000000000E+00 -0.12948389905E+03  0.12948389905E+03  0.00000000000E+00 0.  1.
          6    1    1    2  502    0  0.11305099029E+03  0.31359489690E+03  0.11482845766E+04  0.12079998984E+04  0.17200000000E+03 0. -1.
         -6    1    1    2    0  501 -0.11305099029E+03 -0.31359489690E+03  0.25345917490E+03  0.45271165117E+03  0.17200000000E+03 0.  1.
</event>
<event>
 4    1  0.3094855E-002  0.2237869E+03  0.7818608E-02  0.1131091E+00
          2   -1    0    0  502    0  0.00000000000E+00  0.00000000000E+00  0.42533252065E+02  0.42533252065E+02  0.00000000000E+00 0. -1.
         -2   -1    0    0    0  501 -0.00000000000E+00 -0.00000000000E+00 -0.12076603364E+04  0.12076603364E+04  0.00000000000E+00 0.  1.
          6    1    1    2  502    0  0.13438563563E+03 -0.49366692299E+02 -0.68143884919E+03  0.71724436182E+03  0.17200000000E+03 0. -1.
         -6    1    1    2    0  501 -0.13438563563E+03  0.49366692299E+02 -0.48368823517E+03  0.53294922668E+03  0.17200000000E+03 0.  1.
</event>
<event>
 4    1  0.3094855E-002  0.7579166E+03  0.7818608E-02  0.9623012E-01
          2   -1    0    0  502    0  0.00000000000E+00  0.00000000000E+00  0.25166336588E+04  0.25166336588E+04  0.00000000000E+00 0. -1.
         -2   -1    0    0    0  501 -0.00000000000E+00 -0.00000000000E+00 -0.71350479935E+03  0.71350479935E+03  0.00000000000E+00 0.  1.
          6    1    1    2  502    0 -0.57845714120E+03  0.45852040466E+03  0.22334740918E+04  0.23585682403E+04  0.17200000000E+03 0. -1.
         -6    1    1    2    0  501  0.57845714120E+03 -0.45852040466E+03 -0.43034523228E+03  0.87157021785E+03  0.17200000000E+03 0.  1.
</event>
<event>
 4    1  0.3094855E-002  0.2276449E+03  0.7818608E-02  0.1128308E+00
          1   -1    0    0  502    0  0.00000000000E+00  0.00000000000E+00  0.15683695160E+04  0.15683695160E+04  0.00000000000E+00 0. -1.
         -1   -1    0    0    0  501 -0.00000000000E+00 -0.00000000000E+00 -0.45797877617E+02  0.45797877617E+02  0.00000000000E+00 0.  1.
          6    1    1    2  502    0 -0.14795020979E+03  0.18679608872E+02  0.11872270622E+04  0.12088549498E+04  0.17200000000E+03 0. -1.
         -6    1    1    2    0  501  0.14795020979E+03 -0.18679608872E+02  0.33534457620E+03  0.40531244386E+03  0.17200000000E+03 0.  1.
</event>
<event>
 4    1  0.3094855E-002  0.1827756E+03  0.7818608E-02  0.1165143E+00
         -1   -1    0    0    0  501 -0.00000000000E+00  0.00000000000E+00  0.14766503373E+02  0.14766503373E+02  0.00000000000E+00 0.  1.
          1   -1    0    0  502    0  0.00000000000E+00 -0.00000000000E+00 -0.31911176484E+04  0.31911176484E+04  0.00000000000E+00 0. -1.
          6    1    1    2  502    0  0.53558048476E+02 -0.30894450323E+02 -0.24529463910E+04  0.24597465171E+04  0.17200000000E+03 0. -1.
         -6    1    1    2    0  501 -0.53558048476E+02  0.30894450323E+02 -0.72340475400E+03  0.74613763458E+03  0.17200000000E+03 0.  1.
</event>
<event>
 4    1  0.3094855E-002  0.1737717E+03  0.7818608E-02  0.1173971E+00
          2   -1    0    0  502    0  0.00000000000E+00  0.00000000000E+00  0.42147195013E+04  0.42147195013E+04  0.00000000000E+00 0. -1.
         -2   -1    0    0    0  501 -0.00000000000E+00 -0.00000000000E+00 -0.14656913644E+02  0.14656913644E+02  0.00000000000E+00 0.  1.
          6    1    1    2  502    0  0.20675321164E+02  0.13606544551E+02  0.36119701873E+04  0.36161478455E+04  0.17200000000E+03 0. -1.
         -6    1    1    2    0  501 -0.20675321164E+02 -0.13606544551E+02  0.58809240037E+03  0.61322856940E+03  0.17200000000E+03 0.  1.
</event>
<event>
 4    1  0.3094855E-002  0.5174086E+03  0.7818608E-02  0.1009332E+00
          2   -1    0    0  502    0  0.00000000000E+00  0.00000000000E+00  0.17065766674E+04  0.17065766674E+04  0.00000000000E+00 0. -1.
         -2   -1    0    0    0  501 -0.00000000000E+00 -0.00000000000E+00 -0.16054596125E+03  0.16054596125E+03  0.00000000000E+00 0.  1.
          6    1    1    2  502    0 -0.47426720138E+03 -0.11488390088E+03  0.91426707505E+03  0.10505217625E+04  0.17200000000E+03 0. -1.
         -6    1    1    2    0  501  0.47426720138E+03  0.11488390088E+03  0.63176363113E+03  0.81660086615E+03  0.17200000000E+03 0.  1.
</event>
<event>
 4    1  0.3094855E-002  0.8513741E+03  0.7818608E-02  0.9488495E-01
          2   -1    0    0  502    0  0.00000000000E+00  0.00000000000E+00  0.14606983935E+04  0.14606983935E+04  0.00000000000E+00 0. -1.
         -2   -1    0    0    0  501 -0.00000000000E+00 -0.00000000000E+00 -0.53996534583E+03  0.53996534583E+03  0.00000000000E+00 0.  1.
          6    1    1    2  502    0  0.31890296558E+03  0.77042502796E+03  0.17566298186E+03  0.86930737277E+03  0.17200000000E+03 0. -1.
         -6    1    1    2    0  501 -0.31890296558E+03 -0.77042502796E+03  0.74507006579E+03  0.11313563665E+04  0.17200000000E+03 0.  1.
</event>
<event>
 4    1  0.3094855E-002  0.3576122E+03  0.7818608E-02  0.1059533E+00
          2   -1    0    0  502    0  0.00000000000E+00  0.00000000000E+00  0.13982296998E+03  0.13982296998E+03  0.00000000000E+00 0. -1.
         -2   -1    0    0    0  501 -0.00000000000E+00 -0.00000000000E+00 -0.13327990101E+04  0.13327990101E+04  0.00000000000E+00 0.  1.
          6    1    1    2  502    0  0.31332477478E+03  0.11406194942E+02 -0.18405444761E+03  0.40219715993E+03  0.17200000000E+03 0. -1.
         -6    1    1    2    0  501 -0.31332477478E+03 -0.11406194942E+02 -0.10089215925E+04  0.10704248201E+04  0.17200000000E+03 0.  1.
</event>
<event>
 4    1  0.3094855E-002  0.2498139E+03  0.7818608E-02  0.1113422E+00
         -2   -1    0    0    0  501 -0.00000000000E+00  0.00000000000E+00  0.47958115599E+02  0.47958115599E+02  0.00000000000E+00 0.  1.
          2   -1    0    0  502    0  0.00000000000E+00 -0.00000000000E+00 -0.28712464859E+04  0.28712464859E+04  0.00000000000E+00 0. -1.
          6    1    1    2  502    0 -0.14137747557E+03  0.11329347496E+03 -0.24909494689E+04  0.25034448783E+04  0.17200000000E+03 0. -1.
         -6    1    1    2    0  501  0.14137747557E+03 -0.11329347496E+03 -0.33233890149E+03  0.41575972329E+03  0.17200000000E+03 0.  1.
</event>
<event>
 4    1  0.3094855E-002  0.4285822E+03  0.7818608E-02  0.1034309E+00
         -2   -1    0    0    0  501 -0.00000000000E+00  0.00000000000E+00  0.15383067314E+03  0.15383067314E+03  0.00000000000E+00 0.  1.
          2   -1    0    0  502    0  0.00000000000E+00 -0.00000000000E+00 -0.13518670654E+04  0.13518670654E+04  0.00000000000E+00 0. -1.
          6    1    1    2  502    0  0.98781952591E+02  0.37992208132E+03 -0.34179653846E+03  0.54818567633E+03  0.17200000000E+03 0. -1.
         -6    1    1    2    0  501 -0.98781952591E+02 -0.37992208132E+03 -0.85623985385E+03  0.95751206225E+03  0.17200000000E+03 0.  1.
</event>
<event>
 4    1  0.3094855E-002  0.1958528E+03  0.7818608E-02  0.1153286E+00
          1   -1    0    0  502    0  0.00000000000E+00  0.00000000000E+00  0.18690637376E+04  0.18690637376E+04  0.00000000000E+00 0. -1.
         -1   -1    0    0    0  501 -0.00000000000E+00 -0.00000000000E+00 -0.21533454578E+02  0.21533454578E+02  0.00000000000E+00 0.  1.
          6    1    1    2  502    0 -0.27062514362E+02 -0.89676772987E+02  0.11285637937E+04  0.11454320319E+04  0.17200000000E+03 0. -1.
         -6    1    1    2    0  501  0.27062514362E+02  0.89676772987E+02  0.71896648936E+03  0.74516516030E+03  0.17200000000E+03 0. -1.
</event>
<event>
 4    1  0.3094855E-002  0.2671023E+03  0.7818608E-02  0.1102950E+00
         -1   -1    0    0    0  501 -0.00000000000E+00  0.00000000000E+00  0.48216350400E+02  0.48216350400E+02  0.00000000000E+00 0.  1.
          1   -1    0    0  502    0  0.00000000000E+00 -0.00000000000E+00 -0.14796648361E+04  0.14796648361E+04  0.00000000000E+00 0. -1.
          6    1    1    2  502    0 -0.51636243772E+02 -0.19772033092E+03 -0.71754951378E+03  0.76565066163E+03  0.17200000000E+03 0.  1.
         -6    1    1    2    0  501  0.51636243772E+02  0.19772033092E+03 -0.71389897190E+03  0.76223052485E+03  0.17200000000E+03 0.  1.
</event>
<event>
 4    1  0.3094855E-002  0.2147625E+03  0.7818608E-02  0.1137849E+00
         -2   -1    0    0    0  501 -0.00000000000E+00  0.00000000000E+00  0.63219322025E+02  0.63219322025E+02  0.00000000000E+00 0.  1.
          2   -1    0    0  502    0  0.00000000000E+00 -0.00000000000E+00 -0.76616407911E+03  0.76616407911E+03  0.00000000000E+00 0. -1.
          6    1    1    2  502    0  0.18551340828E+02 -0.12725877301E+03 -0.26084334524E+03  0.33787896991E+03  0.17200000000E+03 0. -1.
         -6    1    1    2    0  501 -0.18551340828E+02  0.12725877301E+03 -0.44210141185E+03  0.49150443123E+03  0.17200000000E+03 0. -1.
</event>
<event>
 4    1  0.3094855E-002  0.3114418E+03  0.7818608E-02  0.1079657E+00
          1   -1    0    0  502    0  0.00000000000E+00  0.00000000000E+00  0.12356161030E+04  0.12356161030E+04  0.00000000000E+00 0. -1.
         -1   -1    0    0    0  501 -0.00000000000E+00 -0.00000000000E+00 -0.94416607895E+02  0.94416607895E+02  0.00000000000E+00 0.  1.
          6    1    1    2  502    0 -0.51396567184E+02 -0.25450030095E+03  0.84364320475E+03  0.89929409384E+03  0.17200000000E+03 0. -1.
         -6    1    1    2    0  501  0.51396567184E+02  0.25450030095E+03  0.29755629039E+03  0.43073861709E+03  0.17200000000E+03 0.  1.
</event>
<event>
 4    1  0.3094855E-002  0.1784788E+03  0.7818608E-02  0.1169283E+00
         -2   -1    0    0    0  501 -0.00000000000E+00  0.00000000000E+00  0.26588285605E+03  0.26588285605E+03  0.00000000000E+00 0.  1.
          2   -1    0    0  502    0  0.00000000000E+00 -0.00000000000E+00 -0.16200727751E+03  0.16200727751E+03  0.00000000000E+00 0. -1.
          6    1    1    2  502    0 -0.33477212908E+02  0.33910906639E+02 -0.57254451246E+02  0.18743731102E+03  0.17200000000E+03 0. -1.
         -6    1    1    2    0  501  0.33477212908E+02 -0.33910906639E+02  0.16113002978E+03  0.24045282254E+03  0.17200000000E+03 0.  1.
</event>
<event>
 4    1  0.3094855E-002  0.1774781E+03  0.7818608E-02  0.1170266E+00
         -2   -1    0    0    0  501 -0.00000000000E+00  0.00000000000E+00  0.89719691700E+02  0.89719691700E+02  0.00000000000E+00 0.  1.
          2   -1    0    0  502    0  0.00000000000E+00 -0.00000000000E+00 -0.37432129680E+03  0.37432129680E+03  0.00000000000E+00 0. -1.
          6    1    1    2  502    0  0.42297507833E+02  0.11198208987E+02 -0.84482335906E+02  0.19655977242E+03  0.17200000000E+03 0.  1.
         -6    1    1    2    0  501 -0.42297507833E+02 -0.11198208987E+02 -0.20011926920E+03  0.26748121608E+03  0.17200000000E+03 0. -1.
</event>
<event>
 4    1  0.3094855E-002  0.6091253E+03  0.7818608E-02  0.9886653E-01
         -2   -1    0    0    0  501 -0.00000000000E+00  0.00000000000E+00  0.12291460212E+04  0.12291460212E+04  0.00000000000E+00 0.  1.
          2   -1    0    0  502    0  0.00000000000E+00 -0.00000000000E+00 -0.66423527169E+03  0.66423527169E+03  0.00000000000E+00 0. -1.
          6    1    1    2  502    0  0.38157039174E+03 -0.44255362860E+03 -0.41678196536E+03  0.73806563712E+03  0.17200000000E+03 0. -1.
         -6    1    1    2    0  501 -0.38157039174E+03  0.44255362860E+03  0.98169271487E+03  0.11553156558E+04  0.17200000000E+03 0.  1.
</event>
<event>
 4    1  0.3094855E-002  0.2628543E+03  0.7818608E-02  0.1105440E+00
         -2   -1    0    0    0  501 -0.00000000000E+00  0.00000000000E+00  0.11742033623E+03  0.11742033623E+03  0.00000000000E+00 0.  1.
          2   -1    0    0  502    0  0.00000000000E+00 -0.00000000000E+00 -0.84061005065E+03  0.84061005065E+03  0.00000000000E+00 0. -1.
          6    1    1    2  502    0 -0.17676476975E+03  0.90898872520E+02 -0.62396632212E+03  0.67707190164E+03  0.17200000000E+03 0. -1.
         -6    1    1    2    0  501  0.17676476975E+03 -0.90898872520E+02 -0.99223392304E+02  0.28095848524E+03  0.17200000000E+03 0.  1.
</event>
<event>
 4    1  0.3094855E-002  0.2300366E+03  0.7818608E-02  0.1126614E+00
          2   -1    0    0  502    0  0.00000000000E+00  0.00000000000E+00  0.15220998660E+04  0.15220998660E+04  0.00000000000E+00 0. -1.
         -2   -1    0    0    0  501 -0.00000000000E+00 -0.00000000000E+00 -0.53517758381E+02  0.53517758381E+02  0.00000000000E+00 0.  1.
          6    1    1    2  502    0 -0.14928773182E+03  0.32342091258E+02  0.12006245112E+04  0.12224631097E+04  0.17200000000E+03 0. -1.
         -6    1    1    2    0  501  0.14928773182E+03 -0.32342091258E+02  0.26795759637E+03  0.35315451461E+03  0.17200000000E+03 0.  1.
</event>
<event>
 4    1  0.3094855E-002  0.4201050E+03  0.7818608E-02  0.1037032E+00
          2   -1    0    0  502    0  0.00000000000E+00  0.00000000000E+00  0.70692582217E+03  0.70692582217E+03  0.00000000000E+00 0. -1.
         -2   -1    0    0    0  501 -0.00000000000E+00 -0.00000000000E+00 -0.30251997657E+03  0.30251997657E+03  0.00000000000E+00 0.  1.
          6    1    1    2  502    0 -0.27871439900E+03  0.26310170110E+03  0.41319016480E+03  0.58924895725E+03  0.17200000000E+03 0. -1.
         -6    1    1    2    0  501  0.27871439900E+03 -0.26310170110E+03 -0.87843192081E+01  0.42019684149E+03  0.17200000000E+03 0.  1.
</event>
<event>
 4    1  0.3094855E-002  0.2303302E+03  0.7818608E-02  0.1126408E+00
         -2   -1    0    0    0  501 -0.00000000000E+00  0.00000000000E+00  0.28612772079E+02  0.28612772079E+02  0.00000000000E+00 0.  1.
          2   -1    0    0  502    0  0.00000000000E+00 -0.00000000000E+00 -0.22535652898E+04  0.22535652898E+04  0.00000000000E+00 0. -1.
          6    1    1    2  502    0 -0.15264523206E+03  0.12940438017E+02 -0.15928767498E+04  0.16094434944E+04  0.17200000000E+03 0. -1.
         -6    1    1    2    0  501  0.15264523206E+03 -0.12940438017E+02 -0.63207576795E+03  0.67273456745E+03  0.17200000000E+03 0.  1.
</event>
<event>
 4    1  0.3094855E-002  0.3728249E+03  0.7818608E-02  0.1053618E+00
         -2   -1    0    0    0  501 -0.00000000000E+00  0.00000000000E+00  0.16813654564E+03  0.16813654564E+03  0.00000000000E+00 0.  1.
          2   -1    0    0  502    0  0.00000000000E+00 -0.00000000000E+00 -0.86787729821E+03  0.86787729821E+03  0.00000000000E+00 0. -1.
          6    1    1    2  502    0  0.13568901924E+03  0.30166683165E+03 -0.23703681311E+03  0.44179728160E+03  0.17200000000E+03 0. -1.
         -6    1    1    2    0  501 -0.13568901924E+03 -0.30166683165E+03 -0.46270393945E+03  0.59421656224E+03  0.17200000000E+03 0.  1.
</event>
<event>
 4    1  0.3094855E-002  0.2119163E+03  0.7818608E-02  0.1140057E+00
         -1   -1    0    0    0  501 -0.00000000000E+00  0.00000000000E+00  0.16421664162E+03  0.16421664162E+03  0.00000000000E+00 0.  1.
          1   -1    0    0  502    0  0.00000000000E+00 -0.00000000000E+00 -0.33524494509E+03  0.33524494509E+03  0.00000000000E+00 0. -1.
          6    1    1    2  502    0 -0.37895894203E+02 -0.11784914183E+03  0.21685409587E+02  0.21302294716E+03  0.17200000000E+03 0. -1.
         -6    1    1    2    0  501  0.37895894203E+02  0.11784914183E+03 -0.19271371306E+03  0.28643863955E+03  0.17200000000E+03 0.  1.
</event>
<event>
 4    1  0.3094855E-002  0.1904610E+03  0.7818608E-02  0.1158046E+00
          1   -1    0    0  502    0  0.00000000000E+00  0.00000000000E+00  0.12541017656E+04  0.12541017656E+04  0.00000000000E+00 0. -1.
         -1   -1    0    0    0  501 -0.00000000000E+00 -0.00000000000E+00 -0.28992109697E+02  0.28992109697E+02  0.00000000000E+00 0.  1.
          6    1    1    2  502    0  0.69407767735E+02 -0.43289264110E+02  0.58178151948E+03  0.61216430394E+03  0.17200000000E+03 0. -1.
         -6    1    1    2    0  501 -0.69407767735E+02  0.43289264110E+02  0.64332813645E+03  0.67092957138E+03  0.17200000000E+03 0.  1.
</event>
<event>
 4    1  0.3094855E-002  0.2949050E+03  0.7818608E-02  0.1087816E+00
         -2   -1    0    0    0  501 -0.00000000000E+00  0.00000000000E+00  0.47352629712E+02  0.47352629712E+02  0.00000000000E+00 0.  1.
          2   -1    0    0  502    0  0.00000000000E+00 -0.00000000000E+00 -0.19327763507E+04  0.19327763507E+04  0.00000000000E+00 0. -1.
          6    1    1    2  502    0  0.17312983783E+03  0.16556278132E+03 -0.11635391177E+04  0.12003300603E+04  0.17200000000E+03 0. -1.
         -6    1    1    2    0  501 -0.17312983783E+03 -0.16556278132E+03 -0.72188460337E+03  0.77979892017E+03  0.17200000000E+03 0.  1.
</event>
<event>
 4    1  0.3094855E-002  0.4018192E+03  0.7818608E-02  0.1043152E+00
         -2   -1    0    0    0  501 -0.00000000000E+00  0.00000000000E+00  0.57811441636E+02  0.57811441636E+02  0.00000000000E+00 0.  1.
          2   -1    0    0  502    0  0.00000000000E+00 -0.00000000000E+00 -0.31797846838E+04  0.31797846838E+04  0.00000000000E+00 0. -1.
          6    1    1    2  502    0 -0.12943481091E+03 -0.33929528076E+03 -0.21256802804E+04  0.21633250593E+04  0.17200000000E+03 0. -1.
         -6    1    1    2    0  501  0.12943481091E+03  0.33929528076E+03 -0.99629296178E+03  0.10742710661E+04  0.17200000000E+03 0.  1.
</event>
<event>
 4    1  0.3094855E-002  0.2204035E+03  0.7818608E-02  0.1133583E+00
         -2   -1    0    0    0  501 -0.00000000000E+00  0.00000000000E+00  0.98001628447E+02  0.98001628447E+02  0.00000000000E+00 0.  1.
          2   -1    0    0  502    0  0.00000000000E+00 -0.00000000000E+00 -0.15960404812E+04  0.15960404812E+04  0.00000000000E+00 0. -1.
          6    1    1    2  502    0 -0.45896401909E+02 -0.12995079974E+03 -0.14523172249E+04  0.14689462249E+04  0.17200000000E+03 0. -1.
         -6    1    1    2    0  501  0.45896401909E+02  0.12995079974E+03 -0.45721627879E+02  0.22509588472E+03  0.17200000000E+03 0.  1.
</event>
<event>
 4    1  0.3094855E-002  0.1732201E+03  0.7818608E-02  0.1174531E+00
          1   -1    0    0  502    0  0.00000000000E+00  0.00000000000E+00  0.43683187238E+03  0.43683187238E+03  0.00000000000E+00 0. -1.
         -1   -1    0    0    0  501 -0.00000000000E+00 -0.00000000000E+00 -0.74193622128E+02  0.74193622128E+02  0.00000000000E+00 0.  1.
          6    1    1    2  502    0 -0.96730533704E+01 -0.18100621386E+02  0.25092150757E+03  0.30490458084E+03  0.17200000000E+03 0. -1.
         -6    1    1    2    0  501  0.96730533704E+01  0.18100621386E+02  0.11171674268E+03  0.20612091367E+03  0.17200000000E+03 0.  1.
</event>
<event>
 4    1  0.3094855E-002  0.1858631E+03  0.7818608E-02  0.1162246E+00
          2   -1    0    0  502    0  0.00000000000E+00  0.00000000000E+00  0.18497334649E+04  0.18497334649E+04  0.00000000000E+00 0. -1.
         -2   -1    0    0    0  501 -0.00000000000E+00 -0.00000000000E+00 -0.23303980057E+02  0.23303980057E+02  0.00000000000E+00 0.  1.
          6    1    1    2  502    0 -0.52388788599E+02  0.47079647984E+02  0.13305748601E+04  0.13434934078E+04  0.17200000000E+03 0. -1.
         -6    1    1    2    0  501  0.52388788599E+02 -0.47079647984E+02  0.49585462470E+03  0.52954403713E+03  0.17200000000E+03 0.  1.
</event>
<event>
 4    1  0.3094855E-002  0.8628472E+03  0.7818608E-02  0.9473254E-01
          2   -1    0    0  502    0  0.00000000000E+00  0.00000000000E+00  0.35967394224E+04  0.35967394224E+04  0.00000000000E+00 0. -1.
         -2   -1    0    0    0  501 -0.00000000000E+00 -0.00000000000E+00 -0.52491552237E+03  0.52491552237E+03  0.00000000000E+00 0.  1.
          6    1    1    2  502    0 -0.17488641871E+03 -0.82724603075E+03  0.31397353850E+04  0.32561393616E+04  0.17200000000E+03 0. -1.
         -6    1    1    2    0  501  0.17488641871E+03  0.82724603075E+03 -0.67911484948E+02  0.86551558312E+03  0.17200000000E+03 0.  1.
</event>
<event>
 4    1  0.3094855E-002  0.3055030E+03  0.7818608E-02  0.1082522E+00
         -1   -1    0    0    0  501 -0.00000000000E+00  0.00000000000E+00  0.14130862490E+03  0.14130862490E+03  0.00000000000E+00 0.  1.
          1   -1    0    0  502    0  0.00000000000E+00 -0.00000000000E+00 -0.98712950099E+03  0.98712950099E+03  0.00000000000E+00 0. -1.
          6    1    1    2  502    0  0.24713607931E+03 -0.51689572769E+02 -0.98347309106E+02  0.32094274698E+03  0.17200000000E+03 0.  1.
         -6    1    1    2    0  501 -0.24713607931E+03  0.51689572769E+02 -0.74747356698E+03  0.80749537891E+03  0.17200000000E+03 0. -1.
</event>
<event>
 4    1  0.3094855E-002  0.1824444E+03  0.7818608E-02  0.1165458E+00
         -3   -1    0    0    0  501 -0.00000000000E+00  0.00000000000E+00  0.17164348898E+03  0.17164348898E+03  0.00000000000E+00 0.  1.
          3   -1    0    0  502    0  0.00000000000E+00 -0.00000000000E+00 -0.19462835989E+03  0.19462835989E+03  0.00000000000E+00 0. -1.
          6    1    1    2  502    0  0.52288901713E+02 -0.31110112774E+02 -0.22501507764E+02  0.18382678317E+03  0.17200000000E+03 0. -1.
         -6    1    1    2    0  501 -0.52288901713E+02  0.31110112774E+02 -0.48336315093E+00  0.18244506570E+03  0.17200000000E+03 0.  1.
</event>
<event>
 4    1  0.3094855E-002  0.5290114E+03  0.7818608E-02  0.1006472E+00
         -1   -1    0    0    0  501 -0.00000000000E+00  0.00000000000E+00  0.22039632548E+03  0.22039632548E+03  0.00000000000E+00 0.  1.
          1   -1    0    0  502    0  0.00000000000E+00 -0.00000000000E+00 -0.16161896993E+04  0.16161896993E+04  0.00000000000E+00 0. -1.
          6    1    1    2  502    0  0.22348877966E+03 -0.44757326919E+03 -0.27275352572E+03  0.59518698887E+03  0.17200000000E+03 0. -1.
         -6    1    1    2    0  501 -0.22348877966E+03  0.44757326919E+03 -0.11230398481E+04  0.12413990359E+04  0.17200000000E+03 0.  1.
</event>
<event>
 4    1  0.3094855E-002  0.3399623E+03  0.7818608E-02  0.1066812E+00
          1   -1    0    0  502    0  0.00000000000E+00  0.00000000000E+00  0.60076970275E+03  0.60076970275E+03  0.00000000000E+00 0. -1.
         -1   -1    0    0    0  501 -0.00000000000E+00 -0.00000000000E+00 -0.22681700321E+03  0.22681700321E+03  0.00000000000E+00 0.  1.
          6    1    1    2  502    0 -0.29313227572E+03  0.79884338075E+01  0.25734960625E+02  0.34093494151E+03  0.17200000000E+03 0. -1.
         -6    1    1    2    0  501  0.29313227572E+03 -0.79884338075E+01  0.34821773891E+03  0.48665176444E+03  0.17200000000E+03 0.  1.
</event>
<event>
 4    1  0.3094855E-002  0.1977871E+03  0.7818608E-02  0.1151620E+00
         -1   -1    0    0    0  501 -0.00000000000E+00  0.00000000000E+00  0.35229722924E+02  0.35229722924E+02  0.00000000000E+00 0.  1.
          1   -1    0    0  502    0  0.00000000000E+00 -0.00000000000E+00 -0.12190118606E+04  0.12190118606E+04  0.00000000000E+00 0. -1.
          6    1    1    2  502    0  0.95226711804E+02 -0.21624523511E+02 -0.77906625364E+03  0.80378104868E+03  0.17200000000E+03 0. -1.
         -6    1    1    2    0  501 -0.95226711804E+02  0.21624523511E+02 -0.40471588401E+03  0.45046053482E+03  0.17200000000E+03 0.  1.
</event>
<event>
 4    1  0.3094855E-002  0.2136410E+03  0.7818608E-02  0.1138715E+00
          2   -1    0    0  502    0  0.00000000000E+00  0.00000000000E+00  0.73221956263E+02  0.73221956263E+02  0.00000000000E+00 0. -1.
         -2   -1    0    0    0  501 -0.00000000000E+00 -0.00000000000E+00 -0.12123877310E+04  0.12123877310E+04  0.00000000000E+00 0.  1.
          6    1    1    2  502    0  0.11911153139E+02  0.12616109115E+03 -0.12152719896E+03  0.24578721809E+03  0.17200000000E+03 0. -1.
         -6    1    1    2    0  501 -0.11911153139E+02 -0.12616109115E+03 -0.10176385757E+04  0.10398224691E+04  0.17200000000E+03 0.  1.
</event>
<event>
 4    1  0.3094855E-002  0.1828400E+03  0.7818608E-02  0.1165082E+00
         -2   -1    0    0    0  501 -0.00000000000E+00  0.00000000000E+00  0.14339838276E+03  0.14339838276E+03  0.00000000000E+00 0.  1.
          2   -1    0    0  502    0  0.00000000000E+00 -0.00000000000E+00 -0.25140969499E+03  0.25140969499E+03  0.00000000000E+00 0. -1.
          6    1    1    2  502    0  0.61888490551E+02  0.40340913067E+01 -0.77645134842E+00  0.18284163101E+03  0.17200000000E+03 0. -1.
         -6    1    1    2    0  501 -0.61888490551E+02 -0.40340913067E+01 -0.10723486088E+03  0.21196644674E+03  0.17200000000E+03 0. -1.
</event>
<event>
 4    1  0.3094855E-002  0.2112754E+03  0.7818608E-02  0.1140560E+00
         -1   -1    0    0    0  501 -0.00000000000E+00  0.00000000000E+00  0.42353363022E+03  0.42353363022E+03  0.00000000000E+00 0.  1.
          1   -1    0    0  502    0  0.00000000000E+00 -0.00000000000E+00 -0.24148944182E+03  0.24148944182E+03  0.00000000000E+00 0. -1.
          6    1    1    2  502    0 -0.10494015411E+03  0.63567646907E+02 -0.15859928330E+03  0.26417989012E+03  0.17200000000E+03 0. -1.
         -6    1    1    2    0  501  0.10494015411E+03 -0.63567646907E+02  0.34064347170E+03  0.40084318192E+03  0.17200000000E+03 0.  1.
</event>
<event>
 4    1  0.3094855E-002  0.3986123E+03  0.7818608E-02  0.1044261E+00
          2   -1    0    0  502    0  0.00000000000E+00  0.00000000000E+00  0.36303131845E+03  0.36303131845E+03  0.00000000000E+00 0. -1.
         -2   -1    0    0    0  501 -0.00000000000E+00 -0.00000000000E+00 -0.14126259712E+04  0.14126259712E+04  0.00000000000E+00 0.  1.
          6    1    1    2  502    0 -0.16785193435E+03  0.31801487492E+03  0.21277687997E+03  0.45184702410E+03  0.17200000000E+03 0. -1.
         -6    1    1    2    0  501  0.16785193435E+03 -0.31801487492E+03 -0.12623715327E+04  0.13238102656E+04  0.17200000000E+03 0.  1.
</event>
<event>
 4    1  0.3094855E-002  0.1815320E+03  0.7818608E-02  0.1166329E+00
          1   -1    0    0  502    0  0.00000000000E+00  0.00000000000E+00  0.17219042994E+04  0.17219042994E+04  0.00000000000E+00 0. -1.
         -1   -1    0    0    0  501 -0.00000000000E+00 -0.00000000000E+00 -0.23394767456E+02  0.23394767456E+02  0.00000000000E+00 0.  1.
          6    1    1    2  502    0  0.32418759202E+02  0.48154709033E+02  0.12214913474E+04  0.12349068644E+04  0.17200000000E+03 0. -1.
         -6    1    1    2    0  501 -0.32418759202E+02 -0.48154709033E+02  0.47701818456E+03  0.51039220248E+03  0.17200000000E+03 0.  1.
</event>
<event>
 4    1  0.3094855E-002  0.1755246E+03  0.7818608E-02  0.1172206E+00
          2   -1    0    0  502    0  0.00000000000E+00  0.00000000000E+00  0.14291637788E+04  0.14291637788E+04  0.00000000000E+00 0. -1.
         -2   -1    0    0    0  501 -0.00000000000E+00 -0.00000000000E+00 -0.25441149084E+02  0.25441149084E+02  0.00000000000E+00 0.  1.
          6    1    1    2  502    0 -0.32173778110E+02 -0.13774312968E+02  0.98603181431E+03  0.10015326368E+04  0.17200000000E+03 0. -1.
         -6    1    1    2    0  501  0.32173778110E+02  0.13774312968E+02  0.41769081541E+03  0.45307229111E+03  0.17200000000E+03 0.  1.
</event>
<event>
 4    1  0.3094855E-002  0.1846015E+03  0.7818608E-02  0.1163423E+00
         -2   -1    0    0    0  501 -0.00000000000E+00  0.00000000000E+00  0.56524948977E+03  0.56524948977E+03  0.00000000000E+00 0.  1.
          2   -1    0    0  502    0  0.00000000000E+00 -0.00000000000E+00 -0.60856711128E+02  0.60856711128E+02  0.00000000000E+00 0. -1.
          6    1    1    2  502    0  0.87481728426E+01 -0.66461959523E+02  0.28246104505E+03  0.33743438557E+03  0.17200000000E+03 0.  1.
         -6    1    1    2    0  501 -0.87481728426E+01  0.66461959523E+02  0.22193173359E+03  0.28867181533E+03  0.17200000000E+03 0. -1.
</event>
<event>
 4    1  0.3094855E-002  0.2661178E+03  0.7818608E-02  0.1103522E+00
         -2   -1    0    0    0  501 -0.00000000000E+00  0.00000000000E+00  0.16464981495E+03  0.16464981495E+03  0.00000000000E+00 0.  1.
          2   -1    0    0  502    0  0.00000000000E+00 -0.00000000000E+00 -0.53707483314E+03  0.53707483314E+03  0.00000000000E+00 0. -1.
          6    1    1    2  502    0 -0.15873234610E+03  0.12664402750E+03 -0.34278874303E+03  0.43396173765E+03  0.17200000000E+03 0. -1.
         -6    1    1    2    0  501  0.15873234610E+03 -0.12664402750E+03 -0.29636275158E+02  0.26776291044E+03  0.17200000000E+03 0.  1.
</event>
<event>
 4    1  0.3094855E-002  0.1748322E+03  0.7818608E-02  0.1172900E+00
          2   -1    0    0  502    0  0.00000000000E+00  0.00000000000E+00  0.96496792902E+03  0.96496792902E+03  0.00000000000E+00 0. -1.
         -2   -1    0    0    0  501 -0.00000000000E+00 -0.00000000000E+00 -0.35177314410E+02  0.35177314410E+02  0.00000000000E+00 0.  1.
          6    1    1    2  502    0  0.17246767799E+02  0.26169856031E+02  0.30712762372E+03  0.35340301302E+03  0.17200000000E+03 0.  1.
         -6    1    1    2    0  501 -0.17246767799E+02 -0.26169856031E+02  0.62266299089E+03  0.64674223041E+03  0.17200000000E+03 0. -1.
</event>
<event>
 4    1  0.3094855E-002  0.2055191E+03  0.7818608E-02  0.1145164E+00
         -2   -1    0    0    0  501 -0.00000000000E+00  0.00000000000E+00  0.91809576456E+02  0.91809576456E+02  0.00000000000E+00 0.  1.
          2   -1    0    0  502    0  0.00000000000E+00 -0.00000000000E+00 -0.47226722473E+03  0.47226722473E+03  0.00000000000E+00 0. -1.
          6    1    1    2  502    0  0.68515187364E+01 -0.11228162990E+03 -0.23556921114E+03  0.31261951468E+03  0.17200000000E+03 0. -1.
         -6    1    1    2    0  501 -0.68515187364E+01  0.11228162990E+03 -0.14488843714E+03  0.25145728651E+03  0.17200000000E+03 0. -1.
</event>
<event>
 4    1  0.3094855E-002  0.4342452E+03  0.7818608E-02  0.1032527E+00
         -2   -1    0    0    0  501 -0.00000000000E+00  0.00000000000E+00  0.34689078062E+03  0.34689078062E+03  0.00000000000E+00 0.  1.
          2   -1    0    0  502    0  0.00000000000E+00 -0.00000000000E+00 -0.13905139025E+04  0.13905139025E+04  0.00000000000E+00 0. -1.
          6    1    1    2  502    0  0.23530429045E+03 -0.32189557359E+03 -0.11997709260E+04  0.12759385347E+04  0.17200000000E+03 0. -1.
         -6    1    1    2    0  501 -0.23530429045E+03  0.32189557359E+03  0.15614780414E+03  0.46146614842E+03  0.17200000000E+03 0.  1.
</event>
<event>
 4    1  0.3094855E-002  0.7409975E+03  0.7818608E-02  0.9649581E-01
         -1   -1    0    0    0  501 -0.00000000000E+00  0.00000000000E+00  0.88160872260E+03  0.88160872260E+03  0.00000000000E+00 0.  1.
          1   -1    0    0  502    0  0.00000000000E+00 -0.00000000000E+00 -0.62527427265E+03  0.62527427265E+03  0.00000000000E+00 0. -1.
          6    1    1    2  502    0 -0.30692506304E+03 -0.65214290020E+03  0.80896115518E+02  0.74540025363E+03  0.17200000000E+03 0. -1.
         -6    1    1    2    0  501  0.30692506304E+03  0.65214290020E+03  0.17543833444E+03  0.76148274162E+03  0.17200000000E+03 0.  1.
</event>
<event>
 4    1  0.3094855E-002  0.1981612E+03  0.7818608E-02  0.1151300E+00
         -2   -1    0    0    0  501 -0.00000000000E+00  0.00000000000E+00  0.11281878610E+03  0.11281878610E+03  0.00000000000E+00 0.  1.
          2   -1    0    0  502    0  0.00000000000E+00 -0.00000000000E+00 -0.40095644170E+03  0.40095644170E+03  0.00000000000E+00 0. -1.
          6    1    1    2  502    0  0.53844956101E+02 -0.82368561342E+02 -0.50764401452E+02  0.20456022011E+03  0.17200000000E+03 0. -1.
         -6    1    1    2    0  501 -0.53844956101E+02  0.82368561342E+02 -0.23737325415E+03  0.30921500769E+03  0.17200000000E+03 0.  1.
</event>
<event>
 4    1  0.3094855E-002  0.3097045E+03  0.7818608E-02  0.1080488E+00
          1   -1    0    0  502    0  0.00000000000E+00  0.00000000000E+00  0.65697357009E+03  0.65697357009E+03  0.00000000000E+00 0. -1.
         -1   -1    0    0    0  501 -0.00000000000E+00 -0.00000000000E+00 -0.18137652845E+03  0.18137652845E+03  0.00000000000E+00 0.  1.
          6    1    1    2  502    0 -0.20276286536E+03  0.15880835955E+03  0.42292746380E+03  0.52419892624E+03  0.17200000000E+03 0. -1.
         -6    1    1    2    0  501  0.20276286536E+03 -0.15880835955E+03  0.52669577835E+02  0.31415117231E+03  0.17200000000E+03 0.  1.
</event>
<event>
 4    1  0.3094855E-002  0.3681063E+03  0.7818608E-02  0.1055419E+00
         -1   -1    0    0    0  501 -0.00000000000E+00  0.00000000000E+00  0.85412750715E+03  0.85412750715E+03  0.00000000000E+00 0.  1.
          1   -1    0    0  502    0  0.00000000000E+00 -0.00000000000E+00 -0.18420721494E+03  0.18420721494E+03  0.00000000000E+00 0. -1.
          6    1    1    2  502    0 -0.32536106236E+03 -0.76423334559E+01  0.14155786989E+03  0.39438668422E+03  0.17200000000E+03 0. -1.
         -6    1    1    2    0  501  0.32536106236E+03  0.76423334559E+01  0.52836242232E+03  0.64394803788E+03  0.17200000000E+03 0.  1.
</event>
<event>
 4    1  0.3094855E-002  0.8066941E+03  0.7818608E-02  0.9550378E-01
         -2   -1    0    0    0  501 -0.00000000000E+00  0.00000000000E+00  0.39176595499E+03  0.39176595499E+03  0.00000000000E+00 0.  1.
          2   -1    0    0  502    0  0.00000000000E+00 -0.00000000000E+00 -0.18066120970E+04  0.18066120970E+04  0.00000000000E+00 0. -1.
          6    1    1    2  502    0 -0.32386499098E+03  0.71852826756E+03 -0.10193955121E+04  0.12999702358E+04  0.17200000000E+03 0. -1.
         -6    1    1    2    0  501  0.32386499098E+03 -0.71852826756E+03 -0.39545062989E+03  0.89840781627E+03  0.17200000000E+03 0.  1.
</event>
<event>
 4    1  0.3094855E-002  0.2355652E+03  0.7818608E-02  0.1122783E+00
          2   -1    0    0  502    0  0.00000000000E+00  0.00000000000E+00  0.63706440624E+03  0.63706440624E+03  0.00000000000E+00 0. -1.
         -2   -1    0    0    0  501 -0.00000000000E+00 -0.00000000000E+00 -0.72067013892E+03  0.72067013892E+03  0.00000000000E+00 0.  1.
          6    1    1    2  502    0  0.15724187860E+03 -0.34379623286E+02  0.59471782999E+03  0.63967199735E+03  0.17200000000E+03 0. -1.
         -6    1    1    2    0  501 -0.15724187860E+03  0.34379623286E+02 -0.67832356268E+03  0.71806254781E+03  0.17200000000E+03 0.  1.
</event>
<event>
 4    1  0.3094855E-002  0.2491500E+03  0.7818608E-02  0.1113843E+00
         -2   -1    0    0    0  501 -0.00000000000E+00  0.00000000000E+00  0.70492368404E+02  0.70492368404E+02  0.00000000000E+00 0.  1.
          2   -1    0    0  502    0  0.00000000000E+00 -0.00000000000E+00 -0.13329981069E+04  0.13329981069E+04  0.00000000000E+00 0. -1.
          6    1    1    2  502    0  0.13742857982E+03 -0.11664084885E+03 -0.10400654597E+04  0.10694914038E+04  0.17200000000E+03 0. -1.
         -6    1    1    2    0  501 -0.13742857982E+03  0.11664084885E+03 -0.22244027873E+03  0.33399907151E+03  0.17200000000E+03 0.  1.
</event>
<event>
 4    1  0.3094855E-002  0.2785390E+03  0.7818608E-02  0.1096490E+00
          2   -1    0    0  502    0  0.00000000000E+00  0.00000000000E+00  0.21007552797E+04  0.21007552797E+04  0.00000000000E+00 0. -1.
         -2   -1    0    0    0  501 -0.00000000000E+00 -0.00000000000E+00 -0.40429289980E+02  0.40429289980E+02  0.00000000000E+00 0.  1.
          6    1    1    2  502    0 -0.20733985946E+03  0.70782329801E+02  0.13450650680E+04  0.13736025599E+04  0.17200000000E+03 0. -1.
         -6    1    1    2    0  501  0.20733985946E+03 -0.70782329801E+02  0.71526092178E+03  0.76758200980E+03  0.17200000000E+03 0. -1.
</event>
<event>
 4    1  0.3094855E-002  0.2631801E+03  0.7818608E-02  0.1105247E+00
          2   -1    0    0  502    0  0.00000000000E+00  0.00000000000E+00  0.21710624883E+03  0.21710624883E+03  0.00000000000E+00 0. -1.
         -2   -1    0    0    0  501 -0.00000000000E+00 -0.00000000000E+00 -0.32121887278E+03  0.32121887278E+03  0.00000000000E+00 0.  1.
          6    1    1    2  502    0  0.16857587403E+03 -0.10612234280E+03 -0.29845978687E+02  0.26486705984E+03  0.17200000000E+03 0. -1.
         -6    1    1    2    0  501 -0.16857587403E+03  0.10612234280E+03 -0.74266645256E+02  0.27345806177E+03  0.17200000000E+03 0.  1.
</event>
<event>
 4    1  0.3094855E-002  0.6808465E+03  0.7818608E-02  0.9750560E-01
         -2   -1    0    0    0  501 -0.00000000000E+00  0.00000000000E+00  0.21770174793E+03  0.21770174793E+03  0.00000000000E+00 0.  1.
          2   -1    0    0  502    0  0.00000000000E+00 -0.00000000000E+00 -0.31490219931E+04  0.31490219931E+04  0.00000000000E+00 0. -1.
          6    1    1    2  502    0 -0.16948378982E+03  0.63658711835E+03 -0.24235838716E+04  0.25174015764E+04  0.17200000000E+03 0. -1.
         -6    1    1    2    0  501  0.16948378982E+03 -0.63658711835E+03 -0.50773637356E+03  0.84932216462E+03  0.17200000000E+03 0.  1.
</event>
<event>
 4    1  0.3094855E-002  0.5107758E+03  0.7818608E-02  0.1011004E+00
          1   -1    0    0  502    0  0.00000000000E+00  0.00000000000E+00  0.54696977957E+03  0.54696977957E+03  0.00000000000E+00 0. -1.
         -1   -1    0    0    0  501 -0.00000000000E+00 -0.00000000000E+00 -0.20841175337E+04  0.20841175337E+04  0.00000000000E+00 0.  1.
          6    1    1    2  502    0  0.25691274109E+03 -0.40657568320E+03  0.38666315929E+03  0.64062496163E+03  0.17200000000E+03 0. -1.
         -6    1    1    2    0  501 -0.25691274109E+03  0.40657568320E+03 -0.19238109134E+04  0.19904623516E+04  0.17200000000E+03 0.  1.
</event>
<event>
 4    1  0.3094855E-002  0.2112381E+03  0.7818608E-02  0.1140589E+00
         -2   -1    0    0    0  501 -0.00000000000E+00  0.00000000000E+00  0.15445473594E+02  0.15445473594E+02  0.00000000000E+00 0.  1.
          2   -1    0    0  502    0  0.00000000000E+00 -0.00000000000E+00 -0.42341169251E+04  0.42341169251E+04  0.00000000000E+00 0. -1.
          6    1    1    2  502    0  0.12154041396E+03 -0.16293092186E+02 -0.33069511164E+04  0.33136908762E+04  0.17200000000E+03 0. -1.
         -6    1    1    2    0  501 -0.12154041396E+03  0.16293092186E+02 -0.91172033517E+03  0.93587152251E+03  0.17200000000E+03 0.  1.
</event>
<event>
 4    1  0.3094855E-002  0.3327713E+03  0.7818608E-02  0.1069917E+00
         -2   -1    0    0    0  501 -0.00000000000E+00  0.00000000000E+00  0.20853678323E+03  0.20853678323E+03  0.00000000000E+00 0.  1.
          2   -1    0    0  502    0  0.00000000000E+00 -0.00000000000E+00 -0.54148022273E+03  0.54148022273E+03  0.00000000000E+00 0. -1.
          6    1    1    2  502    0  0.12860078401E+03  0.25419394990E+03 -0.11434411827E+03  0.35186830377E+03  0.17200000000E+03 0. -1.
         -6    1    1    2    0  501 -0.12860078401E+03 -0.25419394990E+03 -0.21859932123E+03  0.39814870219E+03  0.17200000000E+03 0. -1.
</event>
<event>
 4    1  0.3094855E-002  0.2876132E+03  0.7818608E-02  0.1091602E+00
          1   -1    0    0  502    0  0.00000000000E+00  0.00000000000E+00  0.86766002663E+03  0.86766002663E+03  0.00000000000E+00 0. -1.
         -1   -1    0    0    0  501 -0.00000000000E+00 -0.00000000000E+00 -0.15827283936E+03  0.15827283936E+03  0.00000000000E+00 0.  1.
          6    1    1    2  502    0  0.17530249893E+03 -0.14968760508E+03  0.67816048033E+03  0.73662947425E+03  0.17200000000E+03 0. -1.
         -6    1    1    2    0  501 -0.17530249893E+03  0.14968760508E+03  0.31226706932E+02  0.28930339174E+03  0.17200000000E+03 0.  1.
</event>
<event>
 4    1  0.3094855E-002  0.2112840E+03  0.7818608E-02  0.1140553E+00
          2   -1    0    0  502    0  0.00000000000E+00  0.00000000000E+00  0.46404421814E+03  0.46404421814E+03  0.00000000000E+00 0. -1.
         -2   -1    0    0    0  501 -0.00000000000E+00 -0.00000000000E+00 -0.98629792744E+02  0.98629792744E+02  0.00000000000E+00 0.  1.
          6    1    1    2  502    0  0.10163701872E+03 -0.68751932674E+02  0.22686779121E+03  0.31001597783E+03  0.17200000000E+03 0. -1.
         -6    1    1    2    0  501 -0.10163701872E+03  0.68751932674E+02  0.13854663418E+03  0.25265803305E+03  0.17200000000E+03 0.  1.
</event>
<event>
 4    1  0.3094855E-002  0.1733917E+03  0.7818608E-02  0.1174356E+00
          4   -1    0    0  502    0  0.00000000000E+00  0.00000000000E+00  0.32045035171E+02  0.32045035171E+02  0.00000000000E+00 0. -1.
         -4   -1    0    0    0  501 -0.00000000000E+00 -0.00000000000E+00 -0.23687316517E+04  0.23687316517E+04  0.00000000000E+00 0.  1.
          6    1    1    2  502    0  0.42486934347E+01 -0.21508798964E+02 -0.23549196398E+03  0.29243998518E+03  0.17200000000E+03 0. -1.
         -6    1    1    2    0  501 -0.42486934347E+01  0.21508798964E+02 -0.21011946526E+04  0.21083367017E+04  0.17200000000E+03 0.  1.
</event>
<event>
 4    1  0.3094855E-002  0.2746695E+03  0.7818608E-02  0.1098636E+00
         -1   -1    0    0    0  501 -0.00000000000E+00  0.00000000000E+00  0.26462057784E+03  0.26462057784E+03  0.00000000000E+00 0.  1.
          1   -1    0    0  502    0  0.00000000000E+00 -0.00000000000E+00 -0.28651451989E+03  0.28651451989E+03  0.00000000000E+00 0. -1.
          6    1    1    2  502    0  0.92453933577E+02 -0.19316218880E+03 -0.30308488832E+02  0.27633668868E+03  0.17200000000E+03 0. -1.
         -6    1    1    2    0  501 -0.92453933577E+02  0.19316218880E+03  0.84145467800E+01  0.27479840905E+03  0.17200000000E+03 0. -1.
</event>
<event>
 4    1  0.3094855E-002  0.3977356E+03  0.7818608E-02  0.1044567E+00
         -2   -1    0    0    0  501 -0.00000000000E+00  0.00000000000E+00  0.47871797343E+03  0.47871797343E+03  0.00000000000E+00 0.  1.
          2   -1    0    0  502    0  0.00000000000E+00 -0.00000000000E+00 -0.39159100542E+03  0.39159100542E+03  0.00000000000E+00 0. -1.
          6    1    1    2  502    0 -0.32498949273E+03 -0.15162921358E+03 -0.12837941464E+03  0.41794121943E+03  0.17200000000E+03 0.  1.
         -6    1    1    2    0  501  0.32498949273E+03  0.15162921358E+03  0.21550638265E+03  0.45236775942E+03  0.17200000000E+03 0. -1.
</event>
<event>
 4    1  0.3094855E-002  0.1773237E+03  0.7818608E-02  0.1170419E+00
         -2   -1    0    0    0  501 -0.00000000000E+00  0.00000000000E+00  0.81100101426E+02  0.81100101426E+02  0.00000000000E+00 0.  1.
          2   -1    0    0  502    0  0.00000000000E+00 -0.00000000000E+00 -0.57412688672E+03  0.57412688672E+03  0.00000000000E+00 0. -1.
          6    1    1    2  502    0  0.40643389874E+02  0.14415698903E+02 -0.43319221240E+03  0.46808032473E+03  0.17200000000E+03 0. -1.
         -6    1    1    2    0  501 -0.40643389874E+02 -0.14415698903E+02 -0.59834572897E+02  0.18714666342E+03  0.17200000000E+03 0.  1.
</event>
<event>
 4    1  0.3094855E-002  0.2674297E+03  0.7818608E-02  0.1102760E+00
         -2   -1    0    0    0  501 -0.00000000000E+00  0.00000000000E+00  0.46131573989E+03  0.46131573989E+03  0.00000000000E+00 0.  1.
          2   -1    0    0  502    0  0.00000000000E+00 -0.00000000000E+00 -0.23766905334E+03  0.23766905334E+03  0.00000000000E+00 0. -1.
          6    1    1    2  502    0  0.34026225457E+02 -0.20193277018E+03  0.31790495734E+03  0.41543012601E+03  0.17200000000E+03 0. -1.
         -6    1    1    2    0  501 -0.34026225457E+02  0.20193277018E+03 -0.94258270794E+02  0.28355466722E+03  0.17200000000E+03 0.  1.
</event>
<event>
 4    1  0.3094855E-002  0.1917565E+03  0.7818608E-02  0.1156887E+00
          2   -1    0    0  502    0  0.00000000000E+00  0.00000000000E+00  0.17542767761E+04  0.17542767761E+04  0.00000000000E+00 0. -1.
         -2   -1    0    0    0  501 -0.00000000000E+00 -0.00000000000E+00 -0.21263425057E+02  0.21263425057E+02  0.00000000000E+00 0.  1.
          6    1    1    2  502    0 -0.71880450598E+02 -0.44941505978E+02  0.76054631589E+03  0.78434765044E+03  0.17200000000E+03 0. -1.
         -6    1    1    2    0  501  0.71880450598E+02  0.44941505978E+02  0.97246703520E+03  0.99119255076E+03  0.17200000000E+03 0.  1.
</event>
<event>
 4    1  0.3094855E-002  0.2705799E+03  0.7818608E-02  0.1100948E+00
          1   -1    0    0  502    0  0.00000000000E+00  0.00000000000E+00  0.31632179327E+03  0.31632179327E+03  0.00000000000E+00 0. -1.
         -1   -1    0    0    0  501 -0.00000000000E+00 -0.00000000000E+00 -0.53773166078E+03  0.53773166078E+03  0.00000000000E+00 0.  1.
          6    1    1    2  502    0  0.19093748660E+03  0.84689775405E+02  0.21157328249E+03  0.34347741659E+03  0.17200000000E+03 0. -1.
         -6    1    1    2    0  501 -0.19093748660E+03 -0.84689775405E+02 -0.43298314999E+03  0.51057603746E+03  0.17200000000E+03 0.  1.
</event>
<event>
 4    1  0.3094855E-002  0.2214307E+03  0.7818608E-02  0.1132821E+00
          2   -1    0    0  502    0  0.00000000000E+00  0.00000000000E+00  0.25387800707E+04  0.25387800707E+04  0.00000000000E+00 0. -1.
         -2   -1    0    0    0  501 -0.00000000000E+00 -0.00000000000E+00 -0.44326390479E+02  0.44326390479E+02  0.00000000000E+00 0.  1.
          6    1    1    2  502    0  0.13936013523E+03  0.51310816077E+01  0.22174396662E+04  0.22284681394E+04  0.17200000000E+03 0. -1.
         -6    1    1    2    0  501 -0.13936013523E+03 -0.51310816077E+01  0.27701401409E+03  0.35463832180E+03  0.17200000000E+03 0.  1.
</event>
<event>
 4    1  0.3094855E-002  0.3318216E+03  0.7818608E-02  0.1070334E+00
          2   -1    0    0  502    0  0.00000000000E+00  0.00000000000E+00  0.85996096331E+03  0.85996096331E+03  0.00000000000E+00 0. -1.
         -2   -1    0    0    0  501 -0.00000000000E+00 -0.00000000000E+00 -0.13921220745E+03  0.13921220745E+03  0.00000000000E+00 0.  1.
          6    1    1    2  502    0  0.66078516363E+02  0.27596231656E+03  0.50193034424E+03  0.60169730011E+03  0.17200000000E+03 0. -1.
         -6    1    1    2    0  501 -0.66078516363E+02 -0.27596231656E+03  0.21881841161E+03  0.39747587064E+03  0.17200000000E+03 0.  1.
</event>
<event>
 4    1  0.3094855E-002  0.1848687E+03  0.7818608E-02  0.1163173E+00
         -1   -1    0    0    0  501 -0.00000000000E+00  0.00000000000E+00  0.40184990786E+02  0.40184990786E+02  0.00000000000E+00 0.  1.
          1   -1    0    0  502    0  0.00000000000E+00 -0.00000000000E+00 -0.98183370269E+03  0.98183370269E+03  0.00000000000E+00 0. -1.
          6    1    1    2  502    0  0.76802196602E+01 -0.67330886553E+02 -0.28391328661E+03  0.33879667703E+03  0.17200000000E+03 0. -1.
         -6    1    1    2    0  501 -0.76802196602E+01  0.67330886553E+02 -0.65773542530E+03  0.68322201644E+03  0.17200000000E+03 0. -1.
</event>
<event>
 4    1  0.3094855E-002  0.2219484E+03  0.7818608E-02  0.1132439E+00
         -2   -1    0    0    0  501 -0.00000000000E+00  0.00000000000E+00  0.28005512149E+02  0.28005512149E+02  0.00000000000E+00 0.  1.
          2   -1    0    0  502    0  0.00000000000E+00 -0.00000000000E+00 -0.17684594061E+04  0.17684594061E+04  0.00000000000E+00 0. -1.
          6    1    1    2  502    0 -0.10178604504E+03 -0.96522953826E+02 -0.80445696693E+03  0.83451308631E+03  0.17200000000E+03 0.  1.
         -6    1    1    2    0  501  0.10178604504E+03  0.96522953826E+02 -0.93599692704E+03  0.96195183196E+03  0.17200000000E+03 0. -1.
</event>
<event>
 4    1  0.3094855E-002  0.1748480E+03  0.7818608E-02  0.1172884E+00
         -2   -1    0    0    0  501 -0.00000000000E+00  0.00000000000E+00  0.36484309597E+02  0.36484309597E+02  0.00000000000E+00 0.  1.
          2   -1    0    0  502    0  0.00000000000E+00 -0.00000000000E+00 -0.89899281357E+03  0.89899281357E+03  0.00000000000E+00 0. -1.
          6    1    1    2  502    0  0.92782044679E+01 -0.30029042932E+02 -0.30936603819E+03  0.35535781134E+03  0.17200000000E+03 0.  1.
         -6    1    1    2    0  501 -0.92782044679E+01  0.30029042932E+02 -0.55314246579E+03  0.58011931183E+03  0.17200000000E+03 0.  1.
</event>
<event>
 4    1  0.3094855E-002  0.2803848E+03  0.7818608E-02  0.1095479E+00
          1   -1    0    0  502    0  0.00000000000E+00  0.00000000000E+00  0.16884760983E+03  0.16884760983E+03  0.00000000000E+00 0. -1.
         -1   -1    0    0    0  501 -0.00000000000E+00 -0.00000000000E+00 -0.10830434312E+04  0.10830434312E+04  0.00000000000E+00 0.  1.
          6    1    1    2  502    0 -0.20019588539E+03  0.94621466646E+02 -0.92971763040E+03  0.97107697262E+03  0.17200000000E+03 0.  1.
         -6    1    1    2    0  501  0.20019588539E+03 -0.94621466646E+02  0.15521809007E+02  0.28081406844E+03  0.17200000000E+03 0. -1.
</event>
<event>
 4    1  0.3094855E-002  0.4347298E+03  0.7818608E-02  0.1032376E+00
          2   -1    0    0  502    0  0.00000000000E+00  0.00000000000E+00  0.18907024867E+04  0.18907024867E+04  0.00000000000E+00 0. -1.
         -2   -1    0    0    0  501 -0.00000000000E+00 -0.00000000000E+00 -0.11163882315E+03  0.11163882315E+03  0.00000000000E+00 0.  1.
          6    1    1    2  502    0 -0.14515160070E+03 -0.37193687112E+03  0.12133828248E+04  0.12889095790E+04  0.17200000000E+03 0. -1.
         -6    1    1    2    0  501  0.14515160070E+03  0.37193687112E+03  0.56568083880E+03  0.71343173091E+03  0.17200000000E+03 0.  1.
</event>
<event>
 4    1  0.3094855E-002  0.1732484E+03  0.7818608E-02  0.1174502E+00
          1   -1    0    0  502    0  0.00000000000E+00  0.00000000000E+00  0.39424555708E+03  0.39424555708E+03  0.00000000000E+00 0. -1.
         -1   -1    0    0    0  501 -0.00000000000E+00 -0.00000000000E+00 -0.39515384533E+03  0.39515384533E+03  0.00000000000E+00 0.  1.
          6    1    1    2  502    0  0.13263150062E+02  0.15972273541E+02  0.35419045223E+03  0.39429164475E+03  0.17200000000E+03 0. -1.
         -6    1    1    2    0  501 -0.13263150062E+02 -0.15972273541E+02 -0.35509874048E+03  0.39510775766E+03  0.17200000000E+03 0.  1.
</event>
<event>
 4    1  0.3094855E-002  0.2354530E+03  0.7818608E-02  0.1122859E+00
         -2   -1    0    0    0  501 -0.00000000000E+00  0.00000000000E+00  0.33085730649E+02  0.33085730649E+02  0.00000000000E+00 0.  1.
          2   -1    0    0  502    0  0.00000000000E+00 -0.00000000000E+00 -0.19952646897E+04  0.19952646897E+04  0.00000000000E+00 0. -1.
          6    1    1    2  502    0 -0.49353916479E+02 -0.15303042732E+03 -0.13870341377E+04  0.14068766186E+04  0.17200000000E+03 0. -1.
         -6    1    1    2    0  501  0.49353916479E+02  0.15303042732E+03 -0.57514482135E+03  0.62147380177E+03  0.17200000000E+03 0. -1.
</event>
<event>
 4    1  0.3094855E-002  0.4417710E+03  0.7818608E-02  0.1030205E+00
         -2   -1    0    0    0  501 -0.00000000000E+00  0.00000000000E+00  0.82533241060E+02  0.82533241060E+02  0.00000000000E+00 0.  1.
          2   -1    0    0  502    0  0.00000000000E+00 -0.00000000000E+00 -0.23954702085E+04  0.23954702085E+04  0.00000000000E+00 0. -1.
          6    1    1    2  502    0 -0.15043363147E+03 -0.37808373206E+03 -0.12970244082E+04  0.13701948406E+04  0.17200000000E+03 0. -1.
         -6    1    1    2    0  501  0.15043363147E+03  0.37808373206E+03 -0.10159125593E+04  0.11078086089E+04  0.17200000000E+03 0.  1.
</event>
<event>
 4    1  0.3094855E-002  0.3281687E+03  0.7818608E-02  0.1071950E+00
         -3   -1    0    0    0  501 -0.00000000000E+00  0.00000000000E+00  0.12281531014E+04  0.12281531014E+04  0.00000000000E+00 0.  1.
          3   -1    0    0  502    0  0.00000000000E+00 -0.00000000000E+00 -0.11312856565E+03  0.11312856565E+03  0.00000000000E+00 0. -1.
          6    1    1    2  502    0 -0.26950282196E+03  0.74019790460E+02  0.87553954870E+03  0.93502096327E+03  0.17200000000E+03 0.  1.
         -6    1    1    2    0  501  0.26950282196E+03 -0.74019790460E+02  0.23948498708E+03  0.40626070381E+03  0.17200000000E+03 0. -1.
</event>
<event>
 4    1  0.3094855E-002  0.2454383E+03  0.7818608E-02  0.1116222E+00
          1   -1    0    0  502    0  0.00000000000E+00  0.00000000000E+00  0.11663311438E+04  0.11663311438E+04  0.00000000000E+00 0. -1.
         -1   -1    0    0    0  501 -0.00000000000E+00 -0.00000000000E+00 -0.60652213431E+02  0.60652213431E+02  0.00000000000E+00 0.  1.
          6    1    1    2  502    0  0.15146533526E+03  0.87830485304E+02  0.78920380591E+03  0.82648810590E+03  0.17200000000E+03 0. -1.
         -6    1    1    2    0  501 -0.15146533526E+03 -0.87830485304E+02  0.31647512447E+03  0.40049525133E+03  0.17200000000E+03 0.  1.
</event>
<event>
 4    1  0.3094855E-002  0.2003443E+03  0.7818608E-02  0.1149449E+00
         -1   -1    0    0    0  501 -0.00000000000E+00  0.00000000000E+00  0.96744159062E+02  0.96744159062E+02  0.00000000000E+00 0.  1.
          1   -1    0    0  502    0  0.00000000000E+00 -0.00000000000E+00 -0.82762482045E+03  0.82762482045E+03  0.00000000000E+00 0. -1.
          6    1    1    2  502    0 -0.79117244356E+02  0.65530999878E+02 -0.39050977080E+02  0.20411474496E+03  0.17200000000E+03 0.  1.
         -6    1    1    2    0  501  0.79117244356E+02 -0.65530999878E+02 -0.69182968431E+03  0.72025423455E+03  0.17200000000E+03 0. -1.
</event>
<event>
 4    1  0.3094855E-002  0.3090322E+03  0.7818608E-02  0.1080811E+00
         -1   -1    0    0    0  501 -0.00000000000E+00  0.00000000000E+00  0.28422432808E+03  0.28422432808E+03  0.00000000000E+00 0.  1.
          1   -1    0    0  502    0  0.00000000000E+00 -0.00000000000E+00 -0.61455545302E+03  0.61455545302E+03  0.00000000000E+00 0. -1.
          6    1    1    2  502    0  0.19267676886E+03 -0.16968370835E+03 -0.46771365047E+03  0.56058626185E+03  0.17200000000E+03 0. -1.
         -6    1    1    2    0  501 -0.19267676886E+03  0.16968370835E+03  0.13738252553E+03  0.33819351925E+03  0.17200000000E+03 0.  1.
</event>
<event>
 4    1  0.3094855E-002  0.2657662E+03  0.7818608E-02  0.1103727E+00
         -2   -1    0    0    0  501 -0.00000000000E+00  0.00000000000E+00  0.49513025262E+02  0.49513025262E+02  0.00000000000E+00 0.  1.
          2   -1    0    0  502    0  0.00000000000E+00 -0.00000000000E+00 -0.19769426134E+04  0.19769426134E+04  0.00000000000E+00 0. -1.
          6    1    1    2  502    0 -0.11645914969E+03  0.16578578753E+03 -0.14983474693E+04  0.15217347994E+04  0.17200000000E+03 0. -1.
         -6    1    1    2    0  501  0.11645914969E+03 -0.16578578753E+03 -0.42908211880E+03  0.50472083925E+03  0.17200000000E+03 0.  1.
</event>
<event>
 4    1  0.3094855E-002  0.3703314E+03  0.7818608E-02  0.1054566E+00
         -2   -1    0    0    0  501 -0.00000000000E+00  0.00000000000E+00  0.11568498668E+03  0.11568498668E+03  0.00000000000E+00 0.  1.
          2   -1    0    0  502    0  0.00000000000E+00 -0.00000000000E+00 -0.13182112277E+04  0.13182112277E+04  0.00000000000E+00 0. -1.
          6    1    1    2  502    0  0.10760625468E+03  0.30981004385E+03 -0.82874011845E+03  0.90771997512E+03  0.17200000000E+03 0. -1.
         -6    1    1    2    0  501 -0.10760625468E+03 -0.30981004385E+03 -0.37378612252E+03  0.52617623921E+03  0.17200000000E+03 0.  1.
</event>
<event>
 4    1  0.3094855E-002  0.1768510E+03  0.7818608E-02  0.1170886E+00
         -2   -1    0    0    0  501 -0.00000000000E+00  0.00000000000E+00  0.29084967579E+03  0.29084967579E+03  0.00000000000E+00 0.  1.
          2   -1    0    0  502    0  0.00000000000E+00 -0.00000000000E+00 -0.45995760685E+03  0.45995760685E+03  0.00000000000E+00 0. -1.
          6    1    1    2  502    0  0.99930958555E+01  0.39904984526E+02 -0.41315731625E+03  0.44941655257E+03  0.17200000000E+03 0. -1.
         -6    1    1    2    0  501 -0.99930958555E+01 -0.39904984526E+02  0.24404938519E+03  0.30139073006E+03  0.17200000000E+03 0.  1.
</event>
<event>
 4    1  0.3094855E-002  0.1980331E+03  0.7818608E-02  0.1151409E+00
          2   -1    0    0  502    0  0.00000000000E+00  0.00000000000E+00  0.57049446181E+03  0.57049446181E+03  0.00000000000E+00 0. -1.
         -2   -1    0    0    0  501 -0.00000000000E+00 -0.00000000000E+00 -0.75644518344E+02  0.75644518344E+02  0.00000000000E+00 0.  1.
          6    1    1    2  502    0 -0.93205660177E+02  0.30753968414E+02  0.34501412501E+03  0.39780880849E+03  0.17200000000E+03 0. -1.
         -6    1    1    2    0  501  0.93205660177E+02 -0.30753968414E+02  0.14983581846E+03  0.24833017166E+03  0.17200000000E+03 0.  1.
</event>
<event>
 4    1  0.3094855E-002  0.2332269E+03  0.7818608E-02  0.1124389E+00
          2   -1    0    0  502    0  0.00000000000E+00  0.00000000000E+00  0.25112563385E+04  0.25112563385E+04  0.00000000000E+00 0. -1.
         -2   -1    0    0    0  501 -0.00000000000E+00 -0.00000000000E+00 -0.24868284719E+02  0.24868284719E+02  0.00000000000E+00 0.  1.
          6    1    1    2  502    0 -0.69789384549E+02 -0.14120991131E+03  0.16986302641E+04  0.17145668757E+04  0.17200000000E+03 0.  1.
         -6    1    1    2    0  501  0.69789384549E+02  0.14120991131E+03  0.78775778968E+03  0.82155774748E+03  0.17200000000E+03 0.  1.
</event>
<event>
 4    1  0.3094855E-002  0.1775012E+03  0.7818608E-02  0.1170244E+00
          1   -1    0    0  502    0  0.00000000000E+00  0.00000000000E+00  0.23932517791E+03  0.23932517791E+03  0.00000000000E+00 0. -1.
         -1   -1    0    0    0  501 -0.00000000000E+00 -0.00000000000E+00 -0.14350466963E+03  0.14350466963E+03  0.00000000000E+00 0.  1.
          6    1    1    2  502    0 -0.42139740644E+02  0.12121110363E+02  0.10293072313E+03  0.20518628809E+03  0.17200000000E+03 0. -1.
         -6    1    1    2    0  501  0.42139740644E+02 -0.12121110363E+02 -0.71102148490E+01  0.17764355945E+03  0.17200000000E+03 0. -1.
</event>
<event>
 4    1  0.3094855E-002  0.4599448E+03  0.7818608E-02  0.1024797E+00
         -1   -1    0    0    0  501 -0.00000000000E+00  0.00000000000E+00  0.15456919446E+03  0.15456919446E+03  0.00000000000E+00 0.  1.
          1   -1    0    0  502    0  0.00000000000E+00 -0.00000000000E+00 -0.16768576178E+04  0.16768576178E+04  0.00000000000E+00 0. -1.
          6    1    1    2  502    0 -0.34038594124E+03  0.25710437297E+03 -0.11537364721E+04  0.12420374772E+04  0.17200000000E+03 0. -1.
         -6    1    1    2    0  501  0.34038594124E+03 -0.25710437297E+03 -0.36855195126E+03  0.58938933513E+03  0.17200000000E+03 0.  1.
</event>
<event>
 4    1  0.3094855E-002  0.1840098E+03  0.7818608E-02  0.1163978E+00
          1   -1    0    0  502    0  0.00000000000E+00  0.00000000000E+00  0.43668954507E+03  0.43668954507E+03  0.00000000000E+00 0. -1.
         -1   -1    0    0    0  501 -0.00000000000E+00 -0.00000000000E+00 -0.79484550040E+02  0.79484550040E+02  0.00000000000E+00 0.  1.
          6    1    1    2  502    0 -0.38480152578E+02 -0.52866630761E+02  0.21900123091E+03  0.28604395105E+03  0.17200000000E+03 0.  1.
         -6    1    1    2    0  501  0.38480152578E+02  0.52866630761E+02  0.13820376413E+03  0.23013014407E+03  0.17200000000E+03 0. -1.
</event>
<event>
 4    1  0.3094855E-002  0.2700123E+03  0.7818608E-02  0.1101273E+00
         -2   -1    0    0    0  501 -0.00000000000E+00  0.00000000000E+00  0.57813149306E+02  0.57813149306E+02  0.00000000000E+00 0.  1.
          2   -1    0    0  502    0  0.00000000000E+00 -0.00000000000E+00 -0.17326515038E+04  0.17326515038E+04  0.00000000000E+00 0. -1.
          6    1    1    2  502    0  0.53808923583E+02 -0.20106520362E+03 -0.37037600346E+03  0.45835030305E+03  0.17200000000E+03 0. -1.
         -6    1    1    2    0  501 -0.53808923583E+02  0.20106520362E+03 -0.13044623511E+04  0.13321143501E+04  0.17200000000E+03 0.  1.
</event>
<event>
 4    1  0.3094855E-002  0.3177670E+03  0.7818608E-02  0.1076682E+00
         -1   -1    0    0    0  501 -0.00000000000E+00  0.00000000000E+00  0.41347095193E+03  0.41347095193E+03  0.00000000000E+00 0.  1.
          1   -1    0    0  502    0  0.00000000000E+00 -0.00000000000E+00 -0.26682739816E+03  0.26682739816E+03  0.00000000000E+00 0. -1.
          6    1    1    2  502    0 -0.25773350636E+03 -0.70464793256E+02 -0.25699066439E+02  0.31880446892E+03  0.17200000000E+03 0. -1.
         -6    1    1    2    0  501  0.25773350636E+03  0.70464793256E+02  0.17234262021E+03  0.36149388118E+03  0.17200000000E+03 0.  1.
</event>
<event>
 4    1  0.3094855E-002  0.1890271E+03  0.7818608E-02  0.1159342E+00
          1   -1    0    0  502    0  0.00000000000E+00  0.00000000000E+00  0.15780385237E+03  0.15780385237E+03  0.00000000000E+00 0. -1.
         -1   -1    0    0    0  501 -0.00000000000E+00 -0.00000000000E+00 -0.27320429370E+03  0.27320429370E+03  0.00000000000E+00 0.  1.
          6    1    1    2  502    0  0.78403807975E+02  0.31610080874E+00 -0.14687114389E+03  0.23937917606E+03  0.17200000000E+03 0. -1.
         -6    1    1    2    0  501 -0.78403807975E+02 -0.31610080874E+00  0.31470702562E+02  0.19162897000E+03  0.17200000000E+03 0. -1.
</event>
<event>
 4    1  0.3094855E-002  0.2183607E+03  0.7818608E-02  0.1135111E+00
         -1   -1    0    0    0  501 -0.00000000000E+00  0.00000000000E+00  0.13074683102E+03  0.13074683102E+03  0.00000000000E+00 0.  1.
          1   -1    0    0  502    0  0.00000000000E+00 -0.00000000000E+00 -0.36595925786E+03  0.36595925786E+03  0.00000000000E+00 0. -1.
          6    1    1    2  502    0 -0.56903389883E+02  0.12189922138E+03 -0.13226073029E+03  0.25529261002E+03  0.17200000000E+03 0. -1.
         -6    1    1    2    0  501  0.56903389883E+02 -0.12189922138E+03 -0.10295169654E+03  0.24141347886E+03  0.17200000000E+03 0.  1.
</event>
<event>
 4    1  0.3094855E-002  0.1922930E+03  0.7818608E-02  0.1156409E+00
          2   -1    0    0  502    0  0.00000000000E+00  0.00000000000E+00  0.36794508568E+04  0.36794508568E+04  0.00000000000E+00 0. -1.
         -2   -1    0    0    0  501 -0.00000000000E+00 -0.00000000000E+00 -0.10309831292E+02  0.10309831292E+02  0.00000000000E+00 0.  1.
          6    1    1    2  502    0  0.85748679986E+02  0.63059450902E+01  0.15414037359E+04  0.15533518848E+04  0.17200000000E+03 0.  1.
         -6    1    1    2    0  501 -0.85748679986E+02 -0.63059450902E+01  0.21277372896E+04  0.21364088032E+04  0.17200000000E+03 0.  1.
</event>
<event>
 4    1  0.3094855E-002  0.2857366E+03  0.7818608E-02  0.1092596E+00
         -1   -1    0    0    0  501 -0.00000000000E+00  0.00000000000E+00  0.11464713501E+03  0.11464713501E+03  0.00000000000E+00 0.  1.
          1   -1    0    0  502    0  0.00000000000E+00 -0.00000000000E+00 -0.10207946188E+04  0.10207946188E+04  0.00000000000E+00 0. -1.
          6    1    1    2  502    0 -0.16045812780E+03  0.16221772809E+03 -0.76524897180E+03  0.81685457147E+03  0.17200000000E+03 0. -1.
         -6    1    1    2    0  501  0.16045812780E+03 -0.16221772809E+03 -0.14089851203E+03  0.31858718238E+03  0.17200000000E+03 0.  1.
</event>
<event>
 4    1  0.3094855E-002  0.8222731E+03  0.7818608E-02  0.9528326E-01
         -2   -1    0    0    0  501 -0.00000000000E+00  0.00000000000E+00  0.50447769304E+03  0.50447769304E+03  0.00000000000E+00 0.  1.
          2   -1    0    0  502    0  0.00000000000E+00 -0.00000000000E+00 -0.20309061895E+04  0.20309061895E+04  0.00000000000E+00 0. -1.
          6    1    1    2  502    0  0.19316950450E+03 -0.78053477939E+03 -0.15024713954E+04  0.17127618904E+04  0.17200000000E+03 0. -1.
         -6    1    1    2    0  501 -0.19316950450E+03  0.78053477939E+03 -0.23957101113E+02  0.82262199217E+03  0.17200000000E+03 0.  1.
</event>
<event>
 4    1  0.3094855E-002  0.3156776E+03  0.7818608E-02  0.1077656E+00
          1   -1    0    0  502    0  0.00000000000E+00  0.00000000000E+00  0.77192684946E+03  0.77192684946E+03  0.00000000000E+00 0. -1.
         -1   -1    0    0    0  501 -0.00000000000E+00 -0.00000000000E+00 -0.25935855539E+03  0.25935855539E+03  0.00000000000E+00 0.  1.
          6    1    1    2  502    0  0.19625664386E+03 -0.17762784921E+03  0.62171829660E+03  0.69727036607E+03  0.17200000000E+03 0. -1.
         -6    1    1    2    0  501 -0.19625664386E+03  0.17762784921E+03 -0.10915000254E+03  0.33401503877E+03  0.17200000000E+03 0.  1.
</event>
<event>
 4    1  0.3094855E-002  0.6022635E+03  0.7818608E-02  0.9900721E-01
          2   -1    0    0  502    0  0.00000000000E+00  0.00000000000E+00  0.10673715514E+04  0.10673715514E+04  0.00000000000E+00 0. -1.
         -2   -1    0    0    0  501 -0.00000000000E+00 -0.00000000000E+00 -0.13120344897E+04  0.13120344897E+04  0.00000000000E+00 0.  1.
          6    1    1    2  502    0  0.47111669169E+02  0.57525453731E+03  0.90177591895E+03  0.10843989580E+04  0.17200000000E+03 0. -1.
         -6    1    1    2    0  501 -0.47111669169E+02 -0.57525453731E+03 -0.11464388573E+04  0.12950070832E+04  0.17200000000E+03 0.  1.
</event>
<event>
 4    1  0.3094855E-002  0.7912153E+03  0.7818608E-02  0.9572820E-01
         -1   -1    0    0    0  501 -0.00000000000E+00  0.00000000000E+00  0.81622352126E+03  0.81622352126E+03  0.00000000000E+00 0.  1.
          1   -1    0    0  502    0  0.00000000000E+00 -0.00000000000E+00 -0.77517440232E+03  0.77517440232E+03  0.00000000000E+00 0. -1.
          6    1    1    2  502    0  0.31726650363E+03 -0.70411616706E+03 -0.61319353001E+02  0.79358784901E+03  0.17200000000E+03 0. -1.
         -6    1    1    2    0  501 -0.31726650363E+03  0.70411616706E+03  0.10236847195E+03  0.79781007457E+03  0.17200000000E+03 0.  1.
</event>
<event>
 4    1  0.3094855E-002  0.2113317E+03  0.7818608E-02  0.1140516E+00
         -2   -1    0    0    0  501 -0.00000000000E+00  0.00000000000E+00  0.56122551166E+02  0.56122551166E+02  0.00000000000E+00 0.  1.
          2   -1    0    0  502    0  0.00000000000E+00 -0.00000000000E+00 -0.89948605947E+03  0.89948605947E+03  0.00000000000E+00 0. -1.
          6    1    1    2  502    0  0.27173372146E+02  0.11974427406E+03 -0.58392230049E+03  0.62098819339E+03  0.17200000000E+03 0. -1.
         -6    1    1    2    0  501 -0.27173372146E+02 -0.11974427406E+03 -0.25944120782E+03  0.33462041725E+03  0.17200000000E+03 0.  1.
</event>
<event>
 4    1  0.3094855E-002  0.2763517E+03  0.7818608E-02  0.1097698E+00
          2   -1    0    0  502    0  0.00000000000E+00  0.00000000000E+00  0.13812810863E+03  0.13812810863E+03  0.00000000000E+00 0. -1.
         -2   -1    0    0    0  501 -0.00000000000E+00 -0.00000000000E+00 -0.74114289830E+03  0.74114289830E+03  0.00000000000E+00 0.  1.
          6    1    1    2  502    0 -0.55394461494E+02 -0.20908785163E+03 -0.52307557404E+03  0.59158966541E+03  0.17200000000E+03 0. -1.
         -6    1    1    2    0  501  0.55394461494E+02  0.20908785163E+03 -0.79939215620E+02  0.28768134152E+03  0.17200000000E+03 0.  1.
</event>
<event>
 4    1  0.3094855E-002  0.2244771E+03  0.7818608E-02  0.1130589E+00
         -2   -1    0    0    0  501 -0.00000000000E+00  0.00000000000E+00  0.41842961432E+02  0.41842961432E+02  0.00000000000E+00 0.  1.
          2   -1    0    0  502    0  0.00000000000E+00 -0.00000000000E+00 -0.29775502010E+04  0.29775502010E+04  0.00000000000E+00 0. -1.
          6    1    1    2  502    0  0.14259119200E+03 -0.21764962153E+02 -0.26329170576E+04  0.26424689580E+04  0.17200000000E+03 0. -1.
         -6    1    1    2    0  501 -0.14259119200E+03  0.21764962153E+02 -0.30279018196E+03  0.37692420446E+03  0.17200000000E+03 0.  1.
</event>
<event>
 4    1  0.3094855E-002  0.3517905E+03  0.7818608E-02  0.1061883E+00
         -2   -1    0    0    0  501 -0.00000000000E+00  0.00000000000E+00  0.14972362013E+03  0.14972362013E+03  0.00000000000E+00 0.  1.
          2   -1    0    0  502    0  0.00000000000E+00 -0.00000000000E+00 -0.90409299518E+03  0.90409299518E+03  0.00000000000E+00 0. -1.
          6    1    1    2  502    0 -0.29711952602E+03 -0.76762744280E+02 -0.53148027744E+03  0.63736003715E+03  0.17200000000E+03 0. -1.
         -6    1    1    2    0  501  0.29711952602E+03  0.76762744280E+02 -0.22288909761E+03  0.41645657815E+03  0.17200000000E+03 0.  1.
</event>
<event>
 4    1  0.3094855E-002  0.3496075E+03  0.7818608E-02  0.1062776E+00
         -2   -1    0    0    0  501 -0.00000000000E+00  0.00000000000E+00  0.24453286481E+03  0.24453286481E+03  0.00000000000E+00 0.  1.
          2   -1    0    0  502    0  0.00000000000E+00 -0.00000000000E+00 -0.51422770898E+03  0.51422770898E+03  0.00000000000E+00 0. -1.
          6    1    1    2  502    0  0.23862158423E+03  0.18894738030E+03 -0.71371036503E+02  0.35681815793E+03  0.17200000000E+03 0.  1.
         -6    1    1    2    0  501 -0.23862158423E+03 -0.18894738030E+03 -0.19832380767E+03  0.40194241586E+03  0.17200000000E+03 0. -1.
</event>
<event>
 4    1  0.3094855E-002  0.1947534E+03  0.7818608E-02  0.1154243E+00
         -1   -1    0    0    0  501 -0.00000000000E+00  0.00000000000E+00  0.33360372607E+03  0.33360372607E+03  0.00000000000E+00 0.  1.
          1   -1    0    0  502    0  0.00000000000E+00 -0.00000000000E+00 -0.12123523778E+03  0.12123523778E+03  0.00000000000E+00 0. -1.
          6    1    1    2  502    0  0.72701465139E+02  0.55311596280E+02  0.16290251860E+03  0.25390176503E+03  0.17200000000E+03 0. -1.
         -6    1    1    2    0  501 -0.72701465139E+02 -0.55311596280E+02  0.49465969685E+02  0.20093719883E+03  0.17200000000E+03 0.  1.
</event>
<event>
 4    1  0.3094855E-002  0.2444626E+03  0.7818608E-02  0.1116855E+00
         -2   -1    0    0    0  501 -0.00000000000E+00  0.00000000000E+00  0.11790424899E+03  0.11790424899E+03  0.00000000000E+00 0.  1.
          2   -1    0    0  502    0  0.00000000000E+00 -0.00000000000E+00 -0.55561242399E+03  0.55561242399E+03  0.00000000000E+00 0. -1.
          6    1    1    2  502    0  0.17187811813E+03 -0.25216698520E+02 -0.31859926022E+03  0.40158119726E+03  0.17200000000E+03 0. -1.
         -6    1    1    2    0  501 -0.17187811813E+03  0.25216698520E+02 -0.11910891477E+03  0.27193547572E+03  0.17200000000E+03 0.  1.
</event>
<event>
 4    1  0.3094855E-002  0.1906718E+03  0.7818608E-02  0.1157857E+00
          2   -1    0    0  502    0  0.00000000000E+00  0.00000000000E+00  0.12156478685E+03  0.12156478685E+03  0.00000000000E+00 0. -1.
         -2   -1    0    0    0  501 -0.00000000000E+00 -0.00000000000E+00 -0.33820937130E+03  0.33820937130E+03  0.00000000000E+00 0.  1.
          6    1    1    2  502    0 -0.36342391591E+02 -0.73830691515E+02 -0.30113083904E+02  0.19303507002E+03  0.17200000000E+03 0.  1.
         -6    1    1    2    0  501  0.36342391591E+02  0.73830691515E+02 -0.18653150055E+03  0.26673908813E+03  0.17200000000E+03 0.  1.
</event>
<event>
 4    1  0.3094855E-002  0.2589048E+03  0.7818608E-02  0.1107803E+00
          2   -1    0    0  502    0  0.00000000000E+00  0.00000000000E+00  0.14954753046E+03  0.14954753046E+03  0.00000000000E+00 0. -1.
         -2   -1    0    0    0  501 -0.00000000000E+00 -0.00000000000E+00 -0.46258085634E+03  0.46258085634E+03  0.00000000000E+00 0.  1.
          6    1    1    2  502    0  0.91009055573E+02  0.17077769957E+03 -0.10260788365E+03  0.27849604783E+03  0.17200000000E+03 0.  1.
         -6    1    1    2    0  501 -0.91009055573E+02 -0.17077769957E+03 -0.21042544223E+03  0.33363233897E+03  0.17200000000E+03 0.  1.
</event>
<event>
 4    1  0.3094855E-002  0.3373360E+03  0.7818608E-02  0.1067936E+00
         -2   -1    0    0    0  501 -0.00000000000E+00  0.00000000000E+00  0.49160900737E+03  0.49160900737E+03  0.00000000000E+00 0.  1.
          2   -1    0    0  502    0  0.00000000000E+00 -0.00000000000E+00 -0.23147718031E+03  0.23147718031E+03  0.00000000000E+00 0. -1.
          6    1    1    2  502    0 -0.23447731469E+03 -0.17097355589E+03  0.12916990458E+03  0.36122075268E+03  0.17200000000E+03 0. -1.
         -6    1    1    2    0  501  0.23447731469E+03  0.17097355589E+03  0.13096192248E+03  0.36186543501E+03  0.17200000000E+03 0.  1.
</event>
<event>
 4    1  0.3094855E-002  0.1782231E+03  0.7818608E-02  0.1169534E+00
          1   -1    0    0  502    0  0.00000000000E+00  0.00000000000E+00  0.10477028129E+03  0.10477028129E+03  0.00000000000E+00 0. -1.
         -1   -1    0    0    0  501 -0.00000000000E+00 -0.00000000000E+00 -0.30329357500E+03  0.30329357500E+03  0.00000000000E+00 0.  1.
          6    1    1    2  502    0  0.43151697282E+02 -0.17815702301E+02 -0.10333818666E+03  0.20601516704E+03  0.17200000000E+03 0. -1.
         -6    1    1    2    0  501 -0.43151697282E+02  0.17815702301E+02 -0.95185107049E+02  0.20204868926E+03  0.17200000000E+03 0. -1.
</event>
<event>
 4    1  0.3094855E-002  0.1784665E+03  0.7818608E-02  0.1169295E+00
          1   -1    0    0  502    0  0.00000000000E+00  0.00000000000E+00  0.66099423134E+03  0.66099423134E+03  0.00000000000E+00 0. -1.
         -1   -1    0    0    0  501 -0.00000000000E+00 -0.00000000000E+00 -0.52574234985E+02  0.52574234985E+02  0.00000000000E+00 0.  1.
          6    1    1    2  502    0 -0.46847311602E+02  0.84629458910E+01  0.20112576244E+03  0.26889006001E+03  0.17200000000E+03 0.  1.
         -6    1    1    2    0  501  0.46847311602E+02 -0.84629458910E+01  0.40729423391E+03  0.44467840631E+03  0.17200000000E+03 0. -1.
</event>
<event>
 4    1  0.3094855E-002  0.2246638E+03  0.7818608E-02  0.1130453E+00
          3   -1    0    0  502    0  0.00000000000E+00  0.00000000000E+00  0.19213110162E+03  0.19213110162E+03  0.00000000000E+00 0. -1.
         -3   -1    0    0    0  501 -0.00000000000E+00 -0.00000000000E+00 -0.33297590801E+03  0.33297590801E+03  0.00000000000E+00 0.  1.
          6    1    1    2  502    0  0.13024914709E+03 -0.62649786996E+02  0.50191850108E+02  0.23020221099E+03  0.17200000000E+03 0. -1.
         -6    1    1    2    0  501 -0.13024914709E+03  0.62649786996E+02 -0.19103665650E+03  0.29490479863E+03  0.17200000000E+03 0.  1.
</event>
<event>
 4    1  0.3094855E-002  0.2780186E+03  0.7818608E-02  0.1096776E+00
          2   -1    0    0  502    0  0.00000000000E+00  0.00000000000E+00  0.35434823987E+03  0.35434823987E+03  0.00000000000E+00 0. -1.
         -2   -1    0    0    0  501 -0.00000000000E+00 -0.00000000000E+00 -0.22789355726E+03  0.22789355726E+03  0.00000000000E+00 0.  1.
          6    1    1    2  502    0 -0.17645778384E+03  0.12873623295E+03  0.12348152339E+03  0.30420725463E+03  0.17200000000E+03 0. -1.
         -6    1    1    2    0  501  0.17645778384E+03 -0.12873623295E+03  0.29731592191E+01  0.27803454251E+03  0.17200000000E+03 0.  1.
</event>
<event>
 4    1  0.3094855E-002  0.2804092E+03  0.7818608E-02  0.1095466E+00
         -2   -1    0    0    0  501 -0.00000000000E+00  0.00000000000E+00  0.11648324449E+03  0.11648324449E+03  0.00000000000E+00 0.  1.
          2   -1    0    0  502    0  0.00000000000E+00 -0.00000000000E+00 -0.71975939552E+03  0.71975939552E+03  0.00000000000E+00 0. -1.
          6    1    1    2  502    0  0.12552128107E+03  0.18245470267E+03 -0.40587479686E+03  0.49331902584E+03  0.17200000000E+03 0. -1.
         -6    1    1    2    0  501 -0.12552128107E+03 -0.18245470267E+03 -0.19740135418E+03  0.34292361418E+03  0.17200000000E+03 0.  1.
</event>
<event>
 4    1  0.3094855E-002  0.2504611E+03  0.7818608E-02  0.1113014E+00
          2   -1    0    0  502    0  0.00000000000E+00  0.00000000000E+00  0.87564016938E+03  0.87564016938E+03  0.00000000000E+00 0. -1.
         -2   -1    0    0    0  501 -0.00000000000E+00 -0.00000000000E+00 -0.13979481148E+03  0.13979481148E+03  0.00000000000E+00 0.  1.
          6    1    1    2  502    0 -0.17971089849E+02 -0.18117334025E+03  0.13415279580E+02  0.25082007299E+03  0.17200000000E+03 0.  1.
         -6    1    1    2    0  501  0.17971089849E+02  0.18117334025E+03  0.72243007831E+03  0.76461490787E+03  0.17200000000E+03 0. -1.
</event>
<event>
 4    1  0.3094855E-002  0.1790218E+03  0.7818608E-02  0.1168753E+00
          2   -1    0    0  502    0  0.00000000000E+00  0.00000000000E+00  0.36956377456E+03  0.36956377456E+03  0.00000000000E+00 0. -1.
         -2   -1    0    0    0  501 -0.00000000000E+00 -0.00000000000E+00 -0.86720802531E+02  0.86720802531E+02  0.00000000000E+00 0.  1.
          6    1    1    2  502    0 -0.79632231477E+01 -0.49003832742E+02  0.14106427287E+03  0.22792085825E+03  0.17200000000E+03 0.  1.
         -6    1    1    2    0  501  0.79632231477E+01  0.49003832742E+02  0.14177869916E+03  0.22836371884E+03  0.17200000000E+03 0.  1.
</event>
<event>
 4    1  0.3094855E-002  0.2386782E+03  0.7818608E-02  0.1120676E+00
         -2   -1    0    0    0  501 -0.00000000000E+00  0.00000000000E+00  0.30413244468E+03  0.30413244468E+03  0.00000000000E+00 0.  1.
          2   -1    0    0  502    0  0.00000000000E+00 -0.00000000000E+00 -0.39039581317E+03  0.39039581317E+03  0.00000000000E+00 0. -1.
          6    1    1    2  502    0 -0.14810850352E+03 -0.73804912461E+02 -0.29359624141E+03  0.37837289397E+03  0.17200000000E+03 0. -1.
         -6    1    1    2    0  501  0.14810850352E+03  0.73804912461E+02  0.20733287293E+03  0.31615536389E+03  0.17200000000E+03 0.  1.
</event>
<event>
 4    1  0.3094855E-002  0.2052534E+03  0.7818608E-02  0.1145381E+00
         -2   -1    0    0    0  501 -0.00000000000E+00  0.00000000000E+00  0.23702477868E+02  0.23702477868E+02  0.00000000000E+00 0.  1.
          2   -1    0    0  502    0  0.00000000000E+00 -0.00000000000E+00 -0.18788916640E+04  0.18788916640E+04  0.00000000000E+00 0. -1.
          6    1    1    2  502    0  0.60760368423E+02  0.94091083760E+02 -0.70650662537E+03  0.73571772176E+03  0.17200000000E+03 0. -1.
         -6    1    1    2    0  501 -0.60760368423E+02 -0.94091083760E+02 -0.11486825607E+04  0.11668764201E+04  0.17200000000E+03 0. -1.
</event>
<event>
 4    1  0.3094855E-002  0.5223809E+03  0.7818608E-02  0.1008097E+00
          1   -1    0    0  502    0  0.00000000000E+00  0.00000000000E+00  0.19742804704E+04  0.19742804704E+04  0.00000000000E+00 0. -1.
         -1   -1    0    0    0  501 -0.00000000000E+00 -0.00000000000E+00 -0.15023800482E+03  0.15023800482E+03  0.00000000000E+00 0.  1.
          6    1    1    2  502    0 -0.49262879698E+03 -0.24792765592E+02  0.61156141952E+03  0.80429421400E+03  0.17200000000E+03 0. -1.
         -6    1    1    2    0  501  0.49262879698E+03  0.24792765592E+02  0.12124810461E+04  0.13202242613E+04  0.17200000000E+03 0.  1.
</event>
<event>
 4    1  0.3094855E-002  0.2126092E+03  0.7818608E-02  0.1139516E+00
         -1   -1    0    0    0  501 -0.00000000000E+00  0.00000000000E+00  0.38763937997E+03  0.38763937997E+03  0.00000000000E+00 0.  1.
          1   -1    0    0  502    0  0.00000000000E+00 -0.00000000000E+00 -0.12830127476E+03  0.12830127476E+03  0.00000000000E+00 0. -1.
          6    1    1    2  502    0  0.13474235605E+02  0.12424619781E+03  0.51796741185E+02  0.21882772926E+03  0.17200000000E+03 0. -1.
         -6    1    1    2    0  501 -0.13474235605E+02 -0.12424619781E+03  0.20754136402E+03  0.29711292546E+03  0.17200000000E+03 0.  1.
</event>
<event>
 4    1  0.3094855E-002  0.1756634E+03  0.7818608E-02  0.1172067E+00
         -2   -1    0    0    0  501 -0.00000000000E+00  0.00000000000E+00  0.55315569175E+02  0.55315569175E+02  0.00000000000E+00 0.  1.
          2   -1    0    0  502    0  0.00000000000E+00 -0.00000000000E+00 -0.56851109207E+03  0.56851109207E+03  0.00000000000E+00 0. -1.
          6    1    1    2  502    0  0.10486812745E+02 -0.34112477912E+02 -0.29931692098E+03  0.34705655674E+03  0.17200000000E+03 0. -1.
         -6    1    1    2    0  501 -0.10486812745E+02  0.34112477912E+02 -0.21387860191E+03  0.27677010450E+03  0.17200000000E+03 0.  1.
</event>
<event>
 4    1  0.3094855E-002  0.1754426E+03  0.7818608E-02  0.1172288E+00
          2   -1    0    0  502    0  0.00000000000E+00  0.00000000000E+00  0.90518762245E+03  0.90518762245E+03  0.00000000000E+00 0. -1.
         -2   -1    0    0    0  501 -0.00000000000E+00 -0.00000000000E+00 -0.36114942988E+02  0.36114942988E+02  0.00000000000E+00 0.  1.
          6    1    1    2  502    0  0.93079642892E+01  0.33308550264E+02  0.32075188918E+03  0.36559796516E+03  0.17200000000E+03 0.  1.
         -6    1    1    2    0  501 -0.93079642892E+01 -0.33308550264E+02  0.54832079028E+03  0.57570460027E+03  0.17200000000E+03 0.  1.
</event>
<event>
 4    1  0.3094855E-002  0.9017073E+03  0.7818608E-02  0.9423450E-01
         -2   -1    0    0    0  501 -0.00000000000E+00  0.00000000000E+00  0.45297766505E+03  0.45297766505E+03  0.00000000000E+00 0.  1.
          2   -1    0    0  502    0  0.00000000000E+00 -0.00000000000E+00 -0.21003121064E+04  0.21003121064E+04  0.00000000000E+00 0. -1.
          6    1    1    2  502    0  0.60654475117E+03  0.64466697777E+03 -0.33689048128E+03  0.96258570724E+03  0.17200000000E+03 0. -1.
         -6    1    1    2    0  501 -0.60654475117E+03 -0.64466697777E+03 -0.13104439600E+04  0.15907040642E+04  0.17200000000E+03 0.  1.
</event>
<event>
 4    1  0.3094855E-002  0.2426431E+03  0.7818608E-02  0.1118044E+00
         -2   -1    0    0    0  501 -0.00000000000E+00  0.00000000000E+00  0.43434703994E+02  0.43434703994E+02  0.00000000000E+00 0.  1.
          2   -1    0    0  502    0  0.00000000000E+00 -0.00000000000E+00 -0.13713970427E+04  0.13713970427E+04  0.00000000000E+00 0. -1.
          6    1    1    2  502    0  0.10836352631E+03  0.13247272186E+03 -0.74014906053E+03  0.77890712391E+03  0.17200000000E+03 0.  1.
         -6    1    1    2    0  501 -0.10836352631E+03 -0.13247272186E+03 -0.58781327819E+03  0.63592462280E+03  0.17200000000E+03 0.  1.
</event>
<event>
 4    1  0.3094855E-002  0.1956637E+03  0.7818608E-02  0.1153450E+00
         -2   -1    0    0    0  501 -0.00000000000E+00  0.00000000000E+00  0.75086285999E+03  0.75086285999E+03  0.00000000000E+00 0.  1.
          2   -1    0    0  502    0  0.00000000000E+00 -0.00000000000E+00 -0.51027565620E+02  0.51027565620E+02  0.00000000000E+00 0. -1.
          6    1    1    2  502    0 -0.59405499177E+01  0.93086027384E+02  0.33862290137E+03  0.39108792868E+03  0.17200000000E+03 0. -1.
         -6    1    1    2    0  501  0.59405499177E+01 -0.93086027384E+02  0.36121239301E+03  0.41080249694E+03  0.17200000000E+03 0.  1.
</event>
<event>
 4    1  0.3094855E-002  0.1785362E+03  0.7818608E-02  0.1169227E+00
          1   -1    0    0  502    0  0.00000000000E+00  0.00000000000E+00  0.29774705709E+02  0.29774705709E+02  0.00000000000E+00 0. -1.
         -1   -1    0    0    0  501 -0.00000000000E+00 -0.00000000000E+00 -0.12099273077E+04  0.12099273077E+04  0.00000000000E+00 0.  1.
          6    1    1    2  502    0 -0.47125244316E+02 -0.83902572598E+01 -0.37969346423E+03  0.41957396469E+03  0.17200000000E+03 0. -1.
         -6    1    1    2    0  501  0.47125244316E+02  0.83902572598E+01 -0.80045913778E+03  0.82012804874E+03  0.17200000000E+03 0.  1.
</event>
<event>
 4    1  0.3094855E-002  0.2774492E+03  0.7818608E-02  0.1097090E+00
         -2   -1    0    0    0  501 -0.00000000000E+00  0.00000000000E+00  0.80202774581E+02  0.80202774581E+02  0.00000000000E+00 0.  1.
          2   -1    0    0  502    0  0.00000000000E+00 -0.00000000000E+00 -0.16682373468E+04  0.16682373468E+04  0.00000000000E+00 0. -1.
          6    1    1    2  502    0 -0.99786964511E+02  0.19348548076E+03 -0.13637152765E+04  0.13916527674E+04  0.17200000000E+03 0. -1.
         -6    1    1    2    0  501  0.99786964511E+02 -0.19348548076E+03 -0.22431929570E+03  0.35678735400E+03  0.17200000000E+03 0.  1.
</event>
<event>
 4    1  0.3094855E-002  0.4218362E+03  0.7818608E-02  0.1036470E+00
          2   -1    0    0  502    0  0.00000000000E+00  0.00000000000E+00  0.12639412241E+04  0.12639412241E+04  0.00000000000E+00 0. -1.
         -2   -1    0    0    0  501 -0.00000000000E+00 -0.00000000000E+00 -0.27355174229E+03  0.27355174229E+03  0.00000000000E+00 0.  1.
          6    1    1    2  502    0 -0.15279299893E+03  0.35357614381E+03  0.10307517255E+04  0.11137301781E+04  0.17200000000E+03 0. -1.
         -6    1    1    2    0  501  0.15279299893E+03 -0.35357614381E+03 -0.40362243725E+02  0.42376278826E+03  0.17200000000E+03 0.  1.
</event>
<event>
 4    1  0.3094855E-002  0.1862547E+03  0.7818608E-02  0.1161883E+00
         -2   -1    0    0    0  501 -0.00000000000E+00  0.00000000000E+00  0.76218633111E+03  0.76218633111E+03  0.00000000000E+00 0.  1.
          2   -1    0    0  502    0  0.00000000000E+00 -0.00000000000E+00 -0.58154173412E+02  0.58154173412E+02  0.00000000000E+00 0. -1.
          6    1    1    2  502    0 -0.61472399030E+02 -0.36441006722E+02  0.16079512159E+03  0.24606071190E+03  0.17200000000E+03 0. -1.
         -6    1    1    2    0  501  0.61472399030E+02  0.36441006722E+02  0.54323703611E+03  0.57427979262E+03  0.17200000000E+03 0.  1.
</event>
<event>
 4    1  0.3094855E-002  0.1740503E+03  0.7818608E-02  0.1173689E+00
         -1   -1    0    0    0  501 -0.00000000000E+00  0.00000000000E+00  0.12540966682E+03  0.12540966682E+03  0.00000000000E+00 0.  1.
          1   -1    0    0  502    0  0.00000000000E+00 -0.00000000000E+00 -0.49104117692E+03  0.49104117692E+03  0.00000000000E+00 0. -1.
          6    1    1    2  502    0  0.22103134700E+02  0.14864881704E+02 -0.40251647803E+03  0.43853509364E+03  0.17200000000E+03 0. -1.
         -6    1    1    2    0  501 -0.22103134700E+02 -0.14864881704E+02  0.36884967928E+02  0.17791575009E+03  0.17200000000E+03 0.  1.
</event>
<event>
 4    1  0.3094855E-002  0.1779369E+03  0.7818608E-02  0.1169815E+00
         -1   -1    0    0    0  501 -0.00000000000E+00  0.00000000000E+00  0.26877729994E+02  0.26877729994E+02  0.00000000000E+00 0.  1.
          1   -1    0    0  502    0  0.00000000000E+00 -0.00000000000E+00 -0.12012811842E+04  0.12012811842E+04  0.00000000000E+00 0. -1.
          6    1    1    2  502    0 -0.61377983030E+01  0.45164729602E+02 -0.67271973916E+03  0.69585441927E+03  0.17200000000E+03 0. -1.
         -6    1    1    2    0  501  0.61377983030E+01 -0.45164729602E+02 -0.50168371502E+03  0.53230449489E+03  0.17200000000E+03 0. -1.
</event>
<event>
 4    1  0.3094855E-002  0.2974127E+03  0.7818608E-02  0.1086541E+00
          1   -1    0    0  502    0  0.00000000000E+00  0.00000000000E+00  0.22806871064E+04  0.22806871064E+04  0.00000000000E+00 0. -1.
         -1   -1    0    0    0  501 -0.00000000000E+00 -0.00000000000E+00 -0.39858252732E+02  0.39858252732E+02  0.00000000000E+00 0.  1.
          6    1    1    2  502    0  0.58770605388E+02  0.23540678934E+03  0.92993900470E+03  0.97634056199E+03  0.17200000000E+03 0. -1.
         -6    1    1    2    0  501 -0.58770605388E+02 -0.23540678934E+03  0.13108898489E+04  0.13442047971E+04  0.17200000000E+03 0. -1.
</event>
<event>
 4    1  0.3094855E-002  0.2363255E+03  0.7818608E-02  0.1122265E+00
          1   -1    0    0  502    0  0.00000000000E+00  0.00000000000E+00  0.36038108474E+02  0.36038108474E+02  0.00000000000E+00 0. -1.
         -1   -1    0    0    0  501 -0.00000000000E+00 -0.00000000000E+00 -0.18219515534E+04  0.18219515534E+04  0.00000000000E+00 0.  1.
          6    1    1    2  502    0  0.11808030064E+03  0.11100811941E+03 -0.53387210979E+03  0.58384003767E+03  0.17200000000E+03 0. -1.
         -6    1    1    2    0  501 -0.11808030064E+03 -0.11100811941E+03 -0.12520413352E+04  0.12741496242E+04  0.17200000000E+03 0.  1.
</event>
<event>
 4    1  0.3094855E-002  0.2499779E+03  0.7818608E-02  0.1113319E+00
         -2   -1    0    0    0  501 -0.00000000000E+00  0.00000000000E+00  0.57804609049E+02  0.57804609049E+02  0.00000000000E+00 0.  1.
          2   -1    0    0  502    0  0.00000000000E+00 -0.00000000000E+00 -0.13934918731E+04  0.13934918731E+04  0.00000000000E+00 0. -1.
          6    1    1    2  502    0  0.14275188818E+03 -0.11192340837E+03 -0.10114547599E+04  0.10418875574E+04  0.17200000000E+03 0. -1.
         -6    1    1    2    0  501 -0.14275188818E+03  0.11192340837E+03 -0.32423250411E+03  0.40940892472E+03  0.17200000000E+03 0.  1.
</event>
<event>
 4    1  0.3094855E-002  0.2333976E+03  0.7818608E-02  0.1124271E+00
          2   -1    0    0  502    0  0.00000000000E+00  0.00000000000E+00  0.11527879331E+04  0.11527879331E+04  0.00000000000E+00 0. -1.
         -2   -1    0    0    0  501 -0.00000000000E+00 -0.00000000000E+00 -0.49086611815E+02  0.49086611815E+02  0.00000000000E+00 0.  1.
          6    1    1    2  502    0  0.14258563269E+03 -0.67526221140E+02  0.43575394871E+03  0.49432373705E+03  0.17200000000E+03 0. -1.
         -6    1    1    2    0  501 -0.14258563269E+03  0.67526221140E+02  0.66794737261E+03  0.70755080790E+03  0.17200000000E+03 0.  1.
</event>
<event>
 4    1  0.3094855E-002  0.2118049E+03  0.7818608E-02  0.1140145E+00
          2   -1    0    0  502    0  0.00000000000E+00  0.00000000000E+00  0.50275922484E+03  0.50275922484E+03  0.00000000000E+00 0. -1.
         -2   -1    0    0    0  501 -0.00000000000E+00 -0.00000000000E+00 -0.12546500630E+03  0.12546500630E+03  0.00000000000E+00 0.  1.
          6    1    1    2  502    0  0.75267180801E+01 -0.12337198442E+03  0.35745255410E+03  0.41549202935E+03  0.17200000000E+03 0. -1.
         -6    1    1    2    0  501 -0.75267180801E+01  0.12337198442E+03  0.19841664440E+02  0.21273220178E+03  0.17200000000E+03 0.  1.
</event>
<event>
 4    1  0.3094855E-002  0.3637824E+03  0.7818608E-02  0.1057096E+00
         -2   -1    0    0    0  501 -0.00000000000E+00  0.00000000000E+00  0.69958612647E+02  0.69958612647E+02  0.00000000000E+00 0.  1.
          2   -1    0    0  502    0  0.00000000000E+00 -0.00000000000E+00 -0.20903988803E+04  0.20903988803E+04  0.00000000000E+00 0. -1.
          6    1    1    2  502    0  0.27628583158E+03 -0.16254153759E+03 -0.13432836819E+04  0.13916711761E+04  0.17200000000E+03 0. -1.
         -6    1    1    2    0  501 -0.27628583158E+03  0.16254153759E+03 -0.67715658577E+03  0.76868631693E+03  0.17200000000E+03 0.  1.
</event>
<event>
 4    1  0.3094855E-002  0.3071298E+03  0.7818608E-02  0.1081730E+00
         -2   -1    0    0    0  501 -0.00000000000E+00  0.00000000000E+00  0.10860456449E+03  0.10860456449E+03  0.00000000000E+00 0.  1.
          2   -1    0    0  502    0  0.00000000000E+00 -0.00000000000E+00 -0.95749962069E+03  0.95749962069E+03  0.00000000000E+00 0. -1.
          6    1    1    2  502    0 -0.24385021196E+03  0.72675857365E+02 -0.58691545554E+03  0.66241864260E+03  0.17200000000E+03 0. -1.
         -6    1    1    2    0  501  0.24385021196E+03 -0.72675857365E+02 -0.26197960066E+03  0.40368554257E+03  0.17200000000E+03 0.  1.
</event>
<event>
 4    1  0.3094855E-002  0.1794204E+03  0.7818608E-02  0.1168365E+00
          2   -1    0    0  502    0  0.00000000000E+00  0.00000000000E+00  0.50840011899E+03  0.50840011899E+03  0.00000000000E+00 0. -1.
         -2   -1    0    0    0  501 -0.00000000000E+00 -0.00000000000E+00 -0.72738101875E+02  0.72738101875E+02  0.00000000000E+00 0.  1.
          6    1    1    2  502    0  0.33324640381E+02 -0.38692920158E+02  0.32238971766E+03  0.36895366075E+03  0.17200000000E+03 0.  1.
         -6    1    1    2    0  501 -0.33324640381E+02  0.38692920158E+02  0.11327229945E+03  0.21218456011E+03  0.17200000000E+03 0.  1.
</event>
<event>
 4    1  0.3094855E-002  0.3448228E+03  0.7818608E-02  0.1064760E+00
         -1   -1    0    0    0  501 -0.00000000000E+00  0.00000000000E+00  0.50577636775E+02  0.50577636775E+02  0.00000000000E+00 0.  1.
          1   -1    0    0  502    0  0.00000000000E+00 -0.00000000000E+00 -0.24056844122E+04  0.24056844122E+04  0.00000000000E+00 0. -1.
          6    1    1    2  502    0  0.15773983708E+03 -0.25384430286E+03 -0.99221388906E+03  0.10504242895E+04  0.17200000000E+03 0. -1.
         -6    1    1    2    0  501 -0.15773983708E+03  0.25384430286E+03 -0.13628928864E+04  0.14058377595E+04  0.17200000000E+03 0.  1.
</event>
<event>
 4    1  0.3094855E-002  0.2239619E+03  0.7818608E-02  0.1130963E+00
         -1   -1    0    0    0  501 -0.00000000000E+00  0.00000000000E+00  0.53725065176E+02  0.53725065176E+02  0.00000000000E+00 0.  1.
          1   -1    0    0  502    0  0.00000000000E+00 -0.00000000000E+00 -0.15992795840E+04  0.15992795840E+04  0.00000000000E+00 0. -1.
          6    1    1    2  502    0  0.20540950801E+01 -0.14342491133E+03 -0.13059981958E+04  0.13250623427E+04  0.17200000000E+03 0. -1.
         -6    1    1    2    0  501 -0.20540950801E+01  0.14342491133E+03 -0.23955632298E+03  0.32794230647E+03  0.17200000000E+03 0.  1.
</event>
<event>
 4    1  0.3094855E-002  0.4026054E+03  0.7818608E-02  0.1042881E+00
         -1   -1    0    0    0  501 -0.00000000000E+00  0.00000000000E+00  0.21088753419E+03  0.21088753419E+03  0.00000000000E+00 0.  1.
          1   -1    0    0  502    0  0.00000000000E+00 -0.00000000000E+00 -0.91258105255E+03  0.91258105255E+03  0.00000000000E+00 0. -1.
          6    1    1    2  502    0  0.30218612834E+03 -0.20295477959E+03 -0.57396077866E+03  0.70108635286E+03  0.17200000000E+03 0. -1.
         -6    1    1    2    0  501 -0.30218612834E+03  0.20295477959E+03 -0.12773273970E+03  0.42238223389E+03  0.17200000000E+03 0.  1.
</event>
<event>
 4    1  0.3094855E-002  0.2898119E+03  0.7818608E-02  0.1090447E+00
         -2   -1    0    0    0  501 -0.00000000000E+00  0.00000000000E+00  0.20716890432E+03  0.20716890432E+03  0.00000000000E+00 0.  1.
          2   -1    0    0  502    0  0.00000000000E+00 -0.00000000000E+00 -0.57498824365E+03  0.57498824365E+03  0.00000000000E+00 0. -1.
          6    1    1    2  502    0  0.22941110335E+03  0.42160438148E+02  0.28465366209E+02  0.29120651428E+03  0.17200000000E+03 0.  1.
         -6    1    1    2    0  501 -0.22941110335E+03 -0.42160438148E+02 -0.39628470554E+03  0.49095063370E+03  0.17200000000E+03 0. -1.
</event>
<event>
 4    1  0.3094855E-002  0.8934769E+03  0.7818608E-02  0.9433773E-01
         -1   -1    0    0    0  501 -0.00000000000E+00  0.00000000000E+00  0.18375556223E+04  0.18375556223E+04  0.00000000000E+00 0.  1.
          1   -1    0    0  502    0  0.00000000000E+00 -0.00000000000E+00 -0.12003568071E+04  0.12003568071E+04  0.00000000000E+00 0. -1.
          6    1    1    2  502    0 -0.62026745009E+03 -0.61966548288E+03 -0.89473887452E+03  0.12644598348E+04  0.17200000000E+03 0. -1.
         -6    1    1    2    0  501  0.62026745009E+03  0.61966548288E+03  0.15319376897E+04  0.17734525946E+04  0.17200000000E+03 0.  1.
</event>
<event>
 4    1  0.3094855E-002  0.3141683E+03  0.7818608E-02  0.1078365E+00
         -1   -1    0    0    0  501 -0.00000000000E+00  0.00000000000E+00  0.80580109276E+02  0.80580109276E+02  0.00000000000E+00 0.  1.
          1   -1    0    0  502    0  0.00000000000E+00 -0.00000000000E+00 -0.13089962561E+04  0.13089962561E+04  0.00000000000E+00 0. -1.
          6    1    1    2  502    0  0.97695903009E+02  0.24407630388E+03 -0.43809215808E+03  0.53909783023E+03  0.17200000000E+03 0.  1.
         -6    1    1    2    0  501 -0.97695903009E+02 -0.24407630388E+03 -0.79032398879E+03  0.85047853520E+03  0.17200000000E+03 0.  1.
</event>
<event>
 4    1  0.3094855E-002  0.3137015E+03  0.7818608E-02  0.1078585E+00
         -1   -1    0    0    0  501 -0.00000000000E+00  0.00000000000E+00  0.64992317234E+03  0.64992317234E+03  0.00000000000E+00 0.  1.
          1   -1    0    0  502    0  0.00000000000E+00 -0.00000000000E+00 -0.36297668630E+03  0.36297668630E+03  0.00000000000E+00 0. -1.
          6    1    1    2  502    0  0.23126927181E+03 -0.12385135422E+03 -0.24317393322E+03  0.39691585484E+03  0.17200000000E+03 0. -1.
         -6    1    1    2    0  501 -0.23126927181E+03  0.12385135422E+03  0.53012041926E+03  0.61598400380E+03  0.17200000000E+03 0.  1.
</event>
<event>
 4    1  0.3094855E-002  0.1914562E+03  0.7818608E-02  0.1157154E+00
         -2   -1    0    0    0  501 -0.00000000000E+00  0.00000000000E+00  0.12776928937E+02  0.12776928937E+02  0.00000000000E+00 0.  1.
          2   -1    0    0  502    0  0.00000000000E+00 -0.00000000000E+00 -0.32101309686E+04  0.32101309686E+04  0.00000000000E+00 0. -1.
          6    1    1    2  502    0  0.66452142340E+02  0.51532324003E+02 -0.10732724080E+04  0.10902151757E+04  0.17200000000E+03 0. -1.
         -6    1    1    2    0  501 -0.66452142340E+02 -0.51532324003E+02 -0.21240816317E+04  0.21326927218E+04  0.17200000000E+03 0.  1.
</event>
<event>
 4    1  0.3094855E-002  0.1756395E+03  0.7818608E-02  0.1172091E+00
          2   -1    0    0  502    0  0.00000000000E+00  0.00000000000E+00  0.39730168671E+03  0.39730168671E+03  0.00000000000E+00 0. -1.
         -2   -1    0    0    0  501 -0.00000000000E+00 -0.00000000000E+00 -0.92224685237E+02  0.92224685237E+02  0.00000000000E+00 0.  1.
          6    1    1    2  502    0  0.18152868397E+02  0.30589583744E+02  0.55226120383E+02  0.18411728229E+03  0.17200000000E+03 0.  1.
         -6    1    1    2    0  501 -0.18152868397E+02 -0.30589583744E+02  0.24985088109E+03  0.30540908966E+03  0.17200000000E+03 0. -1.
</event>
<event>
 4    1  0.3094855E-002  0.2596665E+03  0.7818608E-02  0.1107344E+00
         -2   -1    0    0    0  501 -0.00000000000E+00  0.00000000000E+00  0.78699224033E+02  0.78699224033E+02  0.00000000000E+00 0.  1.
          2   -1    0    0  502    0  0.00000000000E+00 -0.00000000000E+00 -0.94318082470E+03  0.94318082470E+03  0.00000000000E+00 0. -1.
          6    1    1    2  502    0  0.11967257606E+03  0.15336612495E+03 -0.58689815625E+03  0.64177577047E+03  0.17200000000E+03 0. -1.
         -6    1    1    2    0  501 -0.11967257606E+03 -0.15336612495E+03 -0.27758344441E+03  0.38010427827E+03  0.17200000000E+03 0.  1.
</event>
<event>
 4    1  0.3094855E-002  0.1773353E+03  0.7818608E-02  0.1170407E+00
         -2   -1    0    0    0  501 -0.00000000000E+00  0.00000000000E+00  0.71025958109E+02  0.71025958109E+02  0.00000000000E+00 0.  1.
          2   -1    0    0  502    0  0.00000000000E+00 -0.00000000000E+00 -0.44751132431E+03  0.44751132431E+03  0.00000000000E+00 0. -1.
          6    1    1    2  502    0 -0.38984314060E+02 -0.18548249187E+02 -0.16154197064E+03  0.23988251827E+03  0.17200000000E+03 0. -1.
         -6    1    1    2    0  501  0.38984314060E+02  0.18548249187E+02 -0.21494339555E+03  0.27865476415E+03  0.17200000000E+03 0. -1.
</event>
<event>
 4    1  0.3094855E-002  0.1985282E+03  0.7818608E-02  0.1150987E+00
         -1   -1    0    0    0  501 -0.00000000000E+00  0.00000000000E+00  0.90213904485E+02  0.90213904485E+02  0.00000000000E+00 0.  1.
          1   -1    0    0  502    0  0.00000000000E+00 -0.00000000000E+00 -0.34025478297E+04  0.34025478297E+04  0.00000000000E+00 0. -1.
          6    1    1    2  502    0  0.43836778854E+02 -0.88925722773E+02 -0.32865792952E+04  0.32925699554E+04  0.17200000000E+03 0. -1.
         -6    1    1    2    0  501 -0.43836778854E+02  0.88925722773E+02 -0.25754630051E+02  0.20019177885E+03  0.17200000000E+03 0.  1.
</event>
<event>
 4    1  0.3094855E-002  0.5862722E+03  0.7818608E-02  0.9934303E-01
         -1   -1    0    0    0  501 -0.00000000000E+00  0.00000000000E+00  0.26286902353E+04  0.26286902353E+04  0.00000000000E+00 0.  1.
          1   -1    0    0  502    0  0.00000000000E+00 -0.00000000000E+00 -0.70747670504E+03  0.70747670504E+03  0.00000000000E+00 0. -1.
          6    1    1    2  502    0 -0.52076100281E+03 -0.20721740094E+03 -0.54546184562E+03  0.80077693419E+03  0.17200000000E+03 0. -1.
         -6    1    1    2    0  501  0.52076100281E+03  0.20721740094E+03  0.24666753759E+04  0.25353900062E+04  0.17200000000E+03 0.  1.
</event>
<event>
 4    1  0.3094855E-002  0.1889047E+03  0.7818608E-02  0.1159453E+00
         -1   -1    0    0    0  501 -0.00000000000E+00  0.00000000000E+00  0.97319869120E+02  0.97319869120E+02  0.00000000000E+00 0.  1.
          1   -1    0    0  502    0  0.00000000000E+00 -0.00000000000E+00 -0.48592188500E+03  0.48592188500E+03  0.00000000000E+00 0. -1.
          6    1    1    2  502    0 -0.66448656827E+00  0.78106065168E+02 -0.49838720021E+02  0.19536861819E+03  0.17200000000E+03 0.  1.
         -6    1    1    2    0  501  0.66448656827E+00 -0.78106065168E+02 -0.33876329586E+03  0.38787313593E+03  0.17200000000E+03 0. -1.
</event>
<event>
 4    1  0.3094855E-002  0.3734684E+03  0.7818608E-02  0.1053375E+00
          2   -1    0    0  502    0  0.00000000000E+00  0.00000000000E+00  0.87058742123E+03  0.87058742123E+03  0.00000000000E+00 0. -1.
         -2   -1    0    0    0  501 -0.00000000000E+00 -0.00000000000E+00 -0.16395155250E+03  0.16395155250E+03  0.00000000000E+00 0.  1.
          6    1    1    2  502    0 -0.33150061238E+03 -0.14090248408E+01  0.43143806241E+03  0.57062898897E+03  0.17200000000E+03 0. -1.
         -6    1    1    2    0  501  0.33150061238E+03  0.14090248408E+01  0.27519780633E+03  0.46390998476E+03  0.17200000000E+03 0.  1.
</event>
<event>
 4    1  0.3094855E-002  0.1750083E+03  0.7818608E-02  0.1172723E+00
         -2   -1    0    0    0  501 -0.00000000000E+00  0.00000000000E+00  0.18827122140E+02  0.18827122140E+02  0.00000000000E+00 0.  1.
          2   -1    0    0  502    0  0.00000000000E+00 -0.00000000000E+00 -0.18257455328E+04  0.18257455328E+04  0.00000000000E+00 0. -1.
          6    1    1    2  502    0  0.32146307697E+02  0.32449496706E+01 -0.12079088677E+04  0.12205210967E+04  0.17200000000E+03 0.  1.
         -6    1    1    2    0  501 -0.32146307697E+02 -0.32449496706E+01 -0.59900954296E+03  0.62405155825E+03  0.17200000000E+03 0.  1.
</event>
<event>
 4    1  0.3094855E-002  0.1924101E+03  0.7818608E-02  0.1156305E+00
         -1   -1    0    0    0  501 -0.00000000000E+00  0.00000000000E+00  0.10974478683E+03  0.10974478683E+03  0.00000000000E+00 0.  1.
          1   -1    0    0  502    0  0.00000000000E+00 -0.00000000000E+00 -0.44135346646E+03  0.44135346646E+03  0.00000000000E+00 0. -1.
          6    1    1    2  502    0 -0.22824417878E+02  0.83166716683E+02 -0.29956976884E+03  0.35603890689E+03  0.17200000000E+03 0. -1.
         -6    1    1    2    0  501  0.22824417878E+02 -0.83166716683E+02 -0.32038910784E+02  0.19505934640E+03  0.17200000000E+03 0.  1.
</event>
<event>
 4    1  0.3094855E-002  0.2722953E+03  0.7818608E-02  0.1099973E+00
          2   -1    0    0  502    0  0.00000000000E+00  0.00000000000E+00  0.60535529063E+03  0.60535529063E+03  0.00000000000E+00 0. -1.
         -2   -1    0    0    0  501 -0.00000000000E+00 -0.00000000000E+00 -0.80985499258E+03  0.80985499258E+03  0.00000000000E+00 0.  1.
          6    1    1    2  502    0 -0.14712879320E+03  0.15137316406E+03  0.54965437175E+03  0.61340414489E+03  0.17200000000E+03 0. -1.
         -6    1    1    2    0  501  0.14712879320E+03 -0.15137316406E+03 -0.75415407370E+03  0.80180613833E+03  0.17200000000E+03 0.  1.
</event>
<event>
 4    1  0.3094855E-002  0.2017267E+03  0.7818608E-02  0.1148290E+00
          2   -1    0    0  502    0  0.00000000000E+00  0.00000000000E+00  0.83806543420E+03  0.83806543420E+03  0.00000000000E+00 0. -1.
         -2   -1    0    0    0  501 -0.00000000000E+00 -0.00000000000E+00 -0.63383294431E+02  0.63383294431E+02  0.00000000000E+00 0.  1.
          6    1    1    2  502    0  0.73481272915E+02 -0.75565661232E+02  0.60533518803E+03  0.63806297220E+03  0.17200000000E+03 0. -1.
         -6    1    1    2    0  501 -0.73481272915E+02  0.75565661232E+02  0.16934695174E+03  0.26338575643E+03  0.17200000000E+03 0.  1.
</event>
<event>
 4    1  0.3094855E-002  0.1902347E+03  0.7818608E-02  0.1158250E+00
         -2   -1    0    0    0  501 -0.00000000000E+00  0.00000000000E+00  0.94754573979E+03  0.94754573979E+03  0.00000000000E+00 0.  1.
          2   -1    0    0  502    0  0.00000000000E+00 -0.00000000000E+00 -0.50068032657E+02  0.50068032657E+02  0.00000000000E+00 0. -1.
          6    1    1    2  502    0  0.29966332930E+02  0.75546322392E+02  0.20581115147E+03  0.28026319417E+03  0.17200000000E+03 0. -1.
         -6    1    1    2    0  501 -0.29966332930E+02 -0.75546322392E+02  0.69166655565E+03  0.71735057827E+03  0.17200000000E+03 0.  1.
</event>
<event>
 4    1  0.3094855E-002  0.4951518E+03  0.7818608E-02  0.1015052E+00
          2   -1    0    0  502    0  0.00000000000E+00  0.00000000000E+00  0.14944745293E+04  0.14944745293E+04  0.00000000000E+00 0. -1.
         -2   -1    0    0    0  501 -0.00000000000E+00 -0.00000000000E+00 -0.18571954988E+03  0.18571954988E+03  0.00000000000E+00 0.  1.
          6    1    1    2  502    0 -0.44842503464E+03  0.12044202183E+03  0.94131039199E+03  0.10635979252E+04  0.17200000000E+03 0. -1.
         -6    1    1    2    0  501  0.44842503464E+03 -0.12044202183E+03  0.36744458739E+03  0.61659615399E+03  0.17200000000E+03 0.  1.
</event>
<event>
 4    1  0.3094855E-002  0.2482257E+03  0.7818608E-02  0.1114431E+00
          2   -1    0    0  502    0  0.00000000000E+00  0.00000000000E+00  0.14161037120E+04  0.14161037120E+04  0.00000000000E+00 0. -1.
         -2   -1    0    0    0  501 -0.00000000000E+00 -0.00000000000E+00 -0.47093434820E+03  0.47093434820E+03  0.00000000000E+00 0.  1.
          6    1    1    2  502    0  0.11776789447E+03 -0.13476919311E+03  0.13714603585E+04  0.13937429918E+04  0.17200000000E+03 0. -1.
         -6    1    1    2    0  501 -0.11776789447E+03  0.13476919311E+03 -0.42629099465E+03  0.49329506840E+03  0.17200000000E+03 0.  1.
</event>
<event>
 4    1  0.3094855E-002  0.2961394E+03  0.7818608E-02  0.1087187E+00
         -2   -1    0    0    0  501 -0.00000000000E+00  0.00000000000E+00  0.11291846378E+03  0.11291846378E+03  0.00000000000E+00 0.  1.
          2   -1    0    0  502    0  0.00000000000E+00 -0.00000000000E+00 -0.10696481667E+04  0.10696481667E+04  0.00000000000E+00 0. -1.
          6    1    1    2  502    0 -0.11168838303E+03  0.21363578026E+03 -0.78782509705E+03  0.84164536775E+03  0.17200000000E+03 0. -1.
         -6    1    1    2    0  501  0.11168838303E+03 -0.21363578026E+03 -0.16890460589E+03  0.34092126276E+03  0.17200000000E+03 0.  1.
</event>
<event>
 4    1  0.3094855E-002  0.1808662E+03  0.7818608E-02  0.1166967E+00
          1   -1    0    0  502    0  0.00000000000E+00  0.00000000000E+00  0.41063032471E+03  0.41063032471E+03  0.00000000000E+00 0. -1.
         -1   -1    0    0    0  501 -0.00000000000E+00 -0.00000000000E+00 -0.99169966768E+02  0.99169966768E+02  0.00000000000E+00 0.  1.
          6    1    1    2  502    0  0.46827283563E+02  0.30590390293E+02  0.42682748341E+02  0.18583429035E+03  0.17200000000E+03 0.  1.
         -6    1    1    2    0  501 -0.46827283563E+02 -0.30590390293E+02  0.26877760960E+03  0.32396600113E+03  0.17200000000E+03 0. -1.
</event>
<event>
 4    1  0.3094855E-002  0.2527495E+03  0.7818608E-02  0.1111579E+00
          1   -1    0    0  502    0  0.00000000000E+00  0.00000000000E+00  0.29138055047E+04  0.29138055047E+04  0.00000000000E+00 0. -1.
         -1   -1    0    0    0  501 -0.00000000000E+00 -0.00000000000E+00 -0.43735861783E+02  0.43735861783E+02  0.00000000000E+00 0.  1.
          6    1    1    2  502    0  0.12046725416E+03 -0.14066254006E+03  0.24793419147E+04  0.24921915334E+04  0.17200000000E+03 0. -1.
         -6    1    1    2    0  501 -0.12046725416E+03  0.14066254006E+03  0.39072772831E+03  0.46534983311E+03  0.17200000000E+03 0.  1.
</event>
<event>
 4    1  0.3094855E-002  0.2381457E+03  0.7818608E-02  0.1121034E+00
         -1   -1    0    0    0  501 -0.00000000000E+00  0.00000000000E+00  0.26491286789E+02  0.26491286789E+02  0.00000000000E+00 0.  1.
          1   -1    0    0  502    0  0.00000000000E+00 -0.00000000000E+00 -0.25188967744E+04  0.25188967744E+04  0.00000000000E+00 0. -1.
          6    1    1    2  502    0  0.16288929588E+03  0.24422189409E+02 -0.17392658936E+04  0.17554940087E+04  0.17200000000E+03 0. -1.
         -6    1    1    2    0  501 -0.16288929588E+03 -0.24422189409E+02 -0.75313959408E+03  0.78989405253E+03  0.17200000000E+03 0.  1.
</event>
<event>
 4    1  0.3094855E-002  0.2026191E+03  0.7818608E-02  0.1147548E+00
         -1   -1    0    0    0  501 -0.00000000000E+00  0.00000000000E+00  0.21998550747E+03  0.21998550747E+03  0.00000000000E+00 0.  1.
          1   -1    0    0  502    0  0.00000000000E+00 -0.00000000000E+00 -0.18748685168E+03  0.18748685168E+03  0.00000000000E+00 0. -1.
          6    1    1    2  502    0 -0.86222700245E+02 -0.63530751811E+02  0.24256044220E+01  0.20263364484E+03  0.17200000000E+03 0. -1.
         -6    1    1    2    0  501  0.86222700245E+02  0.63530751811E+02  0.30073051372E+02  0.20483871431E+03  0.17200000000E+03 0.  1.
</event>
<event>
 4    1  0.3094855E-002  0.4359354E+03  0.7818608E-02  0.1032001E+00
          2   -1    0    0  502    0  0.00000000000E+00  0.00000000000E+00  0.38502529656E+03  0.38502529656E+03  0.00000000000E+00 0. -1.
         -2   -1    0    0    0  501 -0.00000000000E+00 -0.00000000000E+00 -0.87132049873E+03  0.87132049873E+03  0.00000000000E+00 0.  1.
          6    1    1    2  502    0 -0.16873018320E+03 -0.36329846541E+03  0.17046017989E+03  0.46807726138E+03  0.17200000000E+03 0. -1.
         -6    1    1    2    0  501  0.16873018320E+03  0.36329846541E+03 -0.65675538206E+03  0.78826853391E+03  0.17200000000E+03 0.  1.
</event>
<event>
 4    1  0.3094855E-002  0.2222141E+03  0.7818608E-02  0.1132243E+00
         -1   -1    0    0    0  501 -0.00000000000E+00  0.00000000000E+00  0.15545859157E+03  0.15545859157E+03  0.00000000000E+00 0.  1.
          1   -1    0    0  502    0  0.00000000000E+00 -0.00000000000E+00 -0.82516348338E+03  0.82516348338E+03  0.00000000000E+00 0. -1.
          6    1    1    2  502    0 -0.69175778214E+02  0.12251457519E+03 -0.71938386056E+03  0.75292247161E+03  0.17200000000E+03 0. -1.
         -6    1    1    2    0  501  0.69175778214E+02 -0.12251457519E+03  0.49678968744E+02  0.22769960334E+03  0.17200000000E+03 0.  1.
</event>
<event>
 4    1  0.3094855E-002  0.2282495E+03  0.7818608E-02  0.1127878E+00
         -2   -1    0    0    0  501 -0.00000000000E+00  0.00000000000E+00  0.16815940051E+04  0.16815940051E+04  0.00000000000E+00 0.  1.
          2   -1    0    0  502    0  0.00000000000E+00 -0.00000000000E+00 -0.52796971518E+02  0.52796971518E+02  0.00000000000E+00 0. -1.
          6    1    1    2  502    0  0.14939872321E+03  0.13922575428E+02  0.13718379597E+04  0.13906966615E+04  0.17200000000E+03 0.  1.
         -6    1    1    2    0  501 -0.14939872321E+03 -0.13922575428E+02  0.25695907388E+03  0.34369431513E+03  0.17200000000E+03 0. -1.
</event>
<event>
 4    1  0.3094855E-002  0.6276022E+03  0.7818608E-02  0.9849739E-01
         -2   -1    0    0    0  501 -0.00000000000E+00  0.00000000000E+00  0.17446333137E+04  0.17446333137E+04  0.00000000000E+00 0.  1.
          2   -1    0    0  502    0  0.00000000000E+00 -0.00000000000E+00 -0.23520594450E+03  0.23520594450E+03  0.00000000000E+00 0. -1.
          6    1    1    2  502    0 -0.33814901886E+03 -0.49995571519E+03  0.55643009413E+03  0.83874842817E+03  0.17200000000E+03 0. -1.
         -6    1    1    2    0  501  0.33814901886E+03  0.49995571519E+03  0.95299727506E+03  0.11410908300E+04  0.17200000000E+03 0.  1.
</event>
<event>
 4    1  0.3094855E-002  0.2263547E+03  0.7818608E-02  0.1129232E+00
         -1   -1    0    0    0  501 -0.00000000000E+00  0.00000000000E+00  0.16079155997E+03  0.16079155997E+03  0.00000000000E+00 0.  1.
          1   -1    0    0  502    0  0.00000000000E+00 -0.00000000000E+00 -0.36004173133E+03  0.36004173133E+03  0.00000000000E+00 0. -1.
          6    1    1    2  502    0 -0.13731228354E+03  0.52894039623E+02 -0.18792132308E+03  0.29419528600E+03  0.17200000000E+03 0.  1.
         -6    1    1    2    0  501  0.13731228354E+03 -0.52894039623E+02 -0.11328848283E+02  0.22663800529E+03  0.17200000000E+03 0.  1.
</event>
<event>
 4    1  0.3094855E-002  0.2758018E+03  0.7818608E-02  0.1098004E+00
         -3   -1    0    0    0  501 -0.00000000000E+00  0.00000000000E+00  0.66262166303E+02  0.66262166303E+02  0.00000000000E+00 0.  1.
          3   -1    0    0  502    0  0.00000000000E+00 -0.00000000000E+00 -0.12357533516E+04  0.12357533516E+04  0.00000000000E+00 0. -1.
          6    1    1    2  502    0  0.20408764153E+03 -0.69504549106E+02 -0.75826126693E+03  0.80686231583E+03  0.17200000000E+03 0. -1.
         -6    1    1    2    0  501 -0.20408764153E+03  0.69504549106E+02 -0.41122991840E+03  0.49515320211E+03  0.17200000000E+03 0. -1.
</event>
<event>
 4    1  0.3094855E-002  0.3371466E+03  0.7818608E-02  0.1068018E+00
         -2   -1    0    0    0  501 -0.00000000000E+00  0.00000000000E+00  0.13409978462E+03  0.13409978462E+03  0.00000000000E+00 0.  1.
          2   -1    0    0  502    0  0.00000000000E+00 -0.00000000000E+00 -0.98108291074E+03  0.98108291074E+03  0.00000000000E+00 0. -1.
          6    1    1    2  502    0  0.12833932962E+03  0.26002469406E+03 -0.21784701985E+03  0.40140397246E+03  0.17200000000E+03 0. -1.
         -6    1    1    2    0  501 -0.12833932962E+03 -0.26002469406E+03 -0.62913610627E+03  0.71377872290E+03  0.17200000000E+03 0.  1.
</event>
<event>
 4    1  0.3094855E-002  0.2285185E+03  0.7818608E-02  0.1127687E+00
         -3   -1    0    0    0  501 -0.00000000000E+00  0.00000000000E+00  0.71199691617E+03  0.71199691617E+03  0.00000000000E+00 0.  1.
          3   -1    0    0  502    0  0.00000000000E+00 -0.00000000000E+00 -0.74741046812E+02  0.74741046812E+02  0.00000000000E+00 0. -1.
          6    1    1    2  502    0 -0.14216115793E+03 -0.49263686252E+02  0.26484739259E+03  0.34980687096E+03  0.17200000000E+03 0. -1.
         -6    1    1    2    0  501  0.14216115793E+03  0.49263686252E+02  0.37240847677E+03  0.43693109202E+03  0.17200000000E+03 0.  1.
</event>
<event>
 4    1  0.3094855E-002  0.1801575E+03  0.7818608E-02  0.1167651E+00
         -2   -1    0    0    0  501 -0.00000000000E+00  0.00000000000E+00  0.11506453216E+03  0.11506453216E+03  0.00000000000E+00 0.  1.
          2   -1    0    0  502    0  0.00000000000E+00 -0.00000000000E+00 -0.38806914255E+03  0.38806914255E+03  0.00000000000E+00 0. -1.
          6    1    1    2  502    0 -0.10651216232E+02 -0.52528803303E+02 -0.50277758278E+01  0.18022763970E+03  0.17200000000E+03 0.  1.
         -6    1    1    2    0  501  0.10651216232E+02  0.52528803303E+02 -0.26797683456E+03  0.32290603501E+03  0.17200000000E+03 0. -1.
</event>
<event>
 4    1  0.3094855E-002  0.3088836E+03  0.7818608E-02  0.1080882E+00
         -2   -1    0    0    0  501 -0.00000000000E+00  0.00000000000E+00  0.67349704028E+02  0.67349704028E+02  0.00000000000E+00 0.  1.
          2   -1    0    0  502    0  0.00000000000E+00 -0.00000000000E+00 -0.14676996500E+04  0.14676996500E+04  0.00000000000E+00 0. -1.
          6    1    1    2  502    0 -0.25590023496E+03  0.18442326949E+02 -0.84335770409E+03  0.89814323285E+03  0.17200000000E+03 0. -1.
         -6    1    1    2    0  501  0.25590023496E+03 -0.18442326949E+02 -0.55699224188E+03  0.63690612118E+03  0.17200000000E+03 0.  1.
</event>
<event>
 4    1  0.3094855E-002  0.3238336E+03  0.7818608E-02  0.1073898E+00
         -2   -1    0    0    0  501 -0.00000000000E+00  0.00000000000E+00  0.81253305552E+02  0.81253305552E+02  0.00000000000E+00 0.  1.
          2   -1    0    0  502    0  0.00000000000E+00 -0.00000000000E+00 -0.18905953295E+04  0.18905953295E+04  0.00000000000E+00 0. -1.
          6    1    1    2  502    0 -0.11075377106E+03  0.25103352707E+03 -0.14600713464E+04  0.14955522612E+04  0.17200000000E+03 0. -1.
         -6    1    1    2    0  501  0.11075377106E+03 -0.25103352707E+03 -0.34927067757E+03  0.47629637383E+03  0.17200000000E+03 0.  1.
</event>
<event>
 4    1  0.3094855E-002  0.2784023E+03  0.7818608E-02  0.1096565E+00
         -1   -1    0    0    0  501 -0.00000000000E+00  0.00000000000E+00  0.63424493674E+03  0.63424493674E+03  0.00000000000E+00 0.  1.
          1   -1    0    0  502    0  0.00000000000E+00 -0.00000000000E+00 -0.12850647358E+03  0.12850647358E+03  0.00000000000E+00 0. -1.
          6    1    1    2  502    0 -0.20453791955E+03 -0.78026245979E+02  0.16841641690E+03  0.32537969371E+03  0.17200000000E+03 0.  1.
         -6    1    1    2    0  501  0.20453791955E+03  0.78026245979E+02  0.33732204627E+03  0.43737171662E+03  0.17200000000E+03 0. -1.
</event>
<event>
 4    1  0.3094855E-002  0.2292918E+03  0.7818608E-02  0.1127139E+00
         -1   -1    0    0    0  501 -0.00000000000E+00  0.00000000000E+00  0.10823091121E+03  0.10823091121E+03  0.00000000000E+00 0.  1.
          1   -1    0    0  502    0  0.00000000000E+00 -0.00000000000E+00 -0.15398919237E+04  0.15398919237E+04  0.00000000000E+00 0. -1.
          6    1    1    2  502    0 -0.12473460051E+03  0.86209107289E+02 -0.13976368275E+04  0.14163203848E+04  0.17200000000E+03 0. -1.
         -6    1    1    2    0  501  0.12473460051E+03 -0.86209107289E+02 -0.34024185045E+02  0.23180245019E+03  0.17200000000E+03 0.  1.
</event>
<event>
 4    1  0.3094855E-002  0.2319262E+03  0.7818608E-02  0.1125291E+00
         -1   -1    0    0    0  501 -0.00000000000E+00  0.00000000000E+00  0.13963810164E+03  0.13963810164E+03  0.00000000000E+00 0.  1.
          1   -1    0    0  502    0  0.00000000000E+00 -0.00000000000E+00 -0.75216860060E+03  0.75216860060E+03  0.00000000000E+00 0. -1.
          6    1    1    2  502    0  0.14258933911E+03  0.62241849691E+02 -0.61771832809E+03  0.65982247638E+03  0.17200000000E+03 0. -1.
         -6    1    1    2    0  501 -0.14258933911E+03 -0.62241849691E+02  0.51878291226E+01  0.23198422587E+03  0.17200000000E+03 0.  1.
</event>
<event>
 4    1  0.3094855E-002  0.2321787E+03  0.7818608E-02  0.1125116E+00
         -1   -1    0    0    0  501 -0.00000000000E+00  0.00000000000E+00  0.19590693615E+02  0.19590693615E+02  0.00000000000E+00 0.  1.
          1   -1    0    0  502    0  0.00000000000E+00 -0.00000000000E+00 -0.28623801056E+04  0.28623801056E+04  0.00000000000E+00 0. -1.
          6    1    1    2  502    0 -0.50266909709E+02  0.14763524571E+03 -0.17048007933E+04  0.17205384834E+04  0.17200000000E+03 0. -1.
         -6    1    1    2    0  501  0.50266909709E+02 -0.14763524571E+03 -0.11379886187E+04  0.11614323159E+04  0.17200000000E+03 0.  1.
</event>
<event>
 4    1  0.3094855E-002  0.9527304E+03  0.7818608E-02  0.9361965E-01
          2   -1    0    0  502    0  0.00000000000E+00  0.00000000000E+00  0.18489822955E+04  0.18489822955E+04  0.00000000000E+00 0. -1.
         -2   -1    0    0    0  501 -0.00000000000E+00 -0.00000000000E+00 -0.63906790246E+03  0.63906790246E+03  0.00000000000E+00 0.  1.
          6    1    1    2  502    0 -0.83809570764E+03 -0.41917403955E+03  0.12039326432E+04  0.15353009803E+04  0.17200000000E+03 0. -1.
         -6    1    1    2    0  501  0.83809570764E+03  0.41917403955E+03  0.59817498695E+01  0.95274921775E+03  0.17200000000E+03 0.  1.
</event>
<event>
 4    1  0.3094855E-002  0.1947762E+03  0.7818608E-02  0.1154223E+00
          2   -1    0    0  502    0  0.00000000000E+00  0.00000000000E+00  0.85177164877E+03  0.85177164877E+03  0.00000000000E+00 0. -1.
         -2   -1    0    0    0  501 -0.00000000000E+00 -0.00000000000E+00 -0.79811581295E+02  0.79811581295E+02  0.00000000000E+00 0.  1.
          6    1    1    2  502    0  0.56702974669E+02 -0.71683492929E+02  0.69563091553E+03  0.72238502278E+03  0.17200000000E+03 0. -1.
         -6    1    1    2    0  501 -0.56702974669E+02  0.71683492929E+02  0.76329151945E+02  0.20919820729E+03  0.17200000000E+03 0.  1.
</event>
<event>
 4    1  0.3094855E-002  0.2098707E+03  0.7818608E-02  0.1141668E+00
          1   -1    0    0  502    0  0.00000000000E+00  0.00000000000E+00  0.72742776999E+03  0.72742776999E+03  0.00000000000E+00 0. -1.
         -1   -1    0    0    0  501 -0.00000000000E+00 -0.00000000000E+00 -0.67748525881E+02  0.67748525881E+02  0.00000000000E+00 0.  1.
          6    1    1    2  502    0  0.11604427047E+03 -0.31550254320E+02  0.45944045325E+03  0.50510515870E+03  0.17200000000E+03 0. -1.
         -6    1    1    2    0  501 -0.11604427047E+03  0.31550254320E+02  0.20023879085E+03  0.29007113717E+03  0.17200000000E+03 0.  1.
</event>
<event>
 4    1  0.3094855E-002  0.1776178E+03  0.7818608E-02  0.1170129E+00
          1   -1    0    0  502    0  0.00000000000E+00  0.00000000000E+00  0.14260718938E+03  0.14260718938E+03  0.00000000000E+00 0. -1.
         -1   -1    0    0    0  501 -0.00000000000E+00 -0.00000000000E+00 -0.29972078096E+03  0.29972078096E+03  0.00000000000E+00 0.  1.
          6    1    1    2  502    0  0.38058151859E+02 -0.22708016694E+02  0.34626669796E+02  0.18096155173E+03  0.17200000000E+03 0. -1.
         -6    1    1    2    0  501 -0.38058151859E+02  0.22708016694E+02 -0.19174026137E+03  0.26136641861E+03  0.17200000000E+03 0.  1.
</event>
<event>
 4    1  0.3094855E-002  0.1845548E+03  0.7818608E-02  0.1163466E+00
          1   -1    0    0  502    0  0.00000000000E+00  0.00000000000E+00  0.23046819083E+04  0.23046819083E+04  0.00000000000E+00 0. -1.
         -1   -1    0    0    0  501 -0.00000000000E+00 -0.00000000000E+00 -0.14896748243E+02  0.14896748243E+02  0.00000000000E+00 0.  1.
          6    1    1    2  502    0  0.60812897435E+02 -0.27897518179E+02  0.12480835122E+04  0.12616548393E+04  0.17200000000E+03 0. -1.
         -6    1    1    2    0  501 -0.60812897435E+02  0.27897518179E+02  0.10417016478E+04  0.10579238172E+04  0.17200000000E+03 0.  1.
</event>
<event>
 4    1  0.3094855E-002  0.2125178E+03  0.7818608E-02  0.1139588E+00
         -1   -1    0    0    0  501 -0.00000000000E+00  0.00000000000E+00  0.52182145547E+02  0.52182145547E+02  0.00000000000E+00 0.  1.
          1   -1    0    0  502    0  0.00000000000E+00 -0.00000000000E+00 -0.87762213851E+03  0.87762213851E+03  0.00000000000E+00 0. -1.
          6    1    1    2  502    0 -0.12082244007E+03  0.31333186817E+02 -0.46735039016E+03  0.51340064063E+03  0.17200000000E+03 0. -1.
         -6    1    1    2    0  501  0.12082244007E+03 -0.31333186817E+02 -0.35808960281E+03  0.41640364343E+03  0.17200000000E+03 0. -1.
</event>
<event>
 4    1  0.3094855E-002  0.2489394E+03  0.7818608E-02  0.1113977E+00
          2   -1    0    0  502    0  0.00000000000E+00  0.00000000000E+00  0.79147911748E+02  0.79147911748E+02  0.00000000000E+00 0. -1.
         -2   -1    0    0    0  501 -0.00000000000E+00 -0.00000000000E+00 -0.86892937634E+03  0.86892937634E+03  0.00000000000E+00 0.  1.
          6    1    1    2  502    0 -0.76717550956E+02 -0.16279199579E+03 -0.54398334736E+03  0.59823799505E+03  0.17200000000E+03 0. -1.
         -6    1    1    2    0  501  0.76717550956E+02  0.16279199579E+03 -0.24579811723E+03  0.34983929304E+03  0.17200000000E+03 0. -1.
</event>
<event>
 4    1  0.3094855E-002  0.1851217E+03  0.7818608E-02  0.1162936E+00
          1   -1    0    0  502    0  0.00000000000E+00  0.00000000000E+00  0.43111971926E+02  0.43111971926E+02  0.00000000000E+00 0. -1.
         -1   -1    0    0    0  501 -0.00000000000E+00 -0.00000000000E+00 -0.81052669404E+03  0.81052669404E+03  0.00000000000E+00 0.  1.
          6    1    1    2  502    0 -0.30232751538E+02  0.61416875398E+02 -0.32445814220E+03  0.37355473212E+03  0.17200000000E+03 0. -1.
         -6    1    1    2    0  501  0.30232751538E+02 -0.61416875398E+02 -0.44295657991E+03  0.48008393384E+03  0.17200000000E+03 0.  1.
</event>
<event>
 4    1  0.3094855E-002  0.3225795E+03  0.7818608E-02  0.1074468E+00
         -1   -1    0    0    0  501 -0.00000000000E+00  0.00000000000E+00  0.72853545091E+02  0.72853545091E+02  0.00000000000E+00 0.  1.
          1   -1    0    0  502    0  0.00000000000E+00 -0.00000000000E+00 -0.14765934073E+04  0.14765934073E+04  0.00000000000E+00 0. -1.
          6    1    1    2  502    0  0.72114108370E+02  0.26319778964E+03 -0.56177880253E+03  0.64780625504E+03  0.17200000000E+03 0.  1.
         -6    1    1    2    0  501 -0.72114108370E+02 -0.26319778964E+03 -0.84196105965E+03  0.90164069732E+03  0.17200000000E+03 0.  1.
</event>
<event>
 4    1  0.3094855E-002  0.2049218E+03  0.7818608E-02  0.1145652E+00
         -1   -1    0    0    0  501 -0.00000000000E+00  0.00000000000E+00  0.20663500040E+03  0.20663500040E+03  0.00000000000E+00 0.  1.
          1   -1    0    0  502    0  0.00000000000E+00 -0.00000000000E+00 -0.22105567059E+03  0.22105567059E+03  0.00000000000E+00 0. -1.
          6    1    1    2  502    0 -0.97738426934E+02 -0.53442855601E+02 -0.67948244945E+02  0.21589326739E+03  0.17200000000E+03 0. -1.
         -6    1    1    2    0  501  0.97738426934E+02  0.53442855601E+02  0.53527574755E+02  0.21179740360E+03  0.17200000000E+03 0.  1.
</event>
<event>
 4    1  0.3094855E-002  0.1950123E+03  0.7818608E-02  0.1154017E+00
          3   -1    0    0  502    0  0.00000000000E+00  0.00000000000E+00  0.16191456309E+03  0.16191456309E+03  0.00000000000E+00 0. -1.
         -3   -1    0    0    0  501 -0.00000000000E+00 -0.00000000000E+00 -0.35949131112E+03  0.35949131112E+03  0.00000000000E+00 0.  1.
          6    1    1    2  502    0  0.12989460138E+02  0.90978487282E+02 -0.25228109703E+03  0.31886605831E+03  0.17200000000E+03 0.  1.
         -6    1    1    2    0  501 -0.12989460138E+02 -0.90978487282E+02  0.54704349013E+02  0.20253981590E+03  0.17200000000E+03 0. -1.
</event>
<event>
 4    1  0.3094855E-002  0.2357448E+03  0.7818608E-02  0.1122660E+00
          1   -1    0    0  502    0  0.00000000000E+00  0.00000000000E+00  0.11166029024E+04  0.11166029024E+04  0.00000000000E+00 0. -1.
         -1   -1    0    0    0  501 -0.00000000000E+00 -0.00000000000E+00 -0.49782631559E+02  0.49782631559E+02  0.00000000000E+00 0.  1.
          6    1    1    2  502    0  0.16119235607E+03 -0.29351569066E+01  0.54192154038E+03  0.59097761948E+03  0.17200000000E+03 0. -1.
         -6    1    1    2    0  501 -0.16119235607E+03  0.29351569066E+01  0.52489873047E+03  0.57540791449E+03  0.17200000000E+03 0. -1.
</event>
<event>
 4    1  0.3094855E-002  0.2652492E+03  0.7818608E-02  0.1104030E+00
         -1   -1    0    0    0  501 -0.00000000000E+00  0.00000000000E+00  0.18160886308E+03  0.18160886308E+03  0.00000000000E+00 0.  1.
          1   -1    0    0  502    0  0.00000000000E+00 -0.00000000000E+00 -0.45204833792E+03  0.45204833792E+03  0.00000000000E+00 0. -1.
          6    1    1    2  502    0  0.20037716462E+03  0.24942325916E+02 -0.15414355875E+02  0.26569668814E+03  0.17200000000E+03 0.  1.
         -6    1    1    2    0  501 -0.20037716462E+03 -0.24942325916E+02 -0.25502511896E+03  0.36796051286E+03  0.17200000000E+03 0. -1.
</event>
<event>
 4    1  0.3094855E-002  0.1872748E+03  0.7818608E-02  0.1160943E+00
         -2   -1    0    0    0  501 -0.00000000000E+00  0.00000000000E+00  0.32462065832E+03  0.32462065832E+03  0.00000000000E+00 0.  1.
          2   -1    0    0  502    0  0.00000000000E+00 -0.00000000000E+00 -0.12113351474E+03  0.12113351474E+03  0.00000000000E+00 0. -1.
          6    1    1    2  502    0 -0.73886025545E+02 -0.53564063808E+01  0.17502106138E+03  0.25632832029E+03  0.17200000000E+03 0.  1.
         -6    1    1    2    0  501  0.73886025545E+02  0.53564063808E+01  0.28466082209E+02  0.18942585277E+03  0.17200000000E+03 0. -1.
</event>
<event>
 4    1  0.3094855E-002  0.7360164E+03  0.7818608E-02  0.9657547E-01
          2   -1    0    0  502    0  0.00000000000E+00  0.00000000000E+00  0.33639375361E+04  0.33639375361E+04  0.00000000000E+00 0. -1.
         -2   -1    0    0    0  501 -0.00000000000E+00 -0.00000000000E+00 -0.24042069147E+03  0.24042069147E+03  0.00000000000E+00 0.  1.
          6    1    1    2  502    0 -0.30464247270E+03 -0.64755625848E+03  0.25973208037E+04  0.26995917287E+04  0.17200000000E+03 0. -1.
         -6    1    1    2    0  501  0.30464247270E+03  0.64755625848E+03  0.52619604089E+03  0.90476649889E+03  0.17200000000E+03 0.  1.
</event>
<event>
 4    1  0.3094855E-002  0.1795444E+03  0.7818608E-02  0.1168245E+00
          1   -1    0    0  502    0  0.00000000000E+00  0.00000000000E+00  0.46525048101E+02  0.46525048101E+02  0.00000000000E+00 0. -1.
         -1   -1    0    0    0  501 -0.00000000000E+00 -0.00000000000E+00 -0.88393577105E+03  0.88393577105E+03  0.00000000000E+00 0.  1.
          6    1    1    2  502    0 -0.51464693758E+02  0.18940961059E+01 -0.20241378602E+03  0.27056892482E+03  0.17200000000E+03 0. -1.
         -6    1    1    2    0  501  0.51464693758E+02 -0.18940961059E+01 -0.63499693692E+03  0.65989189433E+03  0.17200000000E+03 0.  1.
</event>
<event>
 4    1  0.3094855E-002  0.2111017E+03  0.7818608E-02  0.1140697E+00
          2   -1    0    0  502    0  0.00000000000E+00  0.00000000000E+00  0.34431978303E+04  0.34431978303E+04  0.00000000000E+00 0. -1.
         -2   -1    0    0    0  501 -0.00000000000E+00 -0.00000000000E+00 -0.16327367298E+02  0.16327367298E+02  0.00000000000E+00 0.  1.
          6    1    1    2  502    0  0.19685166516E+02 -0.12079912680E+03  0.25010117901E+04  0.25099051594E+04  0.17200000000E+03 0. -1.
         -6    1    1    2    0  501 -0.19685166516E+02  0.12079912680E+03  0.92585867294E+03  0.94962003826E+03  0.17200000000E+03 0.  1.
</event>
<event>
 4    1  0.3094855E-002  0.1953204E+03  0.7818608E-02  0.1153748E+00
          1   -1    0    0  502    0  0.00000000000E+00  0.00000000000E+00  0.19112421392E+04  0.19112421392E+04  0.00000000000E+00 0. -1.
         -1   -1    0    0    0  501 -0.00000000000E+00 -0.00000000000E+00 -0.23164839687E+02  0.23164839687E+02  0.00000000000E+00 0.  1.
          6    1    1    2  502    0  0.35039718201E+02  0.85663728233E+02  0.13037444108E+04  0.13182941800E+04  0.17200000000E+03 0.  1.
         -6    1    1    2    0  501 -0.35039718201E+02 -0.85663728233E+02  0.58433288871E+03  0.61611279894E+03  0.17200000000E+03 0. -1.
</event>
<event>
 4    1  0.3094855E-002  0.2825015E+03  0.7818608E-02  0.1094330E+00
         -1   -1    0    0    0  501 -0.00000000000E+00  0.00000000000E+00  0.88836543673E+02  0.88836543673E+02  0.00000000000E+00 0.  1.
          1   -1    0    0  502    0  0.00000000000E+00 -0.00000000000E+00 -0.89937347587E+03  0.89937347587E+03  0.00000000000E+00 0. -1.
          6    1    1    2  502    0  0.21129056048E+03  0.74695182705E+02 -0.38867030910E+03  0.48049108258E+03  0.17200000000E+03 0.  1.
         -6    1    1    2    0  501 -0.21129056048E+03 -0.74695182705E+02 -0.42186662310E+03  0.50771893696E+03  0.17200000000E+03 0.  1.
</event>
<event>
 4    1  0.3094855E-002  0.1908572E+03  0.7818608E-02  0.1157690E+00
         -1   -1    0    0    0  501 -0.00000000000E+00  0.00000000000E+00  0.27912498373E+03  0.27912498373E+03  0.00000000000E+00 0.  1.
          1   -1    0    0  502    0  0.00000000000E+00 -0.00000000000E+00 -0.36126617584E+03  0.36126617584E+03  0.00000000000E+00 0. -1.
          6    1    1    2  502    0 -0.82161406844E+02  0.95908510358E+01 -0.29697955876E+03  0.35302031035E+03  0.17200000000E+03 0. -1.
         -6    1    1    2    0  501  0.82161406844E+02 -0.95908510358E+01  0.21483836664E+03  0.28737084922E+03  0.17200000000E+03 0.  1.
</event>
<event>
 4    1  0.3094855E-002  0.1950378E+03  0.7818608E-02  0.1153994E+00
          2   -1    0    0  502    0  0.00000000000E+00  0.00000000000E+00  0.74004454361E+03  0.74004454361E+03  0.00000000000E+00 0. -1.
         -2   -1    0    0    0  501 -0.00000000000E+00 -0.00000000000E+00 -0.10668253996E+03  0.10668253996E+03  0.00000000000E+00 0.  1.
          6    1    1    2  502    0  0.26456558807E+02  0.88066883861E+02  0.62143762618E+03  0.65132514827E+03  0.17200000000E+03 0. -1.
         -6    1    1    2    0  501 -0.26456558807E+02 -0.88066883861E+02  0.11924377468E+02  0.19540193529E+03  0.17200000000E+03 0.  1.
</event>
<event>
 4    1  0.3094855E-002  0.3551843E+03  0.7818608E-02  0.1060507E+00
          2   -1    0    0  502    0  0.00000000000E+00  0.00000000000E+00  0.77011802644E+03  0.77011802644E+03  0.00000000000E+00 0. -1.
         -2   -1    0    0    0  501 -0.00000000000E+00 -0.00000000000E+00 -0.21519459887E+03  0.21519459887E+03  0.00000000000E+00 0.  1.
          6    1    1    2  502    0 -0.27621752104E+03 -0.14239296291E+03  0.51819118630E+03  0.62823401720E+03  0.17200000000E+03 0. -1.
         -6    1    1    2    0  501  0.27621752104E+03  0.14239296291E+03  0.36732241269E+02  0.35707860810E+03  0.17200000000E+03 0.  1.
</event>
<event>
 4    1  0.3094855E-002  0.2566388E+03  0.7818608E-02  0.1109180E+00
          2   -1    0    0  502    0  0.00000000000E+00  0.00000000000E+00  0.13412226902E+03  0.13412226902E+03  0.00000000000E+00 0. -1.
         -2   -1    0    0    0  501 -0.00000000000E+00 -0.00000000000E+00 -0.49107425059E+03  0.49107425059E+03  0.00000000000E+00 0.  1.
          6    1    1    2  502    0 -0.10233453348E+02  0.19019659825E+03 -0.17759495505E+03  0.31209523804E+03  0.17200000000E+03 0. -1.
         -6    1    1    2    0  501  0.10233453348E+02 -0.19019659825E+03 -0.17935702652E+03  0.31310128156E+03  0.17200000000E+03 0. -1.
</event>
<event>
 4    1  0.3094855E-002  0.1914826E+03  0.7818608E-02  0.1157131E+00
          1   -1    0    0  502    0  0.00000000000E+00  0.00000000000E+00  0.97615928490E+03  0.97615928490E+03  0.00000000000E+00 0. -1.
         -1   -1    0    0    0  501 -0.00000000000E+00 -0.00000000000E+00 -0.44279638188E+02  0.44279638188E+02  0.00000000000E+00 0.  1.
          6    1    1    2  502    0 -0.35403430523E+02  0.76342472635E+02  0.66468368504E+03  0.69171524284E+03  0.17200000000E+03 0. -1.
         -6    1    1    2    0  501  0.35403430523E+02 -0.76342472635E+02  0.26719596167E+03  0.32872368024E+03  0.17200000000E+03 0.  1.
</event>
<event>
 4    1  0.3094855E-002  0.1734113E+03  0.7818608E-02  0.1174336E+00
         -2   -1    0    0    0  501 -0.00000000000E+00  0.00000000000E+00  0.52463853372E+02  0.52463853372E+02  0.00000000000E+00 0.  1.
          2   -1    0    0  502    0  0.00000000000E+00 -0.00000000000E+00 -0.64457892782E+03  0.64457892782E+03  0.00000000000E+00 0. -1.
          6    1    1    2  502    0 -0.33303476895E+01  0.21826278861E+02 -0.41204818114E+03  0.44705165389E+03  0.17200000000E+03 0. -1.
         -6    1    1    2    0  501  0.33303476895E+01 -0.21826278861E+02 -0.18006689331E+03  0.24999112730E+03  0.17200000000E+03 0.  1.
</event>
<event>
 4    1  0.3094855E-002  0.2730319E+03  0.7818608E-02  0.1099557E+00
          2   -1    0    0  502    0  0.00000000000E+00  0.00000000000E+00  0.18001600527E+03  0.18001600527E+03  0.00000000000E+00 0. -1.
         -2   -1    0    0    0  501 -0.00000000000E+00 -0.00000000000E+00 -0.42217335904E+03  0.42217335904E+03  0.00000000000E+00 0.  1.
          6    1    1    2  502    0  0.10797741055E+03  0.18249189166E+03 -0.79466723734E+02  0.28436134036E+03  0.17200000000E+03 0. -1.
         -6    1    1    2    0  501 -0.10797741055E+03 -0.18249189166E+03 -0.16269063004E+03  0.31782802396E+03  0.17200000000E+03 0. -1.
</event>
<event>
 4    1  0.3094855E-002  0.2003597E+03  0.7818608E-02  0.1149436E+00
          1   -1    0    0  502    0  0.00000000000E+00  0.00000000000E+00  0.97064570640E+02  0.97064570640E+02  0.00000000000E+00 0. -1.
         -1   -1    0    0    0  501 -0.00000000000E+00 -0.00000000000E+00 -0.41391954610E+03  0.41391954610E+03  0.00000000000E+00 0.  1.
          6    1    1    2  502    0  0.27297793808E+02  0.99069911657E+02 -0.15111564000E+03  0.25095807139E+03  0.17200000000E+03 0. -1.
         -6    1    1    2    0  501 -0.27297793808E+02 -0.99069911657E+02 -0.16573933546E+03  0.26002604535E+03  0.17200000000E+03 0. -1.
</event>
<event>
 4    1  0.3094855E-002  0.2013851E+03  0.7818608E-02  0.1148576E+00
          1   -1    0    0  502    0  0.00000000000E+00  0.00000000000E+00  0.21985352513E+03  0.21985352513E+03  0.00000000000E+00 0. -1.
         -1   -1    0    0    0  501 -0.00000000000E+00 -0.00000000000E+00 -0.18649333823E+03  0.18649333823E+03  0.00000000000E+00 0.  1.
          6    1    1    2  502    0  0.31672517694E+02 -0.99843922995E+02  0.37852762847E+02  0.20491166143E+03  0.17200000000E+03 0. -1.
         -6    1    1    2    0  501 -0.31672517694E+02  0.99843922995E+02 -0.44925759467E+01  0.20143520193E+03  0.17200000000E+03 0.  1.
</event>
<event>
 4    1  0.3094855E-002  0.6831520E+03  0.7818608E-02  0.9746486E-01
         -2   -1    0    0    0  501 -0.00000000000E+00  0.00000000000E+00  0.28848852934E+03  0.28848852934E+03  0.00000000000E+00 0.  1.
          2   -1    0    0  502    0  0.00000000000E+00 -0.00000000000E+00 -0.16195771461E+04  0.16195771461E+04  0.00000000000E+00 0. -1.
          6    1    1    2  502    0  0.64585682549E+03  0.14135658493E+03 -0.69775810965E+03  0.97650555693E+03  0.17200000000E+03 0. -1.
         -6    1    1    2    0  501 -0.64585682549E+03 -0.14135658493E+03 -0.63333050711E+03  0.93156011850E+03  0.17200000000E+03 0.  1.
</event>
<event>
 4    1  0.3094855E-002  0.3729822E+03  0.7818608E-02  0.1053558E+00
          2   -1    0    0  502    0  0.00000000000E+00  0.00000000000E+00  0.56875526579E+02  0.56875526579E+02  0.00000000000E+00 0. -1.
         -2   -1    0    0    0  501 -0.00000000000E+00 -0.00000000000E+00 -0.24744555391E+04  0.24744555391E+04  0.00000000000E+00 0.  1.
          6    1    1    2  502    0  0.27456419507E+03 -0.18478687670E+03 -0.10729865742E+04  0.11359647334E+04  0.17200000000E+03 0. -1.
         -6    1    1    2    0  501 -0.27456419507E+03  0.18478687670E+03 -0.13445934383E+04  0.13953663323E+04  0.17200000000E+03 0.  1.
</event>
<event>
 4    1  0.3094855E-002  0.1866445E+03  0.7818608E-02  0.1161523E+00
         -1   -1    0    0    0  501 -0.00000000000E+00  0.00000000000E+00  0.25358432886E+03  0.25358432886E+03  0.00000000000E+00 0.  1.
          1   -1    0    0  502    0  0.00000000000E+00 -0.00000000000E+00 -0.15261513240E+03  0.15261513240E+03  0.00000000000E+00 0. -1.
          6    1    1    2  502    0  0.55126042096E+02  0.47045647148E+02 -0.13695953054E+02  0.18714633997E+03  0.17200000000E+03 0. -1.
         -6    1    1    2    0  501 -0.55126042096E+02 -0.47045647148E+02  0.11466514951E+03  0.21905312129E+03  0.17200000000E+03 0.  1.
</event>
<event>
 4    1  0.3094855E-002  0.1741592E+03  0.7818608E-02  0.1173579E+00
          2   -1    0    0  502    0  0.00000000000E+00  0.00000000000E+00  0.76369037310E+03  0.76369037310E+03  0.00000000000E+00 0. -1.
         -2   -1    0    0    0  501 -0.00000000000E+00 -0.00000000000E+00 -0.66387461078E+02  0.66387461078E+02  0.00000000000E+00 0.  1.
          6    1    1    2  502    0  0.18052795526E+02 -0.20531138008E+02  0.61171561839E+03  0.63602470772E+03  0.17200000000E+03 0. -1.
         -6    1    1    2    0  501 -0.18052795526E+02  0.20531138008E+02  0.85587293629E+02  0.19405312645E+03  0.17200000000E+03 0.  1.
</event>
<event>
 4    1  0.3094855E-002  0.1739575E+03  0.7818608E-02  0.1173783E+00
         -4   -1    0    0    0  501 -0.00000000000E+00  0.00000000000E+00  0.12853432215E+03  0.12853432215E+03  0.00000000000E+00 0.  1.
          4   -1    0    0  502    0  0.00000000000E+00 -0.00000000000E+00 -0.56448927603E+03  0.56448927603E+03  0.00000000000E+00 0. -1.
          6    1    1    2  502    0 -0.25111081961E+02  0.68293097826E+01 -0.48253818640E+03  0.51293694275E+03  0.17200000000E+03 0. -1.
         -6    1    1    2    0  501  0.25111081961E+02 -0.68293097826E+01  0.46583232522E+02  0.18008665542E+03  0.17200000000E+03 0.  1.
</event>
<event>
 4    1  0.3094855E-002  0.1734375E+03  0.7818608E-02  0.1174310E+00
         -2   -1    0    0    0  501 -0.00000000000E+00  0.00000000000E+00  0.67939651675E+01  0.67939651675E+01  0.00000000000E+00 0.  1.
          2   -1    0    0  502    0  0.00000000000E+00 -0.00000000000E+00 -0.47636326050E+04  0.47636326050E+04  0.00000000000E+00 0. -1.
          6    1    1    2  502    0  0.18186293284E+02  0.12877394120E+02 -0.30119768345E+04  0.30169661947E+04  0.17200000000E+03 0. -1.
         -6    1    1    2    0  501 -0.18186293284E+02 -0.12877394120E+02 -0.17448618054E+04  0.17534603755E+04  0.17200000000E+03 0.  1.
</event>
<event>
 4    1  0.3094855E-002  0.1760824E+03  0.7818608E-02  0.1171649E+00
         -2   -1    0    0    0  501 -0.00000000000E+00  0.00000000000E+00  0.24539060023E+02  0.24539060023E+02  0.00000000000E+00 0.  1.
          2   -1    0    0  502    0  0.00000000000E+00 -0.00000000000E+00 -0.12752879716E+04  0.12752879716E+04  0.00000000000E+00 0. -1.
          6    1    1    2  502    0 -0.17023403894E+02  0.33633804572E+02 -0.68786667635E+03  0.71004619112E+03  0.17200000000E+03 0. -1.
         -6    1    1    2    0  501  0.17023403894E+02 -0.33633804572E+02 -0.56288223522E+03  0.58978084050E+03  0.17200000000E+03 0.  1.
</event>
<event>
 4    1  0.3094855E-002  0.2032575E+03  0.7818608E-02  0.1147019E+00
          1   -1    0    0  502    0  0.00000000000E+00  0.00000000000E+00  0.25755540191E+03  0.25755540191E+03  0.00000000000E+00 0. -1.
         -1   -1    0    0    0  501 -0.00000000000E+00 -0.00000000000E+00 -0.19103081010E+03  0.19103081010E+03  0.00000000000E+00 0.  1.
          6    1    1    2  502    0  0.10786667004E+03  0.97145922916E+01 -0.56541876181E+02  0.21097529611E+03  0.17200000000E+03 0. -1.
         -6    1    1    2    0  501 -0.10786667004E+03 -0.97145922916E+01  0.12306646799E+03  0.23761091589E+03  0.17200000000E+03 0.  1.
</event>
<event>
 4    1  0.3094855E-002  0.2145253E+03  0.7818608E-02  0.1138032E+00
         -2   -1    0    0    0  501 -0.00000000000E+00  0.00000000000E+00  0.43402253244E+03  0.43402253244E+03  0.00000000000E+00 0.  1.
          2   -1    0    0  502    0  0.00000000000E+00 -0.00000000000E+00 -0.13371584061E+03  0.13371584061E+03  0.00000000000E+00 0. -1.
          6    1    1    2  502    0 -0.74915081168E+02  0.10404248964E+03  0.20994261019E+02  0.21555015201E+03  0.17200000000E+03 0. -1.
         -6    1    1    2    0  501  0.74915081168E+02 -0.10404248964E+03  0.27931243080E+03  0.35218822104E+03  0.17200000000E+03 0.  1.
</event>
<event>
 4    1  0.3094855E-002  0.2869854E+03  0.7818608E-02  0.1091934E+00
         -2   -1    0    0    0  501 -0.00000000000E+00  0.00000000000E+00  0.22573628532E+03  0.22573628532E+03  0.00000000000E+00 0.  1.
          2   -1    0    0  502    0  0.00000000000E+00 -0.00000000000E+00 -0.46781727861E+03  0.46781727861E+03  0.00000000000E+00 0. -1.
          6    1    1    2  502    0 -0.76240679118E+02 -0.21671174289E+03 -0.28372815767E+03  0.40356200033E+03  0.17200000000E+03 0. -1.
         -6    1    1    2    0  501  0.76240679118E+02  0.21671174289E+03  0.41647164380E+02  0.28999156360E+03  0.17200000000E+03 0.  1.
</event>
<event>
 4    1  0.3094855E-002  0.2278278E+03  0.7818608E-02  0.1128178E+00
          1   -1    0    0  502    0  0.00000000000E+00  0.00000000000E+00  0.12222161084E+03  0.12222161084E+03  0.00000000000E+00 0. -1.
         -1   -1    0    0    0  501 -0.00000000000E+00 -0.00000000000E+00 -0.46013369548E+03  0.46013369548E+03  0.00000000000E+00 0.  1.
          6    1    1    2  502    0  0.46983618598E+02  0.14182391699E+03 -0.88134669525E+02  0.24428099357E+03  0.17200000000E+03 0. -1.
         -6    1    1    2    0  501 -0.46983618598E+02 -0.14182391699E+03 -0.24977741511E+03  0.33807431275E+03  0.17200000000E+03 0.  1.
</event>
<event>
 4    1  0.3094855E-002  0.1929400E+03  0.7818608E-02  0.1155836E+00
          2   -1    0    0  502    0  0.00000000000E+00  0.00000000000E+00  0.12706568195E+04  0.12706568195E+04  0.00000000000E+00 0. -1.
         -2   -1    0    0    0  501 -0.00000000000E+00 -0.00000000000E+00 -0.34342552014E+02  0.34342552014E+02  0.00000000000E+00 0.  1.
          6    1    1    2  502    0 -0.78775544412E+02  0.37898147053E+02  0.86827107913E+03  0.88944956170E+03  0.17200000000E+03 0. -1.
         -6    1    1    2    0  501  0.78775544412E+02 -0.37898147053E+02  0.36804318838E+03  0.41554980984E+03  0.17200000000E+03 0.  1.
</event>
<event>
 4    1  0.3094855E-002  0.2834161E+03  0.7818608E-02  0.1093838E+00
          2   -1    0    0  502    0  0.00000000000E+00  0.00000000000E+00  0.37866095455E+03  0.37866095455E+03  0.00000000000E+00 0. -1.
         -2   -1    0    0    0  501 -0.00000000000E+00 -0.00000000000E+00 -0.24092964920E+03  0.24092964920E+03  0.00000000000E+00 0.  1.
          6    1    1    2  502    0 -0.16008906570E+03 -0.15846823252E+03  0.17597723031E+03  0.33360556839E+03  0.17200000000E+03 0.  1.
         -6    1    1    2    0  501  0.16008906570E+03  0.15846823252E+03 -0.38245924962E+02  0.28598503536E+03  0.17200000000E+03 0.  1.
</event>
<event>
 4    1  0.3094855E-002  0.2293238E+03  0.7818608E-02  0.1127117E+00
         -2   -1    0    0    0  501 -0.00000000000E+00  0.00000000000E+00  0.16447732003E+03  0.16447732003E+03  0.00000000000E+00 0.  1.
          2   -1    0    0  502    0  0.00000000000E+00 -0.00000000000E+00 -0.34175770196E+03  0.34175770196E+03  0.00000000000E+00 0. -1.
          6    1    1    2  502    0  0.37746128844E+02  0.14690347876E+03 -0.15289173446E+03  0.27561800518E+03  0.17200000000E+03 0. -1.
         -6    1    1    2    0  501 -0.37746128844E+02 -0.14690347876E+03 -0.24388647469E+02  0.23061701681E+03  0.17200000000E+03 0.  1.
</event>
<event>
 4    1  0.3094855E-002  0.2140709E+03  0.7818608E-02  0.1138382E+00
          2   -1    0    0  502    0  0.00000000000E+00  0.00000000000E+00  0.92275223667E+03  0.92275223667E+03  0.00000000000E+00 0. -1.
         -2   -1    0    0    0  501 -0.00000000000E+00 -0.00000000000E+00 -0.11443319591E+03  0.11443319591E+03  0.00000000000E+00 0.  1.
          6    1    1    2  502    0 -0.12303820661E+03  0.33225784177E+02  0.79431621465E+03  0.82265703782E+03  0.17200000000E+03 0. -1.
         -6    1    1    2    0  501  0.12303820661E+03 -0.33225784177E+02  0.14002826107E+02  0.21452839476E+03  0.17200000000E+03 0.  1.
</event>
<event>
 4    1  0.3094855E-002  0.2964061E+03  0.7818608E-02  0.1087051E+00
          2   -1    0    0  502    0  0.00000000000E+00  0.00000000000E+00  0.13846249261E+04  0.13846249261E+04  0.00000000000E+00 0. -1.
         -2   -1    0    0    0  501 -0.00000000000E+00 -0.00000000000E+00 -0.87295401412E+02  0.87295401412E+02  0.00000000000E+00 0.  1.
          6    1    1    2  502    0 -0.23853818590E+03  0.37041663532E+02  0.10332982875E+04  0.10749706516E+04  0.17200000000E+03 0. -1.
         -6    1    1    2    0  501  0.23853818590E+03 -0.37041663532E+02  0.26403123725E+03  0.39694967592E+03  0.17200000000E+03 0.  1.
</event>
<event>
 4    1  0.3094855E-002  0.2909000E+03  0.7818608E-02  0.1089880E+00
         -1   -1    0    0    0  501 -0.00000000000E+00  0.00000000000E+00  0.32093163560E+03  0.32093163560E+03  0.00000000000E+00 0.  1.
          1   -1    0    0  502    0  0.00000000000E+00 -0.00000000000E+00 -0.68852261175E+03  0.68852261175E+03  0.00000000000E+00 0. -1.
          6    1    1    2  502    0 -0.21710959975E+03  0.88894460680E+02 -0.58026727880E+03  0.64910162401E+03  0.17200000000E+03 0. -1.
         -6    1    1    2    0  501  0.21710959975E+03 -0.88894460680E+02  0.21267630265E+03  0.36035262335E+03  0.17200000000E+03 0.  1.
</event>
<event>
 4    1  0.3094855E-002  0.4553554E+03  0.7818608E-02  0.1026137E+00
         -2   -1    0    0    0  501 -0.00000000000E+00  0.00000000000E+00  0.39502871790E+03  0.39502871790E+03  0.00000000000E+00 0.  1.
          2   -1    0    0  502    0  0.00000000000E+00 -0.00000000000E+00 -0.61324800954E+03  0.61324800954E+03  0.00000000000E+00 0. -1.
          6    1    1    2  502    0 -0.34175887126E+03  0.24691178360E+03 -0.30046588225E+03  0.54555320672E+03  0.17200000000E+03 0. -1.
         -6    1    1    2    0  501  0.34175887126E+03 -0.24691178360E+03  0.82246590609E+02  0.46272352072E+03  0.17200000000E+03 0.  1.
</event>
<event>
 4    1  0.3094855E-002  0.2149393E+03  0.7818608E-02  0.1137713E+00
         -2   -1    0    0    0  501 -0.00000000000E+00  0.00000000000E+00  0.17935107445E+03  0.17935107445E+03  0.00000000000E+00 0.  1.
          2   -1    0    0  502    0  0.00000000000E+00 -0.00000000000E+00 -0.28523776773E+03  0.28523776773E+03  0.00000000000E+00 0. -1.
          6    1    1    2  502    0 -0.12881654626E+03 -0.46029646352E+01  0.19378918285E+02  0.21581110339E+03  0.17200000000E+03 0.  1.
         -6    1    1    2    0  501  0.12881654626E+03  0.46029646352E+01 -0.12526561156E+03  0.24877773878E+03  0.17200000000E+03 0. -1.
</event>
<event>
 4    1  0.3094855E-002  0.2072570E+03  0.7818608E-02  0.1143757E+00
         -1   -1    0    0    0  501 -0.00000000000E+00  0.00000000000E+00  0.77447922672E+02  0.77447922672E+02  0.00000000000E+00 0.  1.
          1   -1    0    0  502    0  0.00000000000E+00 -0.00000000000E+00 -0.57457773459E+03  0.57457773459E+03  0.00000000000E+00 0. -1.
          6    1    1    2  502    0  0.11248248050E+03  0.26817321434E+02 -0.30929888864E+03  0.37231878769E+03  0.17200000000E+03 0. -1.
         -6    1    1    2    0  501 -0.11248248050E+03 -0.26817321434E+02 -0.18783092328E+03  0.27970686958E+03  0.17200000000E+03 0.  1.
</event>
<event>
 4    1  0.3094855E-002  0.3570980E+03  0.7818608E-02  0.1059739E+00
         -1   -1    0    0    0  501 -0.00000000000E+00  0.00000000000E+00  0.20657985436E+03  0.20657985436E+03  0.00000000000E+00 0.  1.
          1   -1    0    0  502    0  0.00000000000E+00 -0.00000000000E+00 -0.62138180101E+03  0.62138180101E+03  0.00000000000E+00 0. -1.
          6    1    1    2  502    0 -0.30252490927E+03 -0.80085267155E+02 -0.17379318724E+03  0.39714360460E+03  0.17200000000E+03 0. -1.
         -6    1    1    2    0  501  0.30252490927E+03  0.80085267155E+02 -0.24100875942E+03  0.43081805076E+03  0.17200000000E+03 0. -1.
</event>
<event>
 4    1  0.3094855E-002  0.2059350E+03  0.7818608E-02  0.1144826E+00
          2   -1    0    0  502    0  0.00000000000E+00  0.00000000000E+00  0.13585509724E+04  0.13585509724E+04  0.00000000000E+00 0. -1.
         -2   -1    0    0    0  501 -0.00000000000E+00 -0.00000000000E+00 -0.37083122050E+02  0.37083122050E+02  0.00000000000E+00 0.  1.
          6    1    1    2  502    0 -0.54011594911E+02  0.99538794124E+02  0.93828761676E+03  0.96062108851E+03  0.17200000000E+03 0. -1.
         -6    1    1    2    0  501  0.54011594911E+02 -0.99538794124E+02  0.38318023355E+03  0.43501300590E+03  0.17200000000E+03 0.  1.
</event>
<event>
 4    1  0.3094855E-002  0.3213290E+03  0.7818608E-02  0.1075039E+00
          2   -1    0    0  502    0  0.00000000000E+00  0.00000000000E+00  0.21271500315E+04  0.21271500315E+04  0.00000000000E+00 0. -1.
         -2   -1    0    0    0  501 -0.00000000000E+00 -0.00000000000E+00 -0.52035610160E+02  0.52035610160E+02  0.00000000000E+00 0.  1.
          6    1    1    2  502    0 -0.41686326107E+02 -0.26819877110E+03  0.13199552871E+04  0.13585044316E+04  0.17200000000E+03 0. -1.
         -6    1    1    2    0  501  0.41686326107E+02  0.26819877110E+03  0.75515913424E+03  0.82068121011E+03  0.17200000000E+03 0.  1.
</event>
<event>
 4    1  0.3094855E-002  0.1784862E+03  0.7818608E-02  0.1169276E+00
         -1   -1    0    0    0  501 -0.00000000000E+00  0.00000000000E+00  0.67001522526E+03  0.67001522526E+03  0.00000000000E+00 0.  1.
          1   -1    0    0  502    0  0.00000000000E+00 -0.00000000000E+00 -0.48191474483E+02  0.48191474483E+02  0.00000000000E+00 0. -1.
          6    1    1    2  502    0  0.46475792644E+02  0.10645583220E+02  0.26938971297E+03  0.32315343909E+03  0.17200000000E+03 0.  1.
         -6    1    1    2    0  501 -0.46475792644E+02 -0.10645583220E+02  0.35243403780E+03  0.39505326065E+03  0.17200000000E+03 0. -1.
</event>
<event>
 4    1  0.3094855E-002  0.2270737E+03  0.7818608E-02  0.1128717E+00
          1   -1    0    0  502    0  0.00000000000E+00  0.00000000000E+00  0.34499124356E+03  0.34499124356E+03  0.00000000000E+00 0. -1.
         -1   -1    0    0    0  501 -0.00000000000E+00 -0.00000000000E+00 -0.16539500114E+03  0.16539500114E+03  0.00000000000E+00 0.  1.
          6    1    1    2  502    0 -0.11014717150E+03 -0.99227442856E+02  0.16900814257E+03  0.28306578222E+03  0.17200000000E+03 0. -1.
         -6    1    1    2    0  501  0.11014717150E+03  0.99227442856E+02  0.10588099850E+02  0.22732046249E+03  0.17200000000E+03 0.  1.
</event>
<event>
 4    1  0.3094855E-002  0.3948223E+03  0.7818608E-02  0.1045587E+00
          2   -1    0    0  502    0  0.00000000000E+00  0.00000000000E+00  0.17387463984E+04  0.17387463984E+04  0.00000000000E+00 0. -1.
         -2   -1    0    0    0  501 -0.00000000000E+00 -0.00000000000E+00 -0.10344107130E+03  0.10344107130E+03  0.00000000000E+00 0.  1.
          6    1    1    2  502    0  0.64540869348E+02  0.34947832464E+03  0.11539333357E+04  0.12196092679E+04  0.17200000000E+03 0. -1.
         -6    1    1    2    0  501 -0.64540869348E+02 -0.34947832464E+03  0.48137199149E+03  0.62257820184E+03  0.17200000000E+03 0.  1.
</event>
<event>
 4    1  0.3094855E-002  0.2444739E+03  0.7818608E-02  0.1116848E+00
         -2   -1    0    0    0  501 -0.00000000000E+00  0.00000000000E+00  0.19407074442E+03  0.19407074442E+03  0.00000000000E+00 0.  1.
          2   -1    0    0  502    0  0.00000000000E+00 -0.00000000000E+00 -0.36179991951E+03  0.36179991951E+03  0.00000000000E+00 0. -1.
          6    1    1    2  502    0  0.15708090789E+03 -0.74223257505E+02 -0.19107353372E+03  0.31028470615E+03  0.17200000000E+03 0. -1.
         -6    1    1    2    0  501 -0.15708090789E+03  0.74223257505E+02  0.23344358637E+02  0.24558595778E+03  0.17200000000E+03 0.  1.
</event>
<event>
 4    1  0.3094855E-002  0.4405536E+03  0.7818608E-02  0.1030577E+00
          1   -1    0    0  502    0  0.00000000000E+00  0.00000000000E+00  0.10307431795E+04  0.10307431795E+04  0.00000000000E+00 0. -1.
         -1   -1    0    0    0  501 -0.00000000000E+00 -0.00000000000E+00 -0.18916182558E+03  0.18916182558E+03  0.00000000000E+00 0.  1.
          6    1    1    2  502    0  0.18815060805E+03  0.35930879257E+03  0.37958560495E+03  0.58152617414E+03  0.17200000000E+03 0. -1.
         -6    1    1    2    0  501 -0.18815060805E+03 -0.35930879257E+03  0.46199574897E+03  0.63837883094E+03  0.17200000000E+03 0.  1.
</event>
<event>
 4    1  0.3094855E-002  0.1895333E+03  0.7818608E-02  0.1158883E+00
         -1   -1    0    0    0  501 -0.00000000000E+00  0.00000000000E+00  0.96279980307E+03  0.96279980307E+03  0.00000000000E+00 0.  1.
          1   -1    0    0  502    0  0.00000000000E+00 -0.00000000000E+00 -0.37640444324E+02  0.37640444324E+02  0.00000000000E+00 0. -1.
          6    1    1    2  502    0 -0.77795227426E+02 -0.16934541456E+02  0.41577107914E+03  0.45693376583E+03  0.17200000000E+03 0. -1.
         -6    1    1    2    0  501  0.77795227426E+02  0.16934541456E+02  0.50938827961E+03  0.54350648157E+03  0.17200000000E+03 0.  1.
</event>
<event>
 4    1  0.3094855E-002  0.2358704E+03  0.7818608E-02  0.1122575E+00
         -2   -1    0    0    0  501 -0.00000000000E+00  0.00000000000E+00  0.17318947353E+03  0.17318947353E+03  0.00000000000E+00 0.  1.
          2   -1    0    0  502    0  0.00000000000E+00 -0.00000000000E+00 -0.32397477972E+03  0.32397477972E+03  0.00000000000E+00 0. -1.
          6    1    1    2  502    0  0.88415368368E+02  0.13503168962E+03 -0.98244871234E+02  0.25551299241E+03  0.17200000000E+03 0. -1.
         -6    1    1    2    0  501 -0.88415368368E+02 -0.13503168962E+03 -0.52540434958E+02  0.24165126085E+03  0.17200000000E+03 0.  1.
</event>
<event>
 4    1  0.3094855E-002  0.5757675E+03  0.7818608E-02  0.9956997E-01
         -1   -1    0    0    0  501 -0.00000000000E+00  0.00000000000E+00  0.75286620145E+03  0.75286620145E+03  0.00000000000E+00 0.  1.
          1   -1    0    0  502    0  0.00000000000E+00 -0.00000000000E+00 -0.51488355077E+03  0.51488355077E+03  0.00000000000E+00 0. -1.
          6    1    1    2  502    0 -0.53134591114E+03 -0.13998488836E+03 -0.12221480129E+03  0.58859553508E+03  0.17200000000E+03 0. -1.
         -6    1    1    2    0  501  0.53134591114E+03  0.13998488836E+03  0.36019745197E+03  0.67915421714E+03  0.17200000000E+03 0.  1.
</event>
<event>
 4    1  0.3094855E-002  0.1964260E+03  0.7818608E-02  0.1152790E+00
         -2   -1    0    0    0  501 -0.00000000000E+00  0.00000000000E+00  0.11247257308E+04  0.11247257308E+04  0.00000000000E+00 0.  1.
          2   -1    0    0  502    0  0.00000000000E+00 -0.00000000000E+00 -0.63308154897E+02  0.63308154897E+02  0.00000000000E+00 0. -1.
          6    1    1    2  502    0  0.88292162269E+02  0.34693870485E+02  0.12864472474E+03  0.23480339812E+03  0.17200000000E+03 0. -1.
         -6    1    1    2    0  501 -0.88292162269E+02 -0.34693870485E+02  0.93277285114E+03  0.95323048755E+03  0.17200000000E+03 0.  1.
</event>
<event>
 4    1  0.3094855E-002  0.8577183E+03  0.7818608E-02  0.9480036E-01
         -2   -1    0    0    0  501 -0.00000000000E+00  0.00000000000E+00  0.10042517623E+04  0.10042517623E+04  0.00000000000E+00 0.  1.
          2   -1    0    0  502    0  0.00000000000E+00 -0.00000000000E+00 -0.94478750110E+03  0.94478750110E+03  0.00000000000E+00 0. -1.
          6    1    1    2  502    0  0.70127787389E+03  0.46293190300E+03 -0.43213633219E+03  0.96042824449E+03  0.17200000000E+03 0. -1.
         -6    1    1    2    0  501 -0.70127787389E+03 -0.46293190300E+03  0.49160059335E+03  0.98861101886E+03  0.17200000000E+03 0.  1.
</event>
<event>
 4    1  0.3094855E-002  0.2187504E+03  0.7818608E-02  0.1134818E+00
          1   -1    0    0  502    0  0.00000000000E+00  0.00000000000E+00  0.35193357266E+03  0.35193357266E+03  0.00000000000E+00 0. -1.
         -1   -1    0    0    0  501 -0.00000000000E+00 -0.00000000000E+00 -0.13608144635E+03  0.13608144635E+03  0.00000000000E+00 0.  1.
          6    1    1    2  502    0 -0.12019344621E+03  0.61816569206E+02  0.10088507203E+03  0.24089323464E+03  0.17200000000E+03 0. -1.
         -6    1    1    2    0  501  0.12019344621E+03 -0.61816569206E+02  0.11496705428E+03  0.24712178437E+03  0.17200000000E+03 0.  1.
</event>
<event>
 4    1  0.3094855E-002  0.1874664E+03  0.7818608E-02  0.1160767E+00
          1   -1    0    0  502    0  0.00000000000E+00  0.00000000000E+00  0.19620758209E+03  0.19620758209E+03  0.00000000000E+00 0. -1.
         -1   -1    0    0    0  501 -0.00000000000E+00 -0.00000000000E+00 -0.19388465341E+03  0.19388465341E+03  0.00000000000E+00 0.  1.
          6    1    1    2  502    0  0.36129168652E+02  0.65225244354E+02  0.54995398699E+02  0.19536668909E+03  0.17200000000E+03 0. -1.
         -6    1    1    2    0  501 -0.36129168652E+02 -0.65225244354E+02 -0.52672470020E+02  0.19472554642E+03  0.17200000000E+03 0.  1.
</event>
<event>
 4    1  0.3094855E-002  0.1891987E+03  0.7818608E-02  0.1159186E+00
         -2   -1    0    0    0  501 -0.00000000000E+00  0.00000000000E+00  0.78660524578E+02  0.78660524578E+02  0.00000000000E+00 0.  1.
          2   -1    0    0  502    0  0.00000000000E+00 -0.00000000000E+00 -0.61563678357E+03  0.61563678357E+03  0.00000000000E+00 0. -1.
          6    1    1    2  502    0  0.47654185660E+02 -0.62779308657E+02 -0.44577600232E+03  0.48426481108E+03  0.17200000000E+03 0. -1.
         -6    1    1    2    0  501 -0.47654185660E+02  0.62779308657E+02 -0.91200256669E+02  0.21003249706E+03  0.17200000000E+03 0.  1.
</event>
<event>
 4    1  0.3094855E-002  0.3911165E+03  0.7818608E-02  0.1046900E+00
          2   -1    0    0  502    0  0.00000000000E+00  0.00000000000E+00  0.61863848231E+03  0.61863848231E+03  0.00000000000E+00 0. -1.
         -2   -1    0    0    0  501 -0.00000000000E+00 -0.00000000000E+00 -0.28141467102E+03  0.28141467102E+03  0.00000000000E+00 0.  1.
          6    1    1    2  502    0 -0.21492692767E+03 -0.27783899281E+03  0.32536364025E+03  0.50875690517E+03  0.17200000000E+03 0. -1.
         -6    1    1    2    0  501  0.21492692767E+03  0.27783899281E+03  0.11860171036E+02  0.39129624816E+03  0.17200000000E+03 0.  1.
</event>
<event>
 4    1  0.3094855E-002  0.1991338E+03  0.7818608E-02  0.1150472E+00
         -2   -1    0    0    0  501 -0.00000000000E+00  0.00000000000E+00  0.13440517467E+03  0.13440517467E+03  0.00000000000E+00 0.  1.
          2   -1    0    0  502    0  0.00000000000E+00 -0.00000000000E+00 -0.29637343783E+03  0.29637343783E+03  0.00000000000E+00 0. -1.
          6    1    1    2  502    0 -0.51652583483E+02  0.86036478586E+02 -0.95457251834E+02  0.22083104844E+03  0.17200000000E+03 0.  1.
         -6    1    1    2    0  501  0.51652583483E+02 -0.86036478586E+02 -0.66511011317E+02  0.20994756406E+03  0.17200000000E+03 0. -1.
</event>
<event>
 4    1  0.3094855E-002  0.2346487E+03  0.7818608E-02  0.1123410E+00
          2   -1    0    0  502    0  0.00000000000E+00  0.00000000000E+00  0.12140426721E+03  0.12140426721E+03  0.00000000000E+00 0. -1.
         -2   -1    0    0    0  501 -0.00000000000E+00 -0.00000000000E+00 -0.45605867498E+03  0.45605867498E+03  0.00000000000E+00 0.  1.
          6    1    1    2  502    0  0.13602381571E+03 -0.83507673156E+02 -0.14581124908E+03  0.27626243008E+03  0.17200000000E+03 0. -1.
         -6    1    1    2    0  501 -0.13602381571E+03  0.83507673156E+02 -0.18884315869E+03  0.30120051212E+03  0.17200000000E+03 0.  1.
</event>
<event>
 4    1  0.3094855E-002  0.1778139E+03  0.7818608E-02  0.1169936E+00
         -3   -1    0    0    0  501 -0.00000000000E+00  0.00000000000E+00  0.12881017212E+03  0.12881017212E+03  0.00000000000E+00 0.  1.
          3   -1    0    0  502    0  0.00000000000E+00 -0.00000000000E+00 -0.27354284109E+03  0.27354284109E+03  0.00000000000E+00 0. -1.
          6    1    1    2  502    0 -0.34105913088E+01  0.44968528128E+02 -0.13682506634E+03  0.22436332016E+03  0.17200000000E+03 0. -1.
         -6    1    1    2    0  501  0.34105913088E+01 -0.44968528128E+02 -0.79076026308E+01  0.17798969306E+03  0.17200000000E+03 0.  1.
</event>
<event>
 4    1  0.3094855E-002  0.3353637E+03  0.7818608E-02  0.1068788E+00
         -1   -1    0    0    0  501 -0.00000000000E+00  0.00000000000E+00  0.60641023381E+03  0.60641023381E+03  0.00000000000E+00 0.  1.
          1   -1    0    0  502    0  0.00000000000E+00 -0.00000000000E+00 -0.40005709799E+03  0.40005709799E+03  0.00000000000E+00 0. -1.
          6    1    1    2  502    0 -0.10967812742E+03  0.26618698806E+03 -0.26538836151E+03  0.42766784620E+03  0.17200000000E+03 0. -1.
         -6    1    1    2    0  501  0.10967812742E+03 -0.26618698806E+03  0.47174149733E+03  0.57879948561E+03  0.17200000000E+03 0.  1.
</event>
<event>
 4    1  0.3094855E-002  0.3841681E+03  0.7818608E-02  0.1049404E+00
         -1   -1    0    0    0  501 -0.00000000000E+00  0.00000000000E+00  0.78149491280E+03  0.78149491280E+03  0.00000000000E+00 0.  1.
          1   -1    0    0  502    0  0.00000000000E+00 -0.00000000000E+00 -0.25302076998E+03  0.25302076998E+03  0.00000000000E+00 0. -1.
          6    1    1    2  502    0  0.16360727254E+03 -0.30204925574E+03  0.37425571050E+01  0.38418628197E+03  0.17200000000E+03 0.  1.
         -6    1    1    2    0  501 -0.16360727254E+03  0.30204925574E+03  0.52473158571E+03  0.65032940081E+03  0.17200000000E+03 0.  1.
</event>
<event>
 4    1  0.3094855E-002  0.4700888E+03  0.7818608E-02  0.1021895E+00
          1   -1    0    0  502    0  0.00000000000E+00  0.00000000000E+00  0.97261935974E+03  0.97261935974E+03  0.00000000000E+00 0. -1.
         -1   -1    0    0    0  501 -0.00000000000E+00 -0.00000000000E+00 -0.24000589047E+03  0.24000589047E+03  0.00000000000E+00 0.  1.
          6    1    1    2  502    0 -0.11934537940E+03  0.42089923715E+03  0.50633456873E+03  0.69091112518E+03  0.17200000000E+03 0. -1.
         -6    1    1    2    0  501  0.11934537940E+03 -0.42089923715E+03  0.22627890054E+03  0.52171412502E+03  0.17200000000E+03 0.  1.
</event>
<event>
 4    1  0.3094855E-002  0.2080735E+03  0.7818608E-02  0.1143101E+00
          1   -1    0    0  502    0  0.00000000000E+00  0.00000000000E+00  0.79851611597E+02  0.79851611597E+02  0.00000000000E+00 0. -1.
         -1   -1    0    0    0  501 -0.00000000000E+00 -0.00000000000E+00 -0.54335950539E+03  0.54335950539E+03  0.00000000000E+00 0.  1.
          6    1    1    2  502    0 -0.53218433997E+02  0.10429956495E+03 -0.21728629631E+03  0.30084536814E+03  0.17200000000E+03 0. -1.
         -6    1    1    2    0  501  0.53218433997E+02 -0.10429956495E+03 -0.24622159748E+03  0.32236574885E+03  0.17200000000E+03 0. -1.
</event>
<event>
 4    1  0.3094855E-002  0.1753569E+03  0.7818608E-02  0.1172374E+00
         -2   -1    0    0    0  501 -0.00000000000E+00  0.00000000000E+00  0.12021587156E+02  0.12021587156E+02  0.00000000000E+00 0.  1.
          2   -1    0    0  502    0  0.00000000000E+00 -0.00000000000E+00 -0.26217284689E+04  0.26217284689E+04  0.00000000000E+00 0. -1.
          6    1    1    2  502    0  0.26406695786E+02  0.21650188137E+02 -0.10993824868E+04  0.11132797926E+04  0.17200000000E+03 0.  1.
         -6    1    1    2    0  501 -0.26406695786E+02 -0.21650188137E+02 -0.15103243949E+04  0.15204702635E+04  0.17200000000E+03 0. -1.
</event>
<event>
 4    1  0.3094855E-002  0.9321939E+03  0.7818608E-02  0.9386209E-01
         -4   -1    0    0    0  501 -0.00000000000E+00  0.00000000000E+00  0.14440744367E+04  0.14440744367E+04  0.00000000000E+00 0.  1.
          4   -1    0    0  502    0  0.00000000000E+00 -0.00000000000E+00 -0.80046080404E+03  0.80046080404E+03  0.00000000000E+00 0. -1.
          6    1    1    2  502    0  0.30157298517E+03 -0.86513302075E+03 -0.23734125767E+03  0.96193361599E+03  0.17200000000E+03 0. -1.
         -6    1    1    2    0  501 -0.30157298517E+03  0.86513302075E+03  0.88095489028E+03  0.12826016247E+04  0.17200000000E+03 0.  1.
</event>
<event>
 4    1  0.3094855E-002  0.1739370E+03  0.7818608E-02  0.1173803E+00
          2   -1    0    0  502    0  0.00000000000E+00  0.00000000000E+00  0.18089572160E+04  0.18089572160E+04  0.00000000000E+00 0. -1.
         -2   -1    0    0    0  501 -0.00000000000E+00 -0.00000000000E+00 -0.17082866683E+02  0.17082866683E+02  0.00000000000E+00 0.  1.
          6    1    1    2  502    0 -0.11070224360E+02 -0.23399691803E+02  0.10281580214E+04  0.10427669981E+04  0.17200000000E+03 0. -1.
         -6    1    1    2    0  501  0.11070224360E+02  0.23399691803E+02  0.76371632799E+03  0.78327308461E+03  0.17200000000E+03 0. -1.
</event>
<event>
 4    1  0.3094855E-002  0.1736757E+03  0.7818608E-02  0.1174068E+00
         -2   -1    0    0    0  501 -0.00000000000E+00  0.00000000000E+00  0.63478555904E+02  0.63478555904E+02  0.00000000000E+00 0.  1.
          2   -1    0    0  502    0  0.00000000000E+00 -0.00000000000E+00 -0.13479188809E+04  0.13479188809E+04  0.00000000000E+00 0. -1.
          6    1    1    2  502    0  0.21269431551E+02  0.11263315461E+02 -0.12100674166E+04  0.12224673426E+04  0.17200000000E+03 0. -1.
         -6    1    1    2    0  501 -0.21269431551E+02 -0.11263315461E+02 -0.74372908391E+02  0.18893009420E+03  0.17200000000E+03 0.  1.
</event>
<event>
 4    1  0.3094855E-002  0.1905220E+03  0.7818608E-02  0.1157991E+00
         -2   -1    0    0    0  501 -0.00000000000E+00  0.00000000000E+00  0.20933947632E+03  0.20933947632E+03  0.00000000000E+00 0.  1.
          2   -1    0    0  502    0  0.00000000000E+00 -0.00000000000E+00 -0.25757649992E+03  0.25757649992E+03  0.00000000000E+00 0. -1.
          6    1    1    2  502    0  0.17827413667E+02  0.79980039661E+02 -0.15758167828E+03  0.24724604901E+03  0.17200000000E+03 0. -1.
         -6    1    1    2    0  501 -0.17827413667E+02 -0.79980039661E+02  0.10934465468E+03  0.21966992723E+03  0.17200000000E+03 0. -1.
</event>
<event>
 4    1  0.3094855E-002  0.3039356E+03  0.7818608E-02  0.1083290E+00
          2   -1    0    0  502    0  0.00000000000E+00  0.00000000000E+00  0.34754857253E+04  0.34754857253E+04  0.00000000000E+00 0. -1.
         -2   -1    0    0    0  501 -0.00000000000E+00 -0.00000000000E+00 -0.16317914429E+03  0.16317914429E+03  0.00000000000E+00 0.  1.
          6    1    1    2  502    0  0.24601399627E+03  0.47643981733E+02  0.33207324246E+04  0.33346125219E+04  0.17200000000E+03 0. -1.
         -6    1    1    2    0  501 -0.24601399627E+03 -0.47643981733E+02 -0.84258435071E+01  0.30405234778E+03  0.17200000000E+03 0.  1.
</event>
<event>
 4    1  0.3094855E-002  0.2161867E+03  0.7818608E-02  0.1136758E+00
          1   -1    0    0  502    0  0.00000000000E+00  0.00000000000E+00  0.14805392923E+04  0.14805392923E+04  0.00000000000E+00 0. -1.
         -1   -1    0    0    0  501 -0.00000000000E+00 -0.00000000000E+00 -0.59423116185E+02  0.59423116185E+02  0.00000000000E+00 0.  1.
          6    1    1    2  502    0  0.11558492068E+03 -0.61585769530E+02  0.12377394867E+04  0.12564775039E+04  0.17200000000E+03 0. -1.
         -6    1    1    2    0  501 -0.11558492068E+03  0.61585769530E+02  0.18337668939E+03  0.28348490455E+03  0.17200000000E+03 0.  1.
</event>
<event>
 4    1  0.3094855E-002  0.2180991E+03  0.7818608E-02  0.1135308E+00
          2   -1    0    0  502    0  0.00000000000E+00  0.00000000000E+00  0.22497885489E+04  0.22497885489E+04  0.00000000000E+00 0. -1.
         -2   -1    0    0    0  501 -0.00000000000E+00 -0.00000000000E+00 -0.24379154856E+02  0.24379154856E+02  0.00000000000E+00 0.  1.
          6    1    1    2  502    0  0.10334773370E+03  0.85454492760E+02  0.69841946357E+03  0.73168092191E+03  0.17200000000E+03 0.  1.
         -6    1    1    2    0  501 -0.10334773370E+03 -0.85454492760E+02  0.15269899305E+04  0.15424867818E+04  0.17200000000E+03 0. -1.
</event>
<event>
 4    1  0.3094855E-002  0.2083344E+03  0.7818608E-02  0.1142892E+00
          1   -1    0    0  502    0  0.00000000000E+00  0.00000000000E+00  0.14026578295E+03  0.14026578295E+03  0.00000000000E+00 0. -1.
         -1   -1    0    0    0  501 -0.00000000000E+00 -0.00000000000E+00 -0.56153984321E+03  0.56153984321E+03  0.00000000000E+00 0.  1.
          6    1    1    2  502    0 -0.81538939035E+02  0.84679551403E+02  0.24481387270E+02  0.20976787964E+03  0.17200000000E+03 0. -1.
         -6    1    1    2    0  501  0.81538939035E+02 -0.84679551403E+02 -0.44575544753E+03  0.49203774653E+03  0.17200000000E+03 0.  1.
</event>
<event>
 4    1  0.3094855E-002  0.3996471E+03  0.7818608E-02  0.1043902E+00
         -1   -1    0    0    0  501 -0.00000000000E+00  0.00000000000E+00  0.18214690058E+04  0.18214690058E+04  0.00000000000E+00 0.  1.
          1   -1    0    0  502    0  0.00000000000E+00 -0.00000000000E+00 -0.96240258123E+02  0.96240258123E+02  0.00000000000E+00 0. -1.
          6    1    1    2  502    0 -0.34417255244E+03 -0.10806952902E+03  0.57675038055E+03  0.70168281325E+03  0.17200000000E+03 0. -1.
         -6    1    1    2    0  501  0.34417255244E+03  0.10806952902E+03  0.11484783671E+04  0.12160264506E+04  0.17200000000E+03 0.  1.
</event>
<event>
 4    1  0.3094855E-002  0.3653754E+03  0.7818608E-02  0.1056475E+00
         -1   -1    0    0    0  501 -0.00000000000E+00  0.00000000000E+00  0.96523065527E+03  0.96523065527E+03  0.00000000000E+00 0.  1.
          1   -1    0    0  502    0  0.00000000000E+00 -0.00000000000E+00 -0.13860872912E+03  0.13860872912E+03  0.00000000000E+00 0. -1.
          6    1    1    2  502    0  0.31426447755E+03 -0.71784609864E+02  0.43901583967E+03  0.57116906389E+03  0.17200000000E+03 0.  1.
         -6    1    1    2    0  501 -0.31426447755E+03  0.71784609864E+02  0.38760608649E+03  0.53267032050E+03  0.17200000000E+03 0.  1.
</event>
<event>
 4    1  0.3094855E-002  0.2073454E+03  0.7818608E-02  0.1143686E+00
         -2   -1    0    0    0  501 -0.00000000000E+00  0.00000000000E+00  0.24102982720E+02  0.24102982720E+02  0.00000000000E+00 0.  1.
          2   -1    0    0  502    0  0.00000000000E+00 -0.00000000000E+00 -0.39835542816E+04  0.39835542816E+04  0.00000000000E+00 0. -1.
          6    1    1    2  502    0 -0.70969459037E+02 -0.91495584045E+02 -0.34688252215E+04  0.34750166221E+04  0.17200000000E+03 0. -1.
         -6    1    1    2    0  501  0.70969459037E+02  0.91495584045E+02 -0.49062607730E+03  0.53264064222E+03  0.17200000000E+03 0.  1.
</event>
<event>
 4    1  0.3094855E-002  0.5901569E+03  0.7818608E-02  0.9926040E-01
         -1   -1    0    0    0  501 -0.00000000000E+00  0.00000000000E+00  0.34214371474E+03  0.34214371474E+03  0.00000000000E+00 0.  1.
          1   -1    0    0  502    0  0.00000000000E+00 -0.00000000000E+00 -0.10192699003E+04  0.10192699003E+04  0.00000000000E+00 0. -1.
          6    1    1    2  502    0 -0.52544692430E+03 -0.20641378250E+03 -0.31406558482E+03  0.66852248386E+03  0.17200000000E+03 0. -1.
         -6    1    1    2    0  501  0.52544692430E+03  0.20641378250E+03 -0.36306060076E+03  0.69289113120E+03  0.17200000000E+03 0.  1.
</event>
<event>
 4    1  0.3094855E-002  0.2708886E+03  0.7818608E-02  0.1100772E+00
         -2   -1    0    0    0  501 -0.00000000000E+00  0.00000000000E+00  0.12972515041E+03  0.12972515041E+03  0.00000000000E+00 0.  1.
          2   -1    0    0  502    0  0.00000000000E+00 -0.00000000000E+00 -0.72129938077E+03  0.72129938077E+03  0.00000000000E+00 0. -1.
          6    1    1    2  502    0  0.96520826233E+02  0.18568892859E+03 -0.49344339378E+03  0.56290943407E+03  0.17200000000E+03 0. -1.
         -6    1    1    2    0  501 -0.96520826233E+02 -0.18568892859E+03 -0.98130836576E+02  0.28811509711E+03  0.17200000000E+03 0.  1.
</event>
<event>
 4    1  0.3094855E-002  0.8141304E+03  0.7818608E-02  0.9539786E-01
         -1   -1    0    0    0  501 -0.00000000000E+00  0.00000000000E+00  0.22960722425E+04  0.22960722425E+04  0.00000000000E+00 0.  1.
          1   -1    0    0  502    0  0.00000000000E+00 -0.00000000000E+00 -0.39687897264E+03  0.39687897264E+03  0.00000000000E+00 0. -1.
          6    1    1    2  502    0  0.76965412705E+03  0.20213088826E+03  0.24652425672E+03  0.85063657365E+03  0.17200000000E+03 0. -1.
         -6    1    1    2    0  501 -0.76965412705E+03 -0.20213088826E+03  0.16526690132E+04  0.18423146415E+04  0.17200000000E+03 0.  1.
</event>
<event>
 4    1  0.3094855E-002  0.3594442E+03  0.7818608E-02  0.1058804E+00
         -1   -1    0    0    0  501 -0.00000000000E+00  0.00000000000E+00  0.91093701936E+02  0.91093701936E+02  0.00000000000E+00 0.  1.
          1   -1    0    0  502    0  0.00000000000E+00 -0.00000000000E+00 -0.15182663997E+04  0.15182663997E+04  0.00000000000E+00 0. -1.
          6    1    1    2  502    0 -0.15937021414E+03 -0.27242852585E+03 -0.92004320181E+03  0.98776498220E+03  0.17200000000E+03 0. -1.
         -6    1    1    2    0  501  0.15937021414E+03  0.27242852585E+03 -0.50712949599E+03  0.62159511948E+03  0.17200000000E+03 0.  1.
</event>
<event>
 4    1  0.3094855E-002  0.3445955E+03  0.7818608E-02  0.1064855E+00
          2   -1    0    0  502    0  0.00000000000E+00  0.00000000000E+00  0.32091943737E+04  0.32091943737E+04  0.00000000000E+00 0. -1.
         -2   -1    0    0    0  501 -0.00000000000E+00 -0.00000000000E+00 -0.39800295736E+02  0.39800295736E+02  0.00000000000E+00 0.  1.
          6    1    1    2  502    0  0.27605936379E+03 -0.11381237888E+03  0.20154583502E+04  0.20447049644E+04  0.17200000000E+03 0. -1.
         -6    1    1    2    0  501 -0.27605936379E+03  0.11381237888E+03  0.11539357278E+04  0.12042897051E+04  0.17200000000E+03 0.  1.
</event>
<event>
 4    1  0.3094855E-002  0.1919131E+03  0.7818608E-02  0.1156747E+00
          2   -1    0    0  502    0  0.00000000000E+00  0.00000000000E+00  0.75572545045E+03  0.75572545045E+03  0.00000000000E+00 0. -1.
         -2   -1    0    0    0  501 -0.00000000000E+00 -0.00000000000E+00 -0.49237630404E+02  0.49237630404E+02  0.00000000000E+00 0.  1.
          6    1    1    2  502    0  0.44251358585E+02 -0.72721885333E+02  0.31259892227E+03  0.36680886241E+03  0.17200000000E+03 0.  1.
         -6    1    1    2    0  501 -0.44251358585E+02  0.72721885333E+02  0.39388889778E+03  0.43815421844E+03  0.17200000000E+03 0. -1.
</event>
<event>
 4    1  0.3094855E-002  0.2589651E+03  0.7818608E-02  0.1107767E+00
          2   -1    0    0  502    0  0.00000000000E+00  0.00000000000E+00  0.17564464171E+04  0.17564464171E+04  0.00000000000E+00 0. -1.
         -2   -1    0    0    0  501 -0.00000000000E+00 -0.00000000000E+00 -0.52256804374E+02  0.52256804374E+02  0.00000000000E+00 0.  1.
          6    1    1    2  502    0  0.18833529116E+03 -0.44819242213E+02  0.13214503226E+04  0.13465860171E+04  0.17200000000E+03 0. -1.
         -6    1    1    2    0  501 -0.18833529116E+03  0.44819242213E+02  0.38273929016E+03  0.46211720440E+03  0.17200000000E+03 0.  1.
</event>
<event>
 4    1  0.3094855E-002  0.6205161E+03  0.7818608E-02  0.9863733E-01
         -2   -1    0    0    0  501 -0.00000000000E+00  0.00000000000E+00  0.21510377115E+04  0.21510377115E+04  0.00000000000E+00 0.  1.
          2   -1    0    0  502    0  0.00000000000E+00 -0.00000000000E+00 -0.78800559034E+03  0.78800559034E+03  0.00000000000E+00 0. -1.
          6    1    1    2  502    0 -0.14537386693E+03 -0.57820639868E+03 -0.61036116372E+03  0.87039126308E+03  0.17200000000E+03 0. -1.
         -6    1    1    2    0  501  0.14537386693E+03  0.57820639868E+03  0.19733932849E+04  0.20686520388E+04  0.17200000000E+03 0.  1.
</event>
<event>
 4    1  0.3094855E-002  0.1727636E+03  0.7818608E-02  0.1174996E+00
         -2   -1    0    0    0  501 -0.00000000000E+00  0.00000000000E+00  0.75897373542E+03  0.75897373542E+03  0.00000000000E+00 0.  1.
          2   -1    0    0  502    0  0.00000000000E+00 -0.00000000000E+00 -0.69676968915E+02  0.69676968915E+02  0.00000000000E+00 0. -1.
          6    1    1    2  502    0 -0.12739377163E+02  0.10048313582E+02  0.71194251106E+02  0.18685791856E+03  0.17200000000E+03 0. -1.
         -6    1    1    2    0  501  0.12739377163E+02 -0.10048313582E+02  0.61810251540E+03  0.64179278578E+03  0.17200000000E+03 0.  1.
</event>
<event>
 4    1  0.3094855E-002  0.5821455E+03  0.7818608E-02  0.9943157E-01
         -2   -1    0    0    0  501 -0.00000000000E+00  0.00000000000E+00  0.21489159941E+03  0.21489159941E+03  0.00000000000E+00 0.  1.
          2   -1    0    0  502    0  0.00000000000E+00 -0.00000000000E+00 -0.15884781204E+04  0.15884781204E+04  0.00000000000E+00 0. -1.
          6    1    1    2  502    0  0.67097521459E+02  0.55209361657E+03 -0.76329505214E+03  0.95995456947E+03  0.17200000000E+03 0. -1.
         -6    1    1    2    0  501 -0.67097521459E+02 -0.55209361657E+03 -0.61029146882E+03  0.84341515030E+03  0.17200000000E+03 0.  1.
</event>
<event>
 4    1  0.3094855E-002  0.1765729E+03  0.7818608E-02  0.1171162E+00
         -3   -1    0    0    0  501 -0.00000000000E+00  0.00000000000E+00  0.86810911434E+03  0.86810911434E+03  0.00000000000E+00 0.  1.
          3   -1    0    0  502    0  0.00000000000E+00 -0.00000000000E+00 -0.50178935798E+02  0.50178935798E+02  0.00000000000E+00 0. -1.
          6    1    1    2  502    0  0.22476518897E+02 -0.32996788431E+02  0.16416551798E+03  0.24109811124E+03  0.17200000000E+03 0. -1.
         -6    1    1    2    0  501 -0.22476518897E+02  0.32996788431E+02  0.65376466056E+03  0.67718993890E+03  0.17200000000E+03 0.  1.
</event>
<event>
 4    1  0.3094855E-002  0.2041283E+03  0.7818608E-02  0.1146302E+00
         -2   -1    0    0    0  501 -0.00000000000E+00  0.00000000000E+00  0.36576920651E+02  0.36576920651E+02  0.00000000000E+00 0.  1.
          2   -1    0    0  502    0  0.00000000000E+00 -0.00000000000E+00 -0.11422888297E+04  0.11422888297E+04  0.00000000000E+00 0. -1.
          6    1    1    2  502    0  0.87498659401E+02 -0.66545930294E+02 -0.58351388622E+03  0.61818834641E+03  0.17200000000E+03 0. -1.
         -6    1    1    2    0  501 -0.87498659401E+02  0.66545930294E+02 -0.52219802285E+03  0.56067740395E+03  0.17200000000E+03 0.  1.
</event>
<event>
 4    1  0.3094855E-002  0.3400418E+03  0.7818608E-02  0.1066778E+00
          1   -1    0    0  502    0  0.00000000000E+00  0.00000000000E+00  0.63032630316E+03  0.63032630316E+03  0.00000000000E+00 0. -1.
         -1   -1    0    0    0  501 -0.00000000000E+00 -0.00000000000E+00 -0.18358617416E+03  0.18358617416E+03  0.00000000000E+00 0.  1.
          6    1    1    2  502    0 -0.10996797447E+03  0.27194013981E+03  0.23476958411E+03  0.41321320486E+03  0.17200000000E+03 0. -1.
         -6    1    1    2    0  501  0.10996797447E+03 -0.27194013981E+03  0.21197054490E+03  0.40069927246E+03  0.17200000000E+03 0.  1.
</event>
<event>
 4    1  0.3094855E-002  0.2162417E+03  0.7818608E-02  0.1136716E+00
          2   -1    0    0  502    0  0.00000000000E+00  0.00000000000E+00  0.11825147254E+04  0.11825147254E+04  0.00000000000E+00 0. -1.
         -2   -1    0    0    0  501 -0.00000000000E+00 -0.00000000000E+00 -0.71745265276E+02  0.71745265276E+02  0.00000000000E+00 0.  1.
          6    1    1    2  502    0  0.69830868938E+02 -0.11090584416E+03  0.97553300431E+03  0.99921223923E+03  0.17200000000E+03 0. -1.
         -6    1    1    2    0  501 -0.69830868938E+02  0.11090584416E+03  0.13523645576E+03  0.25504775140E+03  0.17200000000E+03 0.  1.
</event>
<event>
 4    1  0.3094855E-002  0.3364414E+03  0.7818608E-02  0.1068322E+00
         -2   -1    0    0    0  501 -0.00000000000E+00  0.00000000000E+00  0.50655382767E+03  0.50655382767E+03  0.00000000000E+00 0.  1.
          2   -1    0    0  502    0  0.00000000000E+00 -0.00000000000E+00 -0.24926102529E+03  0.24926102529E+03  0.00000000000E+00 0. -1.
          6    1    1    2  502    0  0.27293330356E+03  0.95478876649E+02  0.70543457105E+01  0.33651533081E+03  0.17200000000E+03 0. -1.
         -6    1    1    2    0  501 -0.27293330356E+03 -0.95478876649E+02  0.25023845666E+03  0.41929952215E+03  0.17200000000E+03 0.  1.
</event>
<event>
 4    1  0.3094855E-002  0.1871721E+03  0.7818608E-02  0.1161037E+00
         -1   -1    0    0    0  501 -0.00000000000E+00  0.00000000000E+00  0.99270947510E+02  0.99270947510E+02  0.00000000000E+00 0.  1.
          1   -1    0    0  502    0  0.00000000000E+00 -0.00000000000E+00 -0.81126958437E+03  0.81126958437E+03  0.00000000000E+00 0. -1.
          6    1    1    2  502    0  0.72232124210E+02 -0.15228614198E+02 -0.69820827649E+03  0.72286111239E+03  0.17200000000E+03 0. -1.
         -6    1    1    2    0  501 -0.72232124210E+02  0.15228614198E+02 -0.13790360370E+02  0.18767941948E+03  0.17200000000E+03 0.  1.
</event>
<event>
 4    1  0.3094855E-002  0.1760086E+03  0.7818608E-02  0.1171723E+00
          4   -1    0    0  502    0  0.00000000000E+00  0.00000000000E+00  0.35683537349E+03  0.35683537349E+03  0.00000000000E+00 0. -1.
         -4   -1    0    0    0  501 -0.00000000000E+00 -0.00000000000E+00 -0.16491451793E+03  0.16491451793E+03  0.00000000000E+00 0.  1.
          6    1    1    2  502    0  0.30485726716E+02  0.21579101848E+02  0.27548511867E+03  0.32691143721E+03  0.17200000000E+03 0. -1.
         -6    1    1    2    0  501 -0.30485726716E+02 -0.21579101848E+02 -0.83564263103E+02  0.19483845421E+03  0.17200000000E+03 0.  1.
</event>
<event>
 4    1  0.3094855E-002  0.1794195E+03  0.7818608E-02  0.1168366E+00
          4   -1    0    0  502    0  0.00000000000E+00  0.00000000000E+00  0.84127085831E+03  0.84127085831E+03  0.00000000000E+00 0. -1.
         -4   -1    0    0    0  501 -0.00000000000E+00 -0.00000000000E+00 -0.47512828630E+02  0.47512828630E+02  0.00000000000E+00 0.  1.
          6    1    1    2  502    0 -0.67926583479E+01  0.50608468688E+02  0.59293357676E+03  0.61948493425E+03  0.17200000000E+03 0. -1.
         -6    1    1    2    0  501  0.67926583479E+01 -0.50608468688E+02  0.20082445292E+03  0.26929875269E+03  0.17200000000E+03 0.  1.
</event>
<event>
 4    1  0.3094855E-002  0.2129818E+03  0.7818608E-02  0.1139226E+00
          1   -1    0    0  502    0  0.00000000000E+00  0.00000000000E+00  0.20890462101E+04  0.20890462101E+04  0.00000000000E+00 0. -1.
         -1   -1    0    0    0  501 -0.00000000000E+00 -0.00000000000E+00 -0.26772783328E+02  0.26772783328E+02  0.00000000000E+00 0.  1.
          6    1    1    2  502    0  0.45310911051E+02  0.11715012418E+03  0.14910027661E+04  0.15061376028E+04  0.17200000000E+03 0. -1.
         -6    1    1    2    0  501 -0.45310911051E+02 -0.11715012418E+03  0.57127066072E+03  0.60968139061E+03  0.17200000000E+03 0.  1.
</event>
<event>
 4    1  0.3094855E-002  0.2183678E+03  0.7818608E-02  0.1135106E+00
         -2   -1    0    0    0  501 -0.00000000000E+00  0.00000000000E+00  0.37280724090E+02  0.37280724090E+02  0.00000000000E+00 0.  1.
          2   -1    0    0  502    0  0.00000000000E+00 -0.00000000000E+00 -0.16033289490E+04  0.16033289490E+04  0.00000000000E+00 0. -1.
          6    1    1    2  502    0  0.19281002903E+02  0.13314924200E+03 -0.41412030410E+03  0.46816674806E+03  0.17200000000E+03 0.  1.
         -6    1    1    2    0  501 -0.19281002903E+02 -0.13314924200E+03 -0.11519279208E+04  0.11724429250E+04  0.17200000000E+03 0. -1.
</event>
<event>
 4    1  0.3094855E-002  0.3773776E+03  0.7818608E-02  0.1051907E+00
          2   -1    0    0  502    0  0.00000000000E+00  0.00000000000E+00  0.51079531674E+03  0.51079531674E+03  0.00000000000E+00 0. -1.
         -2   -1    0    0    0  501 -0.00000000000E+00 -0.00000000000E+00 -0.27999835303E+03  0.27999835303E+03  0.00000000000E+00 0.  1.
          6    1    1    2  502    0  0.32315324554E+03  0.91661714334E+02  0.14117763146E+03  0.40292060459E+03  0.17200000000E+03 0. -1.
         -6    1    1    2    0  501 -0.32315324554E+03 -0.91661714334E+02  0.89619332251E+02  0.38787306518E+03  0.17200000000E+03 0.  1.
</event>
<event>
 4    1  0.3094855E-002  0.3552470E+03  0.7818608E-02  0.1060482E+00
         -2   -1    0    0    0  501 -0.00000000000E+00  0.00000000000E+00  0.19778935277E+03  0.19778935277E+03  0.00000000000E+00 0.  1.
          2   -1    0    0  502    0  0.00000000000E+00 -0.00000000000E+00 -0.67150115227E+03  0.67150115227E+03  0.00000000000E+00 0. -1.
          6    1    1    2  502    0 -0.28302620718E+03 -0.12850129540E+03 -0.13985251405E+03  0.38178415702E+03  0.17200000000E+03 0. -1.
         -6    1    1    2    0  501  0.28302620718E+03  0.12850129540E+03 -0.33385928545E+03  0.48750634801E+03  0.17200000000E+03 0.  1.
</event>
<event>
 4    1  0.3094855E-002  0.2226057E+03  0.7818608E-02  0.1131955E+00
          1   -1    0    0  502    0  0.00000000000E+00  0.00000000000E+00  0.74272891126E+03  0.74272891126E+03  0.00000000000E+00 0. -1.
         -1   -1    0    0    0  501 -0.00000000000E+00 -0.00000000000E+00 -0.12751961920E+03  0.12751961920E+03  0.00000000000E+00 0.  1.
          6    1    1    2  502    0  0.94455515288E+02 -0.10510694387E+03  0.60806192181E+03  0.64752808030E+03  0.17200000000E+03 0. -1.
         -6    1    1    2    0  501 -0.94455515288E+02  0.10510694387E+03  0.71473702480E+01  0.22272045016E+03  0.17200000000E+03 0.  1.
</event>
<event>
 4    1  0.3094855E-002  0.2416433E+03  0.7818608E-02  0.1118703E+00
          2   -1    0    0  502    0  0.00000000000E+00  0.00000000000E+00  0.90856179198E+03  0.90856179198E+03  0.00000000000E+00 0. -1.
         -2   -1    0    0    0  501 -0.00000000000E+00 -0.00000000000E+00 -0.68065656051E+02  0.68065656051E+02  0.00000000000E+00 0.  1.
          6    1    1    2  502    0 -0.17172894432E+02  0.16885662685E+03  0.53559113642E+03  0.58757921521E+03  0.17200000000E+03 0. -1.
         -6    1    1    2    0  501  0.17172894432E+02 -0.16885662685E+03  0.30490499952E+03  0.38904823283E+03  0.17200000000E+03 0.  1.
</event>
<event>
 4    1  0.3094855E-002  0.4037178E+03  0.7818608E-02  0.1042500E+00
         -2   -1    0    0    0  501 -0.00000000000E+00  0.00000000000E+00  0.69088614832E+02  0.69088614832E+02  0.00000000000E+00 0.  1.
          2   -1    0    0  502    0  0.00000000000E+00 -0.00000000000E+00 -0.23608333079E+04  0.23608333079E+04  0.00000000000E+00 0. -1.
          6    1    1    2  502    0 -0.16001460194E+03  0.32832811695E+03 -0.11130997159E+04  0.11840519426E+04  0.17200000000E+03 0.  1.
         -6    1    1    2    0  501  0.16001460194E+03 -0.32832811695E+03 -0.11786449772E+04  0.12458699801E+04  0.17200000000E+03 0.  1.
</event>
<event>
 4    1  0.3094855E-002  0.5184977E+03  0.7818608E-02  0.1009060E+00
         -1   -1    0    0    0  501 -0.00000000000E+00  0.00000000000E+00  0.77546598177E+03  0.77546598177E+03  0.00000000000E+00 0.  1.
          1   -1    0    0  502    0  0.00000000000E+00 -0.00000000000E+00 -0.41917314140E+03  0.41917314140E+03  0.00000000000E+00 0. -1.
          6    1    1    2  502    0  0.47957247735E+03 -0.96260565747E+02  0.42654746019E+03  0.67140345050E+03  0.17200000000E+03 0. -1.
         -6    1    1    2    0  501 -0.47957247735E+03  0.96260565747E+02 -0.70254619819E+02  0.52323567267E+03  0.17200000000E+03 0.  1.
</event>
<event>
 4    1  0.3094855E-002  0.2781548E+03  0.7818608E-02  0.1096701E+00
          1   -1    0    0  502    0  0.00000000000E+00  0.00000000000E+00  0.59951179928E+03  0.59951179928E+03  0.00000000000E+00 0. -1.
         -1   -1    0    0    0  501 -0.00000000000E+00 -0.00000000000E+00 -0.15705068842E+03  0.15705068842E+03  0.00000000000E+00 0.  1.
          6    1    1    2  502    0  0.21119957240E+03 -0.56398918795E+02  0.38094314084E+03  0.47168609686E+03  0.17200000000E+03 0. -1.
         -6    1    1    2    0  501 -0.21119957240E+03  0.56398918795E+02  0.61517970016E+02  0.28487639084E+03  0.17200000000E+03 0.  1.
</event>
<event>
 4    1  0.3094855E-002  0.2184765E+03  0.7818608E-02  0.1135024E+00
         -1   -1    0    0    0  501 -0.00000000000E+00  0.00000000000E+00  0.57121862796E+02  0.57121862796E+02  0.00000000000E+00 0.  1.
          1   -1    0    0  502    0  0.00000000000E+00 -0.00000000000E+00 -0.12243840833E+04  0.12243840833E+04  0.00000000000E+00 0. -1.
          6    1    1    2  502    0  0.60310366886E+02 -0.12046012768E+03 -0.94468888472E+03  0.96962315960E+03  0.17200000000E+03 0. -1.
         -6    1    1    2    0  501 -0.60310366886E+02  0.12046012768E+03 -0.22257333580E+03  0.31188278652E+03  0.17200000000E+03 0.  1.
</event>
<event>
 4    1  0.3094855E-002  0.1744294E+03  0.7818608E-02  0.1173306E+00
          2   -1    0    0  502    0  0.00000000000E+00  0.00000000000E+00  0.26383040927E+03  0.26383040927E+03  0.00000000000E+00 0. -1.
         -2   -1    0    0    0  501 -0.00000000000E+00 -0.00000000000E+00 -0.11795595064E+03  0.11795595064E+03  0.00000000000E+00 0.  1.
          6    1    1    2  502    0 -0.53610982191E+01  0.28511168905E+02  0.44415308055E+02  0.17999541026E+03  0.17200000000E+03 0.  1.
         -6    1    1    2    0  501  0.53610982191E+01 -0.28511168905E+02  0.10145915057E+03  0.20179094965E+03  0.17200000000E+03 0. -1.
</event>
<event>
 4    1  0.3094855E-002  0.4047675E+03  0.7818608E-02  0.1042141E+00
         -1   -1    0    0    0  501 -0.00000000000E+00  0.00000000000E+00  0.34922662799E+03  0.34922662799E+03  0.00000000000E+00 0.  1.
          1   -1    0    0  502    0  0.00000000000E+00 -0.00000000000E+00 -0.46947037384E+03  0.46947037384E+03  0.00000000000E+00 0. -1.
          6    1    1    2  502    0  0.36268632108E+03  0.52070631605E+02 -0.70955581407E+02  0.41093967040E+03  0.17200000000E+03 0. -1.
         -6    1    1    2    0  501 -0.36268632108E+03 -0.52070631605E+02 -0.49288164449E+02  0.40775733143E+03  0.17200000000E+03 0.  1.
</event>
<event>
 4    1  0.3094855E-002  0.1876537E+03  0.7818608E-02  0.1160595E+00
          1   -1    0    0  502    0  0.00000000000E+00  0.00000000000E+00  0.77789355300E+03  0.77789355300E+03  0.00000000000E+00 0. -1.
         -1   -1    0    0    0  501 -0.00000000000E+00 -0.00000000000E+00 -0.50798004151E+02  0.50798004151E+02  0.00000000000E+00 0.  1.
          6    1    1    2  502    0  0.43125168847E+02  0.61401301004E+02  0.50025500638E+03  0.53429296398E+03  0.17200000000E+03 0. -1.
         -6    1    1    2    0  501 -0.43125168847E+02 -0.61401301004E+02  0.22684054248E+03  0.29439859318E+03  0.17200000000E+03 0.  1.
</event>
<event>
 4    1  0.3094855E-002  0.4946195E+03  0.7818608E-02  0.1015193E+00
          3   -1    0    0  502    0  0.00000000000E+00  0.00000000000E+00  0.22085737170E+03  0.22085737170E+03  0.00000000000E+00 0. -1.
         -3   -1    0    0    0  501 -0.00000000000E+00 -0.00000000000E+00 -0.12829057648E+04  0.12829057648E+04  0.00000000000E+00 0.  1.
          6    1    1    2  502    0  0.17442056912E+03  0.42969982805E+03 -0.25318116679E+03  0.55565203174E+03  0.17200000000E+03 0. -1.
         -6    1    1    2    0  501 -0.17442056912E+03 -0.42969982805E+03 -0.80886722630E+03  0.94811110474E+03  0.17200000000E+03 0.  1.
</event>
<event>
 4    1  0.3094855E-002  0.2188225E+03  0.7818608E-02  0.1134764E+00
          2   -1    0    0  502    0  0.00000000000E+00  0.00000000000E+00  0.14524665802E+04  0.14524665802E+04  0.00000000000E+00 0. -1.
         -2   -1    0    0    0  501 -0.00000000000E+00 -0.00000000000E+00 -0.52319615486E+02  0.52319615486E+02  0.00000000000E+00 0.  1.
          6    1    1    2  502    0  0.68455579244E+02  0.11667527659E+03  0.24247587002E+03  0.32661572840E+03  0.17200000000E+03 0.  1.
         -6    1    1    2    0  501 -0.68455579244E+02 -0.11667527659E+03  0.11576710947E+04  0.11781704673E+04  0.17200000000E+03 0. -1.
</event>
<event>
 4    1  0.3094855E-002  0.3501000E+03  0.7818608E-02  0.1062574E+00
          2   -1    0    0  502    0  0.00000000000E+00  0.00000000000E+00  0.22152161182E+03  0.22152161182E+03  0.00000000000E+00 0. -1.
         -2   -1    0    0    0  501 -0.00000000000E+00 -0.00000000000E+00 -0.93493801640E+03  0.93493801640E+03  0.00000000000E+00 0.  1.
          6    1    1    2  502    0 -0.59833497751E+02  0.29900832832E+03  0.12719484324E+02  0.35033100511E+03  0.17200000000E+03 0. -1.
         -6    1    1    2    0  501  0.59833497751E+02 -0.29900832832E+03 -0.72613588890E+03  0.80612862311E+03  0.17200000000E+03 0.  1.
</event>
<event>
 4    1  0.3094855E-002  0.5501181E+03  0.7818608E-02  0.1001467E+00
         -2   -1    0    0    0  501 -0.00000000000E+00  0.00000000000E+00  0.39137998225E+03  0.39137998225E+03  0.00000000000E+00 0.  1.
          2   -1    0    0  502    0  0.00000000000E+00 -0.00000000000E+00 -0.91365823630E+03  0.91365823630E+03  0.00000000000E+00 0. -1.
          6    1    1    2  502    0 -0.12199797439E+03  0.50809685080E+03 -0.51694825445E+03  0.75489430607E+03  0.17200000000E+03 0. -1.
         -6    1    1    2    0  501  0.12199797439E+03 -0.50809685080E+03 -0.53299996000E+01  0.55014391249E+03  0.17200000000E+03 0.  1.
</event>
<event>
 4    1  0.3094855E-002  0.6461242E+03  0.7818608E-02  0.9814079E-01
          2   -1    0    0  502    0  0.00000000000E+00  0.00000000000E+00  0.19477451293E+04  0.19477451293E+04  0.00000000000E+00 0. -1.
         -2   -1    0    0    0  501 -0.00000000000E+00 -0.00000000000E+00 -0.21454417509E+03  0.21454417509E+03  0.00000000000E+00 0.  1.
          6    1    1    2  502    0 -0.36893901490E+03 -0.50177340236E+03  0.83311639397E+03  0.10543052072E+04  0.17200000000E+03 0. -1.
         -6    1    1    2    0  501  0.36893901490E+03  0.50177340236E+03  0.90008456021E+03  0.11079840972E+04  0.17200000000E+03 0.  1.
</event>
<event>
 4    1  0.3094855E-002  0.2560973E+03  0.7818608E-02  0.1109511E+00
         -1   -1    0    0    0  501 -0.00000000000E+00  0.00000000000E+00  0.16712002559E+03  0.16712002559E+03  0.00000000000E+00 0.  1.
          1   -1    0    0  502    0  0.00000000000E+00 -0.00000000000E+00 -0.44218856151E+03  0.44218856151E+03  0.00000000000E+00 0. -1.
          6    1    1    2  502    0  0.16727762531E+03 -0.89554623909E+02 -0.23971314343E+03  0.35078230533E+03  0.17200000000E+03 0. -1.
         -6    1    1    2    0  501 -0.16727762531E+03  0.89554623909E+02 -0.35355392482E+02  0.25852628178E+03  0.17200000000E+03 0.  1.
</event>
<event>
 4    1  0.3094855E-002  0.4948822E+03  0.7818608E-02  0.1015123E+00
          2   -1    0    0  502    0  0.00000000000E+00  0.00000000000E+00  0.27389111979E+04  0.27389111979E+04  0.00000000000E+00 0. -1.
         -2   -1    0    0    0  501 -0.00000000000E+00 -0.00000000000E+00 -0.12277920608E+03  0.12277920608E+03  0.00000000000E+00 0.  1.
          6    1    1    2  502    0 -0.46314210712E+03 -0.28701815004E+02  0.20539135284E+04  0.21126924025E+04  0.17200000000E+03 0. -1.
         -6    1    1    2    0  501  0.46314210712E+03  0.28701815004E+02  0.56221846346E+03  0.74899800148E+03  0.17200000000E+03 0.  1.
</event>
<event>
 4    1  0.3094855E-002  0.3623157E+03  0.7818608E-02  0.1057671E+00
          2   -1    0    0  502    0  0.00000000000E+00  0.00000000000E+00  0.20293418830E+04  0.20293418830E+04  0.00000000000E+00 0. -1.
         -2   -1    0    0    0  501 -0.00000000000E+00 -0.00000000000E+00 -0.99472696532E+02  0.99472696532E+02  0.00000000000E+00 0.  1.
          6    1    1    2  502    0  0.30875691071E+03  0.79736252244E+02  0.15943744102E+04  0.16350236878E+04  0.17200000000E+03 0. -1.
         -6    1    1    2    0  501 -0.30875691071E+03 -0.79736252244E+02  0.33549477626E+03  0.49379089170E+03  0.17200000000E+03 0.  1.
</event>
<event>
 4    1  0.3094855E-002  0.3075074E+03  0.7818608E-02  0.1081547E+00
          1   -1    0    0  502    0  0.00000000000E+00  0.00000000000E+00  0.48314586404E+03  0.48314586404E+03  0.00000000000E+00 0. -1.
         -1   -1    0    0    0  501 -0.00000000000E+00 -0.00000000000E+00 -0.20325781099E+03  0.20325781099E+03  0.00000000000E+00 0.  1.
          6    1    1    2  502    0  0.21426913495E+03 -0.13807806496E+03  0.73847585676E+02  0.31625034408E+03  0.17200000000E+03 0. -1.
         -6    1    1    2    0  501 -0.21426913495E+03  0.13807806496E+03  0.20604046737E+03  0.37015333095E+03  0.17200000000E+03 0.  1.
</event>
<event>
 4    1  0.3094855E-002  0.1813388E+03  0.7818608E-02  0.1166514E+00
          1   -1    0    0  502    0  0.00000000000E+00  0.00000000000E+00  0.21445945065E+03  0.21445945065E+03  0.00000000000E+00 0. -1.
         -1   -1    0    0    0  501 -0.00000000000E+00 -0.00000000000E+00 -0.16161717616E+03  0.16161717616E+03  0.00000000000E+00 0.  1.
          6    1    1    2  502    0  0.33983880312E+02  0.46312442211E+02  0.68993025781E+02  0.19402006090E+03  0.17200000000E+03 0. -1.
         -6    1    1    2    0  501 -0.33983880312E+02 -0.46312442211E+02 -0.16150751281E+02  0.18205656591E+03  0.17200000000E+03 0.  1.
</event>
<event>
 4    1  0.3094855E-002  0.1852108E+03  0.7818608E-02  0.1162853E+00
         -2   -1    0    0    0  501 -0.00000000000E+00  0.00000000000E+00  0.17822250201E+03  0.17822250201E+03  0.00000000000E+00 0.  1.
          2   -1    0    0  502    0  0.00000000000E+00 -0.00000000000E+00 -0.59465555762E+03  0.59465555762E+03  0.00000000000E+00 0. -1.
          6    1    1    2  502    0  0.37998278906E+02 -0.57229005311E+02 -0.52602087367E+03  0.55767462537E+03  0.17200000000E+03 0. -1.
         -6    1    1    2    0  501 -0.37998278906E+02  0.57229005311E+02  0.10958781806E+03  0.21520343426E+03  0.17200000000E+03 0.  1.
</event>
<event>
 4    1  0.3094855E-002  0.2423542E+03  0.7818608E-02  0.1118234E+00
          2   -1    0    0  502    0  0.00000000000E+00  0.00000000000E+00  0.13280125931E+04  0.13280125931E+04  0.00000000000E+00 0. -1.
         -2   -1    0    0    0  501 -0.00000000000E+00 -0.00000000000E+00 -0.45783722161E+02  0.45783722161E+02  0.00000000000E+00 0.  1.
          6    1    1    2  502    0  0.17072723965E+03  0.19356275119E+01  0.51450029360E+03  0.56872320959E+03  0.17200000000E+03 0. -1.
         -6    1    1    2    0  501 -0.17072723965E+03 -0.19356275119E+01  0.76772857732E+03  0.80507310565E+03  0.17200000000E+03 0.  1.
</event>
<event>
 4    1  0.3094855E-002  0.2429471E+03  0.7818608E-02  0.1117845E+00
         -1   -1    0    0    0  501 -0.00000000000E+00  0.00000000000E+00  0.53111640409E+03  0.53111640409E+03  0.00000000000E+00 0.  1.
          1   -1    0    0  502    0  0.00000000000E+00 -0.00000000000E+00 -0.11570327730E+03  0.11570327730E+03  0.00000000000E+00 0. -1.
          6    1    1    2  502    0 -0.12991721534E+03 -0.11207494717E+03  0.14341316307E+03  0.28211808160E+03  0.17200000000E+03 0. -1.
         -6    1    1    2    0  501  0.12991721534E+03  0.11207494717E+03  0.27199996372E+03  0.36470159979E+03  0.17200000000E+03 0.  1.
</event>
<event>
 4    1  0.3094855E-002  0.3703264E+03  0.7818608E-02  0.1054568E+00
          2   -1    0    0  502    0  0.00000000000E+00  0.00000000000E+00  0.18605954241E+04  0.18605954241E+04  0.00000000000E+00 0. -1.
         -2   -1    0    0    0  501 -0.00000000000E+00 -0.00000000000E+00 -0.73719017129E+02  0.73719017129E+02  0.00000000000E+00 0.  1.
          6    1    1    2  502    0  0.36305402352E+02  0.32594410226E+03  0.90500721081E+03  0.97784441076E+03  0.17200000000E+03 0. -1.
         -6    1    1    2    0  501 -0.36305402352E+02 -0.32594410226E+03  0.88186919614E+03  0.95647003045E+03  0.17200000000E+03 0. -1.
</event>
<event>
 4    1  0.3094855E-002  0.2322556E+03  0.7818608E-02  0.1125062E+00
         -1   -1    0    0    0  501 -0.00000000000E+00  0.00000000000E+00  0.24716311906E+03  0.24716311906E+03  0.00000000000E+00 0.  1.
          1   -1    0    0  502    0  0.00000000000E+00 -0.00000000000E+00 -0.18536645158E+04  0.18536645158E+04  0.00000000000E+00 0. -1.
          6    1    1    2  502    0 -0.31922355669E+02  0.15277319019E+03 -0.17898916554E+04  0.18048974549E+04  0.17200000000E+03 0. -1.
         -6    1    1    2    0  501  0.31922355669E+02 -0.15277319019E+03  0.18339025870E+03  0.29593017997E+03  0.17200000000E+03 0.  1.
</event>
<event>
 4    1  0.3094855E-002  0.2416288E+03  0.7818608E-02  0.1118713E+00
         -2   -1    0    0    0  501 -0.00000000000E+00  0.00000000000E+00  0.12396547562E+03  0.12396547562E+03  0.00000000000E+00 0.  1.
          2   -1    0    0  502    0  0.00000000000E+00 -0.00000000000E+00 -0.55412664282E+03  0.55412664282E+03  0.00000000000E+00 0. -1.
          6    1    1    2  502    0 -0.97963643999E+02 -0.13857704173E+03 -0.34641941194E+03  0.42236344658E+03  0.17200000000E+03 0. -1.
         -6    1    1    2    0  501  0.97963643999E+02  0.13857704173E+03 -0.83741755254E+02  0.25572867186E+03  0.17200000000E+03 0.  1.
</event>
<event>
 4    1  0.3094855E-002  0.1804590E+03  0.7818608E-02  0.1167360E+00
          1   -1    0    0  502    0  0.00000000000E+00  0.00000000000E+00  0.43332332815E+03  0.43332332815E+03  0.00000000000E+00 0. -1.
         -1   -1    0    0    0  501 -0.00000000000E+00 -0.00000000000E+00 -0.89133955597E+02  0.89133955597E+02  0.00000000000E+00 0.  1.
          6    1    1    2  502    0  0.16722052456E+02 -0.51979209605E+02  0.27555423955E+03  0.32938670921E+03  0.17200000000E+03 0.  1.
         -6    1    1    2    0  501 -0.16722052456E+02  0.51979209605E+02  0.68635133001E+02  0.19307057454E+03  0.17200000000E+03 0.  1.
</event>
<event>
 4    1  0.3094855E-002  0.9537400E+03  0.7818608E-02  0.9360790E-01
          2   -1    0    0  502    0  0.00000000000E+00  0.00000000000E+00  0.14980272224E+04  0.14980272224E+04  0.00000000000E+00 0. -1.
         -2   -1    0    0    0  501 -0.00000000000E+00 -0.00000000000E+00 -0.61388024768E+03  0.61388024768E+03  0.00000000000E+00 0.  1.
          6    1    1    2  502    0 -0.78495024313E+03 -0.51370139725E+03  0.55212879939E+03  0.11020282305E+04  0.17200000000E+03 0. -1.
         -6    1    1    2    0  501  0.78495024313E+03  0.51370139725E+03  0.33201817529E+03  0.10098792395E+04  0.17200000000E+03 0.  1.
</event>
<event>
 4    1  0.3094855E-002  0.2880620E+03  0.7818608E-02  0.1091365E+00
          2   -1    0    0  502    0  0.00000000000E+00  0.00000000000E+00  0.27870449664E+04  0.27870449664E+04  0.00000000000E+00 0. -1.
         -2   -1    0    0    0  501 -0.00000000000E+00 -0.00000000000E+00 -0.38569111414E+02  0.38569111414E+02  0.00000000000E+00 0.  1.
          6    1    1    2  502    0 -0.14709405674E+03  0.17821068698E+03  0.20489202837E+04  0.20690708154E+04  0.17200000000E+03 0. -1.
         -6    1    1    2    0  501  0.14709405674E+03 -0.17821068698E+03  0.69955557136E+03  0.75654326241E+03  0.17200000000E+03 0.  1.
</event>
<event>
 4    1  0.3094855E-002  0.1242088E+04  0.7818608E-02  0.9076794E-01
          3   -1    0    0  502    0  0.00000000000E+00  0.00000000000E+00  0.67280025190E+03  0.67280025190E+03  0.00000000000E+00 0. -1.
         -3   -1    0    0    0  501 -0.00000000000E+00 -0.00000000000E+00 -0.31660572522E+04  0.31660572522E+04  0.00000000000E+00 0.  1.
          6    1    1    2  502    0  0.67092443558E+03  0.10310479724E+04 -0.22545217846E+04  0.25740341872E+04  0.17200000000E+03 0. -1.
         -6    1    1    2    0  501 -0.67092443558E+03 -0.10310479724E+04 -0.23873521561E+03  0.12648233168E+04  0.17200000000E+03 0.  1.
</event>
<event>
 4    1  0.3094855E-002  0.3953581E+03  0.7818608E-02  0.1045399E+00
          1   -1    0    0  502    0  0.00000000000E+00  0.00000000000E+00  0.14097585635E+04  0.14097585635E+04  0.00000000000E+00 0. -1.
         -1   -1    0    0    0  501 -0.00000000000E+00 -0.00000000000E+00 -0.11538973741E+03  0.11538973741E+03  0.00000000000E+00 0.  1.
          6    1    1    2  502    0 -0.19104305457E+03  0.30037733614E+03  0.79801179885E+03  0.89057892624E+03  0.17200000000E+03 0. -1.
         -6    1    1    2    0  501  0.19104305457E+03 -0.30037733614E+03  0.49635702721E+03  0.63456937463E+03  0.17200000000E+03 0. -1.
</event>
<event>
 4    1  0.3094855E-002  0.8275144E+03  0.7818608E-02  0.9521023E-01
          2   -1    0    0  502    0  0.00000000000E+00  0.00000000000E+00  0.45874557960E+03  0.45874557960E+03  0.00000000000E+00 0. -1.
         -2   -1    0    0    0  501 -0.00000000000E+00 -0.00000000000E+00 -0.14930300596E+04  0.14930300596E+04  0.00000000000E+00 0.  1.
          6    1    1    2  502    0  0.78812709237E+03 -0.18453141544E+03 -0.50315104437E+03  0.96847360855E+03  0.17200000000E+03 0. -1.
         -6    1    1    2    0  501 -0.78812709237E+03  0.18453141544E+03 -0.53113343561E+03  0.98330203063E+03  0.17200000000E+03 0.  1.
</event>
<event>
 4    1  0.3094855E-002  0.2161071E+03  0.7818608E-02  0.1136819E+00
          1   -1    0    0  502    0  0.00000000000E+00  0.00000000000E+00  0.24257180460E+03  0.24257180460E+03  0.00000000000E+00 0. -1.
         -1   -1    0    0    0  501 -0.00000000000E+00 -0.00000000000E+00 -0.38274926118E+03  0.38274926118E+03  0.00000000000E+00 0.  1.
          6    1    1    2  502    0 -0.71808011914E+02 -0.10937039927E+03  0.15032745615E+03  0.26325010709E+03  0.17200000000E+03 0. -1.
         -6    1    1    2    0  501  0.71808011914E+02  0.10937039927E+03 -0.29050491272E+03  0.36207095869E+03  0.17200000000E+03 0.  1.
</event>
<event>
 4    1  0.3094855E-002  0.1927081E+03  0.7818608E-02  0.1156041E+00
         -2   -1    0    0    0  501 -0.00000000000E+00  0.00000000000E+00  0.27909848583E+03  0.27909848583E+03  0.00000000000E+00 0.  1.
          2   -1    0    0  502    0  0.00000000000E+00 -0.00000000000E+00 -0.50822930738E+03  0.50822930738E+03  0.00000000000E+00 0. -1.
          6    1    1    2  502    0 -0.37818518212E+02 -0.78244225880E+02 -0.45279399565E+03  0.49209633376E+03  0.17200000000E+03 0. -1.
         -6    1    1    2    0  501  0.37818518212E+02  0.78244225880E+02  0.22366317410E+03  0.29523145945E+03  0.17200000000E+03 0.  1.
</event>
<event>
 4    1  0.3094855E-002  0.1824222E+03  0.7818608E-02  0.1165479E+00
         -2   -1    0    0    0  501 -0.00000000000E+00  0.00000000000E+00  0.12587451262E+03  0.12587451262E+03  0.00000000000E+00 0.  1.
          2   -1    0    0  502    0  0.00000000000E+00 -0.00000000000E+00 -0.84725412365E+03  0.84725412365E+03  0.00000000000E+00 0. -1.
          6    1    1    2  502    0 -0.57787600406E+02 -0.18826489762E+02 -0.76426395946E+03  0.78573357012E+03  0.17200000000E+03 0. -1.
         -6    1    1    2    0  501  0.57787600406E+02  0.18826489762E+02  0.42884348426E+02  0.18739506615E+03  0.17200000000E+03 0.  1.
</event>
<event>
 4    1  0.3094855E-002  0.2083597E+03  0.7818608E-02  0.1142872E+00
          2   -1    0    0  502    0  0.00000000000E+00  0.00000000000E+00  0.12953022367E+04  0.12953022367E+04  0.00000000000E+00 0. -1.
         -2   -1    0    0    0  501 -0.00000000000E+00 -0.00000000000E+00 -0.36360048722E+02  0.36360048722E+02  0.00000000000E+00 0.  1.
          6    1    1    2  502    0 -0.95481568527E+02 -0.68651688292E+02  0.81567756997E+03  0.84186915990E+03  0.17200000000E+03 0. -1.
         -6    1    1    2    0  501  0.95481568527E+02  0.68651688292E+02  0.44326461801E+03  0.48979312553E+03  0.17200000000E+03 0.  1.
</event>
<event>
 4    1  0.3094855E-002  0.5142468E+03  0.7818608E-02  0.1010126E+00
         -2   -1    0    0    0  501 -0.00000000000E+00  0.00000000000E+00  0.43642413579E+03  0.43642413579E+03  0.00000000000E+00 0.  1.
          2   -1    0    0  502    0  0.00000000000E+00 -0.00000000000E+00 -0.62132276210E+03  0.62132276210E+03  0.00000000000E+00 0. -1.
          6    1    1    2  502    0  0.18111166990E+03 -0.44951566638E+03 -0.17564781136E+03  0.54341689791E+03  0.17200000000E+03 0. -1.
         -6    1    1    2    0  501 -0.18111166990E+03  0.44951566638E+03 -0.92508149531E+01  0.51432999997E+03  0.17200000000E+03 0.  1.
</event>
<event>
 4    1  0.3094855E-002  0.2370562E+03  0.7818608E-02  0.1121770E+00
          1   -1    0    0  502    0  0.00000000000E+00  0.00000000000E+00  0.10776077293E+03  0.10776077293E+03  0.00000000000E+00 0. -1.
         -1   -1    0    0    0  501 -0.00000000000E+00 -0.00000000000E+00 -0.56848866507E+03  0.56848866507E+03  0.00000000000E+00 0.  1.
          6    1    1    2  502    0 -0.16038073107E+03  0.29827592535E+02 -0.13313842703E+03  0.27188509508E+03  0.17200000000E+03 0. -1.
         -6    1    1    2    0  501  0.16038073107E+03 -0.29827592535E+02 -0.32758946511E+03  0.40436434292E+03  0.17200000000E+03 0.  1.
</event>
<event>
 4    1  0.3094855E-002  0.2483963E+03  0.7818608E-02  0.1114323E+00
         -1   -1    0    0    0  501 -0.00000000000E+00  0.00000000000E+00  0.57770340909E+02  0.57770340909E+02  0.00000000000E+00 0.  1.
          1   -1    0    0  502    0  0.00000000000E+00 -0.00000000000E+00 -0.12117844494E+04  0.12117844494E+04  0.00000000000E+00 0. -1.
          6    1    1    2  502    0  0.10765725341E+03 -0.14327124366E+03 -0.35837582868E+03  0.43604353917E+03  0.17200000000E+03 0. -1.
         -6    1    1    2    0  501 -0.10765725341E+03  0.14327124366E+03 -0.79563827983E+03  0.83351125115E+03  0.17200000000E+03 0.  1.
</event>
<event>
 4    1  0.3094855E-002  0.1969774E+03  0.7818608E-02  0.1152315E+00
          2   -1    0    0  502    0  0.00000000000E+00  0.00000000000E+00  0.11114695843E+04  0.11114695843E+04  0.00000000000E+00 0. -1.
         -2   -1    0    0    0  501 -0.00000000000E+00 -0.00000000000E+00 -0.41407686844E+02  0.41407686844E+02  0.00000000000E+00 0.  1.
          6    1    1    2  502    0 -0.29418458465E+02 -0.91381840810E+02  0.76339701446E+03  0.78840033499E+03  0.17200000000E+03 0. -1.
         -6    1    1    2    0  501  0.29418458465E+02  0.91381840810E+02  0.30666488304E+03  0.36447693619E+03  0.17200000000E+03 0. -1.
</event>
<event>
 4    1  0.3094855E-002  0.2114952E+03  0.7818608E-02  0.1140387E+00
         -1   -1    0    0    0  501 -0.00000000000E+00  0.00000000000E+00  0.19592493141E+02  0.19592493141E+02  0.00000000000E+00 0.  1.
          1   -1    0    0  502    0  0.00000000000E+00 -0.00000000000E+00 -0.23213946502E+04  0.23213946502E+04  0.00000000000E+00 0. -1.
          6    1    1    2  502    0  0.65123597385E+02 -0.10442765385E+03 -0.13013778098E+04  0.13184515242E+04  0.17200000000E+03 0. -1.
         -6    1    1    2    0  501 -0.65123597385E+02  0.10442765385E+03 -0.10004243472E+04  0.10225356191E+04  0.17200000000E+03 0. -1.
</event>
<event>
 4    1  0.3094855E-002  0.5062496E+03  0.7818608E-02  0.1012160E+00
          2   -1    0    0  502    0  0.00000000000E+00  0.00000000000E+00  0.58912153427E+03  0.58912153427E+03  0.00000000000E+00 0. -1.
         -2   -1    0    0    0  501 -0.00000000000E+00 -0.00000000000E+00 -0.44837207074E+03  0.44837207074E+03  0.00000000000E+00 0.  1.
          6    1    1    2  502    0  0.25678005178E+03  0.40095972181E+03  0.15984127699E+03  0.53088409972E+03  0.17200000000E+03 0. -1.
         -6    1    1    2    0  501 -0.25678005178E+03 -0.40095972181E+03 -0.19091813461E+02  0.50660950529E+03  0.17200000000E+03 0.  1.
</event>
<event>
 4    1  0.3094855E-002  0.2345739E+03  0.7818608E-02  0.1123461E+00
         -3   -1    0    0    0  501 -0.00000000000E+00  0.00000000000E+00  0.48521318704E+03  0.48521318704E+03  0.00000000000E+00 0.  1.
          3   -1    0    0  502    0  0.00000000000E+00 -0.00000000000E+00 -0.15413947560E+03  0.15413947560E+03  0.00000000000E+00 0. -1.
          6    1    1    2  502    0  0.13988148618E+03 -0.76642458253E+02  0.11972075068E+01  0.23457691678E+03  0.17200000000E+03 0. -1.
         -6    1    1    2    0  501 -0.13988148618E+03  0.76642458253E+02  0.32987650394E+03  0.40477574585E+03  0.17200000000E+03 0.  1.
</event>
<event>
 4    1  0.3094855E-002  0.2590123E+03  0.7818608E-02  0.1107738E+00
         -2   -1    0    0    0  501 -0.00000000000E+00  0.00000000000E+00  0.59873175996E+02  0.59873175996E+02  0.00000000000E+00 0.  1.
          2   -1    0    0  502    0  0.00000000000E+00 -0.00000000000E+00 -0.11307577083E+04  0.11307577083E+04  0.00000000000E+00 0. -1.
          6    1    1    2  502    0  0.15942204082E+03 -0.10994544900E+03 -0.59216615090E+03  0.64633438647E+03  0.17200000000E+03 0. -1.
         -6    1    1    2    0  501 -0.15942204082E+03  0.10994544900E+03 -0.47871838141E+03  0.54429649783E+03  0.17200000000E+03 0.  1.
</event>
<event>
 4    1  0.3094855E-002  0.6117163E+03  0.7818608E-02  0.9881392E-01
          2   -1    0    0  502    0  0.00000000000E+00  0.00000000000E+00  0.15308451079E+04  0.15308451079E+04  0.00000000000E+00 0. -1.
         -2   -1    0    0    0  501 -0.00000000000E+00 -0.00000000000E+00 -0.27185124464E+03  0.27185124464E+03  0.00000000000E+00 0.  1.
          6    1    1    2  502    0  0.38949561062E+03  0.43921066446E+03  0.91572123771E+03  0.11012457599E+04  0.17200000000E+03 0. -1.
         -6    1    1    2    0  501 -0.38949561062E+03 -0.43921066446E+03  0.34327262552E+03  0.70145059263E+03  0.17200000000E+03 0.  1.
</event>
<event>
 4    1  0.3094855E-002  0.2837825E+03  0.7818608E-02  0.1093641E+00
         -2   -1    0    0    0  501 -0.00000000000E+00  0.00000000000E+00  0.71414871677E+02  0.71414871677E+02  0.00000000000E+00 0.  1.
          2   -1    0    0  502    0  0.00000000000E+00 -0.00000000000E+00 -0.14527015492E+04  0.14527015492E+04  0.00000000000E+00 0. -1.
          6    1    1    2  502    0 -0.60980778931E+02  0.21732432927E+03 -0.10511071464E+04  0.10887418209E+04  0.17200000000E+03 0. -1.
         -6    1    1    2    0  501  0.60980778931E+02 -0.21732432927E+03 -0.33017953118E+03  0.43537459997E+03  0.17200000000E+03 0.  1.
</event>
<event>
 4    1  0.3094855E-002  0.3099055E+03  0.7818608E-02  0.1080391E+00
          2   -1    0    0  502    0  0.00000000000E+00  0.00000000000E+00  0.55018489156E+03  0.55018489156E+03  0.00000000000E+00 0. -1.
         -2   -1    0    0    0  501 -0.00000000000E+00 -0.00000000000E+00 -0.31776747617E+03  0.31776747617E+03  0.00000000000E+00 0.  1.
          6    1    1    2  502    0 -0.25718070686E+03  0.17763099070E+02  0.40754245696E+03  0.51198857203E+03  0.17200000000E+03 0. -1.
         -6    1    1    2    0  501  0.25718070686E+03 -0.17763099070E+02 -0.17512504156E+03  0.35596379570E+03  0.17200000000E+03 0.  1.
</event>
<event>
 4    1  0.3094855E-002  0.3931559E+03  0.7818608E-02  0.1046176E+00
         -2   -1    0    0    0  501 -0.00000000000E+00  0.00000000000E+00  0.81374627022E+03  0.81374627022E+03  0.00000000000E+00 0.  1.
          2   -1    0    0  502    0  0.00000000000E+00 -0.00000000000E+00 -0.48820618371E+03  0.48820618371E+03  0.00000000000E+00 0. -1.
          6    1    1    2  502    0 -0.10594711833E+03 -0.33728736973E+03 -0.34604250082E+03  0.52375277950E+03  0.17200000000E+03 0. -1.
         -6    1    1    2    0  501  0.10594711833E+03  0.33728736973E+03  0.67158258733E+03  0.77819967442E+03  0.17200000000E+03 0.  1.
</event>
<event>
 4    1  0.3094855E-002  0.1969932E+03  0.7818608E-02  0.1152301E+00
         -2   -1    0    0    0  501 -0.00000000000E+00  0.00000000000E+00  0.93948879189E+02  0.93948879189E+02  0.00000000000E+00 0.  1.
          2   -1    0    0  502    0  0.00000000000E+00 -0.00000000000E+00 -0.47610016748E+03  0.47610016748E+03  0.00000000000E+00 0. -1.
          6    1    1    2  502    0 -0.94428907662E+02  0.17478967966E+02 -0.29479235773E+03  0.35455446281E+03  0.17200000000E+03 0. -1.
         -6    1    1    2    0  501  0.94428907662E+02 -0.17478967966E+02 -0.87358930562E+02  0.21549458386E+03  0.17200000000E+03 0.  1.
</event>
<event>
 4    1  0.3094855E-002  0.6028433E+03  0.7818608E-02  0.9899525E-01
          1   -1    0    0  502    0  0.00000000000E+00  0.00000000000E+00  0.28387274811E+04  0.28387274811E+04  0.00000000000E+00 0. -1.
         -1   -1    0    0    0  501 -0.00000000000E+00 -0.00000000000E+00 -0.15423973953E+03  0.15423973953E+03  0.00000000000E+00 0.  1.
          6    1    1    2  502    0  0.26477889235E+03  0.51354468726E+03  0.19592225654E+04  0.20498714760E+04  0.17200000000E+03 0.  1.
         -6    1    1    2    0  501 -0.26477889235E+03 -0.51354468726E+03  0.72526517624E+03  0.94309574462E+03  0.17200000000E+03 0.  1.
</event>
<event>
 4    1  0.3094855E-002  0.1759385E+03  0.7818608E-02  0.1171793E+00
         -2   -1    0    0    0  501 -0.00000000000E+00  0.00000000000E+00  0.59416486725E+02  0.59416486725E+02  0.00000000000E+00 0.  1.
          2   -1    0    0  502    0  0.00000000000E+00 -0.00000000000E+00 -0.10888297223E+04  0.10888297223E+04  0.00000000000E+00 0. -1.
          6    1    1    2  502    0  0.30125626712E+02  0.21512759511E+02 -0.92932126430E+03  0.94582892982E+03  0.17200000000E+03 0. -1.
         -6    1    1    2    0  501 -0.30125626712E+02 -0.21512759511E+02 -0.10009197127E+03  0.20241727920E+03  0.17200000000E+03 0.  1.
</event>
<event>
 4    1  0.3094855E-002  0.1925740E+03  0.7818608E-02  0.1156160E+00
          1   -1    0    0  502    0  0.00000000000E+00  0.00000000000E+00  0.78916025932E+03  0.78916025932E+03  0.00000000000E+00 0. -1.
         -1   -1    0    0    0  501 -0.00000000000E+00 -0.00000000000E+00 -0.49463645522E+02  0.49463645522E+02  0.00000000000E+00 0.  1.
          6    1    1    2  502    0 -0.86335199254E+02 -0.68542197097E+01  0.27612912703E+03  0.33664824632E+03  0.17200000000E+03 0.  1.
         -6    1    1    2    0  501  0.86335199254E+02  0.68542197097E+01  0.46356748677E+03  0.50197565852E+03  0.17200000000E+03 0. -1.
</event>
<event>
 4    1  0.3094855E-002  0.1971029E+03  0.7818608E-02  0.1152207E+00
         -2   -1    0    0    0  501 -0.00000000000E+00  0.00000000000E+00  0.40658623394E+03  0.40658623394E+03  0.00000000000E+00 0.  1.
          2   -1    0    0  502    0  0.00000000000E+00 -0.00000000000E+00 -0.19429074555E+03  0.19429074555E+03  0.00000000000E+00 0. -1.
          6    1    1    2  502    0  0.40888263026E+02 -0.87141931100E+02 -0.10803099279E+03  0.22476712752E+03  0.17200000000E+03 0. -1.
         -6    1    1    2    0  501 -0.40888263026E+02  0.87141931100E+02  0.32032648117E+03  0.37610985197E+03  0.17200000000E+03 0.  1.
</event>
<event>
 4    1  0.3094855E-002  0.6599131E+03  0.7818608E-02  0.9788354E-01
         -2   -1    0    0    0  501 -0.00000000000E+00  0.00000000000E+00  0.15715241614E+03  0.15715241614E+03  0.00000000000E+00 0.  1.
          2   -1    0    0  502    0  0.00000000000E+00 -0.00000000000E+00 -0.28376743241E+04  0.28376743241E+04  0.00000000000E+00 0. -1.
          6    1    1    2  502    0 -0.38694522498E+03 -0.50613706245E+03 -0.11109059855E+04  0.12921290345E+04  0.17200000000E+03 0. -1.
         -6    1    1    2    0  501  0.38694522498E+03  0.50613706245E+03 -0.15696159225E+04  0.17026977058E+04  0.17200000000E+03 0.  1.
</event>
<event>
 4    1  0.3094855E-002  0.2150849E+03  0.7818608E-02  0.1137601E+00
          1   -1    0    0  502    0  0.00000000000E+00  0.00000000000E+00  0.11284580372E+03  0.11284580372E+03  0.00000000000E+00 0. -1.
         -1   -1    0    0    0  501 -0.00000000000E+00 -0.00000000000E+00 -0.42449293580E+03  0.42449293580E+03  0.00000000000E+00 0.  1.
          6    1    1    2  502    0  0.12914058631E+03 -0.47605118668E+00 -0.20554671490E+03  0.29750793211E+03  0.17200000000E+03 0.  1.
         -6    1    1    2    0  501 -0.12914058631E+03  0.47605118668E+00 -0.10610041718E+03  0.23983080741E+03  0.17200000000E+03 0.  1.
</event>
<event>
 4    1  0.3094855E-002  0.2644623E+03  0.7818608E-02  0.1104491E+00
         -2   -1    0    0    0  501 -0.00000000000E+00  0.00000000000E+00  0.52744959548E+02  0.52744959548E+02  0.00000000000E+00 0.  1.
          2   -1    0    0  502    0  0.00000000000E+00 -0.00000000000E+00 -0.14412309287E+04  0.14412309287E+04  0.00000000000E+00 0. -1.
          6    1    1    2  502    0 -0.17269889545E+03 -0.10262265259E+03 -0.48303348953E+03  0.55069199134E+03  0.17200000000E+03 0. -1.
         -6    1    1    2    0  501  0.17269889545E+03  0.10262265259E+03 -0.90545247962E+03  0.94328389691E+03  0.17200000000E+03 0.  1.
</event>
<event>
 4    1  0.3094855E-002  0.2381737E+03  0.7818608E-02  0.1121015E+00
         -2   -1    0    0    0  501 -0.00000000000E+00  0.00000000000E+00  0.36870310287E+03  0.36870310287E+03  0.00000000000E+00 0.  1.
          2   -1    0    0  502    0  0.00000000000E+00 -0.00000000000E+00 -0.33147602388E+03  0.33147602388E+03  0.00000000000E+00 0. -1.
          6    1    1    2  502    0  0.74735576803E+02 -0.14682407298E+03 -0.23765814486E+03  0.33646412686E+03  0.17200000000E+03 0. -1.
         -6    1    1    2    0  501 -0.74735576803E+02  0.14682407298E+03  0.27488522386E+03  0.36371499989E+03  0.17200000000E+03 0.  1.
</event>
<event>
 4    1  0.3094855E-002  0.1753837E+03  0.7818608E-02  0.1172347E+00
          2   -1    0    0  502    0  0.00000000000E+00  0.00000000000E+00  0.38286862868E+03  0.38286862868E+03  0.00000000000E+00 0. -1.
         -2   -1    0    0    0  501 -0.00000000000E+00 -0.00000000000E+00 -0.80954714280E+02  0.80954714280E+02  0.00000000000E+00 0.  1.
          6    1    1    2  502    0 -0.26689789167E+01  0.34180506262E+02  0.17117574224E+03  0.24507257127E+03  0.17200000000E+03 0. -1.
         -6    1    1    2    0  501  0.26689789167E+01 -0.34180506262E+02  0.13073817216E+03  0.21875077170E+03  0.17200000000E+03 0. -1.
</event>
<event>
 4    1  0.3094855E-002  0.2025003E+03  0.7818608E-02  0.1147646E+00
          2   -1    0    0  502    0  0.00000000000E+00  0.00000000000E+00  0.21653408769E+04  0.21653408769E+04  0.00000000000E+00 0. -1.
         -2   -1    0    0    0  501 -0.00000000000E+00 -0.00000000000E+00 -0.10672403720E+03  0.10672403720E+03  0.00000000000E+00 0.  1.
          6    1    1    2  502    0 -0.94583586503E+02  0.49762610398E+02  0.20596312282E+04  0.20695620717E+04  0.17200000000E+03 0. -1.
         -6    1    1    2    0  501  0.94583586503E+02 -0.49762610398E+02 -0.10143884673E+01  0.20250284248E+03  0.17200000000E+03 0.  1.
</event>
<event>
 4    1  0.3094855E-002  0.2023175E+03  0.7818608E-02  0.1147798E+00
          2   -1    0    0  502    0  0.00000000000E+00  0.00000000000E+00  0.28474412086E+04  0.28474412086E+04  0.00000000000E+00 0. -1.
         -2   -1    0    0    0  501 -0.00000000000E+00 -0.00000000000E+00 -0.14377121568E+02  0.14377121568E+02  0.00000000000E+00 0.  1.
          6    1    1    2  502    0  0.90223678096E+02 -0.56639838896E+02  0.13997591126E+04  0.14143047609E+04  0.17200000000E+03 0.  1.
         -6    1    1    2    0  501 -0.90223678096E+02  0.56639838896E+02  0.14333049744E+04  0.14475135692E+04  0.17200000000E+03 0.  1.
</event>
<event>
 4    1  0.3094855E-002  0.1773827E+03  0.7818608E-02  0.1170360E+00
          1   -1    0    0  502    0  0.00000000000E+00  0.00000000000E+00  0.19469294934E+04  0.19469294934E+04  0.00000000000E+00 0. -1.
         -1   -1    0    0    0  501 -0.00000000000E+00 -0.00000000000E+00 -0.18224487090E+02  0.18224487090E+02  0.00000000000E+00 0.  1.
          6    1    1    2  502    0 -0.25398227627E+02 -0.35150412168E+02  0.63373645951E+03  0.65809309490E+03  0.17200000000E+03 0.  1.
         -6    1    1    2    0  501  0.25398227627E+02  0.35150412168E+02  0.12949685468E+04  0.13070608856E+04  0.17200000000E+03 0. -1.
</event>
<event>
 4    1  0.3094855E-002  0.2185085E+03  0.7818608E-02  0.1135000E+00
         -2   -1    0    0    0  501 -0.00000000000E+00  0.00000000000E+00  0.20164498590E+03  0.20164498590E+03  0.00000000000E+00 0.  1.
          2   -1    0    0  502    0  0.00000000000E+00 -0.00000000000E+00 -0.32941568714E+04  0.32941568714E+04  0.00000000000E+00 0. -1.
          6    1    1    2  502    0  0.13367732954E+03  0.17097333498E+02 -0.32301664428E+04  0.32375486398E+04  0.17200000000E+03 0. -1.
         -6    1    1    2    0  501 -0.13367732954E+03 -0.17097333498E+02  0.13765455721E+03  0.25825321753E+03  0.17200000000E+03 0.  1.
</event>
<event>
 4    1  0.3094855E-002  0.4287676E+03  0.7818608E-02  0.1034250E+00
          2   -1    0    0  502    0  0.00000000000E+00  0.00000000000E+00  0.10011450000E+04  0.10011450000E+04  0.00000000000E+00 0. -1.
         -2   -1    0    0    0  501 -0.00000000000E+00 -0.00000000000E+00 -0.39566027466E+03  0.39566027466E+03  0.00000000000E+00 0.  1.
          6    1    1    2  502    0  0.33066230396E+00 -0.39275637578E+03  0.81400273056E+03  0.92002289397E+03  0.17200000000E+03 0. -1.
         -6    1    1    2    0  501 -0.33066230396E+00  0.39275637578E+03 -0.20851800521E+03  0.47678238070E+03  0.17200000000E+03 0.  1.
</event>
<event>
 4    1  0.3094855E-002  0.2202397E+03  0.7818608E-02  0.1133704E+00
          2   -1    0    0  502    0  0.00000000000E+00  0.00000000000E+00  0.99353152317E+03  0.99353152317E+03  0.00000000000E+00 0. -1.
         -2   -1    0    0    0  501 -0.00000000000E+00 -0.00000000000E+00 -0.97727073470E+02  0.97727073470E+02  0.00000000000E+00 0.  1.
          6    1    1    2  502    0  0.12517722511E+02 -0.13698481011E+03  0.83388698950E+03  0.86248074925E+03  0.17200000000E+03 0. -1.
         -6    1    1    2    0  501 -0.12517722511E+02  0.13698481011E+03  0.61917460200E+02  0.22877784739E+03  0.17200000000E+03 0.  1.
</event>
<event>
 4    1  0.3094855E-002  0.2350480E+03  0.7818608E-02  0.1123136E+00
         -2   -1    0    0    0  501 -0.00000000000E+00  0.00000000000E+00  0.76529424810E+02  0.76529424810E+02  0.00000000000E+00 0.  1.
          2   -1    0    0  502    0  0.00000000000E+00 -0.00000000000E+00 -0.86746856407E+03  0.86746856407E+03  0.00000000000E+00 0. -1.
          6    1    1    2  502    0  0.85916981408E+02 -0.13521038406E+03 -0.58881273342E+03  0.63399369925E+03  0.17200000000E+03 0.  1.
         -6    1    1    2    0  501 -0.85916981408E+02  0.13521038406E+03 -0.20212640584E+03  0.31000428963E+03  0.17200000000E+03 0.  1.
</event>
<event>
 4    1  0.3094855E-002  0.2366140E+03  0.7818608E-02  0.1122069E+00
          2   -1    0    0  502    0  0.00000000000E+00  0.00000000000E+00  0.26511371153E+04  0.26511371153E+04  0.00000000000E+00 0. -1.
         -2   -1    0    0    0  501 -0.00000000000E+00 -0.00000000000E+00 -0.24358665967E+02  0.24358665967E+02  0.00000000000E+00 0.  1.
          6    1    1    2  502    0 -0.30005284781E+02  0.15969299424E+03  0.82543575544E+03  0.85867942556E+03  0.17200000000E+03 0. -1.
         -6    1    1    2    0  501  0.30005284781E+02 -0.15969299424E+03  0.18013426939E+04  0.18168163557E+04  0.17200000000E+03 0.  1.
</event>
<event>
 4    1  0.3094855E-002  0.5340580E+03  0.7818608E-02  0.1005253E+00
         -2   -1    0    0    0  501 -0.00000000000E+00  0.00000000000E+00  0.93064730482E+02  0.93064730482E+02  0.00000000000E+00 0.  1.
          2   -1    0    0  502    0  0.00000000000E+00 -0.00000000000E+00 -0.32828417404E+04  0.32828417404E+04  0.00000000000E+00 0. -1.
          6    1    1    2  502    0 -0.34559791607E+03 -0.36904740993E+03 -0.20299782240E+04  0.20990544300E+04  0.17200000000E+03 0. -1.
         -6    1    1    2    0  501  0.34559791607E+03  0.36904740993E+03 -0.11597987859E+04  0.12768520408E+04  0.17200000000E+03 0.  1.
</event>
<event>
 4    1  0.3094855E-002  0.2051685E+03  0.7818608E-02  0.1145450E+00
          2   -1    0    0  502    0  0.00000000000E+00  0.00000000000E+00  0.77094728846E+02  0.77094728846E+02  0.00000000000E+00 0. -1.
         -2   -1    0    0    0  501 -0.00000000000E+00 -0.00000000000E+00 -0.54932943323E+03  0.54932943323E+03  0.00000000000E+00 0.  1.
          6    1    1    2  502    0  0.96927398555E+02 -0.55813732801E+02 -0.21175087230E+03  0.29484322153E+03  0.17200000000E+03 0.  1.
         -6    1    1    2    0  501 -0.96927398555E+02  0.55813732801E+02 -0.26048383208E+03  0.33158094055E+03  0.17200000000E+03 0.  1.
</event>
<event>
 4    1  0.3094855E-002  0.3649181E+03  0.7818608E-02  0.1056653E+00
         -2   -1    0    0    0  501 -0.00000000000E+00  0.00000000000E+00  0.14802111550E+03  0.14802111550E+03  0.00000000000E+00 0.  1.
          2   -1    0    0  502    0  0.00000000000E+00 -0.00000000000E+00 -0.96789707116E+03  0.96789707116E+03  0.00000000000E+00 0. -1.
          6    1    1    2  502    0  0.14694350021E+03  0.28633695204E+03 -0.26176405339E+03  0.44909426851E+03  0.17200000000E+03 0. -1.
         -6    1    1    2    0  501 -0.14694350021E+03 -0.28633695204E+03 -0.55811190227E+03  0.66682391815E+03  0.17200000000E+03 0.  1.
</event>
<event>
 4    1  0.3094855E-002  0.1995718E+03  0.7818608E-02  0.1150101E+00
         -1   -1    0    0    0  501 -0.00000000000E+00  0.00000000000E+00  0.13272688564E+04  0.13272688564E+04  0.00000000000E+00 0.  1.
          1   -1    0    0  502    0  0.00000000000E+00 -0.00000000000E+00 -0.53279703275E+02  0.53279703275E+02  0.00000000000E+00 0. -1.
          6    1    1    2  502    0 -0.13066781941E+02  0.10037004866E+03  0.10931926499E+04  0.11112601213E+04  0.17200000000E+03 0.  1.
         -6    1    1    2    0  501  0.13066781941E+02 -0.10037004866E+03  0.18079650328E+03  0.26928843840E+03  0.17200000000E+03 0. -1.
</event>
<event>
 4    1  0.3094855E-002  0.2645190E+03  0.7818608E-02  0.1104458E+00
         -2   -1    0    0    0  501 -0.00000000000E+00  0.00000000000E+00  0.10308779426E+03  0.10308779426E+03  0.00000000000E+00 0.  1.
          2   -1    0    0  502    0  0.00000000000E+00 -0.00000000000E+00 -0.71729779420E+03  0.71729779420E+03  0.00000000000E+00 0. -1.
          6    1    1    2  502    0  0.45276525882E+02  0.19579664978E+03 -0.21200773753E+03  0.33899494485E+03  0.17200000000E+03 0.  1.
         -6    1    1    2    0  501 -0.45276525882E+02 -0.19579664978E+03 -0.40220226241E+03  0.48139064361E+03  0.17200000000E+03 0. -1.
</event>
<event>
 4    1  0.3094855E-002  0.2216124E+03  0.7818608E-02  0.1132687E+00
         -2   -1    0    0    0  501 -0.00000000000E+00  0.00000000000E+00  0.23829214648E+03  0.23829214648E+03  0.00000000000E+00 0.  1.
          2   -1    0    0  502    0  0.00000000000E+00 -0.00000000000E+00 -0.26588744480E+03  0.26588744480E+03  0.00000000000E+00 0. -1.
          6    1    1    2  502    0  0.13898299615E+03 -0.14552876321E+02 -0.13333692353E+03  0.25863254746E+03  0.17200000000E+03 0. -1.
         -6    1    1    2    0  501 -0.13898299615E+03  0.14552876321E+02  0.10574162521E+03  0.24554704382E+03  0.17200000000E+03 0.  1.
</event>
<event>
 4    1  0.3094855E-002  0.4168396E+03  0.7818608E-02  0.1038100E+00
         -1   -1    0    0    0  501 -0.00000000000E+00  0.00000000000E+00  0.43852298435E+03  0.43852298435E+03  0.00000000000E+00 0.  1.
          1   -1    0    0  502    0  0.00000000000E+00 -0.00000000000E+00 -0.67015143988E+03  0.67015143988E+03  0.00000000000E+00 0. -1.
          6    1    1    2  502    0 -0.36669865469E+02  0.37792407507E+03 -0.47022082021E+03  0.62838117836E+03  0.17200000000E+03 0. -1.
         -6    1    1    2    0  501  0.36669865469E+02 -0.37792407507E+03  0.23859236467E+03  0.48029324588E+03  0.17200000000E+03 0.  1.
</event>
<event>
 4    1  0.3094855E-002  0.1971633E+03  0.7818608E-02  0.1152155E+00
         -2   -1    0    0    0  501 -0.00000000000E+00  0.00000000000E+00  0.51958240861E+02  0.51958240861E+02  0.00000000000E+00 0.  1.
          2   -1    0    0  502    0  0.00000000000E+00 -0.00000000000E+00 -0.76672578920E+03  0.76672578920E+03  0.00000000000E+00 0. -1.
          6    1    1    2  502    0  0.90145361926E+02 -0.34105619908E+02 -0.29369616012E+03  0.35373834123E+03  0.17200000000E+03 0.  1.
         -6    1    1    2    0  501 -0.90145361926E+02  0.34105619908E+02 -0.42107138822E+03  0.46494568883E+03  0.17200000000E+03 0.  1.
</event>
<event>
 4    1  0.3094855E-002  0.1848225E+03  0.7818608E-02  0.1163216E+00
          2   -1    0    0  502    0  0.00000000000E+00  0.00000000000E+00  0.66922847357E+02  0.66922847357E+02  0.00000000000E+00 0. -1.
         -2   -1    0    0    0  501 -0.00000000000E+00 -0.00000000000E+00 -0.51097760918E+03  0.51097760918E+03  0.00000000000E+00 0.  1.
          6    1    1    2  502    0  0.53718350267E+02  0.41105970232E+02 -0.23149529457E+03  0.29622530843E+03  0.17200000000E+03 0. -1.
         -6    1    1    2    0  501 -0.53718350267E+02 -0.41105970232E+02 -0.21255946725E+03  0.28167514811E+03  0.17200000000E+03 0.  1.
</event>
<event>
 4    1  0.3094855E-002  0.2167468E+03  0.7818608E-02  0.1136332E+00
         -1   -1    0    0    0  501 -0.00000000000E+00  0.00000000000E+00  0.41568665808E+03  0.41568665808E+03  0.00000000000E+00 0.  1.
          1   -1    0    0  502    0  0.00000000000E+00 -0.00000000000E+00 -0.11982450859E+03  0.11982450859E+03  0.00000000000E+00 0. -1.
          6    1    1    2  502    0 -0.17860241599E+02 -0.13067590736E+03  0.84105242513E+02  0.23249273712E+03  0.17200000000E+03 0. -1.
         -6    1    1    2    0  501  0.17860241599E+02  0.13067590736E+03  0.21175690699E+03  0.30301842955E+03  0.17200000000E+03 0.  1.
</event>
<event>
 4    1  0.3094855E-002  0.1948690E+03  0.7818608E-02  0.1154142E+00
          1   -1    0    0  502    0  0.00000000000E+00  0.00000000000E+00  0.59036698496E+02  0.59036698496E+02  0.00000000000E+00 0. -1.
         -1   -1    0    0    0  501 -0.00000000000E+00 -0.00000000000E+00 -0.89675841369E+03  0.89675841369E+03  0.00000000000E+00 0.  1.
          6    1    1    2  502    0  0.15944175775E+02  0.90198173813E+02 -0.16475539519E+03  0.25518281201E+03  0.17200000000E+03 0. -1.
         -6    1    1    2    0  501 -0.15944175775E+02 -0.90198173813E+02 -0.67296632000E+03  0.70061230018E+03  0.17200000000E+03 0.  1.
</event>
<event>
 4    1  0.3094855E-002  0.3732757E+03  0.7818608E-02  0.1053447E+00
          1   -1    0    0  502    0  0.00000000000E+00  0.00000000000E+00  0.19003617254E+03  0.19003617254E+03  0.00000000000E+00 0. -1.
         -1   -1    0    0    0  501 -0.00000000000E+00 -0.00000000000E+00 -0.16358561150E+04  0.16358561150E+04  0.00000000000E+00 0.  1.
          6    1    1    2  502    0 -0.37910072497E+02 -0.32911032232E+03 -0.44747976318E+02  0.37594834650E+03  0.17200000000E+03 0. -1.
         -6    1    1    2    0  501  0.37910072497E+02  0.32911032232E+03 -0.14010719662E+04  0.14499439411E+04  0.17200000000E+03 0.  1.
</event>
<event>
 4    1  0.3094855E-002  0.2233592E+03  0.7818608E-02  0.1131403E+00
         -1   -1    0    0    0  501 -0.00000000000E+00  0.00000000000E+00  0.37778886465E+03  0.37778886465E+03  0.00000000000E+00 0.  1.
          1   -1    0    0  502    0  0.00000000000E+00 -0.00000000000E+00 -0.14378867728E+03  0.14378867728E+03  0.00000000000E+00 0. -1.
          6    1    1    2  502    0 -0.97065519076E+02  0.10432456630E+03  0.42505808144E+02  0.22736770627E+03  0.17200000000E+03 0. -1.
         -6    1    1    2    0  501  0.97065519076E+02 -0.10432456630E+03  0.19149437922E+03  0.29420983566E+03  0.17200000000E+03 0. -1.
</event>
<event>
 4    1  0.3094855E-002  0.2604565E+03  0.7818608E-02  0.1106869E+00
          1   -1    0    0  502    0  0.00000000000E+00  0.00000000000E+00  0.13193871697E+04  0.13193871697E+04  0.00000000000E+00 0. -1.
         -1   -1    0    0    0  501 -0.00000000000E+00 -0.00000000000E+00 -0.64655374974E+02  0.64655374974E+02  0.00000000000E+00 0.  1.
          6    1    1    2  502    0  0.16379326976E+03  0.10688943445E+03  0.94051499936E+03  0.97591293179E+03  0.17200000000E+03 0.  1.
         -6    1    1    2    0  501 -0.16379326976E+03 -0.10688943445E+03  0.31421679533E+03  0.40812961285E+03  0.17200000000E+03 0.  1.
</event>
<event>
 4    1  0.3094855E-002  0.1817407E+03  0.7818608E-02  0.1166129E+00
          2   -1    0    0  502    0  0.00000000000E+00  0.00000000000E+00  0.64148898652E+03  0.64148898652E+03  0.00000000000E+00 0. -1.
         -2   -1    0    0    0  501 -0.00000000000E+00 -0.00000000000E+00 -0.51493339983E+02  0.51493339983E+02  0.00000000000E+00 0.  1.
          6    1    1    2  502    0 -0.84616568519E+01  0.58086866947E+02  0.29814588384E+03  0.34917137884E+03  0.17200000000E+03 0.  1.
         -6    1    1    2    0  501  0.84616568519E+01 -0.58086866947E+02  0.29184976270E+03  0.34381094767E+03  0.17200000000E+03 0. -1.
</event>
<event>
 4    1  0.3094855E-002  0.2661170E+03  0.7818608E-02  0.1103523E+00
         -2   -1    0    0    0  501 -0.00000000000E+00  0.00000000000E+00  0.83915709822E+02  0.83915709822E+02  0.00000000000E+00 0.  1.
          2   -1    0    0  502    0  0.00000000000E+00 -0.00000000000E+00 -0.89326858389E+03  0.89326858389E+03  0.00000000000E+00 0. -1.
          6    1    1    2  502    0  0.11415294500E+03  0.16793855872E+03 -0.51951483063E+03  0.58370704433E+03  0.17200000000E+03 0. -1.
         -6    1    1    2    0  501 -0.11415294500E+03 -0.16793855872E+03 -0.28983804345E+03  0.39347724939E+03  0.17200000000E+03 0.  1.
</event>
<event>
 4    1  0.3094855E-002  0.2841238E+03  0.7818608E-02  0.1093458E+00
          2   -1    0    0  502    0  0.00000000000E+00  0.00000000000E+00  0.25516562706E+03  0.25516562706E+03  0.00000000000E+00 0. -1.
         -2   -1    0    0    0  501 -0.00000000000E+00 -0.00000000000E+00 -0.33839462801E+03  0.33839462801E+03  0.00000000000E+00 0.  1.
          6    1    1    2  502    0  0.18991133311E+03  0.12278451764E+03  0.34102382221E+02  0.28616310854E+03  0.17200000000E+03 0. -1.
         -6    1    1    2    0  501 -0.18991133311E+03 -0.12278451764E+03 -0.11733138318E+03  0.30739714653E+03  0.17200000000E+03 0. -1.
</event>
<event>
 4    1  0.3094855E-002  0.3656033E+03  0.7818608E-02  0.1056387E+00
         -2   -1    0    0    0  501 -0.00000000000E+00  0.00000000000E+00  0.55624488490E+03  0.55624488490E+03  0.00000000000E+00 0.  1.
          2   -1    0    0  502    0  0.00000000000E+00 -0.00000000000E+00 -0.44416245727E+03  0.44416245727E+03  0.00000000000E+00 0. -1.
          6    1    1    2  502    0  0.32161126034E+03  0.25455186085E+02 -0.28283754065E+03  0.46223678312E+03  0.17200000000E+03 0. -1.
         -6    1    1    2    0  501 -0.32161126034E+03 -0.25455186085E+02  0.39491996828E+03  0.53817055904E+03  0.17200000000E+03 0.  1.
</event>
<event>
 4    1  0.3094855E-002  0.1778637E+03  0.7818608E-02  0.1169887E+00
          2   -1    0    0  502    0  0.00000000000E+00  0.00000000000E+00  0.14296952006E+04  0.14296952006E+04  0.00000000000E+00 0. -1.
         -2   -1    0    0    0  501 -0.00000000000E+00 -0.00000000000E+00 -0.41548225272E+02  0.41548225272E+02  0.00000000000E+00 0.  1.
          6    1    1    2  502    0  0.42164621023E+02 -0.16542357109E+02  0.11970082043E+04  0.12101504642E+04  0.17200000000E+03 0. -1.
         -6    1    1    2    0  501 -0.42164621023E+02  0.16542357109E+02  0.19113877103E+03  0.26109296168E+03  0.17200000000E+03 0.  1.
</event>
<event>
 4    1  0.3094855E-002  0.1820380E+03  0.7818608E-02  0.1165845E+00
          1   -1    0    0  502    0  0.00000000000E+00  0.00000000000E+00  0.72156188906E+03  0.72156188906E+03  0.00000000000E+00 0. -1.
         -1   -1    0    0    0  501 -0.00000000000E+00 -0.00000000000E+00 -0.46152417482E+02  0.46152417482E+02  0.00000000000E+00 0.  1.
          6    1    1    2  502    0  0.57858049929E+02  0.14362572419E+02  0.36464127542E+03  0.40755502349E+03  0.17200000000E+03 0.  1.
         -6    1    1    2    0  501 -0.57858049929E+02 -0.14362572419E+02  0.31076819615E+03  0.36015928305E+03  0.17200000000E+03 0.  1.
</event>
<event>
 4    1  0.3094855E-002  0.2017389E+03  0.7818608E-02  0.1148280E+00
          2   -1    0    0  502    0  0.00000000000E+00  0.00000000000E+00  0.35870590212E+03  0.35870590212E+03  0.00000000000E+00 0. -1.
         -2   -1    0    0    0  501 -0.00000000000E+00 -0.00000000000E+00 -0.12107307246E+03  0.12107307246E+03  0.00000000000E+00 0.  1.
          6    1    1    2  502    0 -0.10892351154E+02 -0.10486148095E+03  0.17897299956E+03  0.26968483100E+03  0.17200000000E+03 0.  1.
         -6    1    1    2    0  501  0.10892351154E+02  0.10486148095E+03  0.58659830099E+02  0.21009414358E+03  0.17200000000E+03 0.  1.
</event>
<event>
 4    1  0.3094855E-002  0.1928495E+03  0.7818608E-02  0.1155916E+00
          2   -1    0    0  502    0  0.00000000000E+00  0.00000000000E+00  0.63813933890E+03  0.63813933890E+03  0.00000000000E+00 0. -1.
         -2   -1    0    0    0  501 -0.00000000000E+00 -0.00000000000E+00 -0.12299342530E+03  0.12299342530E+03  0.00000000000E+00 0.  1.
          6    1    1    2  502    0  0.44688222711E+02  0.74899090445E+02  0.53362176517E+03  0.56740029896E+03  0.17200000000E+03 0. -1.
         -6    1    1    2    0  501 -0.44688222711E+02 -0.74899090445E+02 -0.18475851557E+02  0.19373246524E+03  0.17200000000E+03 0.  1.
</event>
<event>
 4    1  0.3094855E-002  0.4457880E+03  0.7818608E-02  0.1028986E+00
         -2   -1    0    0    0  501 -0.00000000000E+00  0.00000000000E+00  0.29788965005E+03  0.29788965005E+03  0.00000000000E+00 0.  1.
          2   -1    0    0  502    0  0.00000000000E+00 -0.00000000000E+00 -0.93879168748E+03  0.93879168748E+03  0.00000000000E+00 0. -1.
          6    1    1    2  502    0  0.27645475205E+03 -0.30449250069E+03  0.12184549076E+02  0.44595445523E+03  0.17200000000E+03 0. -1.
         -6    1    1    2    0  501 -0.27645475205E+03  0.30449250069E+03 -0.65308658652E+03  0.79072688230E+03  0.17200000000E+03 0. -1.
</event>
<event>
 4    1  0.3094855E-002  0.1732076E+03  0.7818608E-02  0.1174544E+00
          1   -1    0    0  502    0  0.00000000000E+00  0.00000000000E+00  0.29130671051E+03  0.29130671051E+03  0.00000000000E+00 0. -1.
         -1   -1    0    0    0  501 -0.00000000000E+00 -0.00000000000E+00 -0.16523462368E+03  0.16523462368E+03  0.00000000000E+00 0.  1.
          6    1    1    2  502    0  0.18408356856E+02  0.88316094334E+01  0.20314317481E+03  0.26696069823E+03  0.17200000000E+03 0. -1.
         -6    1    1    2    0  501 -0.18408356856E+02 -0.88316094334E+01 -0.77071087988E+02  0.18958063596E+03  0.17200000000E+03 0.  1.
</event>
<event>
 4    1  0.3094855E-002  0.2583475E+03  0.7818608E-02  0.1108140E+00
          2   -1    0    0  502    0  0.00000000000E+00  0.00000000000E+00  0.86582622268E+03  0.86582622268E+03  0.00000000000E+00 0. -1.
         -2   -1    0    0    0  501 -0.00000000000E+00 -0.00000000000E+00 -0.10038824959E+03  0.10038824959E+03  0.00000000000E+00 0.  1.
          6    1    1    2  502    0  0.16968971829E+03 -0.91459413470E+02  0.61547307460E+03  0.66749571561E+03  0.17200000000E+03 0. -1.
         -6    1    1    2    0  501 -0.16968971829E+03  0.91459413470E+02  0.14996489849E+03  0.29871875666E+03  0.17200000000E+03 0.  1.
</event>
<event>
 4    1  0.3094855E-002  0.2707696E+03  0.7818608E-02  0.1100840E+00
          1   -1    0    0  502    0  0.00000000000E+00  0.00000000000E+00  0.37244742422E+03  0.37244742422E+03  0.00000000000E+00 0. -1.
         -1   -1    0    0    0  501 -0.00000000000E+00 -0.00000000000E+00 -0.21208710808E+03  0.21208710808E+03  0.00000000000E+00 0.  1.
          6    1    1    2  502    0  0.17666259821E+03  0.11190399813E+03  0.15851915921E+03  0.31375866879E+03  0.17200000000E+03 0. -1.
         -6    1    1    2    0  501 -0.17666259821E+03 -0.11190399813E+03  0.18411569222E+01  0.27077586351E+03  0.17200000000E+03 0.  1.
</event>
<event>
 4    1  0.3094855E-002  0.4298050E+03  0.7818608E-02  0.1033922E+00
         -1   -1    0    0    0  501 -0.00000000000E+00  0.00000000000E+00  0.42320989382E+03  0.42320989382E+03  0.00000000000E+00 0.  1.
          1   -1    0    0  502    0  0.00000000000E+00 -0.00000000000E+00 -0.49754437536E+03  0.49754437536E+03  0.00000000000E+00 0. -1.
          6    1    1    2  502    0 -0.10138308237E+03 -0.38061769533E+03 -0.19842114301E+03  0.47339551052E+03  0.17200000000E+03 0. -1.
         -6    1    1    2    0  501  0.10138308237E+03  0.38061769533E+03  0.12408666148E+03  0.44735875866E+03  0.17200000000E+03 0.  1.
</event>
<event>
 4    1  0.3094855E-002  0.2301309E+03  0.7818608E-02  0.1126548E+00
         -1   -1    0    0    0  501 -0.00000000000E+00  0.00000000000E+00  0.85367916770E+03  0.85367916770E+03  0.00000000000E+00 0.  1.
          1   -1    0    0  502    0  0.00000000000E+00 -0.00000000000E+00 -0.69326683062E+02  0.69326683062E+02  0.00000000000E+00 0. -1.
          6    1    1    2  502    0 -0.10728730860E+03 -0.10892964709E+03  0.24253209894E+03  0.33433823236E+03  0.17200000000E+03 0. -1.
         -6    1    1    2    0  501  0.10728730860E+03  0.10892964709E+03  0.54182038569E+03  0.58866761840E+03  0.17200000000E+03 0.  1.
</event>
<event>
 4    1  0.3094855E-002  0.2951382E+03  0.7818608E-02  0.1087697E+00
         -2   -1    0    0    0  501 -0.00000000000E+00  0.00000000000E+00  0.80288782225E+02  0.80288782225E+02  0.00000000000E+00 0.  1.
          2   -1    0    0  502    0  0.00000000000E+00 -0.00000000000E+00 -0.21538261432E+04  0.21538261432E+04  0.00000000000E+00 0. -1.
          6    1    1    2  502    0 -0.19898563032E+03  0.13389276336E+03 -0.18237073208E+04  0.18474346930E+04  0.17200000000E+03 0. -1.
         -6    1    1    2    0  501  0.19898563032E+03 -0.13389276336E+03 -0.24983004025E+03  0.38668023245E+03  0.17200000000E+03 0.  1.
</event>
<event>
 4    1  0.3094855E-002  0.2301205E+03  0.7818608E-02  0.1126555E+00
         -1   -1    0    0    0  501 -0.00000000000E+00  0.00000000000E+00  0.70707542291E+02  0.70707542291E+02  0.00000000000E+00 0.  1.
          1   -1    0    0  502    0  0.00000000000E+00 -0.00000000000E+00 -0.12021059373E+04  0.12021059373E+04  0.00000000000E+00 0. -1.
          6    1    1    2  502    0  0.12886674610E+03 -0.82248530678E+02 -0.95644444701E+03  0.98373850147E+03  0.17200000000E+03 0. -1.
         -6    1    1    2    0  501 -0.12886674610E+03  0.82248530678E+02 -0.17495394797E+03  0.28907497809E+03  0.17200000000E+03 0.  1.
</event>
<event>
 4    1  0.3094855E-002  0.3185362E+03  0.7818608E-02  0.1076325E+00
         -2   -1    0    0    0  501 -0.00000000000E+00  0.00000000000E+00  0.19134919953E+03  0.19134919953E+03  0.00000000000E+00 0.  1.
          2   -1    0    0  502    0  0.00000000000E+00 -0.00000000000E+00 -0.10810381557E+04  0.10810381557E+04  0.00000000000E+00 0. -1.
          6    1    1    2  502    0 -0.12742276581E+03  0.23589142454E+03 -0.89894935208E+03  0.95371655277E+03  0.17200000000E+03 0. -1.
         -6    1    1    2    0  501  0.12742276581E+03 -0.23589142454E+03  0.92603958955E+01  0.31867080248E+03  0.17200000000E+03 0.  1.
</event>
<event>
 4    1  0.3094855E-002  0.2205318E+03  0.7818608E-02  0.1133487E+00
          2   -1    0    0  502    0  0.00000000000E+00  0.00000000000E+00  0.40896762552E+03  0.40896762552E+03  0.00000000000E+00 0. -1.
         -2   -1    0    0    0  501 -0.00000000000E+00 -0.00000000000E+00 -0.11894108534E+03  0.11894108534E+03  0.00000000000E+00 0.  1.
          6    1    1    2  502    0  0.11345292861E+03 -0.78604862798E+02  0.14855580969E+03  0.26590058303E+03  0.17200000000E+03 0. -1.
         -6    1    1    2    0  501 -0.11345292861E+03  0.78604862798E+02  0.14147073049E+03  0.26200812783E+03  0.17200000000E+03 0.  1.
</event>
<event>
 4    1  0.3094855E-002  0.3088888E+03  0.7818608E-02  0.1080880E+00
         -2   -1    0    0    0  501 -0.00000000000E+00  0.00000000000E+00  0.45153950371E+03  0.45153950371E+03  0.00000000000E+00 0.  1.
          2   -1    0    0  502    0  0.00000000000E+00 -0.00000000000E+00 -0.60974569686E+03  0.60974569686E+03  0.00000000000E+00 0. -1.
          6    1    1    2  502    0  0.14721880967E+02 -0.25614753952E+03 -0.50805628330E+03  0.59458681686E+03  0.17200000000E+03 0. -1.
         -6    1    1    2    0  501 -0.14721880967E+02  0.25614753952E+03  0.34985009015E+03  0.46669838371E+03  0.17200000000E+03 0.  1.
</event>
<event>
 4    1  0.3094855E-002  0.3142927E+03  0.7818608E-02  0.1078306E+00
         -1   -1    0    0    0  501 -0.00000000000E+00  0.00000000000E+00  0.14351617774E+03  0.14351617774E+03  0.00000000000E+00 0.  1.
          1   -1    0    0  502    0  0.00000000000E+00 -0.00000000000E+00 -0.74610161953E+03  0.74610161953E+03  0.00000000000E+00 0. -1.
          6    1    1    2  502    0 -0.60818009271E+02  0.25592397993E+03 -0.17746897787E+03  0.36093649284E+03  0.17200000000E+03 0. -1.
         -6    1    1    2    0  501  0.60818009271E+02 -0.25592397993E+03 -0.42511646393E+03  0.52868130444E+03  0.17200000000E+03 0. -1.
</event>
<event>
 4    1  0.3094855E-002  0.3422953E+03  0.7818608E-02  0.1065823E+00
         -2   -1    0    0    0  501 -0.00000000000E+00  0.00000000000E+00  0.12276906804E+03  0.12276906804E+03  0.00000000000E+00 0.  1.
          2   -1    0    0  502    0  0.00000000000E+00 -0.00000000000E+00 -0.10155032090E+04  0.10155032090E+04  0.00000000000E+00 0. -1.
          6    1    1    2  502    0 -0.23893625681E+03  0.17461823851E+03 -0.58601822421E+03  0.67866296727E+03  0.17200000000E+03 0. -1.
         -6    1    1    2    0  501  0.23893625681E+03 -0.17461823851E+03 -0.30671591672E+03  0.45960930975E+03  0.17200000000E+03 0.  1.
</event>
<event>
 4    1  0.3094855E-002  0.2317879E+03  0.7818608E-02  0.1125388E+00
         -2   -1    0    0    0  501 -0.00000000000E+00  0.00000000000E+00  0.49750533957E+02  0.49750533957E+02  0.00000000000E+00 0.  1.
          2   -1    0    0  502    0  0.00000000000E+00 -0.00000000000E+00 -0.11095051716E+04  0.11095051716E+04  0.00000000000E+00 0. -1.
          6    1    1    2  502    0 -0.15144675623E+03 -0.34720561084E+02 -0.62455837785E+03  0.66618226085E+03  0.17200000000E+03 0. -1.
         -6    1    1    2    0  501  0.15144675623E+03  0.34720561084E+02 -0.43519625980E+03  0.49307344471E+03  0.17200000000E+03 0. -1.
</event>
<event>
 4    1  0.3094855E-002  0.4367498E+03  0.7818608E-02  0.1031749E+00
          2   -1    0    0  502    0  0.00000000000E+00  0.00000000000E+00  0.11099279516E+04  0.11099279516E+04  0.00000000000E+00 0. -1.
         -2   -1    0    0    0  501 -0.00000000000E+00 -0.00000000000E+00 -0.55744265427E+03  0.55744265427E+03  0.00000000000E+00 0.  1.
          6    1    1    2  502    0  0.38691597928E+03 -0.10706275297E+03  0.96960731986E+03  0.10634325380E+04  0.17200000000E+03 0. -1.
         -6    1    1    2    0  501 -0.38691597928E+03  0.10706275297E+03 -0.41712202256E+03  0.60393806785E+03  0.17200000000E+03 0.  1.
</event>
<event>
 4    1  0.3094855E-002  0.2962903E+03  0.7818608E-02  0.1087110E+00
         -1   -1    0    0    0  501 -0.00000000000E+00  0.00000000000E+00  0.40607495479E+03  0.40607495479E+03  0.00000000000E+00 0.  1.
          1   -1    0    0  502    0  0.00000000000E+00 -0.00000000000E+00 -0.40404299590E+03  0.40404299590E+03  0.00000000000E+00 0. -1.
          6    1    1    2  502    0 -0.45120207387E+02 -0.23699812485E+03 -0.27518010473E+03  0.40436621315E+03  0.17200000000E+03 0. -1.
         -6    1    1    2    0  501  0.45120207387E+02  0.23699812485E+03  0.27721206363E+03  0.40575173754E+03  0.17200000000E+03 0.  1.
</event>
<event>
 4    1  0.3094855E-002  0.2034625E+03  0.7818608E-02  0.1146850E+00
          1   -1    0    0  502    0  0.00000000000E+00  0.00000000000E+00  0.83953940310E+03  0.83953940310E+03  0.00000000000E+00 0. -1.
         -1   -1    0    0    0  501 -0.00000000000E+00 -0.00000000000E+00 -0.57966637896E+02  0.57966637896E+02  0.00000000000E+00 0.  1.
          6    1    1    2  502    0  0.44813141909E+02 -0.99019125911E+02  0.21736072080E+03  0.29772921914E+03  0.17200000000E+03 0.  1.
         -6    1    1    2    0  501 -0.44813141909E+02  0.99019125911E+02  0.56421204441E+03  0.59977682186E+03  0.17200000000E+03 0. -1.
</event>
<event>
 4    1  0.3094855E-002  0.2370466E+03  0.7818608E-02  0.1121776E+00
         -2   -1    0    0    0  501 -0.00000000000E+00  0.00000000000E+00  0.90170988702E+02  0.90170988702E+02  0.00000000000E+00 0.  1.
          2   -1    0    0  502    0  0.00000000000E+00 -0.00000000000E+00 -0.63888353507E+03  0.63888353507E+03  0.00000000000E+00 0. -1.
          6    1    1    2  502    0  0.15421776966E+03 -0.53141130704E+02 -0.21717263837E+03  0.32148881024E+03  0.17200000000E+03 0. -1.
         -6    1    1    2    0  501 -0.15421776966E+03  0.53141130704E+02 -0.33153990800E+03  0.40756571353E+03  0.17200000000E+03 0.  1.
</event>
<event>
 4    1  0.3094855E-002  0.3299316E+03  0.7818608E-02  0.1071167E+00
         -2   -1    0    0    0  501 -0.00000000000E+00  0.00000000000E+00  0.62722090261E+02  0.62722090261E+02  0.00000000000E+00 0.  1.
          2   -1    0    0  502    0  0.00000000000E+00 -0.00000000000E+00 -0.17364907542E+04  0.17364907542E+04  0.00000000000E+00 0. -1.
          6    1    1    2  502    0  0.13228874103E+03 -0.24853680466E+03 -0.85825692684E+03  0.91948888343E+03  0.17200000000E+03 0. -1.
         -6    1    1    2    0  501 -0.13228874103E+03  0.24853680466E+03 -0.81551173711E+03  0.87972396104E+03  0.17200000000E+03 0.  1.
</event>
<event>
 4    1  0.3094855E-002  0.1922666E+03  0.7818608E-02  0.1156433E+00
          2   -1    0    0  502    0  0.00000000000E+00  0.00000000000E+00  0.35941307969E+03  0.35941307969E+03  0.00000000000E+00 0. -1.
         -2   -1    0    0    0  501 -0.00000000000E+00 -0.00000000000E+00 -0.13428368794E+03  0.13428368794E+03  0.00000000000E+00 0.  1.
          6    1    1    2  502    0 -0.80245031528E+02 -0.30711364221E+02  0.23199116955E+03  0.30130774256E+03  0.17200000000E+03 0. -1.
         -6    1    1    2    0  501  0.80245031528E+02  0.30711364221E+02 -0.68617777937E+01  0.19238902508E+03  0.17200000000E+03 0.  1.
</event>
<event>
 4    1  0.3094855E-002  0.1966291E+03  0.7818608E-02  0.1152615E+00
          1   -1    0    0  502    0  0.00000000000E+00  0.00000000000E+00  0.19434818269E+03  0.19434818269E+03  0.00000000000E+00 0. -1.
         -1   -1    0    0    0  501 -0.00000000000E+00 -0.00000000000E+00 -0.20864339323E+03  0.20864339323E+03  0.00000000000E+00 0.  1.
          6    1    1    2  502    0 -0.47020770860E+02  0.82873718150E+02  0.36313124137E+02  0.19995411733E+03  0.17200000000E+03 0.  1.
         -6    1    1    2    0  501  0.47020770860E+02 -0.82873718150E+02 -0.50608334683E+02  0.20303745859E+03  0.17200000000E+03 0.  1.
</event>
<event>
 4    1  0.3094855E-002  0.1786082E+03  0.7818608E-02  0.1169157E+00
          1   -1    0    0  502    0  0.00000000000E+00  0.00000000000E+00  0.42111954525E+03  0.42111954525E+03  0.00000000000E+00 0. -1.
         -1   -1    0    0    0  501 -0.00000000000E+00 -0.00000000000E+00 -0.91592204250E+02  0.91592204250E+02  0.00000000000E+00 0.  1.
          6    1    1    2  502    0 -0.28692359845E+02  0.38647689867E+02  0.27137082353E+03  0.32487385138E+03  0.17200000000E+03 0. -1.
         -6    1    1    2    0  501  0.28692359845E+02 -0.38647689867E+02  0.58156517465E+02  0.18783789812E+03  0.17200000000E+03 0.  1.
</event>
<event>
 4    1  0.3094855E-002  0.4200222E+03  0.7818608E-02  0.1037059E+00
          2   -1    0    0  502    0  0.00000000000E+00  0.00000000000E+00  0.28051948805E+04  0.28051948805E+04  0.00000000000E+00 0. -1.
         -2   -1    0    0    0  501 -0.00000000000E+00 -0.00000000000E+00 -0.20867689068E+03  0.20867689068E+03  0.00000000000E+00 0.  1.
          6    1    1    2  502    0 -0.18627956667E+03 -0.33486496062E+03  0.25578132508E+04  0.25920700694E+04  0.17200000000E+03 0. -1.
         -6    1    1    2    0  501  0.18627956667E+03  0.33486496062E+03  0.38704739049E+02  0.42180170179E+03  0.17200000000E+03 0.  1.
</event>
<event>
 4    1  0.3094855E-002  0.4186810E+03  0.7818608E-02  0.1037496E+00
          2   -1    0    0  502    0  0.00000000000E+00  0.00000000000E+00  0.64045075283E+03  0.64045075283E+03  0.00000000000E+00 0. -1.
         -2   -1    0    0    0  501 -0.00000000000E+00 -0.00000000000E+00 -0.41367887941E+03  0.41367887941E+03  0.00000000000E+00 0.  1.
          6    1    1    2  502    0  0.17207830622E+03 -0.34073274865E+03  0.41997583910E+03  0.59302061929E+03  0.17200000000E+03 0. -1.
         -6    1    1    2    0  501 -0.17207830622E+03  0.34073274865E+03 -0.19320396568E+03  0.46110901295E+03  0.17200000000E+03 0.  1.
</event>
<event>
 4    1  0.3094855E-002  0.4106097E+03  0.7818608E-02  0.1040167E+00
         -2   -1    0    0    0  501 -0.00000000000E+00  0.00000000000E+00  0.10501029531E+03  0.10501029531E+03  0.00000000000E+00 0.  1.
          2   -1    0    0  502    0  0.00000000000E+00 -0.00000000000E+00 -0.28201380051E+04  0.28201380051E+04  0.00000000000E+00 0. -1.
          6    1    1    2  502    0  0.85403305687E+02 -0.36293603751E+03 -0.23173964257E+04  0.23534924019E+04  0.17200000000E+03 0. -1.
         -6    1    1    2    0  501 -0.85403305687E+02  0.36293603751E+03 -0.39773128406E+03  0.57165589848E+03  0.17200000000E+03 0.  1.
</event>
<event>
 4    1  0.3094855E-002  0.5040581E+03  0.7818608E-02  0.1012725E+00
         -2   -1    0    0    0  501 -0.00000000000E+00  0.00000000000E+00  0.30155643470E+03  0.30155643470E+03  0.00000000000E+00 0.  1.
          2   -1    0    0  502    0  0.00000000000E+00 -0.00000000000E+00 -0.84408434222E+03  0.84408434222E+03  0.00000000000E+00 0. -1.
          6    1    1    2  502    0  0.47322746327E+03 -0.23374515521E+02 -0.29573303584E+03  0.58440792984E+03  0.17200000000E+03 0. -1.
         -6    1    1    2    0  501 -0.47322746327E+03  0.23374515521E+02 -0.24679487168E+03  0.56123284709E+03  0.17200000000E+03 0.  1.
</event>
<event>
 4    1  0.3094855E-002  0.2081294E+03  0.7818608E-02  0.1143056E+00
         -2   -1    0    0    0  501 -0.00000000000E+00  0.00000000000E+00  0.46867728301E+02  0.46867728301E+02  0.00000000000E+00 0.  1.
          2   -1    0    0  502    0  0.00000000000E+00 -0.00000000000E+00 -0.13241728185E+04  0.13241728185E+04  0.00000000000E+00 0. -1.
          6    1    1    2  502    0  0.11674050326E+03 -0.10271741572E+02 -0.10153840476E+04  0.10364953535E+04  0.17200000000E+03 0. -1.
         -6    1    1    2    0  501 -0.11674050326E+03  0.10271741572E+02 -0.26192104255E+03  0.33454519322E+03  0.17200000000E+03 0.  1.
</event>
<event>
 4    1  0.3094855E-002  0.2309782E+03  0.7818608E-02  0.1125953E+00
         -1   -1    0    0    0  501 -0.00000000000E+00  0.00000000000E+00  0.75129278261E+03  0.75129278261E+03  0.00000000000E+00 0.  1.
          1   -1    0    0  502    0  0.00000000000E+00 -0.00000000000E+00 -0.35239886203E+03  0.35239886203E+03  0.00000000000E+00 0. -1.
          6    1    1    2  502    0 -0.96261712884E+02  0.12041853835E+03 -0.29367265271E+03  0.37362356550E+03  0.17200000000E+03 0. -1.
         -6    1    1    2    0  501  0.96261712884E+02 -0.12041853835E+03  0.69256657329E+03  0.73006807914E+03  0.17200000000E+03 0.  1.
</event>
<event>
 4    1  0.3094855E-002  0.2637978E+03  0.7818608E-02  0.1104883E+00
         -2   -1    0    0    0  501 -0.00000000000E+00  0.00000000000E+00  0.37309661743E+02  0.37309661743E+02  0.00000000000E+00 0.  1.
          2   -1    0    0  502    0  0.00000000000E+00 -0.00000000000E+00 -0.22817583014E+04  0.22817583014E+04  0.00000000000E+00 0. -1.
          6    1    1    2  502    0 -0.47178631733E+02 -0.19436943245E+03 -0.16176700385E+04  0.16390380268E+04  0.17200000000E+03 0. -1.
         -6    1    1    2    0  501  0.47178631733E+02  0.19436943245E+03 -0.62677860112E+03  0.68002993639E+03  0.17200000000E+03 0.  1.
</event>
<event>
 4    1  0.3094855E-002  0.5836186E+03  0.7818608E-02  0.9939987E-01
         -2   -1    0    0    0  501 -0.00000000000E+00  0.00000000000E+00  0.47545466624E+03  0.47545466624E+03  0.00000000000E+00 0.  1.
          2   -1    0    0  502    0  0.00000000000E+00 -0.00000000000E+00 -0.72272658242E+03  0.72272658242E+03  0.00000000000E+00 0. -1.
          6    1    1    2  502    0  0.54178094830E+03 -0.13228791267E+03 -0.67537196500E+02  0.58751337065E+03  0.17200000000E+03 0. -1.
         -6    1    1    2    0  501 -0.54178094830E+03  0.13228791267E+03 -0.17973471969E+03  0.61066787801E+03  0.17200000000E+03 0.  1.
</event>
<event>
 4    1  0.3094855E-002  0.7606466E+03  0.7818608E-02  0.9618794E-01
          2   -1    0    0  502    0  0.00000000000E+00  0.00000000000E+00  0.98253730648E+03  0.98253730648E+03  0.00000000000E+00 0. -1.
         -2   -1    0    0    0  501 -0.00000000000E+00 -0.00000000000E+00 -0.60215948843E+03  0.60215948843E+03  0.00000000000E+00 0.  1.
          6    1    1    2  502    0  0.33781293575E+03 -0.65945560834E+03  0.72462970839E+02  0.76409041420E+03  0.17200000000E+03 0. -1.
         -6    1    1    2    0  501 -0.33781293575E+03  0.65945560834E+03  0.30791484721E+03  0.82060638071E+03  0.17200000000E+03 0.  1.
</event>
<event>
 4    1  0.3094855E-002  0.2567561E+03  0.7818608E-02  0.1109108E+00
          2   -1    0    0  502    0  0.00000000000E+00  0.00000000000E+00  0.83874067724E+03  0.83874067724E+03  0.00000000000E+00 0. -1.
         -2   -1    0    0    0  501 -0.00000000000E+00 -0.00000000000E+00 -0.10584351061E+03  0.10584351061E+03  0.00000000000E+00 0.  1.
          6    1    1    2  502    0 -0.14443283047E+03 -0.12441401821E+03  0.60606838305E+03  0.65821164937E+03  0.17200000000E+03 0. -1.
         -6    1    1    2    0  501  0.14443283047E+03  0.12441401821E+03  0.12682878358E+03  0.28637253847E+03  0.17200000000E+03 0.  1.
</event>
<event>
 4    1  0.3094855E-002  0.2669104E+03  0.7818608E-02  0.1103061E+00
          3   -1    0    0  502    0  0.00000000000E+00  0.00000000000E+00  0.94733781374E+03  0.94733781374E+03  0.00000000000E+00 0. -1.
         -3   -1    0    0    0  501 -0.00000000000E+00 -0.00000000000E+00 -0.81684353965E+02  0.81684353965E+02  0.00000000000E+00 0.  1.
          6    1    1    2  502    0 -0.15562449811E+02  0.20350673199E+03  0.28787947370E+03  0.39257581585E+03  0.17200000000E+03 0. -1.
         -6    1    1    2    0  501  0.15562449811E+02 -0.20350673199E+03  0.57777398607E+03  0.63644635186E+03  0.17200000000E+03 0.  1.
</event>
<event>
 4    1  0.3094855E-002  0.2076164E+03  0.7818608E-02  0.1143468E+00
         -1   -1    0    0    0  501 -0.00000000000E+00  0.00000000000E+00  0.45873413391E+02  0.45873413391E+02  0.00000000000E+00 0.  1.
          1   -1    0    0  502    0  0.00000000000E+00 -0.00000000000E+00 -0.11217939474E+04  0.11217939474E+04  0.00000000000E+00 0. -1.
          6    1    1    2  502    0  0.30165713332E+02 -0.11229690303E+03 -0.30269920155E+03  0.36705772204E+03  0.17200000000E+03 0.  1.
         -6    1    1    2    0  501 -0.30165713332E+02  0.11229690303E+03 -0.77322133250E+03  0.80060963880E+03  0.17200000000E+03 0.  1.
</event>
<event>
 4    1  0.3094855E-002  0.3417025E+03  0.7818608E-02  0.1066073E+00
          1   -1    0    0  502    0  0.00000000000E+00  0.00000000000E+00  0.15073746682E+04  0.15073746682E+04  0.00000000000E+00 0. -1.
         -1   -1    0    0    0  501 -0.00000000000E+00 -0.00000000000E+00 -0.12572275179E+03  0.12572275179E+03  0.00000000000E+00 0.  1.
          6    1    1    2  502    0  0.11622470394E+03  0.27141930603E+03  0.11967473578E+04  0.12445741681E+04  0.17200000000E+03 0. -1.
         -6    1    1    2    0  501 -0.11622470394E+03 -0.27141930603E+03  0.18490455867E+03  0.38852325196E+03  0.17200000000E+03 0.  1.
</event>
<event>
 4    1  0.3094855E-002  0.1812151E+03  0.7818608E-02  0.1166632E+00
         -1   -1    0    0    0  501 -0.00000000000E+00  0.00000000000E+00  0.79688041106E+02  0.79688041106E+02  0.00000000000E+00 0.  1.
          1   -1    0    0  502    0  0.00000000000E+00 -0.00000000000E+00 -0.42736958227E+03  0.42736958227E+03  0.00000000000E+00 0. -1.
          6    1    1    2  502    0 -0.56976154013E+02  0.29392424993E+01 -0.22177347753E+03  0.28639552477E+03  0.17200000000E+03 0.  1.
         -6    1    1    2    0  501  0.56976154013E+02 -0.29392424993E+01 -0.12590806363E+03  0.22066209860E+03  0.17200000000E+03 0. -1.
</event>
<event>
 4    1  0.3094855E-002  0.1966949E+03  0.7818608E-02  0.1152558E+00
          1   -1    0    0  502    0  0.00000000000E+00  0.00000000000E+00  0.13924190299E+03  0.13924190299E+03  0.00000000000E+00 0. -1.
         -1   -1    0    0    0  501 -0.00000000000E+00 -0.00000000000E+00 -0.34183429331E+03  0.34183429331E+03  0.00000000000E+00 0.  1.
          6    1    1    2  502    0 -0.94191062849E+02 -0.15261860397E+02  0.27677106658E+01  0.19671436380E+03  0.17200000000E+03 0.  1.
         -6    1    1    2    0  501  0.94191062849E+02  0.15261860397E+02 -0.20536010099E+03  0.28436183250E+03  0.17200000000E+03 0.  1.
</event>
<event>
 4    1  0.3094855E-002  0.3753525E+03  0.7818608E-02  0.1052665E+00
          2   -1    0    0  502    0  0.00000000000E+00  0.00000000000E+00  0.10918067071E+03  0.10918067071E+03  0.00000000000E+00 0. -1.
         -2   -1    0    0    0  501 -0.00000000000E+00 -0.00000000000E+00 -0.18072323529E+04  0.18072323529E+04  0.00000000000E+00 0.  1.
          6    1    1    2  502    0 -0.32451281318E+03  0.77439883648E+02 -0.13614343475E+04  0.14122297915E+04  0.17200000000E+03 0. -1.
         -6    1    1    2    0  501  0.32451281318E+03 -0.77439883648E+02 -0.33661733467E+03  0.50418323206E+03  0.17200000000E+03 0.  1.
</event>
<event>
 4    1  0.3094855E-002  0.2832429E+03  0.7818608E-02  0.1093931E+00
         -1   -1    0    0    0  501 -0.00000000000E+00  0.00000000000E+00  0.51708926291E+03  0.51708926291E+03  0.00000000000E+00 0.  1.
          1   -1    0    0  502    0  0.00000000000E+00 -0.00000000000E+00 -0.30865012236E+03  0.30865012236E+03  0.00000000000E+00 0. -1.
          6    1    1    2  502    0  0.85344800620E+02  0.20822778112E+03 -0.18694179317E+03  0.33937262390E+03  0.17200000000E+03 0. -1.
         -6    1    1    2    0  501 -0.85344800620E+02 -0.20822778112E+03  0.39538093372E+03  0.48636676137E+03  0.17200000000E+03 0. -1.
</event>
<event>
 4    1  0.3094855E-002  0.2638157E+03  0.7818608E-02  0.1104872E+00
          2   -1    0    0  502    0  0.00000000000E+00  0.00000000000E+00  0.26560795760E+04  0.26560795760E+04  0.00000000000E+00 0. -1.
         -2   -1    0    0    0  501 -0.00000000000E+00 -0.00000000000E+00 -0.33150779324E+03  0.33150779324E+03  0.00000000000E+00 0.  1.
          6    1    1    2  502    0 -0.85469319213E+02 -0.18085821544E+03  0.25958270682E+04  0.26091985104E+04  0.17200000000E+03 0. -1.
         -6    1    1    2    0  501  0.85469319213E+02  0.18085821544E+03 -0.27125528544E+03  0.37838885885E+03  0.17200000000E+03 0.  1.
</event>
<event>
 4    1  0.3094855E-002  0.2569681E+03  0.7818608E-02  0.1108979E+00
          2   -1    0    0  502    0  0.00000000000E+00  0.00000000000E+00  0.17502944087E+04  0.17502944087E+04  0.00000000000E+00 0. -1.
         -2   -1    0    0    0  501 -0.00000000000E+00 -0.00000000000E+00 -0.39415623562E+02  0.39415623562E+02  0.00000000000E+00 0.  1.
          6    1    1    2  502    0 -0.39463862544E+02 -0.18679192673E+03  0.10406812068E+04  0.10719374956E+04  0.17200000000E+03 0.  1.
         -6    1    1    2    0  501  0.39463862544E+02  0.18679192673E+03  0.67019757832E+03  0.71777253662E+03  0.17200000000E+03 0.  1.
</event>
<event>
 4    1  0.3094855E-002  0.1865381E+03  0.7818608E-02  0.1161621E+00
          4   -1    0    0  502    0  0.00000000000E+00  0.00000000000E+00  0.25133383086E+03  0.25133383086E+03  0.00000000000E+00 0. -1.
         -4   -1    0    0    0  501 -0.00000000000E+00 -0.00000000000E+00 -0.17333462985E+03  0.17333462985E+03  0.00000000000E+00 0.  1.
          6    1    1    2  502    0 -0.60040817755E+02  0.40094262042E+02  0.13425995990E+03  0.22983077791E+03  0.17200000000E+03 0. -1.
         -6    1    1    2    0  501  0.60040817755E+02 -0.40094262042E+02 -0.56260758891E+02  0.19483768279E+03  0.17200000000E+03 0.  1.
</event>
<event>
 4    1  0.3094855E-002  0.2126117E+03  0.7818608E-02  0.1139514E+00
          2   -1    0    0  502    0  0.00000000000E+00  0.00000000000E+00  0.20389612502E+03  0.20389612502E+03  0.00000000000E+00 0. -1.
         -2   -1    0    0    0  501 -0.00000000000E+00 -0.00000000000E+00 -0.25997897255E+03  0.25997897255E+03  0.00000000000E+00 0.  1.
          6    1    1    2  502    0  0.12495245053E+03 -0.25696999751E+01 -0.11704010121E+03  0.24269755570E+03  0.17200000000E+03 0. -1.
         -6    1    1    2    0  501 -0.12495245053E+03  0.25696999751E+01  0.60957253690E+02  0.22117754187E+03  0.17200000000E+03 0.  1.
</event>
<event>
 4    1  0.3094855E-002  0.2167534E+03  0.7818608E-02  0.1136327E+00
          1   -1    0    0  502    0  0.00000000000E+00  0.00000000000E+00  0.24400654796E+04  0.24400654796E+04  0.00000000000E+00 0. -1.
         -1   -1    0    0    0  501 -0.00000000000E+00 -0.00000000000E+00 -0.19456632655E+02  0.19456632655E+02  0.00000000000E+00 0.  1.
          6    1    1    2  502    0 -0.11675286249E+03  0.61374405971E+02  0.10849355495E+04  0.11063757025E+04  0.17200000000E+03 0. -1.
         -6    1    1    2    0  501  0.11675286249E+03 -0.61374405971E+02  0.13356732975E+04  0.13531464098E+04  0.17200000000E+03 0. -1.
</event>
<event>
 4    1  0.3094855E-002  0.2910304E+03  0.7818608E-02  0.1089812E+00
          2   -1    0    0  502    0  0.00000000000E+00  0.00000000000E+00  0.88779740602E+03  0.88779740602E+03  0.00000000000E+00 0. -1.
         -2   -1    0    0    0  501 -0.00000000000E+00 -0.00000000000E+00 -0.95466005413E+02  0.95466005413E+02  0.00000000000E+00 0.  1.
          6    1    1    2  502    0 -0.78447645117E+02 -0.22127049846E+03  0.40878098061E+03  0.50179732624E+03  0.17200000000E+03 0. -1.
         -6    1    1    2    0  501  0.78447645117E+02  0.22127049846E+03  0.38355042000E+03  0.48146608520E+03  0.17200000000E+03 0. -1.
</event>
<event>
 4    1  0.3094855E-002  0.7380606E+03  0.7818608E-02  0.9654270E-01
         -2   -1    0    0    0  501 -0.00000000000E+00  0.00000000000E+00  0.56614539236E+03  0.56614539236E+03  0.00000000000E+00 0.  1.
          2   -1    0    0  502    0  0.00000000000E+00 -0.00000000000E+00 -0.98351318921E+03  0.98351318921E+03  0.00000000000E+00 0. -1.
          6    1    1    2  502    0 -0.51232220472E+03 -0.50266824626E+03 -0.32280091666E+03  0.80556429851E+03  0.17200000000E+03 0. -1.
         -6    1    1    2    0  501  0.51232220472E+03  0.50266824626E+03 -0.94566880197E+02  0.74409428305E+03  0.17200000000E+03 0.  1.
</event>
<event>
 4    1  0.3094855E-002  0.2191732E+03  0.7818608E-02  0.1134501E+00
          2   -1    0    0  502    0  0.00000000000E+00  0.00000000000E+00  0.25245487985E+04  0.25245487985E+04  0.00000000000E+00 0. -1.
         -2   -1    0    0    0  501 -0.00000000000E+00 -0.00000000000E+00 -0.34315852858E+02  0.34315852858E+02  0.00000000000E+00 0.  1.
          6    1    1    2  502    0  0.10757239704E+03 -0.82952312120E+02  0.20990898609E+04  0.21105011611E+04  0.17200000000E+03 0. -1.
         -6    1    1    2    0  501 -0.10757239704E+03  0.82952312120E+02  0.39114308473E+03  0.44836349029E+03  0.17200000000E+03 0.  1.
</event>
<event>
 4    1  0.3094855E-002  0.2018641E+03  0.7818608E-02  0.1148176E+00
          1   -1    0    0  502    0  0.00000000000E+00  0.00000000000E+00  0.16407988148E+03  0.16407988148E+03  0.00000000000E+00 0. -1.
         -1   -1    0    0    0  501 -0.00000000000E+00 -0.00000000000E+00 -0.36755061256E+03  0.36755061256E+03  0.00000000000E+00 0.  1.
          6    1    1    2  502    0  0.66157953963E+02 -0.82390701744E+02  0.49642391448E+02  0.20787849729E+03  0.17200000000E+03 0. -1.
         -6    1    1    2    0  501 -0.66157953963E+02  0.82390701744E+02 -0.25311312253E+03  0.32375199675E+03  0.17200000000E+03 0.  1.
</event>
<event>
 4    1  0.3094855E-002  0.2271237E+03  0.7818608E-02  0.1128681E+00
          1   -1    0    0  502    0  0.00000000000E+00  0.00000000000E+00  0.14454222627E+04  0.14454222627E+04  0.00000000000E+00 0. -1.
         -1   -1    0    0    0  501 -0.00000000000E+00 -0.00000000000E+00 -0.62065051499E+02  0.62065051499E+02  0.00000000000E+00 0.  1.
          6    1    1    2  502    0  0.11820938588E+03  0.89597558915E+02  0.11830476729E+04  0.12046522228E+04  0.17200000000E+03 0. -1.
         -6    1    1    2    0  501 -0.11820938588E+03 -0.89597558915E+02  0.20030953834E+03  0.30283509147E+03  0.17200000000E+03 0.  1.
</event>
<event>
 4    1  0.3094855E-002  0.4776763E+03  0.7818608E-02  0.1019776E+00
          2   -1    0    0  502    0  0.00000000000E+00  0.00000000000E+00  0.14794676315E+04  0.14794676315E+04  0.00000000000E+00 0. -1.
         -2   -1    0    0    0  501 -0.00000000000E+00 -0.00000000000E+00 -0.20689913684E+03  0.20689913684E+03  0.00000000000E+00 0.  1.
          6    1    1    2  502    0  0.67482723774E+02 -0.44049597604E+03  0.10617171036E+04  0.11642241327E+04  0.17200000000E+03 0. -1.
         -6    1    1    2    0  501 -0.67482723774E+02  0.44049597604E+03  0.21085139105E+03  0.52214263571E+03  0.17200000000E+03 0.  1.
</event>
<event>
 4    1  0.3094855E-002  0.2399927E+03  0.7818608E-02  0.1119798E+00
          2   -1    0    0  502    0  0.00000000000E+00  0.00000000000E+00  0.17669442742E+03  0.17669442742E+03  0.00000000000E+00 0. -1.
         -2   -1    0    0    0  501 -0.00000000000E+00 -0.00000000000E+00 -0.65230275776E+03  0.65230275776E+03  0.00000000000E+00 0.  1.
          6    1    1    2  502    0  0.15790676272E+03  0.55479414613E+02  0.55373539348E+02  0.24629807149E+03  0.17200000000E+03 0. -1.
         -6    1    1    2    0  501 -0.15790676272E+03 -0.55479414613E+02 -0.53098186970E+03  0.58269911370E+03  0.17200000000E+03 0.  1.
</event>
<event>
 4    1  0.3094855E-002  0.3981517E+03  0.7818608E-02  0.1044422E+00
          2   -1    0    0  502    0  0.00000000000E+00  0.00000000000E+00  0.92851867373E+03  0.92851867373E+03  0.00000000000E+00 0. -1.
         -2   -1    0    0    0  501 -0.00000000000E+00 -0.00000000000E+00 -0.65509027325E+03  0.65509027325E+03  0.00000000000E+00 0.  1.
          6    1    1    2  502    0 -0.34068549211E+03 -0.11346430020E+03  0.81756543997E+03  0.90936131465E+03  0.17200000000E+03 0. -1.
         -6    1    1    2    0  501  0.34068549211E+03  0.11346430020E+03 -0.54413703949E+03  0.67424763233E+03  0.17200000000E+03 0.  1.
</event>
<event>
 4    1  0.3094855E-002  0.3159192E+03  0.7818608E-02  0.1077543E+00
         -2   -1    0    0    0  501 -0.00000000000E+00  0.00000000000E+00  0.17869326130E+03  0.17869326130E+03  0.00000000000E+00 0.  1.
          2   -1    0    0  502    0  0.00000000000E+00 -0.00000000000E+00 -0.91931607115E+03  0.91931607115E+03  0.00000000000E+00 0. -1.
          6    1    1    2  502    0  0.17051817394E+03  0.20284110734E+03 -0.71424172220E+03  0.78099052504E+03  0.17200000000E+03 0. -1.
         -6    1    1    2    0  501 -0.17051817394E+03 -0.20284110734E+03 -0.26381087650E+02  0.31701880742E+03  0.17200000000E+03 0.  1.
</event>
<event>
 4    1  0.3094855E-002  0.2280632E+03  0.7818608E-02  0.1128010E+00
         -1   -1    0    0    0  501 -0.00000000000E+00  0.00000000000E+00  0.22240717365E+03  0.22240717365E+03  0.00000000000E+00 0.  1.
          1   -1    0    0  502    0  0.00000000000E+00 -0.00000000000E+00 -0.39809275116E+03  0.39809275116E+03  0.00000000000E+00 0. -1.
          6    1    1    2  502    0 -0.14452366901E+03 -0.39264993182E+02 -0.28711438097E+03  0.36667083106E+03  0.17200000000E+03 0. -1.
         -6    1    1    2    0  501  0.14452366901E+03  0.39264993182E+02  0.11142880346E+03  0.25382909375E+03  0.17200000000E+03 0.  1.
</event>
<event>
 4    1  0.3094855E-002  0.2442449E+03  0.7818608E-02  0.1116997E+00
          2   -1    0    0  502    0  0.00000000000E+00  0.00000000000E+00  0.14685048963E+04  0.14685048963E+04  0.00000000000E+00 0. -1.
         -2   -1    0    0    0  501 -0.00000000000E+00 -0.00000000000E+00 -0.40981940496E+02  0.40981940496E+02  0.00000000000E+00 0.  1.
          6    1    1    2  502    0  0.13281308298E+03 -0.11150006320E+03  0.64316122014E+03  0.68797669597E+03  0.17200000000E+03 0. -1.
         -6    1    1    2    0  501 -0.13281308298E+03  0.11150006320E+03  0.78436173562E+03  0.82151014078E+03  0.17200000000E+03 0.  1.
</event>
<event>
 4    1  0.3094855E-002  0.2549520E+03  0.7818608E-02  0.1110215E+00
          1   -1    0    0  502    0  0.00000000000E+00  0.00000000000E+00  0.33124925887E+03  0.33124925887E+03  0.00000000000E+00 0. -1.
         -1   -1    0    0    0  501 -0.00000000000E+00 -0.00000000000E+00 -0.23377921485E+03  0.23377921485E+03  0.00000000000E+00 0.  1.
          6    1    1    2  502    0 -0.11693572106E+03  0.14745359447E+03 -0.64491154187E+02  0.26298219398E+03  0.17200000000E+03 0.  1.
         -6    1    1    2    0  501  0.11693572106E+03 -0.14745359447E+03  0.16196119821E+03  0.30204627975E+03  0.17200000000E+03 0. -1.
</event>
<event>
 4    1  0.3094855E-002  0.2370692E+03  0.7818608E-02  0.1121761E+00
         -2   -1    0    0    0  501 -0.00000000000E+00  0.00000000000E+00  0.20404337246E+03  0.20404337246E+03  0.00000000000E+00 0.  1.
          2   -1    0    0  502    0  0.00000000000E+00 -0.00000000000E+00 -0.30166878687E+03  0.30166878687E+03  0.00000000000E+00 0. -1.
          6    1    1    2  502    0 -0.15832446451E+03 -0.39384727005E+02 -0.12337063230E+03  0.26724914536E+03  0.17200000000E+03 0. -1.
         -6    1    1    2    0  501  0.15832446451E+03  0.39384727005E+02  0.25745217896E+02  0.23846301396E+03  0.17200000000E+03 0.  1.
</event>
<event>
 4    1  0.3094855E-002  0.2385464E+03  0.7818608E-02  0.1120765E+00
          2   -1    0    0  502    0  0.00000000000E+00  0.00000000000E+00  0.95603316550E+03  0.95603316550E+03  0.00000000000E+00 0. -1.
         -2   -1    0    0    0  501 -0.00000000000E+00 -0.00000000000E+00 -0.59646433788E+02  0.59646433788E+02  0.00000000000E+00 0.  1.
          6    1    1    2  502    0  0.14723906634E+03  0.75106973317E+02  0.47144786362E+03  0.52836302692E+03  0.17200000000E+03 0. -1.
         -6    1    1    2    0  501 -0.14723906634E+03 -0.75106973317E+02  0.42493886809E+03  0.48731657237E+03  0.17200000000E+03 0.  1.
</event>
<event>
 4    1  0.3094855E-002  0.1971108E+03  0.7818608E-02  0.1152200E+00
         -1   -1    0    0    0  501 -0.00000000000E+00  0.00000000000E+00  0.58326580188E+03  0.58326580188E+03  0.00000000000E+00 0.  1.
          1   -1    0    0  502    0  0.00000000000E+00 -0.00000000000E+00 -0.81765369776E+02  0.81765369776E+02  0.00000000000E+00 0. -1.
          6    1    1    2  502    0  0.91672352391E+02 -0.29408298532E+02  0.10760467615E+03  0.22456944259E+03  0.17200000000E+03 0.  1.
         -6    1    1    2    0  501 -0.91672352391E+02  0.29408298532E+02  0.39389575595E+03  0.44046172906E+03  0.17200000000E+03 0.  1.
</event>
<event>
 4    1  0.3094855E-002  0.3177172E+03  0.7818608E-02  0.1076705E+00
          2   -1    0    0  502    0  0.00000000000E+00  0.00000000000E+00  0.28762531364E+04  0.28762531364E+04  0.00000000000E+00 0. -1.
         -2   -1    0    0    0  501 -0.00000000000E+00 -0.00000000000E+00 -0.29468929204E+03  0.29468929204E+03  0.00000000000E+00 0.  1.
          6    1    1    2  502    0  0.22791661677E+03  0.13933499970E+03  0.27788511500E+04  0.27969551195E+04  0.17200000000E+03 0. -1.
         -6    1    1    2    0  501 -0.22791661677E+03 -0.13933499970E+03 -0.19728730563E+03  0.37398730901E+03  0.17200000000E+03 0.  1.
</event>
<event>
 4    1  0.3094855E-002  0.3389165E+03  0.7818608E-02  0.1067258E+00
         -2   -1    0    0    0  501 -0.00000000000E+00  0.00000000000E+00  0.18803869874E+03  0.18803869874E+03  0.00000000000E+00 0.  1.
          2   -1    0    0  502    0  0.00000000000E+00 -0.00000000000E+00 -0.67002687761E+03  0.67002687761E+03  0.00000000000E+00 0. -1.
          6    1    1    2  502    0 -0.15019059777E+03  0.25044597221E+03 -0.36849157803E+03  0.50065002121E+03  0.17200000000E+03 0. -1.
         -6    1    1    2    0  501  0.15019059777E+03 -0.25044597221E+03 -0.11349660084E+03  0.35741555514E+03  0.17200000000E+03 0.  1.
</event>
<event>
 4    1  0.3094855E-002  0.1975699E+03  0.7818608E-02  0.1151806E+00
         -3   -1    0    0    0  501 -0.00000000000E+00  0.00000000000E+00  0.22963525718E+03  0.22963525718E+03  0.00000000000E+00 0.  1.
          3   -1    0    0  502    0  0.00000000000E+00 -0.00000000000E+00 -0.18421133093E+03  0.18421133093E+03  0.00000000000E+00 0. -1.
          6    1    1    2  502    0 -0.38369526047E+02 -0.89317605879E+02 -0.34798092538E+02  0.20061097301E+03  0.17200000000E+03 0.  1.
         -6    1    1    2    0  501  0.38369526047E+02  0.89317605879E+02  0.80222018780E+02  0.21323561510E+03  0.17200000000E+03 0. -1.
</event>
<event>
 4    1  0.3094855E-002  0.2298137E+03  0.7818608E-02  0.1126771E+00
         -2   -1    0    0    0  501 -0.00000000000E+00  0.00000000000E+00  0.10592634782E+03  0.10592634782E+03  0.00000000000E+00 0.  1.
          2   -1    0    0  502    0  0.00000000000E+00 -0.00000000000E+00 -0.68491806112E+03  0.68491806112E+03  0.00000000000E+00 0. -1.
          6    1    1    2  502    0  0.87526697875E+02  0.12477737493E+03 -0.49573704048E+03  0.54641516216E+03  0.17200000000E+03 0. -1.
         -6    1    1    2    0  501 -0.87526697875E+02 -0.12477737493E+03 -0.83254672812E+02  0.24442924678E+03  0.17200000000E+03 0.  1.
</event>
<event>
 4    1  0.3094855E-002  0.1821746E+03  0.7818608E-02  0.1165715E+00
          1   -1    0    0  502    0  0.00000000000E+00  0.00000000000E+00  0.43446780738E+03  0.43446780738E+03  0.00000000000E+00 0. -1.
         -1   -1    0    0    0  501 -0.00000000000E+00 -0.00000000000E+00 -0.77071181954E+02  0.77071181954E+02  0.00000000000E+00 0.  1.
          6    1    1    2  502    0 -0.39069086226E+02 -0.45576302276E+02  0.20280076720E+03  0.27260914145E+03  0.17200000000E+03 0. -1.
         -6    1    1    2    0  501  0.39069086226E+02  0.45576302276E+02  0.15459585823E+03  0.23892984789E+03  0.17200000000E+03 0.  1.
</event>
<event>
 4    1  0.3094855E-002  0.2399399E+03  0.7818608E-02  0.1119833E+00
          2   -1    0    0  502    0  0.00000000000E+00  0.00000000000E+00  0.92087175503E+03  0.92087175503E+03  0.00000000000E+00 0. -1.
         -2   -1    0    0    0  501 -0.00000000000E+00 -0.00000000000E+00 -0.10984053609E+03  0.10984053609E+03  0.00000000000E+00 0.  1.
          6    1    1    2  502    0  0.15874868699E+03  0.52782871044E+02  0.74378255462E+03  0.78152649709E+03  0.17200000000E+03 0. -1.
         -6    1    1    2    0  501 -0.15874868699E+03 -0.52782871044E+02  0.67248664313E+02  0.24918579403E+03  0.17200000000E+03 0.  1.
</event>
<event>
 4    1  0.3094855E-002  0.5106906E+03  0.7818608E-02  0.1011026E+00
         -2   -1    0    0    0  501 -0.00000000000E+00  0.00000000000E+00  0.92650906141E+02  0.92650906141E+02  0.00000000000E+00 0.  1.
          2   -1    0    0  502    0  0.00000000000E+00 -0.00000000000E+00 -0.40630949611E+04  0.40630949611E+04  0.00000000000E+00 0. -1.
          6    1    1    2  502    0  0.36516434809E+03 -0.31285130148E+03 -0.31368922564E+04  0.31781909896E+04  0.17200000000E+03 0. -1.
         -6    1    1    2    0  501 -0.36516434809E+03  0.31285130148E+03 -0.83355179851E+03  0.97755487761E+03  0.17200000000E+03 0.  1.
</event>
<event>
 4    1  0.3094855E-002  0.2233422E+03  0.7818608E-02  0.1131416E+00
         -2   -1    0    0    0  501 -0.00000000000E+00  0.00000000000E+00  0.15882746848E+03  0.15882746848E+03  0.00000000000E+00 0.  1.
          2   -1    0    0  502    0  0.00000000000E+00 -0.00000000000E+00 -0.80944218776E+03  0.80944218776E+03  0.00000000000E+00 0. -1.
          6    1    1    2  502    0  0.13518827015E+03  0.44965373311E+02 -0.70404851727E+03  0.73862444303E+03  0.17200000000E+03 0. -1.
         -6    1    1    2    0  501 -0.13518827015E+03 -0.44965373311E+02  0.53433797979E+02  0.22964521321E+03  0.17200000000E+03 0.  1.
</event>
<event>
 4    1  0.3094855E-002  0.3889632E+03  0.7818608E-02  0.1047670E+00
         -1   -1    0    0    0  501 -0.00000000000E+00  0.00000000000E+00  0.57752989594E+03  0.57752989594E+03  0.00000000000E+00 0.  1.
          1   -1    0    0  502    0  0.00000000000E+00 -0.00000000000E+00 -0.27042186679E+03  0.27042186679E+03  0.00000000000E+00 0. -1.
          6    1    1    2  502    0 -0.12923671554E+03 -0.32404661671E+03  0.78575389007E+02  0.39682040043E+03  0.17200000000E+03 0. -1.
         -6    1    1    2    0  501  0.12923671554E+03  0.32404661671E+03  0.22853264014E+03  0.45113136230E+03  0.17200000000E+03 0.  1.
</event>
<event>
 4    1  0.3094855E-002  0.1760583E+03  0.7818608E-02  0.1171673E+00
         -2   -1    0    0    0  501 -0.00000000000E+00  0.00000000000E+00  0.18150479007E+03  0.18150479007E+03  0.00000000000E+00 0.  1.
          2   -1    0    0  502    0  0.00000000000E+00 -0.00000000000E+00 -0.49999813192E+03  0.49999813192E+03  0.00000000000E+00 0. -1.
          6    1    1    2  502    0 -0.35001327826E+02 -0.13690950171E+02  0.11725547649E+03  0.21153104224E+03  0.17200000000E+03 0.  1.
         -6    1    1    2    0  501  0.35001327826E+02  0.13690950171E+02 -0.43574881834E+03  0.46997187975E+03  0.17200000000E+03 0. -1.
</event>
<event>
 4    1  0.3094855E-002  0.3720925E+03  0.7818608E-02  0.1053896E+00
         -1   -1    0    0    0  501 -0.00000000000E+00  0.00000000000E+00  0.29610630735E+03  0.29610630735E+03  0.00000000000E+00 0.  1.
          1   -1    0    0  502    0  0.00000000000E+00 -0.00000000000E+00 -0.46959977209E+03  0.46959977209E+03  0.00000000000E+00 0. -1.
          6    1    1    2  502    0 -0.29638685567E+03 -0.14499547475E+03 -0.61627165043E+02  0.37716145533E+03  0.17200000000E+03 0. -1.
         -6    1    1    2    0  501  0.29638685567E+03  0.14499547475E+03 -0.11186629970E+03  0.38854462411E+03  0.17200000000E+03 0.  1.
</event>
