<event>
 4    1  0.1253776E+000  0.1922787E+03  0.7818608E-02  0.1156422E+00
         21   -1    0    0  503  502  0.00000000000E+00  0.00000000000E+00  0.13752939464E+03  0.13752939464E+03  0.00000000000E+00 0.  1.
         21   -1    0    0  501  503 -0.00000000000E+00 -0.00000000000E+00 -0.31310584870E+03  0.31310584870E+03  0.00000000000E+00 0.  1.
          6    1    1    2  501    0 -0.82605808531E+02  0.23735967606E+02 -0.17252375007E+03  0.25833226686E+03  0.17200000000E+03 0.  1.
         -6    1    1    2    0  502  0.82605808531E+02 -0.23735967606E+02 -0.30527039945E+01  0.19230297648E+03  0.17200000000E+03 0.  1.
</event>
<event>
 4    1  0.1253776E+000  0.2106604E+03  0.7818608E-02  0.1141044E+00
         21   -1    0    0  503  502  0.00000000000E+00  0.00000000000E+00  0.83785003662E+03  0.83785003662E+03  0.00000000000E+00 0. -1.
         21   -1    0    0  501  503 -0.00000000000E+00 -0.00000000000E+00 -0.92996192202E+02  0.92996192202E+02  0.00000000000E+00 0. -1.
          6    1    1    2  501    0  0.17603132063E+02 -0.12034915737E+03  0.67070016338E+02  0.22107957171E+03  0.17200000000E+03 0. -1.
         -6    1    1    2    0  502 -0.17603132063E+02  0.12034915737E+03  0.67778382808E+03  0.70976665711E+03  0.17200000000E+03 0. -1.
</event>
<event>
 4    1  0.1253776E+000  0.3643610E+03  0.7818608E-02  0.1056870E+00
         21   -1    0    0  503  502  0.00000000000E+00  0.00000000000E+00  0.35494647347E+03  0.35494647347E+03  0.00000000000E+00 0.  1.
         21   -1    0    0  501  503 -0.00000000000E+00 -0.00000000000E+00 -0.51835420788E+03  0.51835420788E+03  0.00000000000E+00 0. -1.
          6    1    1    2  501    0  0.86859210934E+02  0.30924167840E+03 -0.31211170556E+03  0.47976312377E+03  0.17200000000E+03 0. -1.
         -6    1    1    2    0  502 -0.86859210934E+02 -0.30924167840E+03  0.14870397116E+03  0.39353755757E+03  0.17200000000E+03 0.  1.
</event>
<event>
 4    1  0.1253776E+000  0.1826818E+03  0.7818608E-02  0.1165232E+00
         21   -1    0    0  503  502  0.00000000000E+00  0.00000000000E+00  0.67780581711E+02  0.67780581711E+02  0.00000000000E+00 0. -1.
         21   -1    0    0  501  503 -0.00000000000E+00 -0.00000000000E+00 -0.54251900877E+03  0.54251900877E+03  0.00000000000E+00 0. -1.
          6    1    1    2  501    0 -0.30704339108E+02  0.53346991647E+02 -0.33015182989E+03  0.37732332122E+03  0.17200000000E+03 0. -1.
         -6    1    1    2    0  502  0.30704339108E+02 -0.53346991647E+02 -0.14458659718E+03  0.23297626927E+03  0.17200000000E+03 0. -1.
</event>
<event>
 4    1  0.1253776E+000  0.1794914E+03  0.7818608E-02  0.1168296E+00
         21   -1    0    0  503  502  0.00000000000E+00  0.00000000000E+00  0.23897661950E+03  0.23897661950E+03  0.00000000000E+00 0.  1.
         21   -1    0    0  501  503 -0.00000000000E+00 -0.00000000000E+00 -0.14865504519E+03  0.14865504519E+03  0.00000000000E+00 0.  1.
          6    1    1    2  501    0  0.42825896473E+02 -0.28268395077E+02 -0.13981655255E+02  0.18003512505E+03  0.17200000000E+03 0.  1.
         -6    1    1    2    0  502 -0.42825896473E+02  0.28268395077E+02  0.10430322957E+03  0.20759653963E+03  0.17200000000E+03 0.  1.
</event>
<event>
 4    1  0.1253776E+000  0.1754484E+03  0.7818608E-02  0.1172282E+00
         21   -1    0    0  501  502  0.00000000000E+00  0.00000000000E+00  0.32867306084E+04  0.32867306084E+04  0.00000000000E+00 0. -1.
         21   -1    0    0  502  503 -0.00000000000E+00 -0.00000000000E+00 -0.13147100870E+02  0.13147100870E+02  0.00000000000E+00 0.  1.
          6    1    1    2  501    0 -0.27383964720E+02 -0.21171952068E+02  0.25216754575E+04  0.25277715969E+04  0.17200000000E+03 0. -1.
         -6    1    1    2    0  503  0.27383964720E+02  0.21171952068E+02  0.75190805008E+03  0.77210611244E+03  0.17200000000E+03 0.  1.
</event>
<event>
 4    1  0.1253776E+000  0.2146698E+03  0.7818608E-02  0.1137920E+00
         21   -1    0    0  503  502  0.00000000000E+00  0.00000000000E+00  0.37725832276E+03  0.37725832276E+03  0.00000000000E+00 0.  1.
         21   -1    0    0  501  503 -0.00000000000E+00 -0.00000000000E+00 -0.13311901434E+03  0.13311901434E+03  0.00000000000E+00 0.  1.
          6    1    1    2  501    0  0.12844730581E+03 -0.65144971524E+00  0.48825823037E+02  0.22015243754E+03  0.17200000000E+03 0.  1.
         -6    1    1    2    0  502 -0.12844730581E+03  0.65144971524E+00  0.19531348538E+03  0.29022489957E+03  0.17200000000E+03 0.  1.
</event>
<event>
 4    1  0.1253776E+000  0.1895147E+03  0.7818608E-02  0.1158900E+00
         21   -1    0    0  503  502  0.00000000000E+00  0.00000000000E+00  0.34292555319E+03  0.34292555319E+03  0.00000000000E+00 0. -1.
         21   -1    0    0  501  503 -0.00000000000E+00 -0.00000000000E+00 -0.11028951172E+03  0.11028951172E+03  0.00000000000E+00 0. -1.
          6    1    1    2  501    0 -0.72782543258E+02 -0.32164136943E+02  0.16717898709E+03  0.25271455050E+03  0.17200000000E+03 0. -1.
         -6    1    1    2    0  502  0.72782543258E+02  0.32164136943E+02  0.65457054376E+02  0.20050051440E+03  0.17200000000E+03 0. -1.
</event>
<event>
 4    1  0.1253776E+000  0.2147174E+03  0.7818608E-02  0.1137884E+00
         21   -1    0    0  501  502  0.00000000000E+00  0.00000000000E+00  0.22661713612E+03  0.22661713612E+03  0.00000000000E+00 0.  1.
         21   -1    0    0  502  503 -0.00000000000E+00 -0.00000000000E+00 -0.21089987859E+03  0.21089987859E+03  0.00000000000E+00 0.  1.
          6    1    1    2  501    0 -0.12793961706E+03  0.12288182863E+02  0.48994564511E+02  0.22023626496E+03  0.17200000000E+03 0.  1.
         -6    1    1    2    0  503  0.12793961706E+03 -0.12288182863E+02 -0.33277306978E+02  0.21728074975E+03  0.17200000000E+03 0.  1.
</event>
<event>
 4    1  0.1253776E+000  0.1799442E+03  0.7818608E-02  0.1167857E+00
         21   -1    0    0  501  502  0.00000000000E+00  0.00000000000E+00  0.59137952739E+03  0.59137952739E+03  0.00000000000E+00 0. -1.
         21   -1    0    0  502  503 -0.00000000000E+00 -0.00000000000E+00 -0.56345711818E+02  0.56345711818E+02  0.00000000000E+00 0. -1.
          6    1    1    2  501    0  0.52845702454E+02 -0.18060275089E+01  0.32196338306E+03  0.36883648143E+03  0.17200000000E+03 0. -1.
         -6    1    1    2    0  503 -0.52845702454E+02  0.18060275089E+01  0.21307043251E+03  0.27888875778E+03  0.17200000000E+03 0. -1.
</event>
<event>
 4    1  0.1253776E+000  0.2294060E+03  0.7818608E-02  0.1127059E+00
         21   -1    0    0  501  502  0.00000000000E+00  0.00000000000E+00  0.31951545978E+03  0.31951545978E+03  0.00000000000E+00 0.  1.
         21   -1    0    0  502  503 -0.00000000000E+00 -0.00000000000E+00 -0.16879856662E+03  0.16879856662E+03  0.00000000000E+00 0.  1.
          6    1    1    2  501    0 -0.68790188325E+01 -0.15164358721E+03  0.11336154909E+03  0.25588657498E+03  0.17200000000E+03 0. -1.
         -6    1    1    2    0  503  0.68790188325E+01  0.15164358721E+03  0.37355344077E+02  0.23242745142E+03  0.17200000000E+03 0. -1.
</event>
<event>
 4    1  0.1253776E+000  0.1808644E+03  0.7818608E-02  0.1166969E+00
         21   -1    0    0  503  502  0.00000000000E+00  0.00000000000E+00  0.77990387825E+02  0.77990387825E+02  0.00000000000E+00 0. -1.
         21   -1    0    0  501  503 -0.00000000000E+00 -0.00000000000E+00 -0.45023317971E+03  0.45023317971E+03  0.00000000000E+00 0.  1.
          6    1    1    2  501    0 -0.22660930995E+02  0.51131427554E+02 -0.25519748246E+03  0.31279017844E+03  0.17200000000E+03 0.  1.
         -6    1    1    2    0  502  0.22660930995E+02 -0.51131427554E+02 -0.11704530943E+03  0.21543338910E+03  0.17200000000E+03 0. -1.
</event>
<event>
 4    1  0.1253776E+000  0.1962328E+03  0.7818608E-02  0.1152957E+00
         21   -1    0    0  501  502  0.00000000000E+00  0.00000000000E+00  0.19454591819E+03  0.19454591819E+03  0.00000000000E+00 0.  1.
         21   -1    0    0  502  503 -0.00000000000E+00 -0.00000000000E+00 -0.19807019837E+03  0.19807019837E+03  0.00000000000E+00 0.  1.
          6    1    1    2  501    0 -0.94247480599E+02  0.63818491617E+01  0.33793712673E+01  0.19626190600E+03  0.17200000000E+03 0.  1.
         -6    1    1    2    0  503  0.94247480599E+02 -0.63818491617E+01 -0.69036514501E+01  0.19635421055E+03  0.17200000000E+03 0.  1.
</event>
<event>
 4    1  0.1253776E+000  0.2229401E+03  0.7818608E-02  0.1131710E+00
         21   -1    0    0  501  502  0.00000000000E+00  0.00000000000E+00  0.37391177755E+03  0.37391177755E+03  0.00000000000E+00 0. -1.
         21   -1    0    0  502  503 -0.00000000000E+00 -0.00000000000E+00 -0.35553522437E+03  0.35553522437E+03  0.00000000000E+00 0. -1.
          6    1    1    2  501    0 -0.76941197214E+02  0.11915672877E+03  0.29778729646E+03  0.37199401578E+03  0.17200000000E+03 0. -1.
         -6    1    1    2    0  503  0.76941197214E+02 -0.11915672877E+03 -0.27941074328E+03  0.35745298614E+03  0.17200000000E+03 0. -1.
</event>
<event>
 4    1  0.1253776E+000  0.1964034E+03  0.7818608E-02  0.1152809E+00
         21   -1    0    0  501  502  0.00000000000E+00  0.00000000000E+00  0.39374296347E+03  0.39374296347E+03  0.00000000000E+00 0.  1.
         21   -1    0    0  502  503 -0.00000000000E+00 -0.00000000000E+00 -0.11770408211E+03  0.11770408211E+03  0.00000000000E+00 0.  1.
          6    1    1    2  501    0 -0.39697869857E+02 -0.86106827645E+02  0.24273294777E+03  0.31223963645E+03  0.17200000000E+03 0.  1.
         -6    1    1    2    0  503  0.39697869857E+02  0.86106827645E+02  0.33305933596E+02  0.19920740913E+03  0.17200000000E+03 0.  1.
</event>
<event>
 4    1  0.1253776E+000  0.2012714E+03  0.7818608E-02  0.1148671E+00
         21   -1    0    0  503  502  0.00000000000E+00  0.00000000000E+00  0.90237743451E+02  0.90237743451E+02  0.00000000000E+00 0.  1.
         21   -1    0    0  501  503 -0.00000000000E+00 -0.00000000000E+00 -0.99503861090E+03  0.99503861090E+03  0.00000000000E+00 0. -1.
          6    1    1    2  501    0 -0.18618648264E+02  0.10285677235E+03 -0.85440504856E+03  0.87779163626E+03  0.17200000000E+03 0. -1.
         -6    1    1    2    0  502  0.18618648264E+02 -0.10285677235E+03 -0.50395818893E+02  0.20748471810E+03  0.17200000000E+03 0.  1.
</event>
<event>
 4    1  0.1253776E+000  0.2001316E+03  0.7818608E-02  0.1149628E+00
         21   -1    0    0  503  502  0.00000000000E+00  0.00000000000E+00  0.88971469534E+02  0.88971469534E+02  0.00000000000E+00 0.  1.
         21   -1    0    0  501  503 -0.00000000000E+00 -0.00000000000E+00 -0.86669209080E+03  0.86669209080E+03  0.00000000000E+00 0. -1.
          6    1    1    2  501    0 -0.10014928125E+03 -0.20947514038E+02 -0.72011294921E+03  0.74740573753E+03  0.17200000000E+03 0. -1.
         -6    1    1    2    0  502  0.10014928125E+03  0.20947514038E+02 -0.57607672061E+02  0.20825782280E+03  0.17200000000E+03 0.  1.
</event>
<event>
 4    1  0.1253776E+000  0.2575825E+03  0.7818608E-02  0.1108604E+00
         21   -1    0    0  503  502  0.00000000000E+00  0.00000000000E+00  0.35560809232E+03  0.35560809232E+03  0.00000000000E+00 0.  1.
         21   -1    0    0  501  503 -0.00000000000E+00 -0.00000000000E+00 -0.25252794397E+03  0.25252794397E+03  0.00000000000E+00 0. -1.
          6    1    1    2  501    0  0.18448345633E+03 -0.52254966252E+02 -0.10384972024E+03  0.27772916943E+03  0.17200000000E+03 0. -1.
         -6    1    1    2    0  502 -0.18448345633E+03  0.52254966252E+02  0.20692986860E+03  0.33040686687E+03  0.17200000000E+03 0.  1.
</event>
<event>
 4    1  0.1253776E+000  0.2346888E+03  0.7818608E-02  0.1123382E+00
         21   -1    0    0  501  502  0.00000000000E+00  0.00000000000E+00  0.45614755293E+03  0.45614755293E+03  0.00000000000E+00 0. -1.
         21   -1    0    0  502  503 -0.00000000000E+00 -0.00000000000E+00 -0.12245468910E+03  0.12245468910E+03  0.00000000000E+00 0. -1.
          6    1    1    2  501    0 -0.11240813671E+03 -0.11339864912E+03  0.20100163555E+03  0.30899919145E+03  0.17200000000E+03 0.  1.
         -6    1    1    2    0  503  0.11240813671E+03  0.11339864912E+03  0.13269122827E+03  0.26960305058E+03  0.17200000000E+03 0.  1.
</event>
<event>
 4    1  0.1253776E+000  0.1842553E+03  0.7818608E-02  0.1163747E+00
         21   -1    0    0  503  502  0.00000000000E+00  0.00000000000E+00  0.34691410849E+02  0.34691410849E+02  0.00000000000E+00 0.  1.
         21   -1    0    0  501  503 -0.00000000000E+00 -0.00000000000E+00 -0.10391268807E+04  0.10391268807E+04  0.00000000000E+00 0.  1.
          6    1    1    2  501    0  0.15579177990E+02 -0.64212909898E+02 -0.63176786310E+03  0.65808862734E+03  0.17200000000E+03 0.  1.
         -6    1    1    2    0  502 -0.15579177990E+02  0.64212909898E+02 -0.37266760676E+03  0.41572966422E+03  0.17200000000E+03 0.  1.
</event>
<event>
 4    1  0.1253776E+000  0.1885823E+03  0.7818608E-02  0.1159746E+00
         21   -1    0    0  503  502  0.00000000000E+00  0.00000000000E+00  0.31555662994E+03  0.31555662994E+03  0.00000000000E+00 0. -1.
         21   -1    0    0  501  503 -0.00000000000E+00 -0.00000000000E+00 -0.11459826307E+03  0.11459826307E+03  0.00000000000E+00 0. -1.
          6    1    1    2  501    0 -0.35474473602E+02  0.68708299584E+02  0.12815948491E+03  0.22800903991E+03  0.17200000000E+03 0. -1.
         -6    1    1    2    0  502  0.35474473602E+02 -0.68708299584E+02  0.72798881955E+02  0.20214585309E+03  0.17200000000E+03 0. -1.
</event>
<event>
 4    1  0.1253776E+000  0.1752268E+03  0.7818608E-02  0.1172504E+00
         21   -1    0    0  503  502  0.00000000000E+00  0.00000000000E+00  0.10830271821E+03  0.10830271821E+03  0.00000000000E+00 0. -1.
         21   -1    0    0  501  503 -0.00000000000E+00 -0.00000000000E+00 -0.28529813007E+03  0.28529813007E+03  0.00000000000E+00 0. -1.
          6    1    1    2  501    0 -0.31440697362E+02 -0.11485150937E+02 -0.10409721294E+03  0.20381524939E+03  0.17200000000E+03 0.  1.
         -6    1    1    2    0  502  0.31440697362E+02  0.11485150937E+02 -0.72898198916E+02  0.18978559889E+03  0.17200000000E+03 0.  1.
</event>
<event>
 4    1  0.1253776E+000  0.1891322E+03  0.7818608E-02  0.1159246E+00
         21   -1    0    0  501  502  0.00000000000E+00  0.00000000000E+00  0.14636330239E+03  0.14636330239E+03  0.00000000000E+00 0. -1.
         21   -1    0    0  502  503 -0.00000000000E+00 -0.00000000000E+00 -0.24661512859E+03  0.24661512859E+03  0.00000000000E+00 0. -1.
          6    1    1    2  501    0 -0.43109354227E+02  0.65791894229E+02 -0.31498045660E+02  0.19173710295E+03  0.17200000000E+03 0.  1.
         -6    1    1    2    0  503  0.43109354227E+02 -0.65791894229E+02 -0.68753780538E+02  0.20124132803E+03  0.17200000000E+03 0.  1.
</event>
<event>
 4    1  0.1253776E+000  0.2082798E+03  0.7818608E-02  0.1142935E+00
         21   -1    0    0  503  502  0.00000000000E+00  0.00000000000E+00  0.19248061408E+03  0.19248061408E+03  0.00000000000E+00 0. -1.
         21   -1    0    0  501  503 -0.00000000000E+00 -0.00000000000E+00 -0.24591521973E+03  0.24591521973E+03  0.00000000000E+00 0. -1.
          6    1    1    2  501    0  0.12481368123E+02 -0.11679338239E+03 -0.90065966144E+02  0.22691927414E+03  0.17200000000E+03 0.  1.
         -6    1    1    2    0  502 -0.12481368123E+02  0.11679338239E+03  0.36631360495E+02  0.21147655968E+03  0.17200000000E+03 0.  1.
</event>
<event>
 4    1  0.1253776E+000  0.2714590E+03  0.7818608E-02  0.1100447E+00
         21   -1    0    0  501  502  0.00000000000E+00  0.00000000000E+00  0.38816527469E+03  0.38816527469E+03  0.00000000000E+00 0. -1.
         21   -1    0    0  502  503 -0.00000000000E+00 -0.00000000000E+00 -0.20416994473E+03  0.20416994473E+03  0.00000000000E+00 0.  1.
          6    1    1    2  501    0 -0.18656671067E+02 -0.20918391510E+03  0.17045564664E+03  0.32053877953E+03  0.17200000000E+03 0. -1.
         -6    1    1    2    0  503  0.18656671067E+02  0.20918391510E+03  0.13539683321E+02  0.27179643989E+03  0.17200000000E+03 0.  1.
</event>
<event>
 4    1  0.1253776E+000  0.2436146E+03  0.7818608E-02  0.1117408E+00
         21   -1    0    0  503  502  0.00000000000E+00  0.00000000000E+00  0.50710043239E+03  0.50710043239E+03  0.00000000000E+00 0. -1.
         21   -1    0    0  501  503 -0.00000000000E+00 -0.00000000000E+00 -0.11882381975E+03  0.11882381975E+03  0.00000000000E+00 0.  1.
          6    1    1    2  501    0 -0.29662290219E+02 -0.16995363698E+03  0.23254626155E+03  0.33678755016E+03  0.17200000000E+03 0.  1.
         -6    1    1    2    0  502  0.29662290219E+02  0.16995363698E+03  0.15573035109E+03  0.28913670198E+03  0.17200000000E+03 0.  1.
</event>
<event>
 4    1  0.1253776E+000  0.1827522E+03  0.7818608E-02  0.1165166E+00
         21   -1    0    0  501  502  0.00000000000E+00  0.00000000000E+00  0.21012752032E+03  0.21012752032E+03  0.00000000000E+00 0.  1.
         21   -1    0    0  502  503 -0.00000000000E+00 -0.00000000000E+00 -0.21089961406E+03  0.21089961406E+03  0.00000000000E+00 0.  1.
          6    1    1    2  501    0  0.53549902405E+02  0.30769694777E+02  0.10410071540E+03  0.21032195585E+03  0.17200000000E+03 0. -1.
         -6    1    1    2    0  503 -0.53549902405E+02 -0.30769694777E+02 -0.10487280914E+03  0.21070517853E+03  0.17200000000E+03 0. -1.
</event>
<event>
 4    1  0.1253776E+000  0.1817987E+03  0.7818608E-02  0.1166074E+00
         21   -1    0    0  503  502  0.00000000000E+00  0.00000000000E+00  0.92383733337E+02  0.92383733337E+02  0.00000000000E+00 0. -1.
         21   -1    0    0  501  503 -0.00000000000E+00 -0.00000000000E+00 -0.44927038504E+03  0.44927038504E+03  0.00000000000E+00 0. -1.
          6    1    1    2  501    0  0.32995393575E+02 -0.48765502696E+02 -0.30067520865E+03  0.35136356007E+03  0.17200000000E+03 0.  1.
         -6    1    1    2    0  502 -0.32995393575E+02  0.48765502696E+02 -0.56211443057E+02  0.19029055831E+03  0.17200000000E+03 0.  1.
</event>
<event>
 4    1  0.1253776E+000  0.1771948E+03  0.7818608E-02  0.1170546E+00
         21   -1    0    0  503  502  0.00000000000E+00  0.00000000000E+00  0.21717911587E+02  0.21717911587E+02  0.00000000000E+00 0. -1.
         21   -1    0    0  501  503 -0.00000000000E+00 -0.00000000000E+00 -0.20650145638E+04  0.20650145638E+04  0.00000000000E+00 0. -1.
          6    1    1    2  501    0  0.26602020438E+02 -0.33261753503E+02 -0.15930269295E+04  0.16028514622E+04  0.17200000000E+03 0. -1.
         -6    1    1    2    0  502 -0.26602020438E+02  0.33261753503E+02 -0.45026972270E+03  0.48388101318E+03  0.17200000000E+03 0. -1.
</event>
<event>
 4    1  0.1253776E+000  0.2166896E+03  0.7818608E-02  0.1136375E+00
         21   -1    0    0  501  502  0.00000000000E+00  0.00000000000E+00  0.13781201115E+03  0.13781201115E+03  0.00000000000E+00 0. -1.
         21   -1    0    0  502  503 -0.00000000000E+00 -0.00000000000E+00 -0.38415853196E+03  0.38415853196E+03  0.00000000000E+00 0.  1.
          6    1    1    2  501    0 -0.13098961989E+03 -0.14563920123E+02 -0.35406169824E+02  0.21956316893E+03  0.17200000000E+03 0. -1.
         -6    1    1    2    0  503  0.13098961989E+03  0.14563920123E+02 -0.21094035098E+03  0.30240737418E+03  0.17200000000E+03 0.  1.
</event>
<event>
 4    1  0.1253776E+000  0.2038196E+03  0.7818608E-02  0.1146556E+00
         21   -1    0    0  501  502  0.00000000000E+00  0.00000000000E+00  0.19544766791E+03  0.19544766791E+03  0.00000000000E+00 0.  1.
         21   -1    0    0  502  503 -0.00000000000E+00 -0.00000000000E+00 -0.24097914461E+03  0.24097914461E+03  0.00000000000E+00 0.  1.
          6    1    1    2  501    0 -0.81987761545E+02  0.72363329209E+02  0.52184312035E+02  0.21039402767E+03  0.17200000000E+03 0. -1.
         -6    1    1    2    0  503  0.81987761545E+02 -0.72363329209E+02 -0.97715788735E+02  0.22603278485E+03  0.17200000000E+03 0. -1.
</event>
<event>
 4    1  0.1253776E+000  0.1997146E+03  0.7818608E-02  0.1149980E+00
         21   -1    0    0  501  502  0.00000000000E+00  0.00000000000E+00  0.95497863656E+02  0.95497863656E+02  0.00000000000E+00 0. -1.
         21   -1    0    0  502  503 -0.00000000000E+00 -0.00000000000E+00 -0.41766404558E+03  0.41766404558E+03  0.00000000000E+00 0.  1.
          6    1    1    2  501    0 -0.98985054945E+02 -0.22447603210E+02 -0.16146439292E+03  0.25682033831E+03  0.17200000000E+03 0.  1.
         -6    1    1    2    0  503  0.98985054945E+02  0.22447603210E+02 -0.16070178901E+03  0.25634157092E+03  0.17200000000E+03 0. -1.
</event>
<event>
 4    1  0.1253776E+000  0.3698606E+03  0.7818608E-02  0.1054746E+00
         21   -1    0    0  503  502  0.00000000000E+00  0.00000000000E+00  0.12455661010E+04  0.12455661010E+04  0.00000000000E+00 0.  1.
         21   -1    0    0  501  503 -0.00000000000E+00 -0.00000000000E+00 -0.13678783916E+03  0.13678783916E+03  0.00000000000E+00 0. -1.
          6    1    1    2  501    0 -0.69667087528E+02  0.31993653219E+03  0.24753528299E+03  0.44505123754E+03  0.17200000000E+03 0. -1.
         -6    1    1    2    0  502  0.69667087528E+02 -0.31993653219E+03  0.86124297887E+03  0.93730270264E+03  0.17200000000E+03 0.  1.
</event>
<event>
 4    1  0.1253776E+000  0.2401659E+03  0.7818608E-02  0.1119682E+00
         21   -1    0    0  503  502  0.00000000000E+00  0.00000000000E+00  0.35586200392E+03  0.35586200392E+03  0.00000000000E+00 0. -1.
         21   -1    0    0  501  503 -0.00000000000E+00 -0.00000000000E+00 -0.22750227347E+03  0.22750227347E+03  0.00000000000E+00 0.  1.
          6    1    1    2  501    0 -0.12281903132E+03  0.11406649814E+03 -0.92230369048E+02  0.25726663489E+03  0.17200000000E+03 0.  1.
         -6    1    1    2    0  502  0.12281903132E+03 -0.11406649814E+03  0.22059009949E+03  0.32609764250E+03  0.17200000000E+03 0. -1.
</event>
<event>
 4    1  0.1253776E+000  0.5522429E+03  0.7818608E-02  0.1000976E+00
         21   -1    0    0  503  502  0.00000000000E+00  0.00000000000E+00  0.91028784576E+03  0.91028784576E+03  0.00000000000E+00 0. -1.
         21   -1    0    0  501  503 -0.00000000000E+00 -0.00000000000E+00 -0.76894284327E+03  0.76894284327E+03  0.00000000000E+00 0.  1.
          6    1    1    2  501    0 -0.44215345329E+03  0.28264558146E+03 -0.56004580199E+03  0.78652622417E+03  0.17200000000E+03 0.  1.
         -6    1    1    2    0  502  0.44215345329E+03 -0.28264558146E+03  0.70139080449E+03  0.89270446487E+03  0.17200000000E+03 0. -1.
</event>
<event>
 4    1  0.1253776E+000  0.2017246E+03  0.7818608E-02  0.1148292E+00
         21   -1    0    0  501  502  0.00000000000E+00  0.00000000000E+00  0.10126949843E+03  0.10126949843E+03  0.00000000000E+00 0. -1.
         21   -1    0    0  502  503 -0.00000000000E+00 -0.00000000000E+00 -0.63460732908E+03  0.63460732908E+03  0.00000000000E+00 0. -1.
          6    1    1    2  501    0 -0.48824128531E+02 -0.93407771174E+02 -0.43827537606E+02  0.20643076393E+03  0.17200000000E+03 0. -1.
         -6    1    1    2    0  503  0.48824128531E+02  0.93407771174E+02 -0.48951029305E+03  0.52944606358E+03  0.17200000000E+03 0. -1.
</event>
<event>
 4    1  0.1253776E+000  0.2713663E+03  0.7818608E-02  0.1100500E+00
         21   -1    0    0  501  502  0.00000000000E+00  0.00000000000E+00  0.18933158822E+03  0.18933158822E+03  0.00000000000E+00 0.  1.
         21   -1    0    0  502  503 -0.00000000000E+00 -0.00000000000E+00 -0.40610915230E+03  0.40610915230E+03  0.00000000000E+00 0. -1.
          6    1    1    2  501    0  0.87747296672E+02  0.19067274306E+03 -0.47183191094E+02  0.27543771808E+03  0.17200000000E+03 0.  1.
         -6    1    1    2    0  503 -0.87747296672E+02 -0.19067274306E+03 -0.16959437299E+03  0.32000302244E+03  0.17200000000E+03 0. -1.
</event>
<event>
 4    1  0.1253776E+000  0.1751957E+03  0.7818608E-02  0.1172535E+00
         21   -1    0    0  503  502  0.00000000000E+00  0.00000000000E+00  0.63634896832E+03  0.63634896832E+03  0.00000000000E+00 0. -1.
         21   -1    0    0  501  503 -0.00000000000E+00 -0.00000000000E+00 -0.48396922714E+02  0.48396922714E+02  0.00000000000E+00 0. -1.
          6    1    1    2  501    0 -0.31929730484E+02 -0.94884666340E+01  0.31385194283E+03  0.35943925871E+03  0.17200000000E+03 0. -1.
         -6    1    1    2    0  502  0.31929730484E+02  0.94884666340E+01  0.27410010278E+03  0.32530663232E+03  0.17200000000E+03 0. -1.
</event>
<event>
 4    1  0.1253776E+000  0.1858463E+03  0.7818608E-02  0.1162262E+00
         21   -1    0    0  501  502  0.00000000000E+00  0.00000000000E+00  0.23634546282E+03  0.23634546282E+03  0.00000000000E+00 0.  1.
         21   -1    0    0  502  503 -0.00000000000E+00 -0.00000000000E+00 -0.22400293849E+03  0.22400293849E+03  0.00000000000E+00 0.  1.
          6    1    1    2  501    0  0.28317860634E+02 -0.64443384915E+02  0.14187854143E+03  0.23381268488E+03  0.17200000000E+03 0.  1.
         -6    1    1    2    0  503 -0.28317860634E+02  0.64443384915E+02 -0.12953601710E+03  0.22653571643E+03  0.17200000000E+03 0.  1.
</event>
<event>
 4    1  0.1253776E+000  0.2414239E+03  0.7818608E-02  0.1118848E+00
         21   -1    0    0  501  502  0.00000000000E+00  0.00000000000E+00  0.12176063272E+03  0.12176063272E+03  0.00000000000E+00 0.  1.
         21   -1    0    0  502  503 -0.00000000000E+00 -0.00000000000E+00 -0.68855256524E+03  0.68855256524E+03  0.00000000000E+00 0.  1.
          6    1    1    2  501    0 -0.16880758076E+03  0.14336024263E+02 -0.59718361214E+02  0.24870022835E+03  0.17200000000E+03 0.  1.
         -6    1    1    2    0  503  0.16880758076E+03 -0.14336024263E+02 -0.50707357130E+03  0.56161296961E+03  0.17200000000E+03 0.  1.
</event>
<event>
 4    1  0.1253776E+000  0.1749047E+03  0.7818608E-02  0.1172827E+00
         21   -1    0    0  501  502  0.00000000000E+00  0.00000000000E+00  0.46479866599E+03  0.46479866599E+03  0.00000000000E+00 0.  1.
         21   -1    0    0  502  503 -0.00000000000E+00 -0.00000000000E+00 -0.67950492569E+02  0.67950492569E+02  0.00000000000E+00 0.  1.
          6    1    1    2  501    0 -0.11332072652E+02  0.29652209944E+02  0.24562371927E+03  0.30153388017E+03  0.17200000000E+03 0. -1.
         -6    1    1    2    0  503  0.11332072652E+02 -0.29652209944E+02  0.15122445415E+03  0.23121527838E+03  0.17200000000E+03 0. -1.
</event>
<event>
 4    1  0.1253776E+000  0.1777195E+03  0.7818608E-02  0.1170028E+00
         21   -1    0    0  501  502  0.00000000000E+00  0.00000000000E+00  0.43178346854E+03  0.43178346854E+03  0.00000000000E+00 0. -1.
         21   -1    0    0  502  503 -0.00000000000E+00 -0.00000000000E+00 -0.73737607463E+02  0.73737607463E+02  0.00000000000E+00 0.  1.
          6    1    1    2  501    0  0.26925984812E+02 -0.35710332924E+02  0.15642715147E+03  0.23675660551E+03  0.17200000000E+03 0.  1.
         -6    1    1    2    0  503 -0.26925984812E+02  0.35710332924E+02  0.20161870962E+03  0.26876447050E+03  0.17200000000E+03 0. -1.
</event>
<event>
 4    1  0.1253776E+000  0.2173970E+03  0.7818608E-02  0.1135839E+00
         21   -1    0    0  503  502  0.00000000000E+00  0.00000000000E+00  0.35459968817E+03  0.35459968817E+03  0.00000000000E+00 0. -1.
         21   -1    0    0  501  503 -0.00000000000E+00 -0.00000000000E+00 -0.13328767006E+03  0.13328767006E+03  0.00000000000E+00 0.  1.
          6    1    1    2  501    0  0.32618077460E+02 -0.12889338617E+03  0.10894606706E+03  0.24316802730E+03  0.17200000000E+03 0. -1.
         -6    1    1    2    0  502 -0.32618077460E+02  0.12889338617E+03  0.11236595105E+03  0.24471933093E+03  0.17200000000E+03 0.  1.
</event>
<event>
 4    1  0.1253776E+000  0.1843717E+03  0.7818608E-02  0.1163638E+00
         21   -1    0    0  501  502  0.00000000000E+00  0.00000000000E+00  0.45693019316E+02  0.45693019316E+02  0.00000000000E+00 0.  1.
         21   -1    0    0  502  503 -0.00000000000E+00 -0.00000000000E+00 -0.10963095969E+04  0.10963095969E+04  0.00000000000E+00 0.  1.
          6    1    1    2  501    0  0.64348912337E+02  0.16375346100E+02 -0.20158885644E+03  0.27318675209E+03  0.17200000000E+03 0. -1.
         -6    1    1    2    0  503 -0.64348912337E+02 -0.16375346100E+02 -0.84902772114E+03  0.86881586412E+03  0.17200000000E+03 0. -1.
</event>
<event>
 4    1  0.1253776E+000  0.2223427E+03  0.7818608E-02  0.1132148E+00
         21   -1    0    0  501  502  0.00000000000E+00  0.00000000000E+00  0.27709359245E+03  0.27709359245E+03  0.00000000000E+00 0.  1.
         21   -1    0    0  502  503 -0.00000000000E+00 -0.00000000000E+00 -0.17879224153E+03  0.17879224153E+03  0.00000000000E+00 0.  1.
          6    1    1    2  501    0 -0.64134776750E+02 -0.12545527471E+03  0.38612537585E+02  0.22567060863E+03  0.17200000000E+03 0.  1.
         -6    1    1    2    0  503  0.64134776750E+02  0.12545527471E+03  0.59688813332E+02  0.23021522534E+03  0.17200000000E+03 0.  1.
</event>
<event>
 4    1  0.1253776E+000  0.2028504E+03  0.7818608E-02  0.1147356E+00
         21   -1    0    0  501  502  0.00000000000E+00  0.00000000000E+00  0.50518596367E+03  0.50518596367E+03  0.00000000000E+00 0. -1.
         21   -1    0    0  502  503 -0.00000000000E+00 -0.00000000000E+00 -0.10822930078E+03  0.10822930078E+03  0.00000000000E+00 0.  1.
          6    1    1    2  501    0  0.68991742563E+02  0.82489043582E+02  0.35103711914E+03  0.40543231478E+03  0.17200000000E+03 0. -1.
         -6    1    1    2    0  503 -0.68991742563E+02 -0.82489043582E+02  0.45919543742E+02  0.20798294966E+03  0.17200000000E+03 0.  1.
</event>
<event>
 4    1  0.1253776E+000  0.1788752E+03  0.7818608E-02  0.1168896E+00
         21   -1    0    0  503  502  0.00000000000E+00  0.00000000000E+00  0.23282192172E+02  0.23282192172E+02  0.00000000000E+00 0. -1.
         21   -1    0    0  501  503 -0.00000000000E+00 -0.00000000000E+00 -0.14583079219E+04  0.14583079219E+04  0.00000000000E+00 0. -1.
          6    1    1    2  501    0  0.81649884001E+01  0.48432139613E+02 -0.89533076951E+03  0.91302438413E+03  0.17200000000E+03 0. -1.
         -6    1    1    2    0  502 -0.81649884001E+01 -0.48432139613E+02 -0.53969496025E+03  0.56856572998E+03  0.17200000000E+03 0. -1.
</event>
<event>
 4    1  0.1253776E+000  0.1822835E+03  0.7818608E-02  0.1165611E+00
         21   -1    0    0  501  502  0.00000000000E+00  0.00000000000E+00  0.47063008190E+02  0.47063008190E+02  0.00000000000E+00 0.  1.
         21   -1    0    0  502  503 -0.00000000000E+00 -0.00000000000E+00 -0.72443852065E+03  0.72443852065E+03  0.00000000000E+00 0.  1.
          6    1    1    2  501    0  0.55256199462E+02 -0.24290163179E+02 -0.27717363283E+03  0.33174158971E+03  0.17200000000E+03 0. -1.
         -6    1    1    2    0  503 -0.55256199462E+02  0.24290163179E+02 -0.40020187963E+03  0.43975993913E+03  0.17200000000E+03 0. -1.
</event>
<event>
 4    1  0.1253776E+000  0.1991118E+03  0.7818608E-02  0.1150491E+00
         21   -1    0    0  503  502  0.00000000000E+00  0.00000000000E+00  0.72278964771E+02  0.72278964771E+02  0.00000000000E+00 0.  1.
         21   -1    0    0  501  503 -0.00000000000E+00 -0.00000000000E+00 -0.73160956697E+03  0.73160956697E+03  0.00000000000E+00 0.  1.
          6    1    1    2  501    0  0.72694747301E+02 -0.69115680115E+02 -0.53074749064E+03  0.56686718228E+03  0.17200000000E+03 0. -1.
         -6    1    1    2    0  502 -0.72694747301E+02  0.69115680115E+02 -0.12858311156E+03  0.23702134946E+03  0.17200000000E+03 0. -1.
</event>
<event>
 4    1  0.1253776E+000  0.2092503E+03  0.7818608E-02  0.1142161E+00
         21   -1    0    0  503  502  0.00000000000E+00  0.00000000000E+00  0.29993981000E+03  0.29993981000E+03  0.00000000000E+00 0.  1.
         21   -1    0    0  501  503 -0.00000000000E+00 -0.00000000000E+00 -0.14687778010E+03  0.14687778010E+03  0.00000000000E+00 0.  1.
          6    1    1    2  501    0  0.93012785690E+02 -0.74500469274E+02  0.93981839046E+02  0.22938675702E+03  0.17200000000E+03 0. -1.
         -6    1    1    2    0  502 -0.93012785690E+02  0.74500469274E+02  0.59080190860E+02  0.21743083309E+03  0.17200000000E+03 0. -1.
</event>
<event>
 4    1  0.1253776E+000  0.1758148E+03  0.7818608E-02  0.1171916E+00
         21   -1    0    0  503  502  0.00000000000E+00  0.00000000000E+00  0.11855841173E+03  0.11855841173E+03  0.00000000000E+00 0.  1.
         21   -1    0    0  501  503 -0.00000000000E+00 -0.00000000000E+00 -0.26081348702E+03  0.26081348702E+03  0.00000000000E+00 0.  1.
          6    1    1    2  501    0  0.17635672456E+02 -0.31872198576E+02 -0.67586023132E+02  0.18835796906E+03  0.17200000000E+03 0.  1.
         -6    1    1    2    0  502 -0.17635672456E+02  0.31872198576E+02 -0.74669052162E+02  0.19101392969E+03  0.17200000000E+03 0.  1.
</event>
<event>
 4    1  0.1253776E+000  0.1791429E+03  0.7818608E-02  0.1168635E+00
         21   -1    0    0  503  502  0.00000000000E+00  0.00000000000E+00  0.22934536265E+03  0.22934536265E+03  0.00000000000E+00 0. -1.
         21   -1    0    0  501  503 -0.00000000000E+00 -0.00000000000E+00 -0.24714860108E+03  0.24714860108E+03  0.00000000000E+00 0. -1.
          6    1    1    2  501    0 -0.33733116128E+02 -0.37016767938E+02 -0.16582388364E+03  0.24411006660E+03  0.17200000000E+03 0. -1.
         -6    1    1    2    0  502  0.33733116128E+02  0.37016767938E+02  0.14802064522E+03  0.23238389712E+03  0.17200000000E+03 0. -1.
</event>
<event>
 4    1  0.1253776E+000  0.2059876E+03  0.7818608E-02  0.1144783E+00
         21   -1    0    0  501  502  0.00000000000E+00  0.00000000000E+00  0.69819925605E+02  0.69819925605E+02  0.00000000000E+00 0.  1.
         21   -1    0    0  502  503 -0.00000000000E+00 -0.00000000000E+00 -0.62768737202E+03  0.62768737202E+03  0.00000000000E+00 0.  1.
          6    1    1    2  501    0 -0.56036087302E+02 -0.98523341216E+02 -0.21672963295E+03  0.29900271846E+03  0.17200000000E+03 0.  1.
         -6    1    1    2    0  503  0.56036087302E+02  0.98523341216E+02 -0.34113781347E+03  0.39850457917E+03  0.17200000000E+03 0.  1.
</event>
<event>
 4    1  0.1253776E+000  0.2558260E+03  0.7818608E-02  0.1109677E+00
         21   -1    0    0  503  502  0.00000000000E+00  0.00000000000E+00  0.63902020887E+03  0.63902020887E+03  0.00000000000E+00 0.  1.
         21   -1    0    0  501  503 -0.00000000000E+00 -0.00000000000E+00 -0.10594078728E+03  0.10594078728E+03  0.00000000000E+00 0.  1.
          6    1    1    2  501    0 -0.18937453570E+03 -0.45724839349E+00  0.19861323813E+03  0.32387365161E+03  0.17200000000E+03 0. -1.
         -6    1    1    2    0  502  0.18937453570E+03  0.45724839349E+00  0.33446618346E+03  0.42108734454E+03  0.17200000000E+03 0. -1.
</event>
<event>
 4    1  0.1253776E+000  0.1922287E+03  0.7818608E-02  0.1156466E+00
         21   -1    0    0  501  502  0.00000000000E+00  0.00000000000E+00  0.19696381271E+03  0.19696381271E+03  0.00000000000E+00 0.  1.
         21   -1    0    0  502  503 -0.00000000000E+00 -0.00000000000E+00 -0.22341887296E+03  0.22341887296E+03  0.00000000000E+00 0. -1.
          6    1    1    2  501    0  0.75806656313E+02  0.40264248464E+02  0.70924828886E+02  0.20489555924E+03  0.17200000000E+03 0.  1.
         -6    1    1    2    0  503 -0.75806656313E+02 -0.40264248464E+02 -0.97379889143E+02  0.21548712643E+03  0.17200000000E+03 0. -1.
</event>
<event>
 4    1  0.1253776E+000  0.3478237E+03  0.7818608E-02  0.1063512E+00
         21   -1    0    0  501  502  0.00000000000E+00  0.00000000000E+00  0.14790506225E+04  0.14790506225E+04  0.00000000000E+00 0. -1.
         21   -1    0    0  502  503 -0.00000000000E+00 -0.00000000000E+00 -0.82104502214E+02  0.82104502214E+02  0.00000000000E+00 0.  1.
          6    1    1    2  501    0 -0.21833278300E+02 -0.30153043014E+03  0.74627531962E+03  0.82335177477E+03  0.17200000000E+03 0. -1.
         -6    1    1    2    0  503  0.21833278300E+02  0.30153043014E+03  0.65067080065E+03  0.73780334992E+03  0.17200000000E+03 0. -1.
</event>
<event>
 4    1  0.1253776E+000  0.6546466E+03  0.7818608E-02  0.9798099E-01
         21   -1    0    0  503  502  0.00000000000E+00  0.00000000000E+00  0.44007714331E+03  0.44007714331E+03  0.00000000000E+00 0. -1.
         21   -1    0    0  501  503 -0.00000000000E+00 -0.00000000000E+00 -0.13652061383E+04  0.13652061383E+04  0.00000000000E+00 0.  1.
          6    1    1    2  501    0  0.40893012696E+02 -0.63032210034E+03 -0.94585812642E+03  0.11503085603E+04  0.17200000000E+03 0.  1.
         -6    1    1    2    0  502 -0.40893012696E+02  0.63032210034E+03  0.20729131390E+02  0.65497472131E+03  0.17200000000E+03 0. -1.
</event>
<event>
 4    1  0.1253776E+000  0.4227909E+03  0.7818608E-02  0.1036162E+00
         21   -1    0    0  503  502  0.00000000000E+00  0.00000000000E+00  0.97182295999E+02  0.97182295999E+02  0.00000000000E+00 0. -1.
         21   -1    0    0  501  503 -0.00000000000E+00 -0.00000000000E+00 -0.20643769054E+04  0.20643769054E+04  0.00000000000E+00 0.  1.
          6    1    1    2  501    0  0.17093641135E+03  0.34633640408E+03 -0.62676775943E+03  0.75603570404E+03  0.17200000000E+03 0.  1.
         -6    1    1    2    0  502 -0.17093641135E+03 -0.34633640408E+03 -0.13404268500E+04  0.14055234973E+04  0.17200000000E+03 0.  1.
</event>
<event>
 4    1  0.1253776E+000  0.2135002E+03  0.7818608E-02  0.1138824E+00
         21   -1    0    0  503  502  0.00000000000E+00  0.00000000000E+00  0.14903552193E+03  0.14903552193E+03  0.00000000000E+00 0. -1.
         21   -1    0    0  501  503 -0.00000000000E+00 -0.00000000000E+00 -0.30846803712E+03  0.30846803712E+03  0.00000000000E+00 0. -1.
          6    1    1    2  501    0  0.11479291699E+03 -0.53112466512E+02 -0.10079476888E+03  0.23609729631E+03  0.17200000000E+03 0. -1.
         -6    1    1    2    0  502 -0.11479291699E+03  0.53112466512E+02 -0.58637746310E+02  0.22140626274E+03  0.17200000000E+03 0. -1.
</event>
<event>
 4    1  0.1253776E+000  0.1756930E+03  0.7818608E-02  0.1172038E+00
         21   -1    0    0  503  502  0.00000000000E+00  0.00000000000E+00  0.76745601401E+02  0.76745601401E+02  0.00000000000E+00 0. -1.
         21   -1    0    0  501  503 -0.00000000000E+00 -0.00000000000E+00 -0.40223782143E+03  0.40223782143E+03  0.00000000000E+00 0. -1.
          6    1    1    2  501    0  0.23535380834E+02 -0.27020878696E+02 -0.16464538682E+03  0.24078236114E+03  0.17200000000E+03 0. -1.
         -6    1    1    2    0  502 -0.23535380834E+02  0.27020878696E+02 -0.16084683321E+03  0.23820106169E+03  0.17200000000E+03 0. -1.
</event>
<event>
 4    1  0.1253776E+000  0.1971885E+03  0.7818608E-02  0.1152133E+00
         21   -1    0    0  503  502  0.00000000000E+00  0.00000000000E+00  0.23517094898E+03  0.23517094898E+03  0.00000000000E+00 0.  1.
         21   -1    0    0  501  503 -0.00000000000E+00 -0.00000000000E+00 -0.16652759974E+03  0.16652759974E+03  0.00000000000E+00 0.  1.
          6    1    1    2  501    0 -0.96401518204E+02  0.24591662254E+01  0.51278979217E+02  0.20374698506E+03  0.17200000000E+03 0. -1.
         -6    1    1    2    0  502  0.96401518204E+02 -0.24591662254E+01  0.17364370024E+02  0.19795156366E+03  0.17200000000E+03 0. -1.
</event>
<event>
 4    1  0.1253776E+000  0.1863518E+03  0.7818608E-02  0.1161794E+00
         21   -1    0    0  501  502  0.00000000000E+00  0.00000000000E+00  0.48456263319E+02  0.48456263319E+02  0.00000000000E+00 0.  1.
         21   -1    0    0  502  503 -0.00000000000E+00 -0.00000000000E+00 -0.89332842602E+03  0.89332842602E+03  0.00000000000E+00 0.  1.
          6    1    1    2  501    0 -0.35613891726E+02 -0.62246702427E+02 -0.21303109882E+03  0.28303577567E+03  0.17200000000E+03 0.  1.
         -6    1    1    2    0  503  0.35613891726E+02  0.62246702427E+02 -0.63184106388E+03  0.65874891366E+03  0.17200000000E+03 0.  1.
</event>
<event>
 4    1  0.1253776E+000  0.1956927E+03  0.7818608E-02  0.1153425E+00
         21   -1    0    0  501  502  0.00000000000E+00  0.00000000000E+00  0.56283663427E+02  0.56283663427E+02  0.00000000000E+00 0. -1.
         21   -1    0    0  502  503 -0.00000000000E+00 -0.00000000000E+00 -0.70689102810E+03  0.70689102810E+03  0.00000000000E+00 0. -1.
          6    1    1    2  501    0  0.87070073576E+02 -0.33621975364E+02 -0.25143955238E+03  0.31861808398E+03  0.17200000000E+03 0. -1.
         -6    1    1    2    0  503 -0.87070073576E+02  0.33621975364E+02 -0.39916781229E+03  0.44455660754E+03  0.17200000000E+03 0. -1.
</event>
<event>
 4    1  0.1253776E+000  0.1910155E+03  0.7818608E-02  0.1157549E+00
         21   -1    0    0  501  502  0.00000000000E+00  0.00000000000E+00  0.21930860265E+03  0.21930860265E+03  0.00000000000E+00 0. -1.
         21   -1    0    0  502  503 -0.00000000000E+00 -0.00000000000E+00 -0.47763801190E+03  0.47763801190E+03  0.00000000000E+00 0. -1.
          6    1    1    2  501    0 -0.79797179744E+02  0.23136949498E+02  0.15214558426E+03  0.24420316775E+03  0.17200000000E+03 0. -1.
         -6    1    1    2    0  503  0.79797179744E+02 -0.23136949498E+02 -0.41047499351E+03  0.45274344681E+03  0.17200000000E+03 0. -1.
</event>
<event>
 4    1  0.1253776E+000  0.1777367E+03  0.7818608E-02  0.1170012E+00
         21   -1    0    0  501  502  0.00000000000E+00  0.00000000000E+00  0.42852839086E+02  0.42852839086E+02  0.00000000000E+00 0.  1.
         21   -1    0    0  502  503 -0.00000000000E+00 -0.00000000000E+00 -0.73783898515E+03  0.73783898515E+03  0.00000000000E+00 0.  1.
          6    1    1    2  501    0  0.15614197224E+02  0.41982348861E+02 -0.35914525839E+03  0.40071890072E+03  0.17200000000E+03 0.  1.
         -6    1    1    2    0  503 -0.15614197224E+02 -0.41982348861E+02 -0.33584088768E+03  0.37997292352E+03  0.17200000000E+03 0.  1.
</event>
<event>
 4    1  0.1253776E+000  0.1789733E+03  0.7818608E-02  0.1168800E+00
         21   -1    0    0  501  502  0.00000000000E+00  0.00000000000E+00  0.31960651239E+03  0.31960651239E+03  0.00000000000E+00 0.  1.
         21   -1    0    0  502  503 -0.00000000000E+00 -0.00000000000E+00 -0.39989452628E+03  0.39989452628E+03  0.00000000000E+00 0.  1.
          6    1    1    2  501    0 -0.49261601898E+02 -0.45524967765E+01  0.27128033614E+03  0.32499915604E+03  0.17200000000E+03 0.  1.
         -6    1    1    2    0  503  0.49261601898E+02  0.45524967765E+01 -0.35156835003E+03  0.39450188262E+03  0.17200000000E+03 0.  1.
</event>
<event>
 4    1  0.1253776E+000  0.2100147E+03  0.7818608E-02  0.1141554E+00
         21   -1    0    0  501  502  0.00000000000E+00  0.00000000000E+00  0.15996610465E+03  0.15996610465E+03  0.00000000000E+00 0. -1.
         21   -1    0    0  502  503 -0.00000000000E+00 -0.00000000000E+00 -0.53211561768E+03  0.53211561768E+03  0.00000000000E+00 0.  1.
          6    1    1    2  501    0 -0.39684259431E+02 -0.11378642080E+03  0.54127953714E+02  0.21687790431E+03  0.17200000000E+03 0. -1.
         -6    1    1    2    0  503  0.39684259431E+02  0.11378642080E+03 -0.42627746674E+03  0.47520381802E+03  0.17200000000E+03 0.  1.
</event>
<event>
 4    1  0.1253776E+000  0.2029382E+03  0.7818608E-02  0.1147283E+00
         21   -1    0    0  503  502  0.00000000000E+00  0.00000000000E+00  0.61314345343E+02  0.61314345343E+02  0.00000000000E+00 0. -1.
         21   -1    0    0  501  503 -0.00000000000E+00 -0.00000000000E+00 -0.84854041368E+03  0.84854041368E+03  0.00000000000E+00 0. -1.
          6    1    1    2  501    0 -0.85362882555E+02 -0.65674132934E+02 -0.60130286909E+03  0.63462512858E+03  0.17200000000E+03 0. -1.
         -6    1    1    2    0  502  0.85362882555E+02  0.65674132934E+02 -0.18592319926E+03  0.27522963045E+03  0.17200000000E+03 0. -1.
</event>
<event>
 4    1  0.1253776E+000  0.1905169E+03  0.7818608E-02  0.1157996E+00
         21   -1    0    0  503  502  0.00000000000E+00  0.00000000000E+00  0.49480866623E+03  0.49480866623E+03  0.00000000000E+00 0. -1.
         21   -1    0    0  501  503 -0.00000000000E+00 -0.00000000000E+00 -0.89231375390E+02  0.89231375390E+02  0.00000000000E+00 0. -1.
          6    1    1    2  501    0  0.52111558777E+02  0.63222384451E+02  0.79611635124E+02  0.20648171081E+03  0.17200000000E+03 0. -1.
         -6    1    1    2    0  502 -0.52111558777E+02 -0.63222384451E+02  0.32596565571E+03  0.37755833080E+03  0.17200000000E+03 0. -1.
</event>
<event>
 4    1  0.1253776E+000  0.1999338E+03  0.7818608E-02  0.1149795E+00
         21   -1    0    0  503  502  0.00000000000E+00  0.00000000000E+00  0.13623718445E+03  0.13623718445E+03  0.00000000000E+00 0. -1.
         21   -1    0    0  501  503 -0.00000000000E+00 -0.00000000000E+00 -0.53684277036E+03  0.53684277036E+03  0.00000000000E+00 0. -1.
          6    1    1    2  501    0  0.25155030950E+02  0.98776253198E+02 -0.42692449905E+03  0.47142131015E+03  0.17200000000E+03 0. -1.
         -6    1    1    2    0  502 -0.25155030950E+02 -0.98776253198E+02  0.26318913143E+02  0.20165864466E+03  0.17200000000E+03 0. -1.
</event>
<event>
 4    1  0.1253776E+000  0.1761150E+03  0.7818608E-02  0.1171617E+00
         21   -1    0    0  503  502  0.00000000000E+00  0.00000000000E+00  0.95102013352E+03  0.95102013352E+03  0.00000000000E+00 0. -1.
         21   -1    0    0  501  503 -0.00000000000E+00 -0.00000000000E+00 -0.18426648599E+03  0.18426648599E+03  0.00000000000E+00 0. -1.
          6    1    1    2  501    0  0.13518733962E+02  0.35351791221E+02 -0.13158758238E+03  0.21984493887E+03  0.17200000000E+03 0. -1.
         -6    1    1    2    0  502 -0.13518733962E+02 -0.35351791221E+02  0.89834122991E+03  0.91544168064E+03  0.17200000000E+03 0. -1.
</event>
<event>
 4    1  0.1253776E+000  0.1736881E+03  0.7818608E-02  0.1174055E+00
         21   -1    0    0  501  502  0.00000000000E+00  0.00000000000E+00  0.94072106532E+02  0.94072106532E+02  0.00000000000E+00 0. -1.
         21   -1    0    0  502  503 -0.00000000000E+00 -0.00000000000E+00 -0.32079633722E+03  0.32079633722E+03  0.00000000000E+00 0. -1.
          6    1    1    2  501    0  0.23852763015E+02 -0.38219917259E+01 -0.10950662814E+03  0.20532721089E+03  0.17200000000E+03 0.  1.
         -6    1    1    2    0  503 -0.23852763015E+02  0.38219917259E+01 -0.11721760255E+03  0.20954123287E+03  0.17200000000E+03 0.  1.
</event>
<event>
 4    1  0.1253776E+000  0.2176821E+03  0.7818608E-02  0.1135623E+00
         21   -1    0    0  501  502  0.00000000000E+00  0.00000000000E+00  0.89944112135E+02  0.89944112135E+02  0.00000000000E+00 0. -1.
         21   -1    0    0  502  503 -0.00000000000E+00 -0.00000000000E+00 -0.55693670281E+03  0.55693670281E+03  0.00000000000E+00 0. -1.
          6    1    1    2  501    0  0.85668209608E+00 -0.13341944352E+03 -0.30869405338E+03  0.37772675363E+03  0.17200000000E+03 0. -1.
         -6    1    1    2    0  503 -0.85668209608E+00  0.13341944352E+03 -0.15829853729E+03  0.26915406132E+03  0.17200000000E+03 0. -1.
</event>
<event>
 4    1  0.1253776E+000  0.1909036E+03  0.7818608E-02  0.1157649E+00
         21   -1    0    0  501  502  0.00000000000E+00  0.00000000000E+00  0.11732236909E+03  0.11732236909E+03  0.00000000000E+00 0. -1.
         21   -1    0    0  502  503 -0.00000000000E+00 -0.00000000000E+00 -0.57195298473E+03  0.57195298473E+03  0.00000000000E+00 0. -1.
          6    1    1    2  501    0  0.52572203608E+02 -0.64002632848E+02  0.56381086552E+01  0.19098681073E+03  0.17200000000E+03 0. -1.
         -6    1    1    2    0  503 -0.52572203608E+02  0.64002632848E+02 -0.46026872430E+03  0.49828854309E+03  0.17200000000E+03 0. -1.
</event>
<event>
 4    1  0.1253776E+000  0.1739849E+03  0.7818608E-02  0.1173755E+00
         21   -1    0    0  501  502  0.00000000000E+00  0.00000000000E+00  0.18617521041E+03  0.18617521041E+03  0.00000000000E+00 0.  1.
         21   -1    0    0  502  503 -0.00000000000E+00 -0.00000000000E+00 -0.27348888573E+03  0.27348888573E+03  0.00000000000E+00 0.  1.
          6    1    1    2  501    0 -0.54085716384E+01 -0.25641558778E+02  0.10269525070E+03  0.20203231598E+03  0.17200000000E+03 0. -1.
         -6    1    1    2    0  503  0.54085716384E+01  0.25641558778E+02 -0.19000892601E+03  0.25763178016E+03  0.17200000000E+03 0. -1.
</event>
<event>
 4    1  0.1253776E+000  0.1721917E+03  0.7818608E-02  0.1175581E+00
         21   -1    0    0  501  502  0.00000000000E+00  0.00000000000E+00  0.74948584245E+03  0.74948584245E+03  0.00000000000E+00 0. -1.
         21   -1    0    0  502  503 -0.00000000000E+00 -0.00000000000E+00 -0.49790784320E+02  0.49790784320E+02  0.00000000000E+00 0. -1.
          6    1    1    2  501    0  0.41334444355E+01 -0.69925069817E+01  0.53099739596E+03  0.55821878778E+03  0.17200000000E+03 0. -1.
         -6    1    1    2    0  503 -0.41334444355E+01  0.69925069817E+01  0.16869766218E+03  0.24105783900E+03  0.17200000000E+03 0. -1.
</event>
<event>
 4    1  0.1253776E+000  0.2117790E+03  0.7818608E-02  0.1140165E+00
         21   -1    0    0  501  502  0.00000000000E+00  0.00000000000E+00  0.12087449146E+04  0.12087449146E+04  0.00000000000E+00 0.  1.
         21   -1    0    0  502  503 -0.00000000000E+00 -0.00000000000E+00 -0.13724690075E+03  0.13724690075E+03  0.00000000000E+00 0.  1.
          6    1    1    2  501    0  0.80288624764E+02  0.93915395455E+02  0.11106185132E+04  0.11306298451E+04  0.17200000000E+03 0.  1.
         -6    1    1    2    0  503 -0.80288624764E+02 -0.93915395455E+02 -0.39120499323E+02  0.21536197027E+03  0.17200000000E+03 0.  1.
</event>
<event>
 4    1  0.1253776E+000  0.1799322E+03  0.7818608E-02  0.1167869E+00
         21   -1    0    0  503  502  0.00000000000E+00  0.00000000000E+00  0.23429146200E+03  0.23429146200E+03  0.00000000000E+00 0.  1.
         21   -1    0    0  501  503 -0.00000000000E+00 -0.00000000000E+00 -0.44992832769E+03  0.44992832769E+03  0.00000000000E+00 0.  1.
          6    1    1    2  501    0 -0.52555174736E+02  0.54370221533E+01 -0.39258724625E+03  0.43185686693E+03  0.17200000000E+03 0.  1.
         -6    1    1    2    0  502  0.52555174736E+02 -0.54370221533E+01  0.17695038056E+03  0.25236292276E+03  0.17200000000E+03 0.  1.
</event>
<event>
 4    1  0.1253776E+000  0.1950192E+03  0.7818608E-02  0.1154011E+00
         21   -1    0    0  501  502  0.00000000000E+00  0.00000000000E+00  0.71231563426E+03  0.71231563426E+03  0.00000000000E+00 0. -1.
         21   -1    0    0  502  503 -0.00000000000E+00 -0.00000000000E+00 -0.56066609063E+02  0.56066609063E+02  0.00000000000E+00 0. -1.
          6    1    1    2  501    0  0.27657907914E+02  0.87655806970E+02  0.41202477511E+03  0.45584746974E+03  0.17200000000E+03 0. -1.
         -6    1    1    2    0  503 -0.27657907914E+02 -0.87655806970E+02  0.24422425008E+03  0.31253477358E+03  0.17200000000E+03 0. -1.
</event>
<event>
 4    1  0.1253776E+000  0.1748760E+03  0.7818608E-02  0.1172856E+00
         21   -1    0    0  503  502  0.00000000000E+00  0.00000000000E+00  0.35164092002E+03  0.35164092002E+03  0.00000000000E+00 0. -1.
         21   -1    0    0  501  503 -0.00000000000E+00 -0.00000000000E+00 -0.23894509111E+03  0.23894509111E+03  0.00000000000E+00 0. -1.
          6    1    1    2  501    0 -0.20493872410E+02 -0.24033600724E+02 -0.17915307712E+03  0.25035462410E+03  0.17200000000E+03 0. -1.
         -6    1    1    2    0  502  0.20493872410E+02  0.24033600724E+02  0.29184890603E+03  0.34023138703E+03  0.17200000000E+03 0. -1.
</event>
<event>
 4    1  0.1253776E+000  0.1754639E+03  0.7818608E-02  0.1172267E+00
         21   -1    0    0  503  502  0.00000000000E+00  0.00000000000E+00  0.12069697366E+04  0.12069697366E+04  0.00000000000E+00 0.  1.
         21   -1    0    0  501  503 -0.00000000000E+00 -0.00000000000E+00 -0.36507714521E+02  0.36507714521E+02  0.00000000000E+00 0.  1.
          6    1    1    2  501    0  0.33243009422E+02 -0.99235016678E+01  0.92650501116E+03  0.94297354643E+03  0.17200000000E+03 0.  1.
         -6    1    1    2    0  502 -0.33243009422E+02  0.99235016678E+01  0.24395701094E+03  0.30050390471E+03  0.17200000000E+03 0.  1.
</event>
<event>
 4    1  0.1253776E+000  0.2154683E+03  0.7818608E-02  0.1137307E+00
         21   -1    0    0  501  502  0.00000000000E+00  0.00000000000E+00  0.16906626633E+04  0.16906626633E+04  0.00000000000E+00 0. -1.
         21   -1    0    0  502  503 -0.00000000000E+00 -0.00000000000E+00 -0.52677654310E+02  0.52677654310E+02  0.00000000000E+00 0. -1.
          6    1    1    2  501    0  0.12935482922E+03  0.10484520606E+02  0.14220881783E+04  0.14383189438E+04  0.17200000000E+03 0. -1.
         -6    1    1    2    0  503 -0.12935482922E+03 -0.10484520606E+02  0.21589683063E+03  0.30502137383E+03  0.17200000000E+03 0. -1.
</event>
<event>
 4    1  0.1253776E+000  0.2145387E+03  0.7818608E-02  0.1138021E+00
         21   -1    0    0  501  502  0.00000000000E+00  0.00000000000E+00  0.66994935452E+03  0.66994935452E+03  0.00000000000E+00 0. -1.
         21   -1    0    0  502  503 -0.00000000000E+00 -0.00000000000E+00 -0.69069513209E+02  0.69069513209E+02  0.00000000000E+00 0.  1.
          6    1    1    2  501    0 -0.92226003679E+02 -0.89091009421E+02  0.32739456845E+03  0.39142565982E+03  0.17200000000E+03 0.  1.
         -6    1    1    2    0  503  0.92226003679E+02  0.89091009421E+02  0.27348527286E+03  0.34759320791E+03  0.17200000000E+03 0. -1.
</event>
<event>
 4    1  0.1253776E+000  0.2547982E+03  0.7818608E-02  0.1110309E+00
         21   -1    0    0  501  502  0.00000000000E+00  0.00000000000E+00  0.75120648954E+03  0.75120648954E+03  0.00000000000E+00 0.  1.
         21   -1    0    0  502  503 -0.00000000000E+00 -0.00000000000E+00 -0.13845142994E+03  0.13845142994E+03  0.00000000000E+00 0.  1.
          6    1    1    2  501    0  0.81867929367E+02 -0.16922111002E+03  0.57906251602E+03  0.63264171487E+03  0.17200000000E+03 0.  1.
         -6    1    1    2    0  503 -0.81867929367E+02  0.16922111002E+03  0.33692543574E+02  0.25701620460E+03  0.17200000000E+03 0.  1.
</event>
<event>
 4    1  0.1253776E+000  0.1986158E+03  0.7818608E-02  0.1150912E+00
         21   -1    0    0  503  502  0.00000000000E+00  0.00000000000E+00  0.65182626162E+03  0.65182626162E+03  0.00000000000E+00 0. -1.
         21   -1    0    0  501  503 -0.00000000000E+00 -0.00000000000E+00 -0.62955388408E+02  0.62955388408E+02  0.00000000000E+00 0. -1.
          6    1    1    2  501    0 -0.97588202042E+02  0.18460433889E+02  0.22413638980E+03  0.29947515094E+03  0.17200000000E+03 0. -1.
         -6    1    1    2    0  502  0.97588202042E+02 -0.18460433889E+02  0.36473448341E+03  0.41530649909E+03  0.17200000000E+03 0. -1.
</event>
<event>
 4    1  0.1253776E+000  0.1857323E+03  0.7818608E-02  0.1162368E+00
         21   -1    0    0  501  502  0.00000000000E+00  0.00000000000E+00  0.11867709404E+04  0.11867709404E+04  0.00000000000E+00 0. -1.
         21   -1    0    0  502  503 -0.00000000000E+00 -0.00000000000E+00 -0.59034317010E+02  0.59034317010E+02  0.00000000000E+00 0. -1.
          6    1    1    2  501    0  0.62143976688E+02 -0.32413147115E+02  0.10076690986E+04  0.10246431077E+04  0.17200000000E+03 0. -1.
         -6    1    1    2    0  503 -0.62143976688E+02  0.32413147115E+02  0.12006752480E+03  0.22116214969E+03  0.17200000000E+03 0. -1.
</event>
<event>
 4    1  0.1253776E+000  0.1906181E+03  0.7818608E-02  0.1157905E+00
         21   -1    0    0  503  502  0.00000000000E+00  0.00000000000E+00  0.17452068071E+04  0.17452068071E+04  0.00000000000E+00 0. -1.
         21   -1    0    0  501  503 -0.00000000000E+00 -0.00000000000E+00 -0.25189261912E+02  0.25189261912E+02  0.00000000000E+00 0. -1.
          6    1    1    2  501    0  0.20811209397E+02 -0.79486871501E+02  0.49134118905E+03  0.52702128348E+03  0.17200000000E+03 0. -1.
         -6    1    1    2    0  502 -0.20811209397E+02  0.79486871501E+02  0.12286763561E+04  0.12433747855E+04  0.17200000000E+03 0. -1.
</event>
<event>
 4    1  0.1253776E+000  0.1765623E+03  0.7818608E-02  0.1171172E+00
         21   -1    0    0  503  502  0.00000000000E+00  0.00000000000E+00  0.43694314549E+03  0.43694314549E+03  0.00000000000E+00 0. -1.
         21   -1    0    0  501  503 -0.00000000000E+00 -0.00000000000E+00 -0.14461410431E+03  0.14461410431E+03  0.00000000000E+00 0. -1.
          6    1    1    2  501    0 -0.12057557483E+02 -0.38011374410E+02 -0.60808590184E+02  0.18674028467E+03  0.17200000000E+03 0. -1.
         -6    1    1    2    0  502  0.12057557483E+02  0.38011374410E+02  0.35313763136E+03  0.39481696514E+03  0.17200000000E+03 0. -1.
</event>
<event>
 4    1  0.1253776E+000  0.1916722E+03  0.7818608E-02  0.1156962E+00
         21   -1    0    0  501  502  0.00000000000E+00  0.00000000000E+00  0.27446021207E+02  0.27446021207E+02  0.00000000000E+00 0. -1.
         21   -1    0    0  502  503 -0.00000000000E+00 -0.00000000000E+00 -0.13388205763E+04  0.13388205763E+04  0.00000000000E+00 0.  1.
          6    1    1    2  501    0 -0.41918213509E+01  0.84478744825E+02 -0.66516186050E+03  0.69222722451E+03  0.17200000000E+03 0.  1.
         -6    1    1    2    0  503  0.41918213509E+01 -0.84478744825E+02 -0.64621269458E+03  0.67403937298E+03  0.17200000000E+03 0. -1.
</event>
<event>
 4    1  0.1253776E+000  0.1773042E+03  0.7818608E-02  0.1170438E+00
         21   -1    0    0  503  502  0.00000000000E+00  0.00000000000E+00  0.37434556912E+03  0.37434556912E+03  0.00000000000E+00 0.  1.
         21   -1    0    0  501  503 -0.00000000000E+00 -0.00000000000E+00 -0.10875457490E+03  0.10875457490E+03  0.00000000000E+00 0.  1.
          6    1    1    2  501    0  0.34338006201E+02 -0.25955666926E+02  0.17502224810E+02  0.17816599897E+03  0.17200000000E+03 0.  1.
         -6    1    1    2    0  502 -0.34338006201E+02  0.25955666926E+02  0.24808876941E+03  0.30493414506E+03  0.17200000000E+03 0.  1.
</event>
<event>
 4    1  0.1253776E+000  0.1877083E+03  0.7818608E-02  0.1160545E+00
         21   -1    0    0  501  502  0.00000000000E+00  0.00000000000E+00  0.77570759525E+02  0.77570759525E+02  0.00000000000E+00 0.  1.
         21   -1    0    0  502  503 -0.00000000000E+00 -0.00000000000E+00 -0.73621986430E+03  0.73621986430E+03  0.00000000000E+00 0.  1.
          6    1    1    2  501    0 -0.18806792295E+02  0.72778416225E+02 -0.77498095058E+02  0.20307719725E+03  0.17200000000E+03 0. -1.
         -6    1    1    2    0  503  0.18806792295E+02 -0.72778416225E+02 -0.58115100972E+03  0.61071342657E+03  0.17200000000E+03 0. -1.
</event>
<event>
 4    1  0.1253776E+000  0.3824186E+03  0.7818608E-02  0.1050043E+00
         21   -1    0    0  501  502  0.00000000000E+00  0.00000000000E+00  0.14665190151E+04  0.14665190151E+04  0.00000000000E+00 0.  1.
         21   -1    0    0  502  503 -0.00000000000E+00 -0.00000000000E+00 -0.10966556348E+03  0.10966556348E+03  0.00000000000E+00 0.  1.
          6    1    1    2  501    0 -0.33085880214E+03  0.84808254948E+02  0.91573685444E+03  0.99237995427E+03  0.17200000000E+03 0. -1.
         -6    1    1    2    0  503  0.33085880214E+03 -0.84808254948E+02  0.44111659720E+03  0.58380462433E+03  0.17200000000E+03 0. -1.
</event>
<event>
 4    1  0.1253776E+000  0.1778160E+03  0.7818608E-02  0.1169934E+00
         21   -1    0    0  501  502  0.00000000000E+00  0.00000000000E+00  0.47889767520E+03  0.47889767520E+03  0.00000000000E+00 0.  1.
         21   -1    0    0  502  503 -0.00000000000E+00 -0.00000000000E+00 -0.66112175421E+02  0.66112175421E+02  0.00000000000E+00 0.  1.
          6    1    1    2  501    0 -0.24818198234E+02 -0.37664218135E+02  0.19641682935E+03  0.26494925390E+03  0.17200000000E+03 0. -1.
         -6    1    1    2    0  503  0.24818198234E+02  0.37664218135E+02  0.21636867043E+03  0.28006059672E+03  0.17200000000E+03 0. -1.
</event>
<event>
 4    1  0.1253776E+000  0.2742521E+03  0.7818608E-02  0.1098870E+00
         21   -1    0    0  501  502  0.00000000000E+00  0.00000000000E+00  0.35753362208E+03  0.35753362208E+03  0.00000000000E+00 0.  1.
         21   -1    0    0  502  503 -0.00000000000E+00 -0.00000000000E+00 -0.29455869171E+03  0.29455869171E+03  0.00000000000E+00 0. -1.
          6    1    1    2  501    0 -0.19656977875E+03 -0.83609481540E+02  0.20579692009E+03  0.34287985598E+03  0.17200000000E+03 0.  1.
         -6    1    1    2    0  503  0.19656977875E+03  0.83609481540E+02 -0.14282198971E+03  0.30921245781E+03  0.17200000000E+03 0. -1.
</event>
<event>
 4    1  0.1253776E+000  0.2162831E+03  0.7818608E-02  0.1136685E+00
         21   -1    0    0  501  502  0.00000000000E+00  0.00000000000E+00  0.13837762662E+03  0.13837762662E+03  0.00000000000E+00 0. -1.
         21   -1    0    0  502  503 -0.00000000000E+00 -0.00000000000E+00 -0.33812444584E+03  0.33812444584E+03  0.00000000000E+00 0. -1.
          6    1    1    2  501    0 -0.62991100561E+02  0.11500644318E+03 -0.10344209671E+03  0.23974700852E+03  0.17200000000E+03 0. -1.
         -6    1    1    2    0  503  0.62991100561E+02 -0.11500644318E+03 -0.96304722505E+02  0.23675506394E+03  0.17200000000E+03 0. -1.
</event>
<event>
 4    1  0.1253776E+000  0.1852269E+03  0.7818608E-02  0.1162838E+00
         21   -1    0    0  503  502  0.00000000000E+00  0.00000000000E+00  0.48755511767E+03  0.48755511767E+03  0.00000000000E+00 0. -1.
         21   -1    0    0  501  503 -0.00000000000E+00 -0.00000000000E+00 -0.12736445646E+03  0.12736445646E+03  0.00000000000E+00 0. -1.
          6    1    1    2  501    0 -0.61065553161E+02 -0.31559267492E+02 -0.25580175061E+02  0.18698485100E+03  0.17200000000E+03 0. -1.
         -6    1    1    2    0  502  0.61065553161E+02  0.31559267492E+02  0.38577083627E+03  0.42793472313E+03  0.17200000000E+03 0. -1.
</event>
<event>
 4    1  0.1253776E+000  0.1865328E+03  0.7818608E-02  0.1161626E+00
         21   -1    0    0  503  502  0.00000000000E+00  0.00000000000E+00  0.16463094933E+03  0.16463094933E+03  0.00000000000E+00 0. -1.
         21   -1    0    0  501  503 -0.00000000000E+00 -0.00000000000E+00 -0.31384066031E+03  0.31384066031E+03  0.00000000000E+00 0. -1.
          6    1    1    2  501    0 -0.41497646098E+01 -0.72064375916E+02 -0.21132012341E+03  0.28186998666E+03  0.17200000000E+03 0. -1.
         -6    1    1    2    0  502  0.41497646098E+01  0.72064375916E+02  0.62110412432E+02  0.19660162297E+03  0.17200000000E+03 0. -1.
</event>
<event>
 4    1  0.1253776E+000  0.2460753E+03  0.7818608E-02  0.1115811E+00
         21   -1    0    0  503  502  0.00000000000E+00  0.00000000000E+00  0.10572410590E+03  0.10572410590E+03  0.00000000000E+00 0.  1.
         21   -1    0    0  501  503 -0.00000000000E+00 -0.00000000000E+00 -0.80300148635E+03  0.80300148635E+03  0.00000000000E+00 0. -1.
          6    1    1    2  501    0  0.16487077074E+03  0.61536101710E+02 -0.59194285659E+03  0.64105335840E+03  0.17200000000E+03 0.  1.
         -6    1    1    2    0  502 -0.16487077074E+03 -0.61536101710E+02 -0.10533452386E+03  0.26767223385E+03  0.17200000000E+03 0.  1.
</event>
<event>
 4    1  0.1253776E+000  0.1991922E+03  0.7818608E-02  0.1150422E+00
         21   -1    0    0  503  502  0.00000000000E+00  0.00000000000E+00  0.23683413283E+02  0.23683413283E+02  0.00000000000E+00 0. -1.
         21   -1    0    0  501  503 -0.00000000000E+00 -0.00000000000E+00 -0.19660718898E+04  0.19660718898E+04  0.00000000000E+00 0. -1.
          6    1    1    2  501    0 -0.26524720447E+02 -0.96901854584E+02 -0.13537756483E+04  0.13683515762E+04  0.17200000000E+03 0.  1.
         -6    1    1    2    0  502  0.26524720447E+02  0.96901854584E+02 -0.58861282824E+03  0.62140372689E+03  0.17200000000E+03 0.  1.
</event>
<event>
 4    1  0.1253776E+000  0.1842816E+03  0.7818608E-02  0.1163722E+00
         21   -1    0    0  503  502  0.00000000000E+00  0.00000000000E+00  0.50409288880E+03  0.50409288880E+03  0.00000000000E+00 0. -1.
         21   -1    0    0  501  503 -0.00000000000E+00 -0.00000000000E+00 -0.93404214125E+02  0.93404214125E+02  0.00000000000E+00 0. -1.
          6    1    1    2  501    0  0.66030446624E+02 -0.39591374568E+01  0.36307352642E+03  0.40716345641E+03  0.17200000000E+03 0. -1.
         -6    1    1    2    0  502 -0.66030446624E+02  0.39591374568E+01  0.47615148253E+02  0.19033364651E+03  0.17200000000E+03 0. -1.
</event>
<event>
 4    1  0.1253776E+000  0.2898411E+03  0.7818608E-02  0.1090432E+00
         21   -1    0    0  503  502  0.00000000000E+00  0.00000000000E+00  0.13912207663E+03  0.13912207663E+03  0.00000000000E+00 0.  1.
         21   -1    0    0  501  503 -0.00000000000E+00 -0.00000000000E+00 -0.14433189395E+04  0.14433189395E+04  0.00000000000E+00 0.  1.
          6    1    1    2  501    0  0.22108895989E+03  0.74455007318E+02 -0.12555195925E+04  0.12885407730E+04  0.17200000000E+03 0.  1.
         -6    1    1    2    0  502 -0.22108895989E+03 -0.74455007318E+02 -0.48677270351E+02  0.29390024319E+03  0.17200000000E+03 0.  1.
</event>
<event>
 4    1  0.1253776E+000  0.2079488E+03  0.7818608E-02  0.1143201E+00
         21   -1    0    0  501  502  0.00000000000E+00  0.00000000000E+00  0.46431757580E+03  0.46431757580E+03  0.00000000000E+00 0.  1.
         21   -1    0    0  502  503 -0.00000000000E+00 -0.00000000000E+00 -0.15508200087E+03  0.15508200087E+03  0.00000000000E+00 0.  1.
          6    1    1    2  501    0 -0.87335325007E+02 -0.77661015749E+02  0.35035881618E+03  0.40742360319E+03  0.17200000000E+03 0.  1.
         -6    1    1    2    0  503  0.87335325007E+02  0.77661015749E+02 -0.41123241255E+02  0.21197597348E+03  0.17200000000E+03 0.  1.
</event>
<event>
 4    1  0.1253776E+000  0.1775871E+03  0.7818608E-02  0.1170159E+00
         21   -1    0    0  501  502  0.00000000000E+00  0.00000000000E+00  0.74066651150E+03  0.74066651150E+03  0.00000000000E+00 0.  1.
         21   -1    0    0  502  503 -0.00000000000E+00 -0.00000000000E+00 -0.59611633155E+02  0.59611633155E+02  0.00000000000E+00 0.  1.
          6    1    1    2  501    0  0.43237785864E+02  0.91476783548E+01  0.55441246407E+03  0.58216008662E+03  0.17200000000E+03 0.  1.
         -6    1    1    2    0  503 -0.43237785864E+02 -0.91476783548E+01  0.12664241428E+03  0.21811805804E+03  0.17200000000E+03 0.  1.
</event>
<event>
 4    1  0.1253776E+000  0.2022871E+03  0.7818608E-02  0.1147824E+00
         21   -1    0    0  501  502  0.00000000000E+00  0.00000000000E+00  0.16547610437E+04  0.16547610437E+04  0.00000000000E+00 0.  1.
         21   -1    0    0  502  503 -0.00000000000E+00 -0.00000000000E+00 -0.17464371891E+03  0.17464371891E+03  0.00000000000E+00 0.  1.
          6    1    1    2  501    0 -0.10371837837E+03 -0.24053140940E+02  0.15875317700E+04  0.16003678253E+04  0.17200000000E+03 0.  1.
         -6    1    1    2    0  503  0.10371837837E+03  0.24053140940E+02 -0.10741444521E+03  0.22903693728E+03  0.17200000000E+03 0.  1.
</event>
<event>
 4    1  0.1253776E+000  0.1976909E+03  0.7818608E-02  0.1151702E+00
         21   -1    0    0  503  502  0.00000000000E+00  0.00000000000E+00  0.80617752002E+03  0.80617752002E+03  0.00000000000E+00 0. -1.
         21   -1    0    0  501  503 -0.00000000000E+00 -0.00000000000E+00 -0.13480082599E+03  0.13480082599E+03  0.00000000000E+00 0. -1.
          6    1    1    2  501    0 -0.97203206655E+02 -0.70154820117E+01 -0.40813217783E+02  0.20185985019E+03  0.17200000000E+03 0. -1.
         -6    1    1    2    0  502  0.97203206655E+02  0.70154820117E+01  0.71218991182E+03  0.73911849582E+03  0.17200000000E+03 0. -1.
</event>
<event>
 4    1  0.1253776E+000  0.2353360E+03  0.7818608E-02  0.1122939E+00
         21   -1    0    0  503  502  0.00000000000E+00  0.00000000000E+00  0.19432225343E+03  0.19432225343E+03  0.00000000000E+00 0. -1.
         21   -1    0    0  501  503 -0.00000000000E+00 -0.00000000000E+00 -0.75754701386E+03  0.75754701386E+03  0.00000000000E+00 0.  1.
          6    1    1    2  501    0  0.96713843419E+02  0.12823991364E+03 -0.65750360417E+03  0.69835093790E+03  0.17200000000E+03 0.  1.
         -6    1    1    2    0  502 -0.96713843419E+02 -0.12823991364E+03  0.94278843746E+02  0.25351832939E+03  0.17200000000E+03 0. -1.
</event>
<event>
 4    1  0.1253776E+000  0.1886637E+03  0.7818608E-02  0.1159672E+00
         21   -1    0    0  503  502  0.00000000000E+00  0.00000000000E+00  0.30479475228E+03  0.30479475228E+03  0.00000000000E+00 0.  1.
         21   -1    0    0  501  503 -0.00000000000E+00 -0.00000000000E+00 -0.11723287726E+03  0.11723287726E+03  0.00000000000E+00 0.  1.
          6    1    1    2  501    0 -0.65817260875E+02  0.40964313796E+02  0.80668336285E+02  0.20518617720E+03  0.17200000000E+03 0.  1.
         -6    1    1    2    0  502  0.65817260875E+02 -0.40964313796E+02  0.10689353873E+03  0.21684145235E+03  0.17200000000E+03 0.  1.
</event>
<event>
 4    1  0.1253776E+000  0.1759656E+03  0.7818608E-02  0.1171766E+00
         21   -1    0    0  503  502  0.00000000000E+00  0.00000000000E+00  0.11839486271E+04  0.11839486271E+04  0.00000000000E+00 0.  1.
         21   -1    0    0  501  503 -0.00000000000E+00 -0.00000000000E+00 -0.27714425339E+02  0.27714425339E+02  0.00000000000E+00 0.  1.
          6    1    1    2  501    0  0.33652206691E+02  0.15729863717E+02  0.43432043020E+03  0.46861299140E+03  0.17200000000E+03 0.  1.
         -6    1    1    2    0  502 -0.33652206691E+02 -0.15729863717E+02  0.72191377155E+03  0.74305006102E+03  0.17200000000E+03 0.  1.
</event>
<event>
 4    1  0.1253776E+000  0.2436630E+03  0.7818608E-02  0.1117376E+00
         21   -1    0    0  503  502  0.00000000000E+00  0.00000000000E+00  0.24519800913E+02  0.24519800913E+02  0.00000000000E+00 0. -1.
         21   -1    0    0  501  503 -0.00000000000E+00 -0.00000000000E+00 -0.24242032741E+04  0.24242032741E+04  0.00000000000E+00 0.  1.
          6    1    1    2  501    0  0.16301086978E+03  0.56702107493E+02 -0.12416499382E+04  0.12653324629E+04  0.17200000000E+03 0. -1.
         -6    1    1    2    0  502 -0.16301086978E+03 -0.56702107493E+02 -0.11580335349E+04  0.11833906120E+04  0.17200000000E+03 0.  1.
</event>
<event>
 4    1  0.1253776E+000  0.1979129E+03  0.7818608E-02  0.1151512E+00
         21   -1    0    0  503  502  0.00000000000E+00  0.00000000000E+00  0.33775076104E+03  0.33775076104E+03  0.00000000000E+00 0.  1.
         21   -1    0    0  501  503 -0.00000000000E+00 -0.00000000000E+00 -0.22196330175E+03  0.22196330175E+03  0.00000000000E+00 0.  1.
          6    1    1    2  501    0 -0.71180184770E+02 -0.67222621695E+02 -0.13549517191E+03  0.23985087280E+03  0.17200000000E+03 0.  1.
         -6    1    1    2    0  502  0.71180184770E+02  0.67222621695E+02  0.25128263119E+03  0.31986318999E+03  0.17200000000E+03 0.  1.
</event>
<event>
 4    1  0.1253776E+000  0.1976850E+03  0.7818608E-02  0.1151707E+00
         21   -1    0    0  501  502  0.00000000000E+00  0.00000000000E+00  0.62430911513E+03  0.62430911513E+03  0.00000000000E+00 0. -1.
         21   -1    0    0  502  503 -0.00000000000E+00 -0.00000000000E+00 -0.64887010747E+02  0.64887010747E+02  0.00000000000E+00 0.  1.
          6    1    1    2  501    0 -0.92240848239E+02 -0.31416186253E+02  0.34445999961E+03  0.39715493472E+03  0.17200000000E+03 0. -1.
         -6    1    1    2    0  503  0.92240848239E+02  0.31416186253E+02  0.21496210477E+03  0.29204119115E+03  0.17200000000E+03 0.  1.
</event>
<event>
 4    1  0.1253776E+000  0.3146430E+03  0.7818608E-02  0.1078142E+00
         21   -1    0    0  503  502  0.00000000000E+00  0.00000000000E+00  0.30801561870E+03  0.30801561870E+03  0.00000000000E+00 0.  1.
         21   -1    0    0  501  503 -0.00000000000E+00 -0.00000000000E+00 -0.34851629431E+03  0.34851629431E+03  0.00000000000E+00 0.  1.
          6    1    1    2  501    0  0.21127790698E+03  0.15740981896E+03 -0.11179348431E+03  0.33391314472E+03  0.17200000000E+03 0.  1.
         -6    1    1    2    0  502 -0.21127790698E+03 -0.15740981896E+03  0.71292808702E+02  0.32261876829E+03  0.17200000000E+03 0.  1.
</event>
<event>
 4    1  0.1253776E+000  0.1920476E+03  0.7818608E-02  0.1156627E+00
         21   -1    0    0  501  502  0.00000000000E+00  0.00000000000E+00  0.16390717230E+04  0.16390717230E+04  0.00000000000E+00 0. -1.
         21   -1    0    0  502  503 -0.00000000000E+00 -0.00000000000E+00 -0.24824496689E+02  0.24824496689E+02  0.00000000000E+00 0.  1.
          6    1    1    2  501    0 -0.47357714943E+02 -0.71102357335E+02  0.10615949669E+04  0.10788262937E+04  0.17200000000E+03 0. -1.
         -6    1    1    2    0  503  0.47357714943E+02  0.71102357335E+02  0.55265225943E+03  0.58506992594E+03  0.17200000000E+03 0.  1.
</event>
<event>
 4    1  0.1253776E+000  0.1885848E+03  0.7818608E-02  0.1159744E+00
         21   -1    0    0  501  502  0.00000000000E+00  0.00000000000E+00  0.36689205630E+02  0.36689205630E+02  0.00000000000E+00 0. -1.
         21   -1    0    0  502  503 -0.00000000000E+00 -0.00000000000E+00 -0.11238313904E+04  0.11238313904E+04  0.00000000000E+00 0.  1.
          6    1    1    2  501    0  0.76770603816E+02  0.93016078538E+01 -0.32842816963E+03  0.37872062015E+03  0.17200000000E+03 0. -1.
         -6    1    1    2    0  503 -0.76770603816E+02 -0.93016078538E+01 -0.75871401514E+03  0.78179997588E+03  0.17200000000E+03 0.  1.
</event>
<event>
 4    1  0.1253776E+000  0.2409023E+03  0.7818608E-02  0.1119193E+00
         21   -1    0    0  503  502  0.00000000000E+00  0.00000000000E+00  0.21859016227E+04  0.21859016227E+04  0.00000000000E+00 0. -1.
         21   -1    0    0  501  503 -0.00000000000E+00 -0.00000000000E+00 -0.28242770427E+02  0.28242770427E+02  0.00000000000E+00 0.  1.
          6    1    1    2  501    0 -0.18552330657E+02 -0.16764763455E+03  0.13499267058E+04  0.13712534519E+04  0.17200000000E+03 0.  1.
         -6    1    1    2    0  502  0.18552330657E+02  0.16764763455E+03  0.80773214651E+03  0.84289094125E+03  0.17200000000E+03 0. -1.
</event>
<event>
 4    1  0.1253776E+000  0.1959523E+03  0.7818608E-02  0.1153200E+00
         21   -1    0    0  503  502  0.00000000000E+00  0.00000000000E+00  0.18337233325E+03  0.18337233325E+03  0.00000000000E+00 0. -1.
         21   -1    0    0  501  503 -0.00000000000E+00 -0.00000000000E+00 -0.23861673692E+03  0.23861673692E+03  0.00000000000E+00 0.  1.
          6    1    1    2  501    0  0.85888209640E+02 -0.37901516169E+02  0.46214339828E+02  0.20132827593E+03  0.17200000000E+03 0.  1.
         -6    1    1    2    0  502 -0.85888209640E+02  0.37901516169E+02 -0.10145874350E+03  0.22066079424E+03  0.17200000000E+03 0. -1.
</event>
<event>
 4    1  0.1253776E+000  0.1987920E+03  0.7818608E-02  0.1150762E+00
         21   -1    0    0  503  502  0.00000000000E+00  0.00000000000E+00  0.19312217126E+03  0.19312217126E+03  0.00000000000E+00 0. -1.
         21   -1    0    0  501  503 -0.00000000000E+00 -0.00000000000E+00 -0.28751418932E+03  0.28751418932E+03  0.00000000000E+00 0. -1.
          6    1    1    2  501    0  0.61361161479E+02  0.78543342846E+02 -0.17622801804E+03  0.26565873445E+03  0.17200000000E+03 0. -1.
         -6    1    1    2    0  502 -0.61361161479E+02 -0.78543342846E+02  0.81835999983E+02  0.21497762613E+03  0.17200000000E+03 0. -1.
</event>
<event>
 4    1  0.1253776E+000  0.1899770E+03  0.7818608E-02  0.1158482E+00
         21   -1    0    0  501  502  0.00000000000E+00  0.00000000000E+00  0.28973739398E+02  0.28973739398E+02  0.00000000000E+00 0.  1.
         21   -1    0    0  502  503 -0.00000000000E+00 -0.00000000000E+00 -0.12872583255E+04  0.12872583255E+04  0.00000000000E+00 0.  1.
          6    1    1    2  501    0  0.68270006725E+02 -0.42970501216E+02 -0.51082771933E+03  0.54501029039E+03  0.17200000000E+03 0. -1.
         -6    1    1    2    0  503 -0.68270006725E+02  0.42970501216E+02 -0.74745686674E+03  0.77122177447E+03  0.17200000000E+03 0. -1.
</event>
<event>
 4    1  0.1253776E+000  0.2071829E+03  0.7818608E-02  0.1143816E+00
         21   -1    0    0  503  502  0.00000000000E+00  0.00000000000E+00  0.43569029633E+02  0.43569029633E+02  0.00000000000E+00 0. -1.
         21   -1    0    0  501  503 -0.00000000000E+00 -0.00000000000E+00 -0.10397668245E+04  0.10397668245E+04  0.00000000000E+00 0.  1.
          6    1    1    2  501    0  0.55738372684E+02  0.10116323313E+03 -0.37402554485E+03  0.42757440771E+03  0.17200000000E+03 0.  1.
         -6    1    1    2    0  502 -0.55738372684E+02 -0.10116323313E+03 -0.62217225003E+03  0.65576144644E+03  0.17200000000E+03 0.  1.
</event>
<event>
 4    1  0.1253776E+000  0.1838774E+03  0.7818608E-02  0.1164102E+00
         21   -1    0    0  501  502  0.00000000000E+00  0.00000000000E+00  0.12852170205E+03  0.12852170205E+03  0.00000000000E+00 0. -1.
         21   -1    0    0  502  503 -0.00000000000E+00 -0.00000000000E+00 -0.27717994157E+03  0.27717994157E+03  0.00000000000E+00 0. -1.
          6    1    1    2  501    0  0.16562268796E+02 -0.62869714486E+02 -0.28570388598E+02  0.18608378987E+03  0.17200000000E+03 0. -1.
         -6    1    1    2    0  503 -0.16562268796E+02  0.62869714486E+02 -0.12008785093E+03  0.21961785375E+03  0.17200000000E+03 0. -1.
</event>
<event>
 4    1  0.1253776E+000  0.2557248E+03  0.7818608E-02  0.1109739E+00
         21   -1    0    0  501  502  0.00000000000E+00  0.00000000000E+00  0.60882954190E+03  0.60882954190E+03  0.00000000000E+00 0.  1.
         21   -1    0    0  502  503 -0.00000000000E+00 -0.00000000000E+00 -0.11940192213E+03  0.11940192213E+03  0.00000000000E+00 0. -1.
          6    1    1    2  501    0  0.16111670234E+03  0.99260182470E+02  0.36010019110E+03  0.44166426528E+03  0.17200000000E+03 0.  1.
         -6    1    1    2    0  503 -0.16111670234E+03 -0.99260182470E+02  0.12932742866E+03  0.28656719875E+03  0.17200000000E+03 0. -1.
</event>
<event>
 4    1  0.1253776E+000  0.2144615E+03  0.7818608E-02  0.1138081E+00
         21   -1    0    0  503  502  0.00000000000E+00  0.00000000000E+00  0.10680902301E+04  0.10680902301E+04  0.00000000000E+00 0. -1.
         21   -1    0    0  501  503 -0.00000000000E+00 -0.00000000000E+00 -0.14560158161E+03  0.14560158161E+03  0.00000000000E+00 0.  1.
          6    1    1    2  501    0 -0.60046431760E+02 -0.11315551836E+03  0.97050701079E+03  0.99392032040E+03  0.17200000000E+03 0. -1.
         -6    1    1    2    0  502  0.60046431760E+02  0.11315551836E+03 -0.48018362261E+02  0.21977149136E+03  0.17200000000E+03 0.  1.
</event>
<event>
 4    1  0.1253776E+000  0.1841636E+03  0.7818608E-02  0.1163833E+00
         21   -1    0    0  501  502  0.00000000000E+00  0.00000000000E+00  0.12026472739E+03  0.12026472739E+03  0.00000000000E+00 0. -1.
         21   -1    0    0  502  503 -0.00000000000E+00 -0.00000000000E+00 -0.28212935186E+03  0.28212935186E+03  0.00000000000E+00 0. -1.
          6    1    1    2  501    0 -0.60864763272E+02 -0.25054382829E+02 -0.76850089259E+02  0.19955494914E+03  0.17200000000E+03 0.  1.
         -6    1    1    2    0  503  0.60864763272E+02  0.25054382829E+02 -0.85014535214E+02  0.20283913011E+03  0.17200000000E+03 0.  1.
</event>
<event>
 4    1  0.1253776E+000  0.2422560E+03  0.7818608E-02  0.1118299E+00
         21   -1    0    0  501  502  0.00000000000E+00  0.00000000000E+00  0.58922925032E+03  0.58922925032E+03  0.00000000000E+00 0.  1.
         21   -1    0    0  502  503 -0.00000000000E+00 -0.00000000000E+00 -0.10333880611E+03  0.10333880611E+03  0.00000000000E+00 0. -1.
          6    1    1    2  501    0 -0.12045104672E+03 -0.12081199752E+03  0.17708968729E+03  0.30008124024E+03  0.17200000000E+03 0.  1.
         -6    1    1    2    0  503  0.12045104672E+03  0.12081199752E+03  0.30880075693E+03  0.39248681619E+03  0.17200000000E+03 0.  1.
</event>
<event>
 4    1  0.1253776E+000  0.1758687E+03  0.7818608E-02  0.1171862E+00
         21   -1    0    0  501  502  0.00000000000E+00  0.00000000000E+00  0.59460703354E+03  0.59460703354E+03  0.00000000000E+00 0. -1.
         21   -1    0    0  502  503 -0.00000000000E+00 -0.00000000000E+00 -0.57784829277E+02  0.57784829277E+02  0.00000000000E+00 0. -1.
          6    1    1    2  501    0  0.67208101465E+01  0.36064132127E+02  0.37146642363E+03  0.41099524912E+03  0.17200000000E+03 0.  1.
         -6    1    1    2    0  503 -0.67208101465E+01 -0.36064132127E+02  0.16535578063E+03  0.24139661369E+03  0.17200000000E+03 0.  1.
</event>
<event>
 4    1  0.1253776E+000  0.1811717E+03  0.7818608E-02  0.1166674E+00
         21   -1    0    0  501  502  0.00000000000E+00  0.00000000000E+00  0.96005101639E+02  0.96005101639E+02  0.00000000000E+00 0. -1.
         21   -1    0    0  502  503 -0.00000000000E+00 -0.00000000000E+00 -0.45137912395E+03  0.45137912395E+03  0.00000000000E+00 0. -1.
          6    1    1    2  501    0  0.42509028953E+02 -0.37843964136E+02 -0.42890994267E+02  0.18617953849E+03  0.17200000000E+03 0.  1.
         -6    1    1    2    0  503 -0.42509028953E+02  0.37843964136E+02 -0.31248302804E+03  0.36120468709E+03  0.17200000000E+03 0.  1.
</event>
<event>
 4    1  0.1253776E+000  0.2146275E+03  0.7818608E-02  0.1137953E+00
         21   -1    0    0  501  502  0.00000000000E+00  0.00000000000E+00  0.41841400053E+03  0.41841400053E+03  0.00000000000E+00 0.  1.
         21   -1    0    0  502  503 -0.00000000000E+00 -0.00000000000E+00 -0.15276269146E+03  0.15276269146E+03  0.00000000000E+00 0.  1.
          6    1    1    2  501    0 -0.12594024759E+03  0.24900099802E+02 -0.18107760487E+02  0.21538999959E+03  0.17200000000E+03 0.  1.
         -6    1    1    2    0  503  0.12594024759E+03 -0.24900099802E+02  0.28375906956E+03  0.35578669240E+03  0.17200000000E+03 0.  1.
</event>
<event>
 4    1  0.1253776E+000  0.2238101E+03  0.7818608E-02  0.1131074E+00
         21   -1    0    0  503  502  0.00000000000E+00  0.00000000000E+00  0.40039991489E+03  0.40039991489E+03  0.00000000000E+00 0. -1.
         21   -1    0    0  501  503 -0.00000000000E+00 -0.00000000000E+00 -0.12522647567E+03  0.12522647567E+03  0.00000000000E+00 0. -1.
          6    1    1    2  501    0  0.97169464828E+02 -0.10519054052E+03  0.12931114889E+03  0.25848080768E+03  0.17200000000E+03 0. -1.
         -6    1    1    2    0  502 -0.97169464828E+02  0.10519054052E+03  0.14586229032E+03  0.26714558287E+03  0.17200000000E+03 0. -1.
</event>
<event>
 4    1  0.1253776E+000  0.1968905E+03  0.7818608E-02  0.1152389E+00
         21   -1    0    0  501  502  0.00000000000E+00  0.00000000000E+00  0.34646326670E+03  0.34646326670E+03  0.00000000000E+00 0.  1.
         21   -1    0    0  502  503 -0.00000000000E+00 -0.00000000000E+00 -0.17615379809E+03  0.17615379809E+03  0.00000000000E+00 0. -1.
          6    1    1    2  501    0  0.29977111948E+02  0.91012301409E+02  0.24298485512E+03  0.31274191607E+03  0.17200000000E+03 0.  1.
         -6    1    1    2    0  503 -0.29977111948E+02 -0.91012301409E+02 -0.72675386513E+02  0.20987514873E+03  0.17200000000E+03 0. -1.
</event>
<event>
 4    1  0.1253776E+000  0.2321225E+03  0.7818608E-02  0.1125155E+00
         21   -1    0    0  501  502  0.00000000000E+00  0.00000000000E+00  0.30105928684E+03  0.30105928684E+03  0.00000000000E+00 0. -1.
         21   -1    0    0  502  503 -0.00000000000E+00 -0.00000000000E+00 -0.24239380312E+03  0.24239380312E+03  0.00000000000E+00 0.  1.
          6    1    1    2  501    0  0.15587290994E+03  0.71436087178E+00  0.16832611970E+03  0.28673080918E+03  0.17200000000E+03 0. -1.
         -6    1    1    2    0  503 -0.15587290994E+03 -0.71436087178E+00 -0.10966063598E+03  0.25672228078E+03  0.17200000000E+03 0.  1.
</event>
<event>
 4    1  0.1253776E+000  0.2096511E+03  0.7818608E-02  0.1141843E+00
         21   -1    0    0  501  502  0.00000000000E+00  0.00000000000E+00  0.14609421471E+04  0.14609421471E+04  0.00000000000E+00 0. -1.
         21   -1    0    0  502  503 -0.00000000000E+00 -0.00000000000E+00 -0.30091131983E+02  0.30091131983E+02  0.00000000000E+00 0. -1.
          6    1    1    2  501    0  0.98789603904E+02  0.67898494852E+02  0.70548772464E+03  0.73597997328E+03  0.17200000000E+03 0. -1.
         -6    1    1    2    0  503 -0.98789603904E+02 -0.67898494852E+02  0.72536329049E+03  0.75505330582E+03  0.17200000000E+03 0. -1.
</event>
<event>
 4    1  0.1253776E+000  0.3936902E+03  0.7818608E-02  0.1045987E+00
         21   -1    0    0  503  502  0.00000000000E+00  0.00000000000E+00  0.17999329624E+04  0.17999329624E+04  0.00000000000E+00 0. -1.
         21   -1    0    0  501  503 -0.00000000000E+00 -0.00000000000E+00 -0.86621783893E+02  0.86621783893E+02  0.00000000000E+00 0.  1.
          6    1    1    2  501    0  0.23707071321E+03  0.26306922386E+03  0.92917211556E+03  0.10091346590E+04  0.17200000000E+03 0. -1.
         -6    1    1    2    0  502 -0.23707071321E+03 -0.26306922386E+03  0.78413906298E+03  0.87742008736E+03  0.17200000000E+03 0.  1.
</event>
<event>
 4    1  0.1253776E+000  0.1870734E+03  0.7818608E-02  0.1161128E+00
         21   -1    0    0  503  502  0.00000000000E+00  0.00000000000E+00  0.10255629309E+04  0.10255629309E+04  0.00000000000E+00 0. -1.
         21   -1    0    0  501  503 -0.00000000000E+00 -0.00000000000E+00 -0.34769150240E+02  0.34769150240E+02  0.00000000000E+00 0. -1.
          6    1    1    2  501    0 -0.71811279490E+02 -0.15987374087E+02  0.42318691440E+03  0.46269171217E+03  0.17200000000E+03 0. -1.
         -6    1    1    2    0  502  0.71811279490E+02  0.15987374087E+02  0.56760686621E+03  0.59764036892E+03  0.17200000000E+03 0. -1.
</event>
<event>
 4    1  0.1253776E+000  0.2606131E+03  0.7818608E-02  0.1106775E+00
         21   -1    0    0  503  502  0.00000000000E+00  0.00000000000E+00  0.11420887764E+03  0.11420887764E+03  0.00000000000E+00 0. -1.
         21   -1    0    0  501  503 -0.00000000000E+00 -0.00000000000E+00 -0.65136326723E+03  0.65136326723E+03  0.00000000000E+00 0. -1.
          6    1    1    2  501    0 -0.18739447787E+03 -0.56731749737E+02 -0.38148485603E+03  0.46200636050E+03  0.17200000000E+03 0.  1.
         -6    1    1    2    0  502  0.18739447787E+03  0.56731749737E+02 -0.15566953355E+03  0.30356578437E+03  0.17200000000E+03 0.  1.
</event>
<event>
 4    1  0.1253776E+000  0.1857389E+03  0.7818608E-02  0.1162362E+00
         21   -1    0    0  501  502  0.00000000000E+00  0.00000000000E+00  0.10577363314E+04  0.10577363314E+04  0.00000000000E+00 0.  1.
         21   -1    0    0  502  503 -0.00000000000E+00 -0.00000000000E+00 -0.55510018767E+02  0.55510018767E+02  0.00000000000E+00 0.  1.
          6    1    1    2  501    0 -0.69872311225E+02  0.57285704534E+01  0.85858196660E+03  0.87844291207E+03  0.17200000000E+03 0.  1.
         -6    1    1    2    0  503  0.69872311225E+02 -0.57285704534E+01  0.14364434604E+03  0.23480343810E+03  0.17200000000E+03 0.  1.
</event>
<event>
 4    1  0.1253776E+000  0.2165996E+03  0.7818608E-02  0.1136444E+00
         21   -1    0    0  503  502  0.00000000000E+00  0.00000000000E+00  0.16206174229E+03  0.16206174229E+03  0.00000000000E+00 0. -1.
         21   -1    0    0  501  503 -0.00000000000E+00 -0.00000000000E+00 -0.30861212840E+03  0.30861212840E+03  0.00000000000E+00 0. -1.
          6    1    1    2  501    0 -0.12614915448E+03 -0.37653415934E+02 -0.13185423231E+03  0.25357627548E+03  0.17200000000E+03 0. -1.
         -6    1    1    2    0  502  0.12614915448E+03  0.37653415934E+02 -0.14696153795E+02  0.21709759521E+03  0.17200000000E+03 0. -1.
</event>
<event>
 4    1  0.1253776E+000  0.1834590E+03  0.7818608E-02  0.1164497E+00
         21   -1    0    0  501  502  0.00000000000E+00  0.00000000000E+00  0.50226095321E+03  0.50226095321E+03  0.00000000000E+00 0.  1.
         21   -1    0    0  502  503 -0.00000000000E+00 -0.00000000000E+00 -0.67173576297E+02  0.67173576297E+02  0.00000000000E+00 0.  1.
          6    1    1    2  501    0 -0.57346172552E+02  0.28011145413E+02  0.23153354412E+03  0.29540648237E+03  0.17200000000E+03 0.  1.
         -6    1    1    2    0  503  0.57346172552E+02 -0.28011145413E+02  0.20355383280E+03  0.27402804714E+03  0.17200000000E+03 0.  1.
</event>
<event>
 4    1  0.1253776E+000  0.1731057E+03  0.7818608E-02  0.1174647E+00
         21   -1    0    0  503  502  0.00000000000E+00  0.00000000000E+00  0.41472808798E+02  0.41472808798E+02  0.00000000000E+00 0. -1.
         21   -1    0    0  501  503 -0.00000000000E+00 -0.00000000000E+00 -0.72255806758E+03  0.72255806758E+03  0.00000000000E+00 0. -1.
          6    1    1    2  501    0  0.14725023858E+02  0.12835968687E+02 -0.34266409970E+03  0.38390659494E+03  0.17200000000E+03 0. -1.
         -6    1    1    2    0  502 -0.14725023858E+02 -0.12835968687E+02 -0.33842115909E+03  0.38012428144E+03  0.17200000000E+03 0. -1.
</event>
<event>
 4    1  0.1253776E+000  0.1907864E+03  0.7818608E-02  0.1157754E+00
         21   -1    0    0  503  502  0.00000000000E+00  0.00000000000E+00  0.28740097989E+02  0.28740097989E+02  0.00000000000E+00 0. -1.
         21   -1    0    0  501  503 -0.00000000000E+00 -0.00000000000E+00 -0.19193230478E+04  0.19193230478E+04  0.00000000000E+00 0. -1.
          6    1    1    2  501    0 -0.66009440203E+01  0.82291467973E+02 -0.15133528999E+04  0.15253315895E+04  0.17200000000E+03 0. -1.
         -6    1    1    2    0  502  0.66009440203E+01 -0.82291467973E+02 -0.37723004992E+03  0.42273155634E+03  0.17200000000E+03 0. -1.
</event>
<event>
 4    1  0.1253776E+000  0.2203323E+03  0.7818608E-02  0.1133636E+00
         21   -1    0    0  503  502  0.00000000000E+00  0.00000000000E+00  0.31546679726E+03  0.31546679726E+03  0.00000000000E+00 0. -1.
         21   -1    0    0  501  503 -0.00000000000E+00 -0.00000000000E+00 -0.34398853096E+03  0.34398853096E+03  0.00000000000E+00 0.  1.
          6    1    1    2  501    0  0.26412058953E+02  0.13514707047E+03 -0.25937925454E+03  0.34032914245E+03  0.17200000000E+03 0.  1.
         -6    1    1    2    0  502 -0.26412058953E+02 -0.13514707047E+03  0.23085752084E+03  0.31912618577E+03  0.17200000000E+03 0. -1.
</event>
<event>
 4    1  0.1253776E+000  0.1919909E+03  0.7818608E-02  0.1156678E+00
         21   -1    0    0  501  502  0.00000000000E+00  0.00000000000E+00  0.56918439369E+03  0.56918439369E+03  0.00000000000E+00 0.  1.
         21   -1    0    0  502  503 -0.00000000000E+00 -0.00000000000E+00 -0.71263479619E+02  0.71263479619E+02  0.00000000000E+00 0.  1.
          6    1    1    2  501    0  0.35923017393E+02 -0.77369460428E+02  0.34569607515E+03  0.39543175513E+03  0.17200000000E+03 0.  1.
         -6    1    1    2    0  503 -0.35923017393E+02  0.77369460428E+02  0.15222483891E+03  0.24501611818E+03  0.17200000000E+03 0.  1.
</event>
<event>
 4    1  0.1253776E+000  0.1800578E+03  0.7818608E-02  0.1167747E+00
         21   -1    0    0  503  502  0.00000000000E+00  0.00000000000E+00  0.16204145924E+03  0.16204145924E+03  0.00000000000E+00 0. -1.
         21   -1    0    0  501  503 -0.00000000000E+00 -0.00000000000E+00 -0.20316454579E+03  0.20316454579E+03  0.00000000000E+00 0. -1.
          6    1    1    2  501    0 -0.53126376277E+02  0.37935907518E+01 -0.43071560949E+02  0.18513768539E+03  0.17200000000E+03 0. -1.
         -6    1    1    2    0  502  0.53126376277E+02 -0.37935907518E+01  0.19484744077E+01  0.18006831964E+03  0.17200000000E+03 0. -1.
</event>
<event>
 4    1  0.1253776E+000  0.1925991E+03  0.7818608E-02  0.1156138E+00
         21   -1    0    0  503  502  0.00000000000E+00  0.00000000000E+00  0.25127047837E+03  0.25127047837E+03  0.00000000000E+00 0. -1.
         21   -1    0    0  501  503 -0.00000000000E+00 -0.00000000000E+00 -0.22593410710E+03  0.22593410710E+03  0.00000000000E+00 0.  1.
          6    1    1    2  501    0 -0.49602374100E+02 -0.71063371165E+02 -0.12780172176E+03  0.23114428032E+03  0.17200000000E+03 0.  1.
         -6    1    1    2    0  502  0.49602374100E+02  0.71063371165E+02  0.15313809303E+03  0.24606030516E+03  0.17200000000E+03 0. -1.
</event>
<event>
 4    1  0.1253776E+000  0.1972639E+03  0.7818608E-02  0.1152068E+00
         21   -1    0    0  503  502  0.00000000000E+00  0.00000000000E+00  0.88740333758E+02  0.88740333758E+02  0.00000000000E+00 0.  1.
         21   -1    0    0  501  503 -0.00000000000E+00 -0.00000000000E+00 -0.51865836076E+03  0.51865836076E+03  0.00000000000E+00 0.  1.
          6    1    1    2  501    0 -0.95959403651E+02  0.10992167594E+02 -0.33434831570E+03  0.38820333732E+03  0.17200000000E+03 0.  1.
         -6    1    1    2    0  502  0.95959403651E+02 -0.10992167594E+02 -0.95569711302E+02  0.21919535719E+03  0.17200000000E+03 0.  1.
</event>
<event>
 4    1  0.1253776E+000  0.1788726E+03  0.7818608E-02  0.1168899E+00
         21   -1    0    0  503  502  0.00000000000E+00  0.00000000000E+00  0.18086988224E+03  0.18086988224E+03  0.00000000000E+00 0.  1.
         21   -1    0    0  501  503 -0.00000000000E+00 -0.00000000000E+00 -0.55139633648E+03  0.55139633648E+03  0.00000000000E+00 0.  1.
          6    1    1    2  501    0 -0.42039445062E+02 -0.25378657498E+02 -0.48700290782E+03  0.51881328378E+03  0.17200000000E+03 0.  1.
         -6    1    1    2    0  502  0.42039445062E+02  0.25378657498E+02  0.11647645358E+03  0.21345293494E+03  0.17200000000E+03 0.  1.
</event>
<event>
 4    1  0.1253776E+000  0.2040874E+03  0.7818608E-02  0.1146336E+00
         21   -1    0    0  501  502  0.00000000000E+00  0.00000000000E+00  0.25722475290E+03  0.25722475290E+03  0.00000000000E+00 0. -1.
         21   -1    0    0  502  503 -0.00000000000E+00 -0.00000000000E+00 -0.77054145569E+03  0.77054145569E+03  0.00000000000E+00 0. -1.
          6    1    1    2  501    0 -0.90639245176E+02 -0.62065890087E+02  0.20004841445E+03  0.28578141227E+03  0.17200000000E+03 0. -1.
         -6    1    1    2    0  503  0.90639245176E+02  0.62065890087E+02 -0.71336511723E+03  0.74198479632E+03  0.17200000000E+03 0. -1.
</event>
<event>
 4    1  0.1253776E+000  0.1812417E+03  0.7818608E-02  0.1166607E+00
         21   -1    0    0  503  502  0.00000000000E+00  0.00000000000E+00  0.10254570271E+04  0.10254570271E+04  0.00000000000E+00 0.  1.
         21   -1    0    0  501  503 -0.00000000000E+00 -0.00000000000E+00 -0.78643029399E+02  0.78643029399E+02  0.00000000000E+00 0. -1.
          6    1    1    2  501    0  0.31232060530E+02 -0.47844696016E+02  0.48408308777E+02  0.18759509828E+03  0.17200000000E+03 0. -1.
         -6    1    1    2    0  502 -0.31232060530E+02  0.47844696016E+02  0.89840568894E+03  0.91650495823E+03  0.17200000000E+03 0.  1.
</event>
<event>
 4    1  0.1253776E+000  0.1993974E+03  0.7818608E-02  0.1150248E+00
         21   -1    0    0  503  502  0.00000000000E+00  0.00000000000E+00  0.20247946683E+02  0.20247946683E+02  0.00000000000E+00 0.  1.
         21   -1    0    0  501  503 -0.00000000000E+00 -0.00000000000E+00 -0.19970562228E+04  0.19970562228E+04  0.00000000000E+00 0.  1.
          6    1    1    2  501    0  0.81069436444E+02  0.60025739083E+02 -0.11189107325E+04  0.11365388555E+04  0.17200000000E+03 0.  1.
         -6    1    1    2    0  502 -0.81069436444E+02 -0.60025739083E+02 -0.85789754361E+03  0.88076531392E+03  0.17200000000E+03 0.  1.
</event>
<event>
 4    1  0.1253776E+000  0.2190737E+03  0.7818608E-02  0.1134576E+00
         21   -1    0    0  503  502  0.00000000000E+00  0.00000000000E+00  0.13078689035E+03  0.13078689035E+03  0.00000000000E+00 0. -1.
         21   -1    0    0  501  503 -0.00000000000E+00 -0.00000000000E+00 -0.40662824773E+03  0.40662824773E+03  0.00000000000E+00 0.  1.
          6    1    1    2  501    0  0.12883382798E+03 -0.42557290453E+02 -0.22185011694E+03  0.31178638936E+03  0.17200000000E+03 0.  1.
         -6    1    1    2    0  502 -0.12883382798E+03  0.42557290453E+02 -0.53991240438E+02  0.22562874871E+03  0.17200000000E+03 0. -1.
</event>
<event>
 4    1  0.1253776E+000  0.1773913E+03  0.7818608E-02  0.1170352E+00
         21   -1    0    0  501  502  0.00000000000E+00  0.00000000000E+00  0.34779042727E+03  0.34779042727E+03  0.00000000000E+00 0.  1.
         21   -1    0    0  502  503 -0.00000000000E+00 -0.00000000000E+00 -0.10357641918E+03  0.10357641918E+03  0.00000000000E+00 0.  1.
          6    1    1    2  501    0 -0.21821848600E+02  0.37516443921E+02  0.41853385207E+02  0.18226185145E+03  0.17200000000E+03 0. -1.
         -6    1    1    2    0  503  0.21821848600E+02 -0.37516443921E+02  0.20236062288E+03  0.26910499500E+03  0.17200000000E+03 0. -1.
</event>
<event>
 4    1  0.1253776E+000  0.1788445E+03  0.7818608E-02  0.1168926E+00
         21   -1    0    0  503  502  0.00000000000E+00  0.00000000000E+00  0.21946777306E+03  0.21946777306E+03  0.00000000000E+00 0.  1.
         21   -1    0    0  501  503 -0.00000000000E+00 -0.00000000000E+00 -0.17570743465E+03  0.17570743465E+03  0.00000000000E+00 0.  1.
          6    1    1    2  501    0 -0.24519753328E+02 -0.42427822895E+02 -0.59719037234E+02  0.18855158940E+03  0.17200000000E+03 0.  1.
         -6    1    1    2    0  502  0.24519753328E+02  0.42427822895E+02  0.10347937565E+03  0.20662361831E+03  0.17200000000E+03 0.  1.
</event>
<event>
 4    1  0.1253776E+000  0.2138780E+03  0.7818608E-02  0.1138531E+00
         21   -1    0    0  501  502  0.00000000000E+00  0.00000000000E+00  0.13338254607E+03  0.13338254607E+03  0.00000000000E+00 0. -1.
         21   -1    0    0  502  503 -0.00000000000E+00 -0.00000000000E+00 -0.40278449964E+03  0.40278449964E+03  0.00000000000E+00 0. -1.
          6    1    1    2  501    0 -0.11545891848E+03 -0.53188601423E+02 -0.31376571839E+02  0.21616724645E+03  0.17200000000E+03 0. -1.
         -6    1    1    2    0  503  0.11545891848E+03  0.53188601423E+02 -0.23802538173E+03  0.31999979926E+03  0.17200000000E+03 0. -1.
</event>
<event>
 4    1  0.1253776E+000  0.2817044E+03  0.7818608E-02  0.1094762E+00
         21   -1    0    0  501  502  0.00000000000E+00  0.00000000000E+00  0.34638788804E+03  0.34638788804E+03  0.00000000000E+00 0.  1.
         21   -1    0    0  502  503 -0.00000000000E+00 -0.00000000000E+00 -0.28888405620E+03  0.28888405620E+03  0.00000000000E+00 0.  1.
          6    1    1    2  501    0  0.24055383151E+02  0.22179879647E+03  0.17324983918E+03  0.33071570019E+03  0.17200000000E+03 0. -1.
         -6    1    1    2    0  503 -0.24055383151E+02 -0.22179879647E+03 -0.11574600735E+03  0.30455624405E+03  0.17200000000E+03 0. -1.
</event>
<event>
 4    1  0.1253776E+000  0.2106185E+03  0.7818608E-02  0.1141077E+00
         21   -1    0    0  501  502  0.00000000000E+00  0.00000000000E+00  0.62589288766E+02  0.62589288766E+02  0.00000000000E+00 0. -1.
         21   -1    0    0  502  503 -0.00000000000E+00 -0.00000000000E+00 -0.76015437758E+03  0.76015437758E+03  0.00000000000E+00 0.  1.
          6    1    1    2  501    0  0.10612504038E+03 -0.59276012588E+02 -0.24180738773E+03  0.32067270327E+03  0.17200000000E+03 0. -1.
         -6    1    1    2    0  503 -0.10612504038E+03  0.59276012588E+02 -0.45575770109E+03  0.50207096308E+03  0.17200000000E+03 0.  1.
</event>
<event>
 4    1  0.1253776E+000  0.1735138E+03  0.7818608E-02  0.1174232E+00
         21   -1    0    0  503  502  0.00000000000E+00  0.00000000000E+00  0.10907191488E+03  0.10907191488E+03  0.00000000000E+00 0.  1.
         21   -1    0    0  501  503 -0.00000000000E+00 -0.00000000000E+00 -0.32685116158E+03  0.32685116158E+03  0.00000000000E+00 0.  1.
          6    1    1    2  501    0  0.34330975426E+01  0.22610595978E+02 -0.22942591953E+02  0.17502396332E+03  0.17200000000E+03 0. -1.
         -6    1    1    2    0  502 -0.34330975426E+01 -0.22610595978E+02 -0.19483665475E+03  0.26089911315E+03  0.17200000000E+03 0. -1.
</event>
<event>
 4    1  0.1253776E+000  0.2339142E+03  0.7818608E-02  0.1123915E+00
         21   -1    0    0  501  502  0.00000000000E+00  0.00000000000E+00  0.15539208829E+04  0.15539208829E+04  0.00000000000E+00 0. -1.
         21   -1    0    0  502  503 -0.00000000000E+00 -0.00000000000E+00 -0.48031474396E+02  0.48031474396E+02  0.00000000000E+00 0. -1.
          6    1    1    2  501    0  0.13309672138E+03  0.86122666320E+02  0.11667543346E+04  0.11899712300E+04  0.17200000000E+03 0. -1.
         -6    1    1    2    0  503 -0.13309672138E+03 -0.86122666320E+02  0.33913507384E+03  0.41198112724E+03  0.17200000000E+03 0. -1.
</event>
<event>
 4    1  0.1253776E+000  0.1959367E+03  0.7818608E-02  0.1153213E+00
         21   -1    0    0  501  502  0.00000000000E+00  0.00000000000E+00  0.12937833873E+03  0.12937833873E+03  0.00000000000E+00 0. -1.
         21   -1    0    0  502  503 -0.00000000000E+00 -0.00000000000E+00 -0.34847944137E+03  0.34847944137E+03  0.00000000000E+00 0. -1.
          6    1    1    2  501    0  0.13825351246E+02 -0.92822766617E+02 -0.20161837590E+03  0.28114262544E+03  0.17200000000E+03 0. -1.
         -6    1    1    2    0  503 -0.13825351246E+02  0.92822766617E+02 -0.17482726739E+02  0.19671515466E+03  0.17200000000E+03 0. -1.
</event>
<event>
 4    1  0.1253776E+000  0.3665206E+03  0.7818608E-02  0.1056031E+00
         21   -1    0    0  503  502  0.00000000000E+00  0.00000000000E+00  0.46040637085E+03  0.46040637085E+03  0.00000000000E+00 0.  1.
         21   -1    0    0  501  503 -0.00000000000E+00 -0.00000000000E+00 -0.37201832940E+03  0.37201832940E+03  0.00000000000E+00 0. -1.
          6    1    1    2  501    0 -0.24697011142E+03 -0.20918676717E+03 -0.14910244667E+03  0.39568785563E+03  0.17200000000E+03 0. -1.
         -6    1    1    2    0  502  0.24697011142E+03  0.20918676717E+03  0.23749048813E+03  0.43673684462E+03  0.17200000000E+03 0.  1.
</event>
<event>
 4    1  0.1253776E+000  0.2229186E+03  0.7818608E-02  0.1131726E+00
         21   -1    0    0  503  502  0.00000000000E+00  0.00000000000E+00  0.41628226080E+02  0.41628226080E+02  0.00000000000E+00 0. -1.
         21   -1    0    0  501  503 -0.00000000000E+00 -0.00000000000E+00 -0.19331769324E+04  0.19331769324E+04  0.00000000000E+00 0.  1.
          6    1    1    2  501    0 -0.14012430941E+03  0.21769212695E+02 -0.15564533168E+04  0.15723357301E+04  0.17200000000E+03 0.  1.
         -6    1    1    2    0  502  0.14012430941E+03 -0.21769212695E+02 -0.33509538945E+03  0.40246942832E+03  0.17200000000E+03 0. -1.
</event>
<event>
 4    1  0.1253776E+000  0.2792822E+03  0.7818608E-02  0.1096082E+00
         21   -1    0    0  503  502  0.00000000000E+00  0.00000000000E+00  0.15575127854E+03  0.15575127854E+03  0.00000000000E+00 0. -1.
         21   -1    0    0  501  503 -0.00000000000E+00 -0.00000000000E+00 -0.11529679435E+04  0.11529679435E+04  0.00000000000E+00 0. -1.
          6    1    1    2  501    0 -0.61710170801E+02 -0.21120233222E+03 -0.99075116349E+03  0.10293621512E+04  0.17200000000E+03 0. -1.
         -6    1    1    2    0  502  0.61710170801E+02  0.21120233222E+03 -0.64655014464E+01  0.27935707083E+03  0.17200000000E+03 0. -1.
</event>
<event>
 4    1  0.1253776E+000  0.2606985E+03  0.7818608E-02  0.1106724E+00
         21   -1    0    0  501  502  0.00000000000E+00  0.00000000000E+00  0.31689332849E+02  0.31689332849E+02  0.00000000000E+00 0. -1.
         21   -1    0    0  502  503 -0.00000000000E+00 -0.00000000000E+00 -0.24213030487E+04  0.24213030487E+04  0.00000000000E+00 0. -1.
          6    1    1    2  501    0 -0.15581334947E+03 -0.11875145462E+03 -0.78025379664E+03  0.82265405549E+03  0.17200000000E+03 0. -1.
         -6    1    1    2    0  503  0.15581334947E+03  0.11875145462E+03 -0.16093599192E+04  0.16303383260E+04  0.17200000000E+03 0. -1.
</event>
<event>
 4    1  0.1253776E+000  0.1968670E+03  0.7818608E-02  0.1152410E+00
         21   -1    0    0  503  502  0.00000000000E+00  0.00000000000E+00  0.43050225717E+03  0.43050225717E+03  0.00000000000E+00 0. -1.
         21   -1    0    0  501  503 -0.00000000000E+00 -0.00000000000E+00 -0.94053299341E+02  0.94053299341E+02  0.00000000000E+00 0. -1.
          6    1    1    2  501    0 -0.77132879100E+02 -0.56772745266E+02  0.11395536935E+03  0.22746967237E+03  0.17200000000E+03 0.  1.
         -6    1    1    2    0  502  0.77132879100E+02  0.56772745266E+02  0.22249358848E+03  0.29708588415E+03  0.17200000000E+03 0.  1.
</event>
<event>
 4    1  0.1253776E+000  0.1746751E+03  0.7818608E-02  0.1173058E+00
         21   -1    0    0  503  502  0.00000000000E+00  0.00000000000E+00  0.31985899780E+03  0.31985899780E+03  0.00000000000E+00 0. -1.
         21   -1    0    0  501  503 -0.00000000000E+00 -0.00000000000E+00 -0.10967939210E+03  0.10967939210E+03  0.00000000000E+00 0. -1.
          6    1    1    2  501    0 -0.16556498451E+02 -0.25559042428E+02  0.18260998864E+03  0.25270098979E+03  0.17200000000E+03 0. -1.
         -6    1    1    2    0  502  0.16556498451E+02  0.25559042428E+02  0.27569617061E+02  0.17683740010E+03  0.17200000000E+03 0. -1.
</event>
<event>
 4    1  0.1253776E+000  0.1861367E+03  0.7818608E-02  0.1161993E+00
         21   -1    0    0  501  502  0.00000000000E+00  0.00000000000E+00  0.40839947181E+03  0.40839947181E+03  0.00000000000E+00 0.  1.
         21   -1    0    0  502  503 -0.00000000000E+00 -0.00000000000E+00 -0.15571140233E+03  0.15571140233E+03  0.00000000000E+00 0.  1.
          6    1    1    2  501    0 -0.42557593593E+02  0.57023756250E+02  0.31663708913E+03  0.36729539034E+03  0.17200000000E+03 0.  1.
         -6    1    1    2    0  503  0.42557593593E+02 -0.57023756250E+02 -0.63949019646E+02  0.19681548380E+03  0.17200000000E+03 0.  1.
</event>
<event>
 4    1  0.1253776E+000  0.1727320E+03  0.7818608E-02  0.1175028E+00
         21   -1    0    0  503  502  0.00000000000E+00  0.00000000000E+00  0.33656003780E+02  0.33656003780E+02  0.00000000000E+00 0.  1.
         21   -1    0    0  501  503 -0.00000000000E+00 -0.00000000000E+00 -0.88840938445E+03  0.88840938445E+03  0.00000000000E+00 0.  1.
          6    1    1    2  501    0  0.12518906376E+02 -0.97786727084E+01 -0.40605300924E+03  0.44126567028E+03  0.17200000000E+03 0.  1.
         -6    1    1    2    0  502 -0.12518906376E+02  0.97786727084E+01 -0.44870037143E+03  0.48079971795E+03  0.17200000000E+03 0.  1.
</event>
<event>
 4    1  0.1253776E+000  0.2253931E+03  0.7818608E-02  0.1129925E+00
         21   -1    0    0  503  502  0.00000000000E+00  0.00000000000E+00  0.50018485095E+03  0.50018485095E+03  0.00000000000E+00 0.  1.
         21   -1    0    0  501  503 -0.00000000000E+00 -0.00000000000E+00 -0.10480832489E+03  0.10480832489E+03  0.00000000000E+00 0.  1.
          6    1    1    2  501    0  0.93504848593E+02 -0.11169109879E+03  0.14448811167E+03  0.26772910315E+03  0.17200000000E+03 0. -1.
         -6    1    1    2    0  502 -0.93504848593E+02  0.11169109879E+03  0.25088841439E+03  0.33726407270E+03  0.17200000000E+03 0. -1.
</event>
<event>
 4    1  0.1253776E+000  0.1726779E+03  0.7818608E-02  0.1175084E+00
         21   -1    0    0  503  502  0.00000000000E+00  0.00000000000E+00  0.40807771974E+03  0.40807771974E+03  0.00000000000E+00 0.  1.
         21   -1    0    0  501  503 -0.00000000000E+00 -0.00000000000E+00 -0.78313494818E+02  0.78313494818E+02  0.00000000000E+00 0.  1.
          6    1    1    2  501    0  0.12055873066E+02  0.93978806629E+01  0.10194509418E+03  0.20052547585E+03  0.17200000000E+03 0.  1.
         -6    1    1    2    0  502 -0.12055873066E+02 -0.93978806629E+01  0.22781913074E+03  0.28586573871E+03  0.17200000000E+03 0.  1.
</event>
<event>
 4    1  0.1253776E+000  0.1826929E+03  0.7818608E-02  0.1165222E+00
         21   -1    0    0  501  502  0.00000000000E+00  0.00000000000E+00  0.19859207017E+03  0.19859207017E+03  0.00000000000E+00 0. -1.
         21   -1    0    0  502  503 -0.00000000000E+00 -0.00000000000E+00 -0.16902188401E+03  0.16902188401E+03  0.00000000000E+00 0. -1.
          6    1    1    2  501    0 -0.57997034065E+02 -0.20713349752E+02  0.28603287056E+02  0.18491848704E+03  0.17200000000E+03 0. -1.
         -6    1    1    2    0  503  0.57997034065E+02  0.20713349752E+02  0.96689910895E+00  0.18269546714E+03  0.17200000000E+03 0. -1.
</event>
<event>
 4    1  0.1253776E+000  0.1849330E+03  0.7818608E-02  0.1163112E+00
         21   -1    0    0  503  502  0.00000000000E+00  0.00000000000E+00  0.12799665336E+03  0.12799665336E+03  0.00000000000E+00 0. -1.
         21   -1    0    0  501  503 -0.00000000000E+00 -0.00000000000E+00 -0.30382981526E+03  0.30382981526E+03  0.00000000000E+00 0. -1.
          6    1    1    2  501    0  0.60371528399E+02 -0.31168851077E+02 -0.16288942561E+03  0.24644103492E+03  0.17200000000E+03 0. -1.
         -6    1    1    2    0  502 -0.60371528399E+02  0.31168851077E+02 -0.12943736301E+02  0.18538543370E+03  0.17200000000E+03 0. -1.
</event>
<event>
 4    1  0.1253776E+000  0.2623435E+03  0.7818608E-02  0.1105743E+00
         21   -1    0    0  503  502  0.00000000000E+00  0.00000000000E+00  0.59380381596E+03  0.59380381596E+03  0.00000000000E+00 0. -1.
         21   -1    0    0  501  503 -0.00000000000E+00 -0.00000000000E+00 -0.20453950851E+03  0.20453950851E+03  0.00000000000E+00 0.  1.
          6    1    1    2  501    0  0.19790671356E+03 -0.85458841746E+01 -0.68137699507E+02  0.27104768123E+03  0.17200000000E+03 0.  1.
         -6    1    1    2    0  502 -0.19790671356E+03  0.85458841746E+01  0.45740200696E+03  0.52729564324E+03  0.17200000000E+03 0. -1.
</event>
<event>
 4    1  0.1253776E+000  0.2358209E+03  0.7818608E-02  0.1122609E+00
         21   -1    0    0  503  502  0.00000000000E+00  0.00000000000E+00  0.74997863141E+02  0.74997863141E+02  0.00000000000E+00 0. -1.
         21   -1    0    0  501  503 -0.00000000000E+00 -0.00000000000E+00 -0.99677393730E+03  0.99677393730E+03  0.00000000000E+00 0. -1.
          6    1    1    2  501    0 -0.10832851955E+03  0.11955097305E+03 -0.73207609752E+03  0.76912087208E+03  0.17200000000E+03 0. -1.
         -6    1    1    2    0  502  0.10832851955E+03 -0.11955097305E+03 -0.18969997664E+03  0.30265092837E+03  0.17200000000E+03 0. -1.
</event>
<event>
 4    1  0.1253776E+000  0.2545723E+03  0.7818608E-02  0.1110449E+00
         21   -1    0    0  503  502  0.00000000000E+00  0.00000000000E+00  0.11258460806E+04  0.11258460806E+04  0.00000000000E+00 0. -1.
         21   -1    0    0  501  503 -0.00000000000E+00 -0.00000000000E+00 -0.57956586739E+02  0.57956586739E+02  0.00000000000E+00 0.  1.
          6    1    1    2  501    0  0.75498493664E+02  0.17182268627E+03  0.58272318470E+03  0.63590358392E+03  0.17200000000E+03 0.  1.
         -6    1    1    2    0  502 -0.75498493664E+02 -0.17182268627E+03  0.48516630917E+03  0.54789908342E+03  0.17200000000E+03 0. -1.
</event>
<event>
 4    1  0.1253776E+000  0.2210923E+03  0.7818608E-02  0.1133071E+00
         21   -1    0    0  503  502  0.00000000000E+00  0.00000000000E+00  0.31725297657E+03  0.31725297657E+03  0.00000000000E+00 0.  1.
         21   -1    0    0  501  503 -0.00000000000E+00 -0.00000000000E+00 -0.36701156248E+03  0.36701156248E+03  0.00000000000E+00 0. -1.
          6    1    1    2  501    0  0.12751657810E+03  0.55111995214E+02 -0.28548017758E+03  0.36108273498E+03  0.17200000000E+03 0. -1.
         -6    1    1    2    0  502 -0.12751657810E+03 -0.55111995214E+02  0.23572159167E+03  0.32318180407E+03  0.17200000000E+03 0.  1.
</event>
<event>
 4    1  0.1253776E+000  0.2268244E+03  0.7818608E-02  0.1128895E+00
         21   -1    0    0  503  502  0.00000000000E+00  0.00000000000E+00  0.17265913507E+03  0.17265913507E+03  0.00000000000E+00 0. -1.
         21   -1    0    0  501  503 -0.00000000000E+00 -0.00000000000E+00 -0.38571044270E+03  0.38571044270E+03  0.00000000000E+00 0. -1.
          6    1    1    2  501    0  0.10003923093E+03 -0.10889205000E+03 -0.23967256428E+03  0.32998827910E+03  0.17200000000E+03 0. -1.
         -6    1    1    2    0  502 -0.10003923093E+03  0.10889205000E+03  0.26621256645E+02  0.22838129867E+03  0.17200000000E+03 0. -1.
</event>
<event>
 4    1  0.1253776E+000  0.1985757E+03  0.7818608E-02  0.1150946E+00
         21   -1    0    0  501  502  0.00000000000E+00  0.00000000000E+00  0.64435850637E+02  0.64435850637E+02  0.00000000000E+00 0.  1.
         21   -1    0    0  502  503 -0.00000000000E+00 -0.00000000000E+00 -0.70037457486E+03  0.70037457486E+03  0.00000000000E+00 0.  1.
          6    1    1    2  501    0  0.12026052305E+02 -0.98507311831E+02 -0.45383658780E+03  0.49537860758E+03  0.17200000000E+03 0.  1.
         -6    1    1    2    0  503 -0.12026052305E+02  0.98507311831E+02 -0.18210213642E+03  0.26943181792E+03  0.17200000000E+03 0.  1.
</event>
<event>
 4    1  0.1253776E+000  0.2290909E+03  0.7818608E-02  0.1127281E+00
         21   -1    0    0  503  502  0.00000000000E+00  0.00000000000E+00  0.78924945177E+02  0.78924945177E+02  0.00000000000E+00 0.  1.
         21   -1    0    0  501  503 -0.00000000000E+00 -0.00000000000E+00 -0.10962442858E+04  0.10962442858E+04  0.00000000000E+00 0. -1.
          6    1    1    2  501    0  0.51166285728E+02  0.14241008228E+03 -0.87720776317E+03  0.90662896496E+03  0.17200000000E+03 0. -1.
         -6    1    1    2    0  502 -0.51166285728E+02 -0.14241008228E+03 -0.14011157742E+03  0.26854026598E+03  0.17200000000E+03 0.  1.
</event>
<event>
 4    1  0.1253776E+000  0.2904371E+03  0.7818608E-02  0.1090121E+00
         21   -1    0    0  501  502  0.00000000000E+00  0.00000000000E+00  0.66747645824E+03  0.66747645824E+03  0.00000000000E+00 0.  1.
         21   -1    0    0  502  503 -0.00000000000E+00 -0.00000000000E+00 -0.12664925587E+03  0.12664925587E+03  0.00000000000E+00 0. -1.
          6    1    1    2  501    0 -0.16901353803E+02  0.23341822639E+03  0.25200653162E+03  0.38452700315E+03  0.17200000000E+03 0. -1.
         -6    1    1    2    0  503  0.16901353803E+02 -0.23341822639E+03  0.28882067075E+03  0.40959871096E+03  0.17200000000E+03 0. -1.
</event>
<event>
 4    1  0.1253776E+000  0.2646558E+03  0.7818608E-02  0.1104378E+00
         21   -1    0    0  503  502  0.00000000000E+00  0.00000000000E+00  0.10336047713E+03  0.10336047713E+03  0.00000000000E+00 0.  1.
         21   -1    0    0  501  503 -0.00000000000E+00 -0.00000000000E+00 -0.16580094103E+04  0.16580094103E+04  0.00000000000E+00 0. -1.
          6    1    1    2  501    0 -0.18981891673E+03  0.66539049589E+02 -0.14545273466E+04  0.14784087623E+04  0.17200000000E+03 0. -1.
         -6    1    1    2    0  502  0.18981891673E+03 -0.66539049589E+02 -0.10012158656E+03  0.28296112518E+03  0.17200000000E+03 0.  1.
</event>
<event>
 4    1  0.1253776E+000  0.2170411E+03  0.7818608E-02  0.1136108E+00
         21   -1    0    0  503  502  0.00000000000E+00  0.00000000000E+00  0.89658039452E+03  0.89658039452E+03  0.00000000000E+00 0.  1.
         21   -1    0    0  501  503 -0.00000000000E+00 -0.00000000000E+00 -0.54446021080E+02  0.54446021080E+02  0.00000000000E+00 0. -1.
          6    1    1    2  501    0 -0.13037565972E+03 -0.22913573571E+02  0.33211052574E+03  0.39674203938E+03  0.17200000000E+03 0. -1.
         -6    1    1    2    0  502  0.13037565972E+03  0.22913573571E+02  0.51002384770E+03  0.55428437622E+03  0.17200000000E+03 0.  1.
</event>
<event>
 4    1  0.1253776E+000  0.2304783E+03  0.7818608E-02  0.1126304E+00
         21   -1    0    0  503  502  0.00000000000E+00  0.00000000000E+00  0.83630387086E+03  0.83630387086E+03  0.00000000000E+00 0.  1.
         21   -1    0    0  501  503 -0.00000000000E+00 -0.00000000000E+00 -0.63520640373E+02  0.63520640373E+02  0.00000000000E+00 0. -1.
          6    1    1    2  501    0  0.11549854871E+02 -0.15297989563E+03  0.38935833479E+03  0.45246012032E+03  0.17200000000E+03 0.  1.
         -6    1    1    2    0  502 -0.11549854871E+02  0.15297989563E+03  0.38342489570E+03  0.44736439091E+03  0.17200000000E+03 0. -1.
</event>
<event>
 4    1  0.1253776E+000  0.1789628E+03  0.7818608E-02  0.1168811E+00
         21   -1    0    0  503  502  0.00000000000E+00  0.00000000000E+00  0.17193594803E+02  0.17193594803E+02  0.00000000000E+00 0. -1.
         21   -1    0    0  501  503 -0.00000000000E+00 -0.00000000000E+00 -0.18659207656E+04  0.18659207656E+04  0.00000000000E+00 0. -1.
          6    1    1    2  501    0 -0.78548253493E+01  0.48805625149E+02 -0.88566372554E+03  0.90356401105E+03  0.17200000000E+03 0. -1.
         -6    1    1    2    0  502  0.78548253493E+01 -0.48805625149E+02 -0.96306344529E+03  0.97955034939E+03  0.17200000000E+03 0. -1.
</event>
<event>
 4    1  0.1253776E+000  0.1740500E+03  0.7818608E-02  0.1173689E+00
         21   -1    0    0  503  502  0.00000000000E+00  0.00000000000E+00  0.27921099199E+03  0.27921099199E+03  0.00000000000E+00 0. -1.
         21   -1    0    0  501  503 -0.00000000000E+00 -0.00000000000E+00 -0.14738234791E+03  0.14738234791E+03  0.00000000000E+00 0. -1.
          6    1    1    2  501    0  0.26465781179E+02  0.29961233848E+01 -0.43646970619E+02  0.17943932783E+03  0.17200000000E+03 0.  1.
         -6    1    1    2    0  502 -0.26465781179E+02 -0.29961233848E+01  0.17547561469E+03  0.24715401207E+03  0.17200000000E+03 0.  1.
</event>
<event>
 4    1  0.1253776E+000  0.1956641E+03  0.7818608E-02  0.1153450E+00
         21   -1    0    0  501  502  0.00000000000E+00  0.00000000000E+00  0.30708577600E+03  0.30708577600E+03  0.00000000000E+00 0.  1.
         21   -1    0    0  502  503 -0.00000000000E+00 -0.00000000000E+00 -0.12646417505E+03  0.12646417505E+03  0.00000000000E+00 0. -1.
          6    1    1    2  501    0 -0.70836949706E+02  0.60684222676E+02  0.11612937860E+03  0.22753127455E+03  0.17200000000E+03 0.  1.
         -6    1    1    2    0  503  0.70836949706E+02 -0.60684222676E+02  0.64492222350E+02  0.20601867651E+03  0.17200000000E+03 0. -1.
</event>
<event>
 4    1  0.1253776E+000  0.1938833E+03  0.7818608E-02  0.1155005E+00
         21   -1    0    0  501  502  0.00000000000E+00  0.00000000000E+00  0.20557048530E+03  0.20557048530E+03  0.00000000000E+00 0.  1.
         21   -1    0    0  502  503 -0.00000000000E+00 -0.00000000000E+00 -0.32715857259E+03  0.32715857259E+03  0.00000000000E+00 0.  1.
          6    1    1    2  501    0 -0.86494590037E+02  0.22922256013E+02  0.11610575589E+03  0.22598958046E+03  0.17200000000E+03 0. -1.
         -6    1    1    2    0  503  0.86494590037E+02 -0.22922256013E+02 -0.23769384318E+03  0.30673947743E+03  0.17200000000E+03 0. -1.
</event>
<event>
 4    1  0.1253776E+000  0.1723672E+03  0.7818608E-02  0.1175402E+00
         21   -1    0    0  503  502  0.00000000000E+00  0.00000000000E+00  0.66395371022E+03  0.66395371022E+03  0.00000000000E+00 0. -1.
         21   -1    0    0  501  503 -0.00000000000E+00 -0.00000000000E+00 -0.65927792535E+02  0.65927792535E+02  0.00000000000E+00 0. -1.
          6    1    1    2  501    0 -0.75487594543E+01 -0.83343802195E+01  0.92164952998E+02  0.19546054391E+03  0.17200000000E+03 0. -1.
         -6    1    1    2    0  502  0.75487594543E+01  0.83343802195E+01  0.50586096469E+03  0.53442095885E+03  0.17200000000E+03 0. -1.
</event>
<event>
 4    1  0.1253776E+000  0.1746088E+03  0.7818608E-02  0.1173125E+00
         21   -1    0    0  503  502  0.00000000000E+00  0.00000000000E+00  0.12436773697E+03  0.12436773697E+03  0.00000000000E+00 0.  1.
         21   -1    0    0  501  503 -0.00000000000E+00 -0.00000000000E+00 -0.25003764323E+03  0.25003764323E+03  0.00000000000E+00 0.  1.
          6    1    1    2  501    0 -0.13941612748E+02 -0.26643118023E+02 -0.36650283175E+02  0.17841375384E+03  0.17200000000E+03 0.  1.
         -6    1    1    2    0  502  0.13941612748E+02  0.26643118023E+02 -0.89019623084E+02  0.19599162635E+03  0.17200000000E+03 0.  1.
</event>
<event>
 4    1  0.1253776E+000  0.1763521E+03  0.7818608E-02  0.1171381E+00
         21   -1    0    0  503  502  0.00000000000E+00  0.00000000000E+00  0.25339726567E+03  0.25339726567E+03  0.00000000000E+00 0.  1.
         21   -1    0    0  501  503 -0.00000000000E+00 -0.00000000000E+00 -0.12408233832E+03  0.12408233832E+03  0.00000000000E+00 0.  1.
          6    1    1    2  501    0  0.14855215099E+02  0.35991371959E+02  0.84343777025E+02  0.19548383308E+03  0.17200000000E+03 0. -1.
         -6    1    1    2    0  502 -0.14855215099E+02 -0.35991371959E+02  0.44971150322E+02  0.18199577092E+03  0.17200000000E+03 0. -1.
</event>
<event>
 4    1  0.1253776E+000  0.1865234E+03  0.7818608E-02  0.1161635E+00
         21   -1    0    0  503  502  0.00000000000E+00  0.00000000000E+00  0.46813079481E+02  0.46813079481E+02  0.00000000000E+00 0.  1.
         21   -1    0    0  501  503 -0.00000000000E+00 -0.00000000000E+00 -0.83554747399E+03  0.83554747399E+03  0.00000000000E+00 0.  1.
          6    1    1    2  501    0 -0.31489367946E+01 -0.72090757544E+02 -0.54104605582E+03  0.57229522769E+03  0.17200000000E+03 0. -1.
         -6    1    1    2    0  502  0.31489367946E+01  0.72090757544E+02 -0.24768833870E+03  0.31006532578E+03  0.17200000000E+03 0. -1.
</event>
<event>
 4    1  0.1253776E+000  0.1812358E+03  0.7818608E-02  0.1166612E+00
         21   -1    0    0  501  502  0.00000000000E+00  0.00000000000E+00  0.19441787978E+03  0.19441787978E+03  0.00000000000E+00 0. -1.
         21   -1    0    0  502  503 -0.00000000000E+00 -0.00000000000E+00 -0.17067069345E+03  0.17067069345E+03  0.00000000000E+00 0. -1.
          6    1    1    2  501    0 -0.13938401116E+02 -0.55390786546E+02  0.30215881110E+02  0.18373736074E+03  0.17200000000E+03 0.  1.
         -6    1    1    2    0  503  0.13938401116E+02  0.55390786546E+02 -0.64686947781E+01  0.18135121249E+03  0.17200000000E+03 0.  1.
</event>
<event>
 4    1  0.1253776E+000  0.1962308E+03  0.7818608E-02  0.1152959E+00
         21   -1    0    0  501  502  0.00000000000E+00  0.00000000000E+00  0.24304887545E+03  0.24304887545E+03  0.00000000000E+00 0. -1.
         21   -1    0    0  502  503 -0.00000000000E+00 -0.00000000000E+00 -0.38603988390E+03  0.38603988390E+03  0.00000000000E+00 0. -1.
          6    1    1    2  501    0 -0.67354922803E+02  0.66225791930E+02  0.17002843969E+03  0.25964631992E+03  0.17200000000E+03 0. -1.
         -6    1    1    2    0  503  0.67354922803E+02 -0.66225791930E+02 -0.31301944814E+03  0.36944243944E+03  0.17200000000E+03 0. -1.
</event>
<event>
 4    1  0.1253776E+000  0.2417916E+03  0.7818608E-02  0.1118605E+00
         21   -1    0    0  501  502  0.00000000000E+00  0.00000000000E+00  0.63990320263E+03  0.63990320263E+03  0.00000000000E+00 0.  1.
         21   -1    0    0  502  503 -0.00000000000E+00 -0.00000000000E+00 -0.91419876045E+02  0.91419876045E+02  0.00000000000E+00 0.  1.
          6    1    1    2  501    0 -0.16696559501E+03  0.31648841240E+02  0.28340193149E+03  0.37253162798E+03  0.17200000000E+03 0.  1.
         -6    1    1    2    0  503  0.16696559501E+03 -0.31648841240E+02  0.26508139509E+03  0.35879145070E+03  0.17200000000E+03 0.  1.
</event>
<event>
 4    1  0.1253776E+000  0.1937214E+03  0.7818608E-02  0.1155147E+00
         21   -1    0    0  503  502  0.00000000000E+00  0.00000000000E+00  0.19247672679E+02  0.19247672679E+02  0.00000000000E+00 0.  1.
         21   -1    0    0  501  503 -0.00000000000E+00 -0.00000000000E+00 -0.19521340639E+04  0.19521340639E+04  0.00000000000E+00 0.  1.
          6    1    1    2  501    0  0.78995542070E+02  0.41275801088E+02 -0.10009505705E+04  0.10195244146E+04  0.17200000000E+03 0. -1.
         -6    1    1    2    0  502 -0.78995542070E+02 -0.41275801088E+02 -0.93193582076E+03  0.95185732200E+03  0.17200000000E+03 0. -1.
</event>
<event>
 4    1  0.1253776E+000  0.3579364E+03  0.7818608E-02  0.1059404E+00
         21   -1    0    0  503  502  0.00000000000E+00  0.00000000000E+00  0.17100866473E+03  0.17100866473E+03  0.00000000000E+00 0.  1.
         21   -1    0    0  501  503 -0.00000000000E+00 -0.00000000000E+00 -0.77339554982E+03  0.77339554982E+03  0.00000000000E+00 0. -1.
          6    1    1    2  501    0  0.20225511701E+03  0.24005690586E+03 -0.38472680513E+03  0.52548374380E+03  0.17200000000E+03 0.  1.
         -6    1    1    2    0  502 -0.20225511701E+03 -0.24005690586E+03 -0.21766007996E+03  0.41892047075E+03  0.17200000000E+03 0. -1.
</event>
<event>
 4    1  0.1253776E+000  0.1990070E+03  0.7818608E-02  0.1150580E+00
         21   -1    0    0  501  502  0.00000000000E+00  0.00000000000E+00  0.18045668866E+03  0.18045668866E+03  0.00000000000E+00 0. -1.
         21   -1    0    0  502  503 -0.00000000000E+00 -0.00000000000E+00 -0.25054652329E+03  0.25054652329E+03  0.00000000000E+00 0.  1.
          6    1    1    2  501    0  0.32300808318E+02  0.94744055967E+02  0.40858832176E+02  0.20315812198E+03  0.17200000000E+03 0. -1.
         -6    1    1    2    0  503 -0.32300808318E+02 -0.94744055967E+02 -0.11094866681E+03  0.22784508997E+03  0.17200000000E+03 0.  1.
</event>
<event>
 4    1  0.1253776E+000  0.1923111E+03  0.7818608E-02  0.1156393E+00
         21   -1    0    0  503  502  0.00000000000E+00  0.00000000000E+00  0.93652268203E+03  0.93652268203E+03  0.00000000000E+00 0.  1.
         21   -1    0    0  501  503 -0.00000000000E+00 -0.00000000000E+00 -0.41959016551E+02  0.41959016551E+02  0.00000000000E+00 0.  1.
          6    1    1    2  501    0 -0.77406296819E+02  0.37521078323E+02  0.32861065325E+03  0.38074732768E+03  0.17200000000E+03 0.  1.
         -6    1    1    2    0  502  0.77406296819E+02 -0.37521078323E+02  0.56595301222E+03  0.59773437089E+03  0.17200000000E+03 0.  1.
</event>
<event>
 4    1  0.1253776E+000  0.2312999E+03  0.7818608E-02  0.1125728E+00
         21   -1    0    0  501  502  0.00000000000E+00  0.00000000000E+00  0.55800027987E+02  0.55800027987E+02  0.00000000000E+00 0. -1.
         21   -1    0    0  502  503 -0.00000000000E+00 -0.00000000000E+00 -0.99039601525E+03  0.99039601525E+03  0.00000000000E+00 0.  1.
          6    1    1    2  501    0  0.15199967697E+03  0.28490723037E+02 -0.37382793010E+03  0.43959861740E+03  0.17200000000E+03 0.  1.
         -6    1    1    2    0  503 -0.15199967697E+03 -0.28490723037E+02 -0.56076805716E+03  0.60659742583E+03  0.17200000000E+03 0.  1.
</event>
<event>
 4    1  0.1253776E+000  0.1740420E+03  0.7818608E-02  0.1173697E+00
         21   -1    0    0  501  502  0.00000000000E+00  0.00000000000E+00  0.13188088727E+03  0.13188088727E+03  0.00000000000E+00 0.  1.
         21   -1    0    0  502  503 -0.00000000000E+00 -0.00000000000E+00 -0.27750274041E+03  0.27750274041E+03  0.00000000000E+00 0.  1.
          6    1    1    2  501    0  0.75819477908E+01  0.25478309714E+02  0.12161146783E+02  0.17446639702E+03  0.17200000000E+03 0.  1.
         -6    1    1    2    0  503 -0.75819477908E+01 -0.25478309714E+02 -0.15778299992E+03  0.23491723066E+03  0.17200000000E+03 0.  1.
</event>
<event>
 4    1  0.1253776E+000  0.3000231E+03  0.7818608E-02  0.1085229E+00
         21   -1    0    0  501  502  0.00000000000E+00  0.00000000000E+00  0.16253554527E+04  0.16253554527E+04  0.00000000000E+00 0. -1.
         21   -1    0    0  502  503 -0.00000000000E+00 -0.00000000000E+00 -0.66998206746E+02  0.66998206746E+02  0.00000000000E+00 0.  1.
          6    1    1    2  501    0 -0.24147782614E+03  0.46024932130E+02  0.11315333616E+04  0.11706329841E+04  0.17200000000E+03 0.  1.
         -6    1    1    2    0  503  0.24147782614E+03 -0.46024932130E+02  0.42682388434E+03  0.52172067540E+03  0.17200000000E+03 0.  1.
</event>
<event>
 4    1  0.1253776E+000  0.1927119E+03  0.7818608E-02  0.1156038E+00
         21   -1    0    0  501  502  0.00000000000E+00  0.00000000000E+00  0.52731423927E+02  0.52731423927E+02  0.00000000000E+00 0.  1.
         21   -1    0    0  502  503 -0.00000000000E+00 -0.00000000000E+00 -0.72089748261E+03  0.72089748261E+03  0.00000000000E+00 0.  1.
          6    1    1    2  501    0 -0.84594294054E+02  0.19941479071E+02 -0.27536027193E+03  0.33609691538E+03  0.17200000000E+03 0. -1.
         -6    1    1    2    0  503  0.84594294054E+02 -0.19941479071E+02 -0.39280578676E+03  0.43753199116E+03  0.17200000000E+03 0. -1.
</event>
<event>
 4    1  0.1253776E+000  0.2055276E+03  0.7818608E-02  0.1145157E+00
         21   -1    0    0  501  502  0.00000000000E+00  0.00000000000E+00  0.24347417993E+03  0.24347417993E+03  0.00000000000E+00 0.  1.
         21   -1    0    0  502  503 -0.00000000000E+00 -0.00000000000E+00 -0.31940265509E+03  0.31940265509E+03  0.00000000000E+00 0.  1.
          6    1    1    2  501    0  0.28174625019E+02 -0.10892100295E+03  0.15225432881E+03  0.25577915283E+03  0.17200000000E+03 0.  1.
         -6    1    1    2    0  503 -0.28174625019E+02  0.10892100295E+03 -0.22818280397E+03  0.30709768219E+03  0.17200000000E+03 0.  1.
</event>
<event>
 4    1  0.1253776E+000  0.2171996E+03  0.7818608E-02  0.1135988E+00
         21   -1    0    0  503  502  0.00000000000E+00  0.00000000000E+00  0.13258900504E+04  0.13258900504E+04  0.00000000000E+00 0.  1.
         21   -1    0    0  501  503 -0.00000000000E+00 -0.00000000000E+00 -0.56453421133E+02  0.56453421133E+02  0.00000000000E+00 0.  1.
          6    1    1    2  501    0 -0.20194307161E+02 -0.13108723605E+03  0.21444318705E+03  0.30522377688E+03  0.17200000000E+03 0.  1.
         -6    1    1    2    0  502  0.20194307161E+02  0.13108723605E+03  0.10549934422E+04  0.10771196946E+04  0.17200000000E+03 0.  1.
</event>
<event>
 4    1  0.1253776E+000  0.2136779E+03  0.7818608E-02  0.1138686E+00
         21   -1    0    0  503  502  0.00000000000E+00  0.00000000000E+00  0.42759102957E+02  0.42759102957E+02  0.00000000000E+00 0.  1.
         21   -1    0    0  501  503 -0.00000000000E+00 -0.00000000000E+00 -0.13028478988E+04  0.13028478988E+04  0.00000000000E+00 0. -1.
          6    1    1    2  501    0  0.10774396722E+03  0.66824286772E+02 -0.91581522607E+03  0.94041255632E+03  0.17200000000E+03 0.  1.
         -6    1    1    2    0  502 -0.10774396722E+03 -0.66824286772E+02 -0.34427356981E+03  0.40519444548E+03  0.17200000000E+03 0.  1.
</event>
<event>
 4    1  0.1253776E+000  0.2114443E+03  0.7818608E-02  0.1140427E+00
         21   -1    0    0  501  502  0.00000000000E+00  0.00000000000E+00  0.58347441844E+03  0.58347441844E+03  0.00000000000E+00 0. -1.
         21   -1    0    0  502  503 -0.00000000000E+00 -0.00000000000E+00 -0.79125247668E+02  0.79125247668E+02  0.00000000000E+00 0.  1.
          6    1    1    2  501    0 -0.93550213080E+02  0.79831509329E+02  0.19328243214E+03  0.28647305427E+03  0.17200000000E+03 0.  1.
         -6    1    1    2    0  503  0.93550213080E+02 -0.79831509329E+02  0.31106673864E+03  0.37612661184E+03  0.17200000000E+03 0. -1.
</event>
<event>
 4    1  0.1253776E+000  0.2462024E+03  0.7818608E-02  0.1115729E+00
         21   -1    0    0  503  502  0.00000000000E+00  0.00000000000E+00  0.34263561490E+03  0.34263561490E+03  0.00000000000E+00 0.  1.
         21   -1    0    0  501  503 -0.00000000000E+00 -0.00000000000E+00 -0.21315997433E+03  0.21315997433E+03  0.00000000000E+00 0.  1.
          6    1    1    2  501    0 -0.13492912784E+03 -0.11325090276E+03 -0.49862715697E+02  0.25120096921E+03  0.17200000000E+03 0.  1.
         -6    1    1    2    0  502  0.13492912784E+03  0.11325090276E+03  0.17933835627E+03  0.30459462002E+03  0.17200000000E+03 0.  1.
</event>
<event>
 4    1  0.1253776E+000  0.2211705E+03  0.7818608E-02  0.1133013E+00
         21   -1    0    0  501  502  0.00000000000E+00  0.00000000000E+00  0.43921017773E+03  0.43921017773E+03  0.00000000000E+00 0. -1.
         21   -1    0    0  502  503 -0.00000000000E+00 -0.00000000000E+00 -0.13898784885E+03  0.13898784885E+03  0.00000000000E+00 0. -1.
          6    1    1    2  501    0 -0.35400716011E+02 -0.13445884413E+03  0.27897329178E+03  0.35600911363E+03  0.17200000000E+03 0. -1.
         -6    1    1    2    0  503  0.35400716011E+02  0.13445884413E+03  0.21249037105E+02  0.22218891295E+03  0.17200000000E+03 0. -1.
</event>
<event>
 4    1  0.1253776E+000  0.1792726E+03  0.7818608E-02  0.1168509E+00
         21   -1    0    0  501  502  0.00000000000E+00  0.00000000000E+00  0.16212301229E+03  0.16212301229E+03  0.00000000000E+00 0.  1.
         21   -1    0    0  502  503 -0.00000000000E+00 -0.00000000000E+00 -0.25524162198E+03  0.25524162198E+03  0.00000000000E+00 0.  1.
          6    1    1    2  501    0  0.23384099014E+02  0.44809168016E+02  0.52061225392E+02  0.18667899939E+03  0.17200000000E+03 0.  1.
         -6    1    1    2    0  503 -0.23384099014E+02 -0.44809168016E+02 -0.14517983508E+03  0.23068563488E+03  0.17200000000E+03 0.  1.
</event>
<event>
 4    1  0.1253776E+000  0.2284613E+03  0.7818608E-02  0.1127727E+00
         21   -1    0    0  501  502  0.00000000000E+00  0.00000000000E+00  0.76663696651E+02  0.76663696651E+02  0.00000000000E+00 0. -1.
         21   -1    0    0  502  503 -0.00000000000E+00 -0.00000000000E+00 -0.10852435657E+04  0.10852435657E+04  0.00000000000E+00 0.  1.
          6    1    1    2  501    0 -0.10049436205E+03 -0.11185462927E+03 -0.14964537030E+03  0.27310860797E+03  0.17200000000E+03 0. -1.
         -6    1    1    2    0  503  0.10049436205E+03  0.11185462927E+03 -0.85893449877E+03  0.88879865440E+03  0.17200000000E+03 0.  1.
</event>
<event>
 4    1  0.1253776E+000  0.2202422E+03  0.7818608E-02  0.1133703E+00
         21   -1    0    0  503  502  0.00000000000E+00  0.00000000000E+00  0.10120871174E+03  0.10120871174E+03  0.00000000000E+00 0.  1.
         21   -1    0    0  501  503 -0.00000000000E+00 -0.00000000000E+00 -0.83976585070E+03  0.83976585070E+03  0.00000000000E+00 0. -1.
          6    1    1    2  501    0 -0.33460220338E+02  0.13342804799E+03 -0.67753840858E+03  0.71243590971E+03  0.17200000000E+03 0. -1.
         -6    1    1    2    0  502  0.33460220338E+02 -0.13342804799E+03 -0.61018730371E+02  0.22853865273E+03  0.17200000000E+03 0.  1.
</event>
<event>
 4    1  0.1253776E+000  0.1869979E+03  0.7818608E-02  0.1161197E+00
         21   -1    0    0  503  502  0.00000000000E+00  0.00000000000E+00  0.13523875058E+03  0.13523875058E+03  0.00000000000E+00 0. -1.
         21   -1    0    0  501  503 -0.00000000000E+00 -0.00000000000E+00 -0.43286987335E+03  0.43286987335E+03  0.00000000000E+00 0.  1.
          6    1    1    2  501    0  0.29569307096E+02  0.67155593098E+02 -0.32906567017E+03  0.37848703134E+03  0.17200000000E+03 0.  1.
         -6    1    1    2    0  502 -0.29569307096E+02 -0.67155593098E+02  0.31434547401E+02  0.18962159259E+03  0.17200000000E+03 0. -1.
</event>
<event>
 4    1  0.1253776E+000  0.2090786E+03  0.7818608E-02  0.1142298E+00
         21   -1    0    0  503  502  0.00000000000E+00  0.00000000000E+00  0.59714888243E+03  0.59714888243E+03  0.00000000000E+00 0.  1.
         21   -1    0    0  501  503 -0.00000000000E+00 -0.00000000000E+00 -0.75783216779E+02  0.75783216779E+02  0.00000000000E+00 0. -1.
          6    1    1    2  501    0 -0.24009683152E+01 -0.11884479050E+03  0.19861368252E+03  0.28837691267E+03  0.17200000000E+03 0.  1.
         -6    1    1    2    0  502  0.24009683152E+01  0.11884479050E+03  0.32275198314E+03  0.38455518654E+03  0.17200000000E+03 0.  1.
</event>
<event>
 4    1  0.1253776E+000  0.1853509E+03  0.7818608E-02  0.1162723E+00
         21   -1    0    0  503  502  0.00000000000E+00  0.00000000000E+00  0.39560768218E+02  0.39560768218E+02  0.00000000000E+00 0. -1.
         21   -1    0    0  501  503 -0.00000000000E+00 -0.00000000000E+00 -0.10082539051E+04  0.10082539051E+04  0.00000000000E+00 0. -1.
          6    1    1    2  501    0 -0.39440856880E+02  0.56704326383E+02 -0.67946194121E+03  0.70428935203E+03  0.17200000000E+03 0. -1.
         -6    1    1    2    0  502  0.39440856880E+02 -0.56704326383E+02 -0.28923119569E+03  0.34352532131E+03  0.17200000000E+03 0. -1.
</event>
<event>
 4    1  0.1253776E+000  0.2021750E+03  0.7818608E-02  0.1147917E+00
         21   -1    0    0  501  502  0.00000000000E+00  0.00000000000E+00  0.15336891407E+03  0.15336891407E+03  0.00000000000E+00 0. -1.
         21   -1    0    0  502  503 -0.00000000000E+00 -0.00000000000E+00 -0.29520016019E+03  0.29520016019E+03  0.00000000000E+00 0.  1.
          6    1    1    2  501    0  0.75200336335E+02 -0.75070946135E+02 -0.99772488090E+00  0.20217747895E+03  0.17200000000E+03 0. -1.
         -6    1    1    2    0  503 -0.75200336335E+02  0.75070946135E+02 -0.14083352123E+03  0.24639159531E+03  0.17200000000E+03 0.  1.
</event>
<event>
 4    1  0.1253776E+000  0.1750696E+03  0.7818608E-02  0.1172662E+00
         21   -1    0    0  501  502  0.00000000000E+00  0.00000000000E+00  0.80965142933E+03  0.80965142933E+03  0.00000000000E+00 0. -1.
         21   -1    0    0  502  503 -0.00000000000E+00 -0.00000000000E+00 -0.82997263900E+02  0.82997263900E+02  0.00000000000E+00 0. -1.
          6    1    1    2  501    0  0.32629651679E+02 -0.81564912101E+00  0.34164599168E+02  0.17837202496E+03  0.17200000000E+03 0. -1.
         -6    1    1    2    0  503 -0.32629651679E+02  0.81564912101E+00  0.69248956626E+03  0.71427666826E+03  0.17200000000E+03 0. -1.
</event>
<event>
 4    1  0.1253776E+000  0.1953787E+03  0.7818608E-02  0.1153698E+00
         21   -1    0    0  501  502  0.00000000000E+00  0.00000000000E+00  0.33838779107E+03  0.33838779107E+03  0.00000000000E+00 0.  1.
         21   -1    0    0  502  503 -0.00000000000E+00 -0.00000000000E+00 -0.23452307267E+03  0.23452307267E+03  0.00000000000E+00 0.  1.
          6    1    1    2  501    0 -0.50060754459E+02 -0.77992038308E+02  0.25829758773E+03  0.32386799935E+03  0.17200000000E+03 0.  1.
         -6    1    1    2    0  503  0.50060754459E+02  0.77992038308E+02 -0.15443286933E+03  0.24904286439E+03  0.17200000000E+03 0.  1.
</event>
<event>
 4    1  0.1253776E+000  0.1853632E+03  0.7818608E-02  0.1162711E+00
         21   -1    0    0  503  502  0.00000000000E+00  0.00000000000E+00  0.30882932263E+03  0.30882932263E+03  0.00000000000E+00 0. -1.
         21   -1    0    0  501  503 -0.00000000000E+00 -0.00000000000E+00 -0.15018670232E+03  0.15018670232E+03  0.00000000000E+00 0. -1.
          6    1    1    2  501    0  0.53334413132E+02 -0.43942559691E+02  0.19616926928E+03  0.26989236815E+03  0.17200000000E+03 0. -1.
         -6    1    1    2    0  502 -0.53334413132E+02  0.43942559691E+02 -0.37526648971E+02  0.18912365679E+03  0.17200000000E+03 0. -1.
</event>
<event>
 4    1  0.1253776E+000  0.2196848E+03  0.7818608E-02  0.1134118E+00
         21   -1    0    0  503  502  0.00000000000E+00  0.00000000000E+00  0.11382392632E+03  0.11382392632E+03  0.00000000000E+00 0. -1.
         21   -1    0    0  501  503 -0.00000000000E+00 -0.00000000000E+00 -0.83938243858E+03  0.83938243858E+03  0.00000000000E+00 0. -1.
          6    1    1    2  501    0 -0.41427891539E+02 -0.13023490744E+03 -0.27504539092E+02  0.22139986672E+03  0.17200000000E+03 0. -1.
         -6    1    1    2    0  502  0.41427891539E+02  0.13023490744E+03 -0.69805397317E+03  0.73180649817E+03  0.17200000000E+03 0. -1.
</event>
<event>
 4    1  0.1253776E+000  0.1879312E+03  0.7818608E-02  0.1160341E+00
         21   -1    0    0  501  502  0.00000000000E+00  0.00000000000E+00  0.16951868963E+03  0.16951868963E+03  0.00000000000E+00 0. -1.
         21   -1    0    0  502  503 -0.00000000000E+00 -0.00000000000E+00 -0.27341388636E+03  0.27341388636E+03  0.00000000000E+00 0. -1.
          6    1    1    2  501    0  0.40503837542E+02 -0.63981172359E+02  0.56093343773E+02  0.19612397734E+03  0.17200000000E+03 0.  1.
         -6    1    1    2    0  503 -0.40503837542E+02  0.63981172359E+02 -0.15998854050E+03  0.24680859864E+03  0.17200000000E+03 0.  1.
</event>
<event>
 4    1  0.1253776E+000  0.2078769E+03  0.7818608E-02  0.1143258E+00
         21   -1    0    0  503  502  0.00000000000E+00  0.00000000000E+00  0.17748415557E+04  0.17748415557E+04  0.00000000000E+00 0.  1.
         21   -1    0    0  501  503 -0.00000000000E+00 -0.00000000000E+00 -0.24418765982E+02  0.24418765982E+02  0.00000000000E+00 0.  1.
          6    1    1    2  501    0  0.56473144520E+01 -0.11660583337E+03  0.92383950036E+03  0.94693834803E+03  0.17200000000E+03 0.  1.
         -6    1    1    2    0  502 -0.56473144520E+01  0.11660583337E+03  0.82658328939E+03  0.85232197369E+03  0.17200000000E+03 0.  1.
</event>
<event>
 4    1  0.1253776E+000  0.2067100E+03  0.7818608E-02  0.1144198E+00
         21   -1    0    0  503  502  0.00000000000E+00  0.00000000000E+00  0.68048538375E+02  0.68048538375E+02  0.00000000000E+00 0. -1.
         21   -1    0    0  501  503 -0.00000000000E+00 -0.00000000000E+00 -0.18918348193E+04  0.18918348193E+04  0.00000000000E+00 0.  1.
          6    1    1    2  501    0 -0.49972071388E+02  0.10318824410E+03 -0.17128655695E+04  0.17252934477E+04  0.17200000000E+03 0.  1.
         -6    1    1    2    0  502  0.49972071388E+02 -0.10318824410E+03 -0.11092071151E+03  0.23458991001E+03  0.17200000000E+03 0. -1.
</event>
<event>
 4    1  0.1253776E+000  0.2366892E+03  0.7818608E-02  0.1122018E+00
         21   -1    0    0  503  502  0.00000000000E+00  0.00000000000E+00  0.40297679295E+02  0.40297679295E+02  0.00000000000E+00 0. -1.
         21   -1    0    0  501  503 -0.00000000000E+00 -0.00000000000E+00 -0.18243513722E+04  0.18243513722E+04  0.00000000000E+00 0. -1.
          6    1    1    2  501    0 -0.11580247679E+03 -0.11413845655E+03 -0.13468408855E+04  0.13674802272E+04  0.17200000000E+03 0. -1.
         -6    1    1    2    0  502  0.11580247679E+03  0.11413845655E+03 -0.43721280733E+03  0.49716882423E+03  0.17200000000E+03 0. -1.
</event>
<event>
 4    1  0.1253776E+000  0.1851343E+03  0.7818608E-02  0.1162925E+00
         21   -1    0    0  501  502  0.00000000000E+00  0.00000000000E+00  0.25500878158E+03  0.25500878158E+03  0.00000000000E+00 0.  1.
         21   -1    0    0  502  503 -0.00000000000E+00 -0.00000000000E+00 -0.28627662227E+03  0.28627662227E+03  0.00000000000E+00 0.  1.
          6    1    1    2  501    0 -0.65182533791E+02  0.21022526042E+02  0.18149042773E+03  0.25925563575E+03  0.17200000000E+03 0.  1.
         -6    1    1    2    0  503  0.65182533791E+02 -0.21022526042E+02 -0.21275826842E+03  0.28202976810E+03  0.17200000000E+03 0.  1.
</event>
<event>
 4    1  0.1253776E+000  0.2312577E+03  0.7818608E-02  0.1125758E+00
         21   -1    0    0  503  502  0.00000000000E+00  0.00000000000E+00  0.22584983441E+03  0.22584983441E+03  0.00000000000E+00 0.  1.
         21   -1    0    0  501  503 -0.00000000000E+00 -0.00000000000E+00 -0.25448382859E+03  0.25448382859E+03  0.00000000000E+00 0. -1.
          6    1    1    2  501    0 -0.14530728839E+03  0.52743858488E+02  0.49001684775E+02  0.23639223291E+03  0.17200000000E+03 0.  1.
         -6    1    1    2    0  502  0.14530728839E+03 -0.52743858488E+02 -0.77635678950E+02  0.24394143009E+03  0.17200000000E+03 0. -1.
</event>
<event>
 4    1  0.1253776E+000  0.2841668E+03  0.7818608E-02  0.1093435E+00
         21   -1    0    0  501  502  0.00000000000E+00  0.00000000000E+00  0.83837356598E+03  0.83837356598E+03  0.00000000000E+00 0. -1.
         21   -1    0    0  502  503 -0.00000000000E+00 -0.00000000000E+00 -0.98223377238E+02  0.98223377238E+02  0.00000000000E+00 0.  1.
          6    1    1    2  501    0 -0.75025195146E+01  0.22607625391E+03  0.30485736775E+03  0.41675985298E+03  0.17200000000E+03 0. -1.
         -6    1    1    2    0  503  0.75025195146E+01 -0.22607625391E+03  0.43529282099E+03  0.51983709024E+03  0.17200000000E+03 0.  1.
</event>
<event>
 4    1  0.1253776E+000  0.2306845E+03  0.7818608E-02  0.1126159E+00
         21   -1    0    0  501  502  0.00000000000E+00  0.00000000000E+00  0.72976003401E+02  0.72976003401E+02  0.00000000000E+00 0. -1.
         21   -1    0    0  502  503 -0.00000000000E+00 -0.00000000000E+00 -0.18911758095E+04  0.18911758095E+04  0.00000000000E+00 0. -1.
          6    1    1    2  501    0 -0.14346888878E+03 -0.55208916660E+02 -0.13930601243E+03  0.26948378731E+03  0.17200000000E+03 0. -1.
         -6    1    1    2    0  503  0.14346888878E+03  0.55208916660E+02 -0.16788937937E+04  0.16946680256E+04  0.17200000000E+03 0. -1.
</event>
<event>
 4    1  0.1253776E+000  0.2385653E+03  0.7818608E-02  0.1120752E+00
         21   -1    0    0  501  502  0.00000000000E+00  0.00000000000E+00  0.11950039560E+04  0.11950039560E+04  0.00000000000E+00 0. -1.
         21   -1    0    0  502  503 -0.00000000000E+00 -0.00000000000E+00 -0.47830794795E+02  0.47830794795E+02  0.00000000000E+00 0.  1.
          6    1    1    2  501    0  0.14256412897E+03 -0.83695146905E+02  0.53293702044E+03  0.58389663146E+03  0.17200000000E+03 0.  1.
         -6    1    1    2    0  503 -0.14256412897E+03  0.83695146905E+02  0.61423614081E+03  0.65893811937E+03  0.17200000000E+03 0. -1.
</event>
<event>
 4    1  0.1253776E+000  0.1873528E+03  0.7818608E-02  0.1160871E+00
         21   -1    0    0  503  502  0.00000000000E+00  0.00000000000E+00  0.20510096485E+03  0.20510096485E+03  0.00000000000E+00 0. -1.
         21   -1    0    0  501  503 -0.00000000000E+00 -0.00000000000E+00 -0.17390778262E+03  0.17390778262E+03  0.00000000000E+00 0. -1.
          6    1    1    2  501    0 -0.54000407289E+02  0.51000215896E+02  0.39501796532E+02  0.19147182022E+03  0.17200000000E+03 0. -1.
         -6    1    1    2    0  502  0.54000407289E+02 -0.51000215896E+02 -0.83086143009E+01  0.18753692724E+03  0.17200000000E+03 0. -1.
</event>
<event>
 4    1  0.1253776E+000  0.2250522E+03  0.7818608E-02  0.1130172E+00
         21   -1    0    0  501  502  0.00000000000E+00  0.00000000000E+00  0.20382749239E+03  0.20382749239E+03  0.00000000000E+00 0. -1.
         21   -1    0    0  502  503 -0.00000000000E+00 -0.00000000000E+00 -0.25069234607E+03  0.25069234607E+03  0.00000000000E+00 0.  1.
          6    1    1    2  501    0 -0.12684632185E+03  0.70530151815E+02 -0.44747462172E+02  0.22945768031E+03  0.17200000000E+03 0.  1.
         -6    1    1    2    0  503  0.12684632185E+03 -0.70530151815E+02 -0.21173915039E+01  0.22506215815E+03  0.17200000000E+03 0. -1.
</event>
<event>
 4    1  0.1253776E+000  0.1753096E+03  0.7818608E-02  0.1172421E+00
         21   -1    0    0  501  502  0.00000000000E+00  0.00000000000E+00  0.22654140718E+03  0.22654140718E+03  0.00000000000E+00 0.  1.
         21   -1    0    0  502  503 -0.00000000000E+00 -0.00000000000E+00 -0.13938958714E+03  0.13938958714E+03  0.00000000000E+00 0.  1.
          6    1    1    2  501    0  0.30712766042E+02 -0.14359106788E+02  0.73489303274E+02  0.19008980941E+03  0.17200000000E+03 0.  1.
         -6    1    1    2    0  503 -0.30712766042E+02  0.14359106788E+02  0.13662516772E+02  0.17584118491E+03  0.17200000000E+03 0.  1.
</event>
<event>
 4    1  0.1253776E+000  0.2742062E+03  0.7818608E-02  0.1098896E+00
         21   -1    0    0  503  502  0.00000000000E+00  0.00000000000E+00  0.79431645376E+03  0.79431645376E+03  0.00000000000E+00 0. -1.
         21   -1    0    0  501  503 -0.00000000000E+00 -0.00000000000E+00 -0.10408421217E+03  0.10408421217E+03  0.00000000000E+00 0.  1.
          6    1    1    2  501    0  0.19862343180E+03  0.78446024146E+02  0.20994070993E+03  0.34534641746E+03  0.17200000000E+03 0.  1.
         -6    1    1    2    0  502 -0.19862343180E+03 -0.78446024146E+02  0.48029153166E+03  0.55305424847E+03  0.17200000000E+03 0.  1.
</event>
<event>
 4    1  0.1253776E+000  0.1888929E+03  0.7818608E-02  0.1159464E+00
         21   -1    0    0  501  502  0.00000000000E+00  0.00000000000E+00  0.11208852656E+04  0.11208852656E+04  0.00000000000E+00 0.  1.
         21   -1    0    0  502  503 -0.00000000000E+00 -0.00000000000E+00 -0.35056046276E+02  0.35056046276E+02  0.00000000000E+00 0.  1.
          6    1    1    2  501    0  0.77783799189E+02 -0.67972732130E+01  0.71817943140E+03  0.74260502154E+03  0.17200000000E+03 0.  1.
         -6    1    1    2    0  503 -0.77783799189E+02  0.67972732130E+01  0.36764978788E+03  0.41333629029E+03  0.17200000000E+03 0.  1.
</event>
<event>
 4    1  0.1253776E+000  0.1859281E+03  0.7818608E-02  0.1162186E+00
         21   -1    0    0  503  502  0.00000000000E+00  0.00000000000E+00  0.31243304354E+03  0.31243304354E+03  0.00000000000E+00 0.  1.
         21   -1    0    0  501  503 -0.00000000000E+00 -0.00000000000E+00 -0.31112694664E+03  0.31112694664E+03  0.00000000000E+00 0.  1.
          6    1    1    2  501    0  0.15674155415E+02 -0.68844696940E+02 -0.24962148527E+03  0.31125577481E+03  0.17200000000E+03 0.  1.
         -6    1    1    2    0  502 -0.15674155415E+02  0.68844696940E+02  0.25092758217E+03  0.31230421537E+03  0.17200000000E+03 0.  1.
</event>
<event>
 4    1  0.1253776E+000  0.1972216E+03  0.7818608E-02  0.1152105E+00
         21   -1    0    0  501  502  0.00000000000E+00  0.00000000000E+00  0.43694826946E+03  0.43694826946E+03  0.00000000000E+00 0.  1.
         21   -1    0    0  502  503 -0.00000000000E+00 -0.00000000000E+00 -0.94136635487E+02  0.94136635487E+02  0.00000000000E+00 0.  1.
          6    1    1    2  501    0  0.24523819256E+02  0.93332335215E+02  0.23332480058E+03  0.30551072825E+03  0.17200000000E+03 0.  1.
         -6    1    1    2    0  503 -0.24523819256E+02 -0.93332335215E+02  0.10948683339E+03  0.22557417670E+03  0.17200000000E+03 0.  1.
</event>
<event>
 4    1  0.1253776E+000  0.1823168E+03  0.7818608E-02  0.1165579E+00
         21   -1    0    0  503  502  0.00000000000E+00  0.00000000000E+00  0.39701369812E+02  0.39701369812E+02  0.00000000000E+00 0. -1.
         21   -1    0    0  501  503 -0.00000000000E+00 -0.00000000000E+00 -0.11862233979E+04  0.11862233979E+04  0.00000000000E+00 0. -1.
          6    1    1    2  501    0 -0.58589481963E+02  0.14923062332E+02 -0.90573319307E+03  0.92390045038E+03  0.17200000000E+03 0. -1.
         -6    1    1    2    0  502  0.58589481963E+02 -0.14923062332E+02 -0.24078883499E+03  0.30202431730E+03  0.17200000000E+03 0. -1.
</event>
<event>
 4    1  0.1253776E+000  0.2195078E+03  0.7818608E-02  0.1134251E+00
         21   -1    0    0  503  502  0.00000000000E+00  0.00000000000E+00  0.18912214126E+04  0.18912214126E+04  0.00000000000E+00 0.  1.
         21   -1    0    0  501  503 -0.00000000000E+00 -0.00000000000E+00 -0.26108465497E+02  0.26108465497E+02  0.00000000000E+00 0.  1.
          6    1    1    2  501    0 -0.13284330868E+03 -0.30859528788E+02  0.78352851258E+03  0.81369563425E+03  0.17200000000E+03 0.  1.
         -6    1    1    2    0  502  0.13284330868E+03  0.30859528788E+02  0.10815844345E+04  0.11036342438E+04  0.17200000000E+03 0.  1.
</event>
<event>
 4    1  0.1253776E+000  0.1820053E+03  0.7818608E-02  0.1165876E+00
         21   -1    0    0  503  502  0.00000000000E+00  0.00000000000E+00  0.60638477488E+02  0.60638477488E+02  0.00000000000E+00 0.  1.
         21   -1    0    0  501  503 -0.00000000000E+00 -0.00000000000E+00 -0.57940163404E+03  0.57940163404E+03  0.00000000000E+00 0.  1.
          6    1    1    2  501    0  0.58375291568E+02 -0.11586566789E+02 -0.33588959014E+03  0.38203107198E+03  0.17200000000E+03 0.  1.
         -6    1    1    2    0  502 -0.58375291568E+02  0.11586566789E+02 -0.18287356642E+03  0.25800903955E+03  0.17200000000E+03 0.  1.
</event>
<event>
 4    1  0.1253776E+000  0.2194681E+03  0.7818608E-02  0.1134280E+00
         21   -1    0    0  501  502  0.00000000000E+00  0.00000000000E+00  0.37084432680E+03  0.37084432680E+03  0.00000000000E+00 0.  1.
         21   -1    0    0  502  503 -0.00000000000E+00 -0.00000000000E+00 -0.29620239587E+03  0.29620239587E+03  0.00000000000E+00 0.  1.
          6    1    1    2  501    0 -0.67899921453E+02  0.11820262252E+03  0.28724258568E+03  0.36148936683E+03  0.17200000000E+03 0.  1.
         -6    1    1    2    0  503  0.67899921453E+02 -0.11820262252E+03 -0.21260065476E+03  0.30555735584E+03  0.17200000000E+03 0.  1.
</event>
<event>
 4    1  0.1253776E+000  0.1721795E+03  0.7818608E-02  0.1175594E+00
         21   -1    0    0  501  502  0.00000000000E+00  0.00000000000E+00  0.16905953479E+03  0.16905953479E+03  0.00000000000E+00 0. -1.
         21   -1    0    0  502  503 -0.00000000000E+00 -0.00000000000E+00 -0.17689416574E+03  0.17689416574E+03  0.00000000000E+00 0. -1.
          6    1    1    2  501    0  0.43554434378E+01 -0.65434901323E+01 -0.20041569132E+02  0.17334200773E+03  0.17200000000E+03 0. -1.
         -6    1    1    2    0  503 -0.43554434378E+01  0.65434901323E+01  0.12206938179E+02  0.17261169280E+03  0.17200000000E+03 0. -1.
</event>
<event>
 4    1  0.1253776E+000  0.1986827E+03  0.7818608E-02  0.1150855E+00
         21   -1    0    0  501  502  0.00000000000E+00  0.00000000000E+00  0.10214364466E+03  0.10214364466E+03  0.00000000000E+00 0. -1.
         21   -1    0    0  502  503 -0.00000000000E+00 -0.00000000000E+00 -0.50971543795E+03  0.50971543795E+03  0.00000000000E+00 0. -1.
          6    1    1    2  501    0 -0.99367562026E+02  0.41098396998E+01 -0.53349064270E+02  0.20572050414E+03  0.17200000000E+03 0. -1.
         -6    1    1    2    0  503  0.99367562026E+02 -0.41098396998E+01 -0.35422272903E+03  0.40613857847E+03  0.17200000000E+03 0. -1.
</event>
<event>
 4    1  0.1253776E+000  0.1902265E+03  0.7818608E-02  0.1158257E+00
         21   -1    0    0  501  502  0.00000000000E+00  0.00000000000E+00  0.52342784024E+02  0.52342784024E+02  0.00000000000E+00 0.  1.
         21   -1    0    0  502  503 -0.00000000000E+00 -0.00000000000E+00 -0.86955989203E+03  0.86955989203E+03  0.00000000000E+00 0.  1.
          6    1    1    2  501    0 -0.46511048402E+02 -0.66624690908E+02 -0.61729576285E+03  0.64594131769E+03  0.17200000000E+03 0.  1.
         -6    1    1    2    0  503  0.46511048402E+02  0.66624690908E+02 -0.19992134515E+03  0.27596135836E+03  0.17200000000E+03 0.  1.
</event>
<event>
 4    1  0.1253776E+000  0.2511215E+03  0.7818608E-02  0.1112598E+00
         21   -1    0    0  503  502  0.00000000000E+00  0.00000000000E+00  0.55181988643E+03  0.55181988643E+03  0.00000000000E+00 0.  1.
         21   -1    0    0  501  503 -0.00000000000E+00 -0.00000000000E+00 -0.11623486314E+03  0.11623486314E+03  0.00000000000E+00 0.  1.
          6    1    1    2  501    0  0.15769628636E+03  0.92789617569E+02  0.17447525791E+03  0.30578366124E+03  0.17200000000E+03 0. -1.
         -6    1    1    2    0  502 -0.15769628636E+03 -0.92789617569E+02  0.26110976539E+03  0.36227108833E+03  0.17200000000E+03 0. -1.
</event>
<event>
 4    1  0.1253776E+000  0.1874649E+03  0.7818608E-02  0.1160768E+00
         21   -1    0    0  503  502  0.00000000000E+00  0.00000000000E+00  0.11008797833E+04  0.11008797833E+04  0.00000000000E+00 0.  1.
         21   -1    0    0  501  503 -0.00000000000E+00 -0.00000000000E+00 -0.43829225476E+02  0.43829225476E+02  0.00000000000E+00 0. -1.
          6    1    1    2  501    0  0.35879283464E+02 -0.65358646915E+02  0.23021007535E+03  0.29688340220E+03  0.17200000000E+03 0. -1.
         -6    1    1    2    0  502 -0.35879283464E+02  0.65358646915E+02  0.82684048249E+03  0.84782560659E+03  0.17200000000E+03 0.  1.
</event>
<event>
 4    1  0.1253776E+000  0.2157055E+03  0.7818608E-02  0.1137126E+00
         21   -1    0    0  501  502  0.00000000000E+00  0.00000000000E+00  0.14442266397E+03  0.14442266397E+03  0.00000000000E+00 0.  1.
         21   -1    0    0  502  503 -0.00000000000E+00 -0.00000000000E+00 -0.59202472762E+03  0.59202472762E+03  0.00000000000E+00 0.  1.
          6    1    1    2  501    0  0.12024657769E+03  0.49855854975E+02  0.24801605908E+02  0.21712661140E+03  0.17200000000E+03 0.  1.
         -6    1    1    2    0  503 -0.12024657769E+03 -0.49855854975E+02 -0.47240366956E+03  0.51932078019E+03  0.17200000000E+03 0.  1.
</event>
<event>
 4    1  0.1253776E+000  0.1891162E+03  0.7818608E-02  0.1159261E+00
         21   -1    0    0  503  502  0.00000000000E+00  0.00000000000E+00  0.25977034109E+02  0.25977034109E+02  0.00000000000E+00 0. -1.
         21   -1    0    0  501  503 -0.00000000000E+00 -0.00000000000E+00 -0.26137691754E+04  0.26137691754E+04  0.00000000000E+00 0. -1.
          6    1    1    2  501    0  0.22189722298E+02  0.75422622193E+02 -0.38590929885E+03  0.42975684131E+03  0.17200000000E+03 0. -1.
         -6    1    1    2    0  502 -0.22189722298E+02 -0.75422622193E+02 -0.22018828424E+04  0.22099893682E+04  0.17200000000E+03 0. -1.
</event>
<event>
 4    1  0.1253776E+000  0.2832127E+03  0.7818608E-02  0.1093947E+00
         21   -1    0    0  501  502  0.00000000000E+00  0.00000000000E+00  0.10203889307E+04  0.10203889307E+04  0.00000000000E+00 0. -1.
         21   -1    0    0  502  503 -0.00000000000E+00 -0.00000000000E+00 -0.10014689462E+03  0.10014689462E+03  0.00000000000E+00 0.  1.
          6    1    1    2  501    0  0.22489881073E+03  0.67801321709E+01  0.71995828295E+03  0.77365972782E+03  0.17200000000E+03 0. -1.
         -6    1    1    2    0  503 -0.22489881073E+03 -0.67801321709E+01  0.20028375316E+03  0.34687609753E+03  0.17200000000E+03 0.  1.
</event>
<event>
 4    1  0.1253776E+000  0.3116127E+03  0.7818608E-02  0.1079575E+00
         21   -1    0    0  501  502  0.00000000000E+00  0.00000000000E+00  0.61867375967E+03  0.61867375967E+03  0.00000000000E+00 0.  1.
         21   -1    0    0  502  503 -0.00000000000E+00 -0.00000000000E+00 -0.46856453288E+03  0.46856453288E+03  0.00000000000E+00 0.  1.
          6    1    1    2  501    0 -0.57712343119E+02 -0.25335306477E+03  0.51837432175E+03  0.60482594804E+03  0.17200000000E+03 0.  1.
         -6    1    1    2    0  503  0.57712343119E+02  0.25335306477E+03 -0.36826509496E+03  0.48241234452E+03  0.17200000000E+03 0.  1.
</event>
<event>
 4    1  0.1253776E+000  0.2091963E+03  0.7818608E-02  0.1142204E+00
         21   -1    0    0  503  502  0.00000000000E+00  0.00000000000E+00  0.29398161267E+03  0.29398161267E+03  0.00000000000E+00 0. -1.
         21   -1    0    0  501  503 -0.00000000000E+00 -0.00000000000E+00 -0.27261856996E+03  0.27261856996E+03  0.00000000000E+00 0. -1.
          6    1    1    2  501    0  0.11272534570E+03  0.38367879595E+02 -0.18019420384E+03  0.27610333001E+03  0.17200000000E+03 0. -1.
         -6    1    1    2    0  502 -0.11272534570E+03 -0.38367879595E+02  0.20155724654E+03  0.29049685262E+03  0.17200000000E+03 0. -1.
</event>
<event>
 4    1  0.1253776E+000  0.1856137E+03  0.7818608E-02  0.1162478E+00
         21   -1    0    0  503  502  0.00000000000E+00  0.00000000000E+00  0.84001361070E+02  0.84001361070E+02  0.00000000000E+00 0.  1.
         21   -1    0    0  501  503 -0.00000000000E+00 -0.00000000000E+00 -0.41231441453E+03  0.41231441453E+03  0.00000000000E+00 0.  1.
          6    1    1    2  501    0 -0.57317004972E+02 -0.39789674031E+02 -0.14614213112E+03  0.23624135901E+03  0.17200000000E+03 0.  1.
         -6    1    1    2    0  502  0.57317004972E+02  0.39789674031E+02 -0.18217092233E+03  0.26007441658E+03  0.17200000000E+03 0.  1.
</event>
<event>
 4    1  0.1253776E+000  0.2673482E+03  0.7818608E-02  0.1102807E+00
         21   -1    0    0  503  502  0.00000000000E+00  0.00000000000E+00  0.64502324370E+03  0.64502324370E+03  0.00000000000E+00 0. -1.
         21   -1    0    0  501  503 -0.00000000000E+00 -0.00000000000E+00 -0.18670328727E+03  0.18670328727E+03  0.00000000000E+00 0.  1.
          6    1    1    2  501    0  0.44354317537E+02  0.19980926090E+03 -0.35980581055E+02  0.26975850022E+03  0.17200000000E+03 0.  1.
         -6    1    1    2    0  502 -0.44354317537E+02 -0.19980926090E+03  0.49430053749E+03  0.56196803076E+03  0.17200000000E+03 0. -1.
</event>
<event>
 4    1  0.1253776E+000  0.2132025E+03  0.7818608E-02  0.1139055E+00
         21   -1    0    0  503  502  0.00000000000E+00  0.00000000000E+00  0.79186024327E+03  0.79186024327E+03  0.00000000000E+00 0.  1.
         21   -1    0    0  501  503 -0.00000000000E+00 -0.00000000000E+00 -0.83199687946E+02  0.83199687946E+02  0.00000000000E+00 0. -1.
          6    1    1    2  501    0  0.12119466815E+03 -0.34397009583E+02  0.11070219228E+03  0.24022963437E+03  0.17200000000E+03 0. -1.
         -6    1    1    2    0  502 -0.12119466815E+03  0.34397009583E+02  0.59795836305E+03  0.63483029684E+03  0.17200000000E+03 0.  1.
</event>
<event>
 4    1  0.1253776E+000  0.1761557E+03  0.7818608E-02  0.1171576E+00
         21   -1    0    0  503  502  0.00000000000E+00  0.00000000000E+00  0.60615304944E+03  0.60615304944E+03  0.00000000000E+00 0. -1.
         21   -1    0    0  501  503 -0.00000000000E+00 -0.00000000000E+00 -0.62907132724E+02  0.62907132724E+02  0.00000000000E+00 0. -1.
          6    1    1    2  501    0 -0.36539834026E+02  0.10566866325E+02  0.12726539371E+03  0.21731842667E+03  0.17200000000E+03 0. -1.
         -6    1    1    2    0  502  0.36539834026E+02 -0.10566866325E+02  0.41598052301E+03  0.45174175549E+03  0.17200000000E+03 0. -1.
</event>
<event>
 4    1  0.1253776E+000  0.2095285E+03  0.7818608E-02  0.1141940E+00
         21   -1    0    0  503  502  0.00000000000E+00  0.00000000000E+00  0.20188357678E+03  0.20188357678E+03  0.00000000000E+00 0.  1.
         21   -1    0    0  501  503 -0.00000000000E+00 -0.00000000000E+00 -0.23016146760E+03  0.23016146760E+03  0.00000000000E+00 0.  1.
          6    1    1    2  501    0 -0.11541251636E+03  0.31593120238E+02  0.36602316936E+02  0.21270144283E+03  0.17200000000E+03 0. -1.
         -6    1    1    2    0  502  0.11541251636E+03 -0.31593120238E+02 -0.64880207757E+02  0.21934360154E+03  0.17200000000E+03 0. -1.
</event>
<event>
 4    1  0.1253776E+000  0.1744577E+03  0.7818608E-02  0.1173277E+00
         21   -1    0    0  501  502  0.00000000000E+00  0.00000000000E+00  0.14800840899E+03  0.14800840899E+03  0.00000000000E+00 0.  1.
         21   -1    0    0  502  503 -0.00000000000E+00 -0.00000000000E+00 -0.20571531386E+03  0.20571531386E+03  0.00000000000E+00 0.  1.
          6    1    1    2  501    0  0.29136556916E+02  0.15958037304E+01 -0.32380762102E+02  0.17743731088E+03  0.17200000000E+03 0.  1.
         -6    1    1    2    0  503 -0.29136556916E+02 -0.15958037304E+01 -0.25326142769E+02  0.17628641197E+03  0.17200000000E+03 0.  1.
</event>
<event>
 4    1  0.1253776E+000  0.1989346E+03  0.7818608E-02  0.1150641E+00
         21   -1    0    0  503  502  0.00000000000E+00  0.00000000000E+00  0.15977456420E+04  0.15977456420E+04  0.00000000000E+00 0. -1.
         21   -1    0    0  501  503 -0.00000000000E+00 -0.00000000000E+00 -0.30183713634E+02  0.30183713634E+02  0.00000000000E+00 0. -1.
          6    1    1    2  501    0 -0.98181005857E+02 -0.18747525065E+02  0.43903714970E+03  0.48200477012E+03  0.17200000000E+03 0. -1.
         -6    1    1    2    0  502  0.98181005857E+02  0.18747525065E+02  0.11285247787E+04  0.11459245855E+04  0.17200000000E+03 0. -1.
</event>
<event>
 4    1  0.1253776E+000  0.1908694E+03  0.7818608E-02  0.1157679E+00
         21   -1    0    0  503  502  0.00000000000E+00  0.00000000000E+00  0.58482229038E+03  0.58482229038E+03  0.00000000000E+00 0.  1.
         21   -1    0    0  501  503 -0.00000000000E+00 -0.00000000000E+00 -0.10143760630E+03  0.10143760630E+03  0.00000000000E+00 0.  1.
          6    1    1    2  501    0  0.26573726873E+01  0.82704804018E+02  0.28541330610E+02  0.19299158995E+03  0.17200000000E+03 0.  1.
         -6    1    1    2    0  502 -0.26573726873E+01 -0.82704804018E+02  0.45484335346E+03  0.49326830673E+03  0.17200000000E+03 0.  1.
</event>
<event>
 4    1  0.1253776E+000  0.1733344E+03  0.7818608E-02  0.1174415E+00
         21   -1    0    0  501  502  0.00000000000E+00  0.00000000000E+00  0.40465148072E+03  0.40465148072E+03  0.00000000000E+00 0.  1.
         21   -1    0    0  502  503 -0.00000000000E+00 -0.00000000000E+00 -0.74483364190E+02  0.74483364190E+02  0.00000000000E+00 0.  1.
          6    1    1    2  501    0 -0.10386504685E+01 -0.21441426687E+02  0.17853326209E+03  0.24883516481E+03  0.17200000000E+03 0. -1.
         -6    1    1    2    0  503  0.10386504685E+01  0.21441426687E+02  0.15163485444E+03  0.23029968010E+03  0.17200000000E+03 0. -1.
</event>
<event>
 4    1  0.1253776E+000  0.2257641E+03  0.7818608E-02  0.1129657E+00
         21   -1    0    0  501  502  0.00000000000E+00  0.00000000000E+00  0.25603102900E+03  0.25603102900E+03  0.00000000000E+00 0. -1.
         21   -1    0    0  502  503 -0.00000000000E+00 -0.00000000000E+00 -0.23984396736E+03  0.23984396736E+03  0.00000000000E+00 0.  1.
          6    1    1    2  501    0 -0.12875641049E+03 -0.69334064038E+02  0.11031489206E+03  0.25127435422E+03  0.17200000000E+03 0. -1.
         -6    1    1    2    0  503  0.12875641049E+03  0.69334064038E+02 -0.94127830419E+02  0.24460064214E+03  0.17200000000E+03 0.  1.
</event>
<event>
 4    1  0.1253776E+000  0.1793320E+03  0.7818608E-02  0.1168451E+00
         21   -1    0    0  501  502  0.00000000000E+00  0.00000000000E+00  0.48452354856E+02  0.48452354856E+02  0.00000000000E+00 0. -1.
         21   -1    0    0  502  503 -0.00000000000E+00 -0.00000000000E+00 -0.71302677435E+03  0.71302677435E+03  0.00000000000E+00 0. -1.
          6    1    1    2  501    0  0.32703397250E+02 -0.38812964788E+02 -0.23218981115E+03  0.29338041317E+03  0.17200000000E+03 0. -1.
         -6    1    1    2    0  503 -0.32703397250E+02  0.38812964788E+02 -0.43238460834E+03  0.46809871604E+03  0.17200000000E+03 0. -1.
</event>
<event>
 4    1  0.1253776E+000  0.2017967E+03  0.7818608E-02  0.1148232E+00
         21   -1    0    0  503  502  0.00000000000E+00  0.00000000000E+00  0.24494746334E+03  0.24494746334E+03  0.00000000000E+00 0.  1.
         21   -1    0    0  501  503 -0.00000000000E+00 -0.00000000000E+00 -0.20538281370E+03  0.20538281370E+03  0.00000000000E+00 0.  1.
          6    1    1    2  501    0  0.96762438274E+02  0.42130172181E+02 -0.78506267642E+02  0.21652980148E+03  0.17200000000E+03 0.  1.
         -6    1    1    2    0  502 -0.96762438274E+02 -0.42130172181E+02  0.11807091728E+03  0.23380047557E+03  0.17200000000E+03 0.  1.
</event>
<event>
 4    1  0.1253776E+000  0.2366732E+03  0.7818608E-02  0.1122029E+00
         21   -1    0    0  503  502  0.00000000000E+00  0.00000000000E+00  0.92365915139E+03  0.92365915139E+03  0.00000000000E+00 0.  1.
         21   -1    0    0  501  503 -0.00000000000E+00 -0.00000000000E+00 -0.63565919158E+02  0.63565919158E+02  0.00000000000E+00 0. -1.
          6    1    1    2  501    0  0.39656103102E+02 -0.15766284909E+03  0.32421276190E+03  0.40140764252E+03  0.17200000000E+03 0.  1.
         -6    1    1    2    0  502 -0.39656103102E+02  0.15766284909E+03  0.53588047034E+03  0.58581742803E+03  0.17200000000E+03 0. -1.
</event>
<event>
 4    1  0.1253776E+000  0.1814871E+03  0.7818608E-02  0.1166372E+00
         21   -1    0    0  501  502  0.00000000000E+00  0.00000000000E+00  0.32491247958E+03  0.32491247958E+03  0.00000000000E+00 0. -1.
         21   -1    0    0  502  503 -0.00000000000E+00 -0.00000000000E+00 -0.10336842579E+03  0.10336842579E+03  0.00000000000E+00 0. -1.
          6    1    1    2  501    0 -0.43369347521E+02 -0.38375460889E+02  0.81024718042E+02  0.19875256284E+03  0.17200000000E+03 0. -1.
         -6    1    1    2    0  503  0.43369347521E+02  0.38375460889E+02  0.14051933575E+03  0.22952834252E+03  0.17200000000E+03 0. -1.
</event>
<event>
 4    1  0.1253776E+000  0.2430687E+03  0.7818608E-02  0.1117765E+00
         21   -1    0    0  503  502  0.00000000000E+00  0.00000000000E+00  0.13552791170E+03  0.13552791170E+03  0.00000000000E+00 0. -1.
         21   -1    0    0  501  503 -0.00000000000E+00 -0.00000000000E+00 -0.93604078989E+03  0.93604078989E+03  0.00000000000E+00 0. -1.
          6    1    1    2  501    0  0.14334451525E+03 -0.94608323935E+02 -0.79188133756E+03  0.82834681009E+03  0.17200000000E+03 0. -1.
         -6    1    1    2    0  502 -0.14334451525E+03  0.94608323935E+02 -0.86315406256E+01  0.24322189149E+03  0.17200000000E+03 0. -1.
</event>
<event>
 4    1  0.1253776E+000  0.2045694E+03  0.7818608E-02  0.1145940E+00
         21   -1    0    0  501  502  0.00000000000E+00  0.00000000000E+00  0.57382190666E+03  0.57382190666E+03  0.00000000000E+00 0.  1.
         21   -1    0    0  502  503 -0.00000000000E+00 -0.00000000000E+00 -0.78518946136E+02  0.78518946136E+02  0.00000000000E+00 0. -1.
          6    1    1    2  501    0 -0.10886211969E+03 -0.20338862135E+02  0.33467485830E+03  0.39224468282E+03  0.17200000000E+03 0.  1.
         -6    1    1    2    0  503  0.10886211969E+03  0.20338862135E+02  0.16062810221E+03  0.26009616998E+03  0.17200000000E+03 0.  1.
</event>
<event>
 4    1  0.1253776E+000  0.2048263E+03  0.7818608E-02  0.1145730E+00
         21   -1    0    0  503  502  0.00000000000E+00  0.00000000000E+00  0.59689443343E+03  0.59689443343E+03  0.00000000000E+00 0. -1.
         21   -1    0    0  501  503 -0.00000000000E+00 -0.00000000000E+00 -0.82074442591E+02  0.82074442591E+02  0.00000000000E+00 0. -1.
          6    1    1    2  501    0  0.64070411388E+01 -0.11103498834E+03  0.12875436751E+03  0.24193285425E+03  0.17200000000E+03 0. -1.
         -6    1    1    2    0  502 -0.64070411388E+01  0.11103498834E+03  0.38606562333E+03  0.43703602177E+03  0.17200000000E+03 0. -1.
</event>
<event>
 4    1  0.1253776E+000  0.1768835E+03  0.7818608E-02  0.1170854E+00
         21   -1    0    0  503  502  0.00000000000E+00  0.00000000000E+00  0.16701994264E+03  0.16701994264E+03  0.00000000000E+00 0. -1.
         21   -1    0    0  501  503 -0.00000000000E+00 -0.00000000000E+00 -0.36016581145E+03  0.36016581145E+03  0.00000000000E+00 0. -1.
          6    1    1    2  501    0 -0.40571553144E+02  0.75967028240E+01 -0.27917258150E+03  0.33049219519E+03  0.17200000000E+03 0. -1.
         -6    1    1    2    0  502  0.40571553144E+02 -0.75967028240E+01  0.86026712685E+02  0.19669355890E+03  0.17200000000E+03 0. -1.
</event>
<event>
 4    1  0.1253776E+000  0.2948868E+03  0.7818608E-02  0.1087825E+00
         21   -1    0    0  503  502  0.00000000000E+00  0.00000000000E+00  0.16441562931E+04  0.16441562931E+04  0.00000000000E+00 0. -1.
         21   -1    0    0  501  503 -0.00000000000E+00 -0.00000000000E+00 -0.55070902690E+02  0.55070902690E+02  0.00000000000E+00 0. -1.
          6    1    1    2  501    0 -0.10399528309E+03 -0.21577587767E+03  0.62544027223E+03  0.69147218484E+03  0.17200000000E+03 0. -1.
         -6    1    1    2    0  502  0.10399528309E+03  0.21577587767E+03  0.96364511818E+03  0.10077550109E+04  0.17200000000E+03 0. -1.
</event>
<event>
 4    1  0.1253776E+000  0.1733689E+03  0.7818608E-02  0.1174379E+00
         21   -1    0    0  501  502  0.00000000000E+00  0.00000000000E+00  0.33288152382E+03  0.33288152382E+03  0.00000000000E+00 0.  1.
         21   -1    0    0  502  503 -0.00000000000E+00 -0.00000000000E+00 -0.96453517838E+02  0.96453517838E+02  0.00000000000E+00 0.  1.
          6    1    1    2  501    0  0.87544958993E+01 -0.19903483095E+02  0.17246710241E+03  0.24454384321E+03  0.17200000000E+03 0.  1.
         -6    1    1    2    0  503 -0.87544958993E+01  0.19903483095E+02  0.63960903569E+02  0.18479119845E+03  0.17200000000E+03 0.  1.
</event>
<event>
 4    1  0.1253776E+000  0.1836589E+03  0.7818608E-02  0.1164308E+00
         21   -1    0    0  501  502  0.00000000000E+00  0.00000000000E+00  0.75267960774E+03  0.75267960774E+03  0.00000000000E+00 0. -1.
         21   -1    0    0  502  503 -0.00000000000E+00 -0.00000000000E+00 -0.54553171961E+02  0.54553171961E+02  0.00000000000E+00 0. -1.
          6    1    1    2  501    0 -0.48579541192E+02  0.42268271260E+02  0.51960074679E+03  0.55110390549E+03  0.17200000000E+03 0.  1.
         -6    1    1    2    0  503  0.48579541192E+02 -0.42268271260E+02  0.17852568899E+03  0.25612887422E+03  0.17200000000E+03 0.  1.
</event>
<event>
 4    1  0.1253776E+000  0.1758952E+03  0.7818608E-02  0.1171836E+00
         21   -1    0    0  501  502  0.00000000000E+00  0.00000000000E+00  0.14718023125E+03  0.14718023125E+03  0.00000000000E+00 0.  1.
         21   -1    0    0  502  503 -0.00000000000E+00 -0.00000000000E+00 -0.21345035729E+03  0.21345035729E+03  0.00000000000E+00 0.  1.
          6    1    1    2  501    0  0.36803290221E+02  0.80629408631E+00 -0.10927067334E+02  0.17623431301E+03  0.17200000000E+03 0.  1.
         -6    1    1    2    0  503 -0.36803290221E+02 -0.80629408631E+00 -0.55343058703E+02  0.18439627553E+03  0.17200000000E+03 0.  1.
</event>
<event>
 4    1  0.1253776E+000  0.2001084E+03  0.7818608E-02  0.1149648E+00
         21   -1    0    0  503  502  0.00000000000E+00  0.00000000000E+00  0.47529309623E+03  0.47529309623E+03  0.00000000000E+00 0.  1.
         21   -1    0    0  501  503 -0.00000000000E+00 -0.00000000000E+00 -0.86531557708E+02  0.86531557708E+02  0.00000000000E+00 0.  1.
          6    1    1    2  501    0  0.83844878719E+02  0.58561043306E+02  0.14876488892E+03  0.24934785272E+03  0.17200000000E+03 0. -1.
         -6    1    1    2    0  502 -0.83844878719E+02 -0.58561043306E+02  0.23999664960E+03  0.31247680122E+03  0.17200000000E+03 0. -1.
</event>
<event>
 4    1  0.1253776E+000  0.1846975E+03  0.7818608E-02  0.1163333E+00
         21   -1    0    0  503  502  0.00000000000E+00  0.00000000000E+00  0.57496825760E+02  0.57496825760E+02  0.00000000000E+00 0.  1.
         21   -1    0    0  501  503 -0.00000000000E+00 -0.00000000000E+00 -0.85880505211E+03  0.85880505211E+03  0.00000000000E+00 0.  1.
          6    1    1    2  501    0 -0.65327202633E+02  0.16171654667E+02 -0.65539193196E+03  0.68091978257E+03  0.17200000000E+03 0.  1.
         -6    1    1    2    0  502  0.65327202633E+02 -0.16171654667E+02 -0.14591629439E+03  0.23538209530E+03  0.17200000000E+03 0.  1.
</event>
<event>
 4    1  0.1253776E+000  0.2317483E+03  0.7818608E-02  0.1125415E+00
         21   -1    0    0  501  502  0.00000000000E+00  0.00000000000E+00  0.41394389385E+03  0.41394389385E+03  0.00000000000E+00 0.  1.
         21   -1    0    0  502  503 -0.00000000000E+00 -0.00000000000E+00 -0.54431886211E+03  0.54431886211E+03  0.00000000000E+00 0.  1.
          6    1    1    2  501    0  0.69907247934E+02  0.13869489614E+03  0.35295923549E+03  0.42224106793E+03  0.17200000000E+03 0.  1.
         -6    1    1    2    0  503 -0.69907247934E+02 -0.13869489614E+03 -0.48333420375E+03  0.53602168803E+03  0.17200000000E+03 0.  1.
</event>
<event>
 4    1  0.1253776E+000  0.2318163E+03  0.7818608E-02  0.1125368E+00
         21   -1    0    0  503  502  0.00000000000E+00  0.00000000000E+00  0.10788322085E+04  0.10788322085E+04  0.00000000000E+00 0.  1.
         21   -1    0    0  501  503 -0.00000000000E+00 -0.00000000000E+00 -0.61296159260E+02  0.61296159260E+02  0.00000000000E+00 0. -1.
          6    1    1    2  501    0  0.11556918979E+03 -0.10391621073E+03  0.26201853502E+03  0.34984643656E+03  0.17200000000E+03 0.  1.
         -6    1    1    2    0  502 -0.11556918979E+03  0.10391621073E+03  0.75551751418E+03  0.79028193116E+03  0.17200000000E+03 0.  1.
</event>
<event>
 4    1  0.1253776E+000  0.2016583E+03  0.7818608E-02  0.1148347E+00
         21   -1    0    0  503  502  0.00000000000E+00  0.00000000000E+00  0.73338057639E+03  0.73338057639E+03  0.00000000000E+00 0. -1.
         21   -1    0    0  501  503 -0.00000000000E+00 -0.00000000000E+00 -0.57133590320E+02  0.57133590320E+02  0.00000000000E+00 0. -1.
          6    1    1    2  501    0 -0.10506393731E+03  0.66058449178E+01  0.27027630365E+03  0.33721706426E+03  0.17200000000E+03 0. -1.
         -6    1    1    2    0  502  0.10506393731E+03 -0.66058449178E+01  0.40597068242E+03  0.45329710246E+03  0.17200000000E+03 0. -1.
</event>
<event>
 4    1  0.1253776E+000  0.2710812E+03  0.7818608E-02  0.1100662E+00
         21   -1    0    0  503  502  0.00000000000E+00  0.00000000000E+00  0.19788044720E+03  0.19788044720E+03  0.00000000000E+00 0. -1.
         21   -1    0    0  501  503 -0.00000000000E+00 -0.00000000000E+00 -0.47733580436E+03  0.47733580436E+03  0.00000000000E+00 0. -1.
          6    1    1    2  501    0 -0.12775798445E+03  0.16606905956E+03 -0.29880294870E+03  0.40344545763E+03  0.17200000000E+03 0. -1.
         -6    1    1    2    0  502  0.12775798445E+03 -0.16606905956E+03  0.19347591531E+02  0.27177079393E+03  0.17200000000E+03 0. -1.
</event>
<event>
 4    1  0.1253776E+000  0.1867410E+03  0.7818608E-02  0.1161434E+00
         21   -1    0    0  501  502  0.00000000000E+00  0.00000000000E+00  0.16096346399E+02  0.16096346399E+02  0.00000000000E+00 0.  1.
         21   -1    0    0  502  503 -0.00000000000E+00 -0.00000000000E+00 -0.23846490735E+04  0.23846490735E+04  0.00000000000E+00 0.  1.
          6    1    1    2  501    0  0.39629564958E+02  0.60972807897E+02 -0.82118619151E+03  0.84215138001E+03  0.17200000000E+03 0.  1.
         -6    1    1    2    0  503 -0.39629564958E+02 -0.60972807897E+02 -0.15473665356E+04  0.15585940399E+04  0.17200000000E+03 0.  1.
</event>
<event>
 4    1  0.1253776E+000  0.1775310E+03  0.7818608E-02  0.1170214E+00
         21   -1    0    0  501  502  0.00000000000E+00  0.00000000000E+00  0.71148329192E+02  0.71148329192E+02  0.00000000000E+00 0. -1.
         21   -1    0    0  502  503 -0.00000000000E+00 -0.00000000000E+00 -0.44880821209E+03  0.44880821209E+03  0.00000000000E+00 0. -1.
          6    1    1    2  501    0  0.10611734086E+02  0.42668971713E+02 -0.15920253698E+03  0.23845900660E+03  0.17200000000E+03 0.  1.
         -6    1    1    2    0  503 -0.10611734086E+02 -0.42668971713E+02 -0.21845734592E+03  0.28149753468E+03  0.17200000000E+03 0.  1.
</event>
<event>
 4    1  0.1253776E+000  0.1728873E+03  0.7818608E-02  0.1174870E+00
         21   -1    0    0  501  502  0.00000000000E+00  0.00000000000E+00  0.32032033771E+03  0.32032033771E+03  0.00000000000E+00 0. -1.
         21   -1    0    0  502  503 -0.00000000000E+00 -0.00000000000E+00 -0.17447937795E+03  0.17447937795E+03  0.00000000000E+00 0. -1.
          6    1    1    2  501    0  0.18457885880E+01 -0.17395355200E+02  0.24165963247E+03  0.29713529458E+03  0.17200000000E+03 0. -1.
         -6    1    1    2    0  503 -0.18457885880E+01  0.17395355200E+02 -0.95818672710E+02  0.19766442107E+03  0.17200000000E+03 0. -1.
</event>
<event>
 4    1  0.1253776E+000  0.2685367E+03  0.7818608E-02  0.1102120E+00
         21   -1    0    0  503  502  0.00000000000E+00  0.00000000000E+00  0.12837809266E+03  0.12837809266E+03  0.00000000000E+00 0.  1.
         21   -1    0    0  501  503 -0.00000000000E+00 -0.00000000000E+00 -0.80374969056E+03  0.80374969056E+03  0.00000000000E+00 0.  1.
          6    1    1    2  501    0 -0.20329149884E+03  0.34648704500E+02 -0.59344036495E+03  0.65137042685E+03  0.17200000000E+03 0. -1.
         -6    1    1    2    0  502  0.20329149884E+03 -0.34648704500E+02 -0.81931232958E+02  0.28075735637E+03  0.17200000000E+03 0. -1.
</event>
<event>
 4    1  0.1253776E+000  0.1769400E+03  0.7818608E-02  0.1170798E+00
         21   -1    0    0  501  502  0.00000000000E+00  0.00000000000E+00  0.13723017635E+04  0.13723017635E+04  0.00000000000E+00 0.  1.
         21   -1    0    0  502  503 -0.00000000000E+00 -0.00000000000E+00 -0.24725956025E+02  0.24725956025E+02  0.00000000000E+00 0.  1.
          6    1    1    2  501    0 -0.16720483984E+02  0.38002524482E+02  0.86802461007E+03  0.88587498562E+03  0.17200000000E+03 0.  1.
         -6    1    1    2    0  503  0.16720483984E+02 -0.38002524482E+02  0.47955119740E+03  0.51115273391E+03  0.17200000000E+03 0.  1.
</event>
<event>
 4    1  0.1253776E+000  0.1908165E+03  0.7818608E-02  0.1157727E+00
         21   -1    0    0  503  502  0.00000000000E+00  0.00000000000E+00  0.14047548005E+03  0.14047548005E+03  0.00000000000E+00 0. -1.
         21   -1    0    0  501  503 -0.00000000000E+00 -0.00000000000E+00 -0.28811243004E+03  0.28811243004E+03  0.00000000000E+00 0. -1.
          6    1    1    2  501    0 -0.45322595515E+02 -0.69085561083E+02 -0.14170550859E+03  0.23767920308E+03  0.17200000000E+03 0. -1.
         -6    1    1    2    0  502  0.45322595515E+02  0.69085561083E+02 -0.59314413955E+01  0.19090870701E+03  0.17200000000E+03 0. -1.
</event>
<event>
 4    1  0.1253776E+000  0.2946478E+03  0.7818608E-02  0.1087947E+00
         21   -1    0    0  501  502  0.00000000000E+00  0.00000000000E+00  0.12633123302E+03  0.12633123302E+03  0.00000000000E+00 0.  1.
         21   -1    0    0  502  503 -0.00000000000E+00 -0.00000000000E+00 -0.13789054217E+04  0.13789054217E+04  0.00000000000E+00 0.  1.
          6    1    1    2  501    0 -0.17131030180E+03  0.16699141403E+03 -0.11593296183E+04  0.11961866559E+04  0.17200000000E+03 0.  1.
         -6    1    1    2    0  503  0.17131030180E+03 -0.16699141403E+03 -0.93244570340E+02  0.30904999880E+03  0.17200000000E+03 0.  1.
</event>
<event>
 4    1  0.1253776E+000  0.1807410E+03  0.7818608E-02  0.1167088E+00
         21   -1    0    0  503  502  0.00000000000E+00  0.00000000000E+00  0.11987365297E+03  0.11987365297E+03  0.00000000000E+00 0. -1.
         21   -1    0    0  501  503 -0.00000000000E+00 -0.00000000000E+00 -0.33759479758E+03  0.33759479758E+03  0.00000000000E+00 0. -1.
          6    1    1    2  501    0 -0.29632420163E+02  0.46959828521E+02 -0.20928933737E+03  0.27653088897E+03  0.17200000000E+03 0. -1.
         -6    1    1    2    0  502  0.29632420163E+02 -0.46959828521E+02 -0.84318072424E+01  0.18093756159E+03  0.17200000000E+03 0. -1.
</event>
<event>
 4    1  0.1253776E+000  0.1896163E+03  0.7818608E-02  0.1158808E+00
         21   -1    0    0  503  502  0.00000000000E+00  0.00000000000E+00  0.39849600123E+02  0.39849600123E+02  0.00000000000E+00 0.  1.
         21   -1    0    0  501  503 -0.00000000000E+00 -0.00000000000E+00 -0.96612657463E+03  0.96612657463E+03  0.00000000000E+00 0.  1.
          6    1    1    2  501    0  0.76547693582E+02  0.22600915087E+02 -0.33380609491E+03  0.38390214868E+03  0.17200000000E+03 0. -1.
         -6    1    1    2    0  502 -0.76547693582E+02 -0.22600915087E+02 -0.59247087959E+03  0.62207402608E+03  0.17200000000E+03 0. -1.
</event>
<event>
 4    1  0.1253776E+000  0.1749429E+03  0.7818608E-02  0.1172789E+00
         21   -1    0    0  501  502  0.00000000000E+00  0.00000000000E+00  0.59629156844E+02  0.59629156844E+02  0.00000000000E+00 0.  1.
         21   -1    0    0  502  503 -0.00000000000E+00 -0.00000000000E+00 -0.52633553309E+03  0.52633553309E+03  0.00000000000E+00 0.  1.
          6    1    1    2  501    0 -0.29946235388E+02 -0.11146138574E+02 -0.27953901904E+03  0.32976821646E+03  0.17200000000E+03 0.  1.
         -6    1    1    2    0  503  0.29946235388E+02  0.11146138574E+02 -0.18716735721E+03  0.25619647348E+03  0.17200000000E+03 0.  1.
</event>
<event>
 4    1  0.1253776E+000  0.1807997E+03  0.7818608E-02  0.1167031E+00
         21   -1    0    0  501  502  0.00000000000E+00  0.00000000000E+00  0.72638776113E+03  0.72638776113E+03  0.00000000000E+00 0.  1.
         21   -1    0    0  502  503 -0.00000000000E+00 -0.00000000000E+00 -0.48203699451E+02  0.48203699451E+02  0.00000000000E+00 0.  1.
          6    1    1    2  501    0  0.44550645278E+02 -0.33462800362E+02  0.43891455898E+03  0.47469412160E+03  0.17200000000E+03 0.  1.
         -6    1    1    2    0  503 -0.44550645278E+02  0.33462800362E+02  0.23926950270E+03  0.29989733898E+03  0.17200000000E+03 0.  1.
</event>
<event>
 4    1  0.1253776E+000  0.2021936E+03  0.7818608E-02  0.1147901E+00
         21   -1    0    0  503  502  0.00000000000E+00  0.00000000000E+00  0.92105198725E+03  0.92105198725E+03  0.00000000000E+00 0.  1.
         21   -1    0    0  501  503 -0.00000000000E+00 -0.00000000000E+00 -0.46708533496E+02  0.46708533496E+02  0.00000000000E+00 0. -1.
          6    1    1    2  501    0  0.11279392107E+02 -0.10569307077E+03  0.54506055614E+03  0.58135467638E+03  0.17200000000E+03 0.  1.
         -6    1    1    2    0  502 -0.11279392107E+02  0.10569307077E+03  0.32928289761E+03  0.38640584436E+03  0.17200000000E+03 0.  1.
</event>
<event>
 4    1  0.1253776E+000  0.2818818E+03  0.7818608E-02  0.1094666E+00
         21   -1    0    0  503  502  0.00000000000E+00  0.00000000000E+00  0.51215515560E+03  0.51215515560E+03  0.00000000000E+00 0. -1.
         21   -1    0    0  501  503 -0.00000000000E+00 -0.00000000000E+00 -0.16227658169E+03  0.16227658169E+03  0.00000000000E+00 0.  1.
          6    1    1    2  501    0  0.17831293502E+03 -0.13445398220E+03  0.24564078539E+03  0.37389406464E+03  0.17200000000E+03 0. -1.
         -6    1    1    2    0  502 -0.17831293502E+03  0.13445398220E+03  0.10423778852E+03  0.30053767265E+03  0.17200000000E+03 0.  1.
</event>
<event>
 4    1  0.1253776E+000  0.2656192E+03  0.7818608E-02  0.1103813E+00
         21   -1    0    0  503  502  0.00000000000E+00  0.00000000000E+00  0.21616342046E+03  0.21616342046E+03  0.00000000000E+00 0.  1.
         21   -1    0    0  501  503 -0.00000000000E+00 -0.00000000000E+00 -0.54474369934E+03  0.54474369934E+03  0.00000000000E+00 0. -1.
          6    1    1    2  501    0  0.15833334873E+03 -0.12609570408E+03 -0.40516187099E+03  0.48446848980E+03  0.17200000000E+03 0. -1.
         -6    1    1    2    0  502 -0.15833334873E+03  0.12609570408E+03  0.76581592111E+02  0.27643863000E+03  0.17200000000E+03 0.  1.
</event>
<event>
 4    1  0.1253776E+000  0.2299389E+03  0.7818608E-02  0.1126683E+00
         21   -1    0    0  501  502  0.00000000000E+00  0.00000000000E+00  0.13582103839E+03  0.13582103839E+03  0.00000000000E+00 0. -1.
         21   -1    0    0  502  503 -0.00000000000E+00 -0.00000000000E+00 -0.69814223207E+03  0.69814223207E+03  0.00000000000E+00 0. -1.
          6    1    1    2  501    0  0.13699349009E+03 -0.67235850235E+02 -0.55851186783E+03  0.60399286618E+03  0.17200000000E+03 0. -1.
         -6    1    1    2    0  503 -0.13699349009E+03  0.67235850235E+02 -0.38093258544E+01  0.22997040428E+03  0.17200000000E+03 0. -1.
</event>
<event>
 4    1  0.1253776E+000  0.2053789E+03  0.7818608E-02  0.1145279E+00
         21   -1    0    0  503  502  0.00000000000E+00  0.00000000000E+00  0.14993084255E+03  0.14993084255E+03  0.00000000000E+00 0. -1.
         21   -1    0    0  501  503 -0.00000000000E+00 -0.00000000000E+00 -0.10040005051E+04  0.10040005051E+04  0.00000000000E+00 0.  1.
          6    1    1    2  501    0 -0.79000934703E+02  0.79720496665E+02 -0.91653432907E+03  0.93926337182E+03  0.17200000000E+03 0.  1.
         -6    1    1    2    0  502  0.79000934703E+02 -0.79720496665E+02  0.62464666540E+02  0.21466797581E+03  0.17200000000E+03 0. -1.
</event>
<event>
 4    1  0.1253776E+000  0.1809564E+03  0.7818608E-02  0.1166881E+00
         21   -1    0    0  501  502  0.00000000000E+00  0.00000000000E+00  0.40210006508E+02  0.40210006508E+02  0.00000000000E+00 0. -1.
         21   -1    0    0  502  503 -0.00000000000E+00 -0.00000000000E+00 -0.10470286876E+04  0.10470286876E+04  0.00000000000E+00 0. -1.
          6    1    1    2  501    0  0.75610701586E+01  0.55713929559E+02 -0.24714425583E+03  0.30630947573E+03  0.17200000000E+03 0. -1.
         -6    1    1    2    0  503 -0.75610701586E+01 -0.55713929559E+02 -0.75967442525E+03  0.78092921838E+03  0.17200000000E+03 0. -1.
</event>
<event>
 4    1  0.1253776E+000  0.2623097E+03  0.7818608E-02  0.1105763E+00
         21   -1    0    0  503  502  0.00000000000E+00  0.00000000000E+00  0.31778919794E+03  0.31778919794E+03  0.00000000000E+00 0. -1.
         21   -1    0    0  501  503 -0.00000000000E+00 -0.00000000000E+00 -0.37978907746E+03  0.37978907746E+03  0.00000000000E+00 0.  1.
          6    1    1    2  501    0 -0.16447471845E+03  0.11031982240E+03 -0.25969101351E+03  0.36911491263E+03  0.17200000000E+03 0.  1.
         -6    1    1    2    0  502  0.16447471845E+03 -0.11031982240E+03  0.19769113400E+03  0.32846336277E+03  0.17200000000E+03 0. -1.
</event>
<event>
 4    1  0.1253776E+000  0.2008101E+03  0.7818608E-02  0.1149057E+00
         21   -1    0    0  503  502  0.00000000000E+00  0.00000000000E+00  0.94513683656E+02  0.94513683656E+02  0.00000000000E+00 0. -1.
         21   -1    0    0  501  503 -0.00000000000E+00 -0.00000000000E+00 -0.46193010001E+03  0.46193010001E+03  0.00000000000E+00 0. -1.
          6    1    1    2  501    0 -0.10313406847E+03 -0.10200045946E+02 -0.26059311940E+03  0.32898852699E+03  0.17200000000E+03 0. -1.
         -6    1    1    2    0  502  0.10313406847E+03  0.10200045946E+02 -0.10682329696E+03  0.22745525668E+03  0.17200000000E+03 0. -1.
</event>
<event>
 4    1  0.1253776E+000  0.1838048E+03  0.7818608E-02  0.1164171E+00
         21   -1    0    0  501  502  0.00000000000E+00  0.00000000000E+00  0.36478018692E+02  0.36478018692E+02  0.00000000000E+00 0.  1.
         21   -1    0    0  502  503 -0.00000000000E+00 -0.00000000000E+00 -0.15203833202E+04  0.15203833202E+04  0.00000000000E+00 0.  1.
          6    1    1    2  501    0  0.21957957839E+02 -0.60975744556E+02 -0.12286075790E+04  0.12422804741E+04  0.17200000000E+03 0.  1.
         -6    1    1    2    0  503 -0.21957957839E+02  0.60975744556E+02 -0.25529772258E+03  0.31458086479E+03  0.17200000000E+03 0.  1.
</event>
<event>
 4    1  0.1253776E+000  0.4979579E+03  0.7818608E-02  0.1014313E+00
         21   -1    0    0  501  502  0.00000000000E+00  0.00000000000E+00  0.85506518532E+03  0.85506518532E+03  0.00000000000E+00 0. -1.
         21   -1    0    0  502  503 -0.00000000000E+00 -0.00000000000E+00 -0.33522657999E+03  0.33522657999E+03  0.00000000000E+00 0.  1.
          6    1    1    2  501    0  0.39772474877E+03 -0.24534276861E+03  0.41299465688E+02  0.49966758527E+03  0.17200000000E+03 0.  1.
         -6    1    1    2    0  503 -0.39772474877E+03  0.24534276861E+03  0.47853913964E+03  0.69062418005E+03  0.17200000000E+03 0. -1.
</event>
<event>
 4    1  0.1253776E+000  0.1860066E+03  0.7818608E-02  0.1162113E+00
         21   -1    0    0  503  502  0.00000000000E+00  0.00000000000E+00  0.91132207189E+03  0.91132207189E+03  0.00000000000E+00 0. -1.
         21   -1    0    0  501  503 -0.00000000000E+00 -0.00000000000E+00 -0.41223852422E+02  0.41223852422E+02  0.00000000000E+00 0.  1.
          6    1    1    2  501    0  0.55749725402E+02 -0.43662750824E+02  0.56895658760E+03  0.59859006529E+03  0.17200000000E+03 0.  1.
         -6    1    1    2    0  502 -0.55749725402E+02  0.43662750824E+02  0.30114163187E+03  0.35395585902E+03  0.17200000000E+03 0.  1.
</event>
<event>
 4    1  0.1253776E+000  0.1974225E+03  0.7818608E-02  0.1151932E+00
         21   -1    0    0  503  502  0.00000000000E+00  0.00000000000E+00  0.26527164915E+03  0.26527164915E+03  0.00000000000E+00 0. -1.
         21   -1    0    0  501  503 -0.00000000000E+00 -0.00000000000E+00 -0.15251707380E+03  0.15251707380E+03  0.00000000000E+00 0. -1.
          6    1    1    2  501    0  0.41213855605E+01 -0.96822764947E+02  0.16385889728E+02  0.19810131502E+03  0.17200000000E+03 0.  1.
         -6    1    1    2    0  502 -0.41213855605E+01  0.96822764947E+02  0.96368685623E+02  0.21968740792E+03  0.17200000000E+03 0.  1.
</event>
<event>
 4    1  0.1253776E+000  0.3035293E+03  0.7818608E-02  0.1083490E+00
         21   -1    0    0  503  502  0.00000000000E+00  0.00000000000E+00  0.23027927642E+03  0.23027927642E+03  0.00000000000E+00 0.  1.
         21   -1    0    0  501  503 -0.00000000000E+00 -0.00000000000E+00 -0.46334503153E+03  0.46334503153E+03  0.00000000000E+00 0. -1.
          6    1    1    2  501    0 -0.20498569442E+03  0.14327202454E+03 -0.24468499336E+03  0.38987274066E+03  0.17200000000E+03 0.  1.
         -6    1    1    2    0  502  0.20498569442E+03 -0.14327202454E+03  0.11619238257E+02  0.30375156729E+03  0.17200000000E+03 0.  1.
</event>
<event>
 4    1  0.1253776E+000  0.1900028E+03  0.7818608E-02  0.1158459E+00
         21   -1    0    0  501  502  0.00000000000E+00  0.00000000000E+00  0.94763952284E+03  0.94763952284E+03  0.00000000000E+00 0. -1.
         21   -1    0    0  502  503 -0.00000000000E+00 -0.00000000000E+00 -0.41811886121E+02  0.41811886121E+02  0.00000000000E+00 0. -1.
          6    1    1    2  501    0 -0.70486676730E+02  0.39353331225E+02  0.60040270522E+03  0.62974952537E+03  0.17200000000E+03 0. -1.
         -6    1    1    2    0  503  0.70486676730E+02 -0.39353331225E+02  0.30542493151E+03  0.35970188359E+03  0.17200000000E+03 0. -1.
</event>
<event>
 4    1  0.1253776E+000  0.2689077E+03  0.7818608E-02  0.1101906E+00
         21   -1    0    0  503  502  0.00000000000E+00  0.00000000000E+00  0.24264771541E+03  0.24264771541E+03  0.00000000000E+00 0. -1.
         21   -1    0    0  501  503 -0.00000000000E+00 -0.00000000000E+00 -0.44531034377E+03  0.44531034377E+03  0.00000000000E+00 0. -1.
          6    1    1    2  501    0 -0.30009602621E+02  0.20451588788E+03 -0.29916634312E+03  0.40225840638E+03  0.17200000000E+03 0. -1.
         -6    1    1    2    0  502  0.30009602621E+02 -0.20451588788E+03  0.96503714768E+02  0.28569965280E+03  0.17200000000E+03 0. -1.
</event>
<event>
 4    1  0.1253776E+000  0.2012403E+03  0.7818608E-02  0.1148697E+00
         21   -1    0    0  503  502  0.00000000000E+00  0.00000000000E+00  0.38043282274E+03  0.38043282274E+03  0.00000000000E+00 0.  1.
         21   -1    0    0  501  503 -0.00000000000E+00 -0.00000000000E+00 -0.12141733144E+03  0.12141733144E+03  0.00000000000E+00 0. -1.
          6    1    1    2  501    0  0.69460774643E+02 -0.78031151177E+02  0.41412276694E+02  0.20545714013E+03  0.17200000000E+03 0. -1.
         -6    1    1    2    0  502 -0.69460774643E+02  0.78031151177E+02  0.21760321461E+03  0.29639301405E+03  0.17200000000E+03 0.  1.
</event>
<event>
 4    1  0.1253776E+000  0.1842308E+03  0.7818608E-02  0.1163770E+00
         21   -1    0    0  501  502  0.00000000000E+00  0.00000000000E+00  0.14771477319E+03  0.14771477319E+03  0.00000000000E+00 0.  1.
         21   -1    0    0  502  503 -0.00000000000E+00 -0.00000000000E+00 -0.25846950156E+03  0.25846950156E+03  0.00000000000E+00 0.  1.
          6    1    1    2  501    0  0.63803507094E+02  0.16914971923E+02  0.12292593605E+02  0.18464049299E+03  0.17200000000E+03 0.  1.
         -6    1    1    2    0  503 -0.63803507094E+02 -0.16914971923E+02 -0.12304732197E+03  0.22154378176E+03  0.17200000000E+03 0.  1.
</event>
<event>
 4    1  0.1253776E+000  0.1834985E+03  0.7818608E-02  0.1164459E+00
         21   -1    0    0  501  502  0.00000000000E+00  0.00000000000E+00  0.23995020656E+03  0.23995020656E+03  0.00000000000E+00 0.  1.
         21   -1    0    0  502  503 -0.00000000000E+00 -0.00000000000E+00 -0.14103143353E+03  0.14103143353E+03  0.00000000000E+00 0.  1.
          6    1    1    2  501    0  0.62715466358E+02  0.12428767601E+02  0.36004983970E+02  0.18699749425E+03  0.17200000000E+03 0.  1.
         -6    1    1    2    0  503 -0.62715466358E+02 -0.12428767601E+02  0.62913789052E+02  0.19398414584E+03  0.17200000000E+03 0.  1.
</event>
<event>
 4    1  0.1253776E+000  0.2354792E+03  0.7818608E-02  0.1122842E+00
         21   -1    0    0  503  502  0.00000000000E+00  0.00000000000E+00  0.41958451938E+03  0.41958451938E+03  0.00000000000E+00 0.  1.
         21   -1    0    0  501  503 -0.00000000000E+00 -0.00000000000E+00 -0.15322396651E+03  0.15322396651E+03  0.00000000000E+00 0.  1.
          6    1    1    2  501    0 -0.13485398562E+03  0.87640530259E+02  0.26978658066E+02  0.23701963626E+03  0.17200000000E+03 0.  1.
         -6    1    1    2    0  502  0.13485398562E+03 -0.87640530259E+02  0.23938189480E+03  0.33578884963E+03  0.17200000000E+03 0.  1.
</event>
<event>
 4    1  0.1253776E+000  0.2263896E+03  0.7818608E-02  0.1129207E+00
         21   -1    0    0  503  502  0.00000000000E+00  0.00000000000E+00  0.19037930813E+03  0.19037930813E+03  0.00000000000E+00 0.  1.
         21   -1    0    0  501  503 -0.00000000000E+00 -0.00000000000E+00 -0.33189361562E+03  0.33189361562E+03  0.00000000000E+00 0. -1.
          6    1    1    2  501    0 -0.12567894992E+03 -0.76635734186E+02 -0.18424283539E+03  0.29188637618E+03  0.17200000000E+03 0. -1.
         -6    1    1    2    0  502  0.12567894992E+03  0.76635734186E+02  0.42728527907E+02  0.23038654757E+03  0.17200000000E+03 0.  1.
</event>
<event>
 4    1  0.1253776E+000  0.3077924E+03  0.7818608E-02  0.1081409E+00
         21   -1    0    0  503  502  0.00000000000E+00  0.00000000000E+00  0.44566999115E+03  0.44566999115E+03  0.00000000000E+00 0. -1.
         21   -1    0    0  501  503 -0.00000000000E+00 -0.00000000000E+00 -0.21591918264E+03  0.21591918264E+03  0.00000000000E+00 0.  1.
          6    1    1    2  501    0  0.18533619516E+02  0.25457547469E+03  0.73678172571E+02  0.31648797841E+03  0.17200000000E+03 0. -1.
         -6    1    1    2    0  502 -0.18533619516E+02 -0.25457547469E+03  0.15607263594E+03  0.34510119538E+03  0.17200000000E+03 0.  1.
</event>
<event>
 4    1  0.1253776E+000  0.1754980E+03  0.7818608E-02  0.1172233E+00
         21   -1    0    0  503  502  0.00000000000E+00  0.00000000000E+00  0.52156676095E+02  0.52156676095E+02  0.00000000000E+00 0. -1.
         21   -1    0    0  501  503 -0.00000000000E+00 -0.00000000000E+00 -0.59079426742E+03  0.59079426742E+03  0.00000000000E+00 0. -1.
          6    1    1    2  501    0 -0.17551238868E+02  0.30125064707E+02 -0.26239349305E+03  0.31567374091E+03  0.17200000000E+03 0. -1.
         -6    1    1    2    0  502  0.17551238868E+02 -0.30125064707E+02 -0.27624409828E+03  0.32727720261E+03  0.17200000000E+03 0. -1.
</event>
<event>
 4    1  0.1253776E+000  0.2283013E+03  0.7818608E-02  0.1127841E+00
         21   -1    0    0  501  502  0.00000000000E+00  0.00000000000E+00  0.17561828403E+03  0.17561828403E+03  0.00000000000E+00 0.  1.
         21   -1    0    0  502  503 -0.00000000000E+00 -0.00000000000E+00 -0.29744121926E+03  0.29744121926E+03  0.00000000000E+00 0. -1.
          6    1    1    2  501    0  0.59192452988E+02 -0.13796276576E+03 -0.71992454993E+02  0.23938334278E+03  0.17200000000E+03 0.  1.
         -6    1    1    2    0  503 -0.59192452988E+02  0.13796276576E+03 -0.49830480246E+02  0.23367616051E+03  0.17200000000E+03 0. -1.
</event>
<event>
 4    1  0.1253776E+000  0.1861384E+03  0.7818608E-02  0.1161991E+00
         21   -1    0    0  501  502  0.00000000000E+00  0.00000000000E+00  0.85253611019E+03  0.85253611019E+03  0.00000000000E+00 0. -1.
         21   -1    0    0  502  503 -0.00000000000E+00 -0.00000000000E+00 -0.78256040778E+02  0.78256040778E+02  0.00000000000E+00 0. -1.
          6    1    1    2  501    0 -0.71115868694E+02 -0.24588361636E+01  0.70980165323E+03  0.73380235730E+03  0.17200000000E+03 0. -1.
         -6    1    1    2    0  503  0.71115868694E+02  0.24588361636E+01  0.64478416185E+02  0.19698979367E+03  0.17200000000E+03 0. -1.
</event>
<event>
 4    1  0.1253776E+000  0.1973039E+03  0.7818608E-02  0.1152034E+00
         21   -1    0    0  503  502  0.00000000000E+00  0.00000000000E+00  0.12835603620E+03  0.12835603620E+03  0.00000000000E+00 0.  1.
         21   -1    0    0  501  503 -0.00000000000E+00 -0.00000000000E+00 -0.30544627435E+03  0.30544627435E+03  0.00000000000E+00 0.  1.
          6    1    1    2  501    0  0.96195549339E+02 -0.95529592502E+01 -0.70312463013E+02  0.20945807504E+03  0.17200000000E+03 0.  1.
         -6    1    1    2    0  502 -0.96195549339E+02  0.95529592502E+01 -0.10677777514E+03  0.22434423551E+03  0.17200000000E+03 0.  1.
</event>
<event>
 4    1  0.1253776E+000  0.1988606E+03  0.7818608E-02  0.1150704E+00
         21   -1    0    0  503  502  0.00000000000E+00  0.00000000000E+00  0.72282032194E+03  0.72282032194E+03  0.00000000000E+00 0.  1.
         21   -1    0    0  501  503 -0.00000000000E+00 -0.00000000000E+00 -0.79332742748E+02  0.79332742748E+02  0.00000000000E+00 0.  1.
          6    1    1    2  501    0 -0.67012303408E+01  0.99582196850E+02  0.98299644536E+02  0.22182953035E+03  0.17200000000E+03 0.  1.
         -6    1    1    2    0  502  0.67012303408E+01 -0.99582196850E+02  0.54518793465E+03  0.58032353434E+03  0.17200000000E+03 0.  1.
</event>
<event>
 4    1  0.1253776E+000  0.2296209E+03  0.7818608E-02  0.1126907E+00
         21   -1    0    0  501  502  0.00000000000E+00  0.00000000000E+00  0.27070672210E+03  0.27070672210E+03  0.00000000000E+00 0. -1.
         21   -1    0    0  502  503 -0.00000000000E+00 -0.00000000000E+00 -0.38087202908E+03  0.38087202908E+03  0.00000000000E+00 0. -1.
          6    1    1    2  501    0 -0.61434332752E+02  0.13916748205E+03  0.17264826416E+03  0.28728590014E+03  0.17200000000E+03 0. -1.
         -6    1    1    2    0  503  0.61434332752E+02 -0.13916748205E+03 -0.28281357114E+03  0.36429285105E+03  0.17200000000E+03 0. -1.
</event>
<event>
 4    1  0.1253776E+000  0.2257739E+03  0.7818608E-02  0.1129650E+00
         21   -1    0    0  501  502  0.00000000000E+00  0.00000000000E+00  0.87754395485E+02  0.87754395485E+02  0.00000000000E+00 0. -1.
         21   -1    0    0  502  503 -0.00000000000E+00 -0.00000000000E+00 -0.60016920515E+03  0.60016920515E+03  0.00000000000E+00 0. -1.
          6    1    1    2  501    0 -0.14625257205E+03 -0.20887782602E+00 -0.19452691046E+03  0.29801774671E+03  0.17200000000E+03 0. -1.
         -6    1    1    2    0  503  0.14625257205E+03  0.20887782602E+00 -0.31788789920E+03  0.38990585392E+03  0.17200000000E+03 0. -1.
</event>
<event>
 4    1  0.1253776E+000  0.1734563E+03  0.7818608E-02  0.1174291E+00
         21   -1    0    0  501  502  0.00000000000E+00  0.00000000000E+00  0.24053226405E+03  0.24053226405E+03  0.00000000000E+00 0. -1.
         21   -1    0    0  502  503 -0.00000000000E+00 -0.00000000000E+00 -0.14569718649E+03  0.14569718649E+03  0.00000000000E+00 0. -1.
          6    1    1    2  501    0  0.22077289671E+02 -0.39600919810E+01  0.12005271368E+03  0.21094962221E+03  0.17200000000E+03 0. -1.
         -6    1    1    2    0  503 -0.22077289671E+02  0.39600919810E+01 -0.25217636117E+02  0.17527982833E+03  0.17200000000E+03 0. -1.
</event>
<event>
 4    1  0.1253776E+000  0.1869832E+03  0.7818608E-02  0.1161211E+00
         21   -1    0    0  501  502  0.00000000000E+00  0.00000000000E+00  0.21693175709E+03  0.21693175709E+03  0.00000000000E+00 0. -1.
         21   -1    0    0  502  503 -0.00000000000E+00 -0.00000000000E+00 -0.16212948269E+03  0.16212948269E+03  0.00000000000E+00 0. -1.
          6    1    1    2  501    0  0.68569744142E+02  0.26017470833E+02  0.12814773344E+02  0.18742181574E+03  0.17200000000E+03 0. -1.
         -6    1    1    2    0  503 -0.68569744142E+02 -0.26017470833E+02  0.41987501061E+02  0.19163942404E+03  0.17200000000E+03 0. -1.
</event>
<event>
 4    1  0.1253776E+000  0.1814385E+03  0.7818608E-02  0.1166418E+00
         21   -1    0    0  503  502  0.00000000000E+00  0.00000000000E+00  0.24062814311E+03  0.24062814311E+03  0.00000000000E+00 0. -1.
         21   -1    0    0  501  503 -0.00000000000E+00 -0.00000000000E+00 -0.13683458320E+03  0.13683458320E+03  0.00000000000E+00 0. -1.
          6    1    1    2  501    0  0.42624178979E+02  0.38975756226E+02  0.49281719545E+02  0.18801228175E+03  0.17200000000E+03 0.  1.
         -6    1    1    2    0  502 -0.42624178979E+02 -0.38975756226E+02  0.54511840363E+02  0.18945044457E+03  0.17200000000E+03 0.  1.
</event>
<event>
 4    1  0.1253776E+000  0.2493070E+03  0.7818608E-02  0.1113744E+00
         21   -1    0    0  503  502  0.00000000000E+00  0.00000000000E+00  0.24361427319E+02  0.24361427319E+02  0.00000000000E+00 0.  1.
         21   -1    0    0  501  503 -0.00000000000E+00 -0.00000000000E+00 -0.25999778730E+04  0.25999778730E+04  0.00000000000E+00 0.  1.
          6    1    1    2  501    0  0.14443898518E+03 -0.10820063792E+03 -0.11083163607E+04  0.11360101909E+04  0.17200000000E+03 0. -1.
         -6    1    1    2    0  502 -0.14443898518E+03  0.10820063792E+03 -0.14673000850E+04  0.14883291094E+04  0.17200000000E+03 0. -1.
</event>
<event>
 4    1  0.1253776E+000  0.2095672E+03  0.7818608E-02  0.1141909E+00
         21   -1    0    0  501  502  0.00000000000E+00  0.00000000000E+00  0.15804945347E+03  0.15804945347E+03  0.00000000000E+00 0.  1.
         21   -1    0    0  502  503 -0.00000000000E+00 -0.00000000000E+00 -0.52758136793E+03  0.52758136793E+03  0.00000000000E+00 0.  1.
          6    1    1    2  501    0  0.42551739984E+02 -0.11190958672E+03  0.51079839852E+02  0.21570247151E+03  0.17200000000E+03 0.  1.
         -6    1    1    2    0  503 -0.42551739984E+02  0.11190958672E+03 -0.42061175431E+03  0.46992834990E+03  0.17200000000E+03 0.  1.
</event>
<event>
 4    1  0.1253776E+000  0.3262445E+03  0.7818608E-02  0.1072811E+00
         21   -1    0    0  503  502  0.00000000000E+00  0.00000000000E+00  0.28499517625E+03  0.28499517625E+03  0.00000000000E+00 0.  1.
         21   -1    0    0  501  503 -0.00000000000E+00 -0.00000000000E+00 -0.45140913017E+03  0.45140913017E+03  0.00000000000E+00 0. -1.
          6    1    1    2  501    0  0.18752713868E+03 -0.20416922762E+03 -0.23620824650E+03  0.40277765202E+03  0.17200000000E+03 0. -1.
         -6    1    1    2    0  502 -0.18752713868E+03  0.20416922762E+03  0.69794292586E+02  0.33362665440E+03  0.17200000000E+03 0. -1.
</event>
<event>
 4    1  0.1253776E+000  0.1720168E+03  0.7818608E-02  0.1175761E+00
         21   -1    0    0  503  502  0.00000000000E+00  0.00000000000E+00  0.52448260101E+03  0.52448260101E+03  0.00000000000E+00 0.  1.
         21   -1    0    0  501  503 -0.00000000000E+00 -0.00000000000E+00 -0.73784487260E+02  0.73784487260E+02  0.00000000000E+00 0.  1.
          6    1    1    2  501    0 -0.14950710893E+00  0.23979054421E+01  0.80221398644E+02  0.18980317464E+03  0.17200000000E+03 0.  1.
         -6    1    1    2    0  502  0.14950710893E+00 -0.23979054421E+01  0.37047671511E+03  0.40846391363E+03  0.17200000000E+03 0.  1.
</event>
<event>
 4    1  0.1253776E+000  0.1738677E+03  0.7818608E-02  0.1173873E+00
         21   -1    0    0  501  502  0.00000000000E+00  0.00000000000E+00  0.16655560278E+04  0.16655560278E+04  0.00000000000E+00 0. -1.
         21   -1    0    0  502  503 -0.00000000000E+00 -0.00000000000E+00 -0.18206922948E+02  0.18206922948E+02  0.00000000000E+00 0. -1.
          6    1    1    2  501    0 -0.67360633879E+01  0.24507325711E+02  0.87071285809E+03  0.88790250862E+03  0.17200000000E+03 0.  1.
         -6    1    1    2    0  503  0.67360633879E+01 -0.24507325711E+02  0.77663624671E+03  0.79586044208E+03  0.17200000000E+03 0.  1.
</event>
<event>
 4    1  0.1253776E+000  0.1884195E+03  0.7818608E-02  0.1159895E+00
         21   -1    0    0  501  502  0.00000000000E+00  0.00000000000E+00  0.44888297381E+03  0.44888297381E+03  0.00000000000E+00 0. -1.
         21   -1    0    0  502  503 -0.00000000000E+00 -0.00000000000E+00 -0.10705702087E+03  0.10705702087E+03  0.00000000000E+00 0. -1.
          6    1    1    2  501    0  0.58482256835E+02 -0.49977488679E+02  0.31298790263E+03  0.36532636221E+03  0.17200000000E+03 0. -1.
         -6    1    1    2    0  503 -0.58482256835E+02  0.49977488679E+02  0.28838050314E+02  0.19061363247E+03  0.17200000000E+03 0. -1.
</event>
<event>
 4    1  0.1253776E+000  0.2147386E+03  0.7818608E-02  0.1137867E+00
         21   -1    0    0  503  502  0.00000000000E+00  0.00000000000E+00  0.97940159293E+02  0.97940159293E+02  0.00000000000E+00 0. -1.
         21   -1    0    0  501  503 -0.00000000000E+00 -0.00000000000E+00 -0.67281929778E+03  0.67281929778E+03  0.00000000000E+00 0. -1.
          6    1    1    2  501    0 -0.12840611063E+03  0.63684669483E+01 -0.49859831785E+03  0.54287472697E+03  0.17200000000E+03 0.  1.
         -6    1    1    2    0  502  0.12840611063E+03 -0.63684669483E+01 -0.76280820643E+02  0.22788473011E+03  0.17200000000E+03 0.  1.
</event>
<event>
 4    1  0.1253776E+000  0.2770754E+03  0.7818608E-02  0.1097297E+00
         21   -1    0    0  501  502  0.00000000000E+00  0.00000000000E+00  0.19224636061E+04  0.19224636061E+04  0.00000000000E+00 0.  1.
         21   -1    0    0  502  503 -0.00000000000E+00 -0.00000000000E+00 -0.50472652835E+02  0.50472652835E+02  0.00000000000E+00 0.  1.
          6    1    1    2  501    0  0.18112094929E+03  0.11992481401E+03  0.13867677688E+04  0.14141766522E+04  0.17200000000E+03 0.  1.
         -6    1    1    2    0  503 -0.18112094929E+03 -0.11992481401E+03  0.48522318452E+03  0.55875960671E+03  0.17200000000E+03 0.  1.
</event>
<event>
 4    1  0.1253776E+000  0.3473818E+03  0.7818608E-02  0.1063695E+00
         21   -1    0    0  501  502  0.00000000000E+00  0.00000000000E+00  0.97528117609E+03  0.97528117609E+03  0.00000000000E+00 0. -1.
         21   -1    0    0  502  503 -0.00000000000E+00 -0.00000000000E+00 -0.14944237522E+03  0.14944237522E+03  0.00000000000E+00 0. -1.
          6    1    1    2  501    0 -0.29776289021E+03  0.49268279547E+02  0.17966608630E+03  0.39109334528E+03  0.17200000000E+03 0.  1.
         -6    1    1    2    0  503  0.29776289021E+03 -0.49268279547E+02  0.64617271456E+03  0.73363020603E+03  0.17200000000E+03 0.  1.
</event>
<event>
 4    1  0.1253776E+000  0.1912978E+03  0.7818608E-02  0.1157296E+00
         21   -1    0    0  501  502  0.00000000000E+00  0.00000000000E+00  0.77127751802E+02  0.77127751802E+02  0.00000000000E+00 0.  1.
         21   -1    0    0  502  503 -0.00000000000E+00 -0.00000000000E+00 -0.59885142481E+03  0.59885142481E+03  0.00000000000E+00 0.  1.
          6    1    1    2  501    0  0.70094328636E+02 -0.45800131852E+02 -0.10682658374E+03  0.21910450926E+03  0.17200000000E+03 0.  1.
         -6    1    1    2    0  503 -0.70094328636E+02  0.45800131852E+02 -0.41489708926E+03  0.45687466735E+03  0.17200000000E+03 0.  1.
</event>
<event>
 4    1  0.1253776E+000  0.1898670E+03  0.7818608E-02  0.1158581E+00
         21   -1    0    0  501  502  0.00000000000E+00  0.00000000000E+00  0.11401310231E+04  0.11401310231E+04  0.00000000000E+00 0. -1.
         21   -1    0    0  502  503 -0.00000000000E+00 -0.00000000000E+00 -0.80461718491E+02  0.80461718491E+02  0.00000000000E+00 0. -1.
          6    1    1    2  501    0 -0.67947341323E+02 -0.42995774375E+02  0.10053311438E+04  0.10231032140E+04  0.17200000000E+03 0. -1.
         -6    1    1    2    0  503  0.67947341323E+02  0.42995774375E+02  0.54338160878E+02  0.19748952766E+03  0.17200000000E+03 0. -1.
</event>
<event>
 4    1  0.1253776E+000  0.2061248E+03  0.7818608E-02  0.1144672E+00
         21   -1    0    0  503  502  0.00000000000E+00  0.00000000000E+00  0.82747222252E+03  0.82747222252E+03  0.00000000000E+00 0.  1.
         21   -1    0    0  501  503 -0.00000000000E+00 -0.00000000000E+00 -0.23654277887E+03  0.23654277887E+03  0.00000000000E+00 0. -1.
          6    1    1    2  501    0 -0.10380463013E+03 -0.46130571747E+02 -0.17527360868E+03  0.27057026589E+03  0.17200000000E+03 0. -1.
         -6    1    1    2    0  502  0.10380463013E+03  0.46130571747E+02  0.76620305233E+03  0.79344473550E+03  0.17200000000E+03 0.  1.
</event>
<event>
 4    1  0.1253776E+000  0.1733543E+03  0.7818608E-02  0.1174394E+00
         21   -1    0    0  503  502  0.00000000000E+00  0.00000000000E+00  0.61678588649E+02  0.61678588649E+02  0.00000000000E+00 0.  1.
         21   -1    0    0  501  503 -0.00000000000E+00 -0.00000000000E+00 -0.57360608205E+03  0.57360608205E+03  0.00000000000E+00 0.  1.
          6    1    1    2  501    0 -0.16090769682E+02  0.14449556185E+02 -0.37922496954E+03  0.41696915961E+03  0.17200000000E+03 0.  1.
         -6    1    1    2    0  502  0.16090769682E+02 -0.14449556185E+02 -0.13270252386E+03  0.21831551109E+03  0.17200000000E+03 0.  1.
</event>
<event>
 4    1  0.1253776E+000  0.2147924E+03  0.7818608E-02  0.1137826E+00
         21   -1    0    0  501  502  0.00000000000E+00  0.00000000000E+00  0.41617939335E+02  0.41617939335E+02  0.00000000000E+00 0. -1.
         21   -1    0    0  502  503 -0.00000000000E+00 -0.00000000000E+00 -0.11263728836E+04  0.11263728836E+04  0.00000000000E+00 0.  1.
          6    1    1    2  501    0  0.11908178292E+03  0.48696033108E+02 -0.46892669032E+03  0.51577903753E+03  0.17200000000E+03 0.  1.
         -6    1    1    2    0  503 -0.11908178292E+03 -0.48696033108E+02 -0.61582825397E+03  0.65221178543E+03  0.17200000000E+03 0. -1.
</event>
<event>
 4    1  0.1253776E+000  0.2747866E+03  0.7818608E-02  0.1098571E+00
         21   -1    0    0  503  502  0.00000000000E+00  0.00000000000E+00  0.56470348420E+03  0.56470348420E+03  0.00000000000E+00 0.  1.
         21   -1    0    0  501  503 -0.00000000000E+00 -0.00000000000E+00 -0.46748088613E+03  0.46748088613E+03  0.00000000000E+00 0.  1.
          6    1    1    2  501    0  0.20006973683E+03 -0.76784058697E+02 -0.38747075067E+03  0.47501713010E+03  0.17200000000E+03 0. -1.
         -6    1    1    2    0  502 -0.20006973683E+03  0.76784058697E+02  0.48469334874E+03  0.55716724022E+03  0.17200000000E+03 0. -1.
</event>
<event>
 4    1  0.1253776E+000  0.2367377E+03  0.7818608E-02  0.1121985E+00
         21   -1    0    0  503  502  0.00000000000E+00  0.00000000000E+00  0.52530282492E+03  0.52530282492E+03  0.00000000000E+00 0. -1.
         21   -1    0    0  501  503 -0.00000000000E+00 -0.00000000000E+00 -0.10686001336E+03  0.10686001336E+03  0.00000000000E+00 0. -1.
          6    1    1    2  501    0  0.15679101407E+03 -0.43327757819E+02  0.19662497092E+03  0.30774355538E+03  0.17200000000E+03 0. -1.
         -6    1    1    2    0  502 -0.15679101407E+03  0.43327757819E+02  0.22181784064E+03  0.32441928290E+03  0.17200000000E+03 0. -1.
</event>
<event>
 4    1  0.1253776E+000  0.2601673E+03  0.7818608E-02  0.1107043E+00
         21   -1    0    0  501  502  0.00000000000E+00  0.00000000000E+00  0.12028822903E+03  0.12028822903E+03  0.00000000000E+00 0.  1.
         21   -1    0    0  502  503 -0.00000000000E+00 -0.00000000000E+00 -0.56448820012E+03  0.56448820012E+03  0.00000000000E+00 0. -1.
          6    1    1    2  501    0  0.11055538927E+03 -0.16087422990E+03 -0.20286621183E+03  0.32991167280E+03  0.17200000000E+03 0. -1.
         -6    1    1    2    0  503 -0.11055538927E+03  0.16087422990E+03 -0.24133375926E+03  0.35486475635E+03  0.17200000000E+03 0.  1.
</event>
<event>
 4    1  0.1253776E+000  0.2580470E+03  0.7818608E-02  0.1108322E+00
         21   -1    0    0  501  502  0.00000000000E+00  0.00000000000E+00  0.10057811121E+03  0.10057811121E+03  0.00000000000E+00 0.  1.
         21   -1    0    0  502  503 -0.00000000000E+00 -0.00000000000E+00 -0.88388760474E+03  0.88388760474E+03  0.00000000000E+00 0. -1.
          6    1    1    2  501    0  0.17896920869E+03 -0.70528714484E+02 -0.63824983380E+03  0.68844108504E+03  0.17200000000E+03 0.  1.
         -6    1    1    2    0  503 -0.17896920869E+03  0.70528714484E+02 -0.14505965973E+03  0.29602463091E+03  0.17200000000E+03 0. -1.
</event>
<event>
 4    1  0.1253776E+000  0.1814083E+03  0.7818608E-02  0.1166447E+00
         21   -1    0    0  503  502  0.00000000000E+00  0.00000000000E+00  0.18536709398E+04  0.18536709398E+04  0.00000000000E+00 0.  1.
         21   -1    0    0  501  503 -0.00000000000E+00 -0.00000000000E+00 -0.18509683859E+02  0.18509683859E+02  0.00000000000E+00 0.  1.
          6    1    1    2  501    0  0.23577623368E+02 -0.52621882924E+02  0.11067974990E+04  0.11215657229E+04  0.17200000000E+03 0.  1.
         -6    1    1    2    0  502 -0.23577623368E+02  0.52621882924E+02  0.72836375689E+03  0.75061490075E+03  0.17200000000E+03 0.  1.
</event>
<event>
 4    1  0.1253776E+000  0.2204303E+03  0.7818608E-02  0.1133563E+00
         21   -1    0    0  503  502  0.00000000000E+00  0.00000000000E+00  0.66552136551E+02  0.66552136551E+02  0.00000000000E+00 0. -1.
         21   -1    0    0  501  503 -0.00000000000E+00 -0.00000000000E+00 -0.88121185275E+03  0.88121185275E+03  0.00000000000E+00 0. -1.
          6    1    1    2  501    0  0.77717158069E+02 -0.11386650126E+03 -0.21109183772E+03  0.30520370364E+03  0.17200000000E+03 0.  1.
         -6    1    1    2    0  502 -0.77717158069E+02  0.11386650126E+03 -0.60356787848E+03  0.64256028565E+03  0.17200000000E+03 0.  1.
</event>
<event>
 4    1  0.1253776E+000  0.2062554E+03  0.7818608E-02  0.1144566E+00
         21   -1    0    0  503  502  0.00000000000E+00  0.00000000000E+00  0.16202967274E+03  0.16202967274E+03  0.00000000000E+00 0. -1.
         21   -1    0    0  501  503 -0.00000000000E+00 -0.00000000000E+00 -0.28642343941E+03  0.28642343941E+03  0.00000000000E+00 0. -1.
          6    1    1    2  501    0 -0.32675996713E+02  0.10903921826E+03  0.25350918063E+01  0.20627093487E+03  0.17200000000E+03 0.  1.
         -6    1    1    2    0  502  0.32675996713E+02 -0.10903921826E+03 -0.12692885848E+03  0.24218217729E+03  0.17200000000E+03 0.  1.
</event>
<event>
 4    1  0.1253776E+000  0.1777068E+03  0.7818608E-02  0.1170041E+00
         21   -1    0    0  501  502  0.00000000000E+00  0.00000000000E+00  0.92862739933E+03  0.92862739933E+03  0.00000000000E+00 0.  1.
         21   -1    0    0  502  503 -0.00000000000E+00 -0.00000000000E+00 -0.40009584655E+02  0.40009584655E+02  0.00000000000E+00 0.  1.
          6    1    1    2  501    0  0.42815128254E+02  0.12749933024E+02  0.63190486395E+03  0.65641713345E+03  0.17200000000E+03 0.  1.
         -6    1    1    2    0  503 -0.42815128254E+02 -0.12749933024E+02  0.25671295072E+03  0.31221985054E+03  0.17200000000E+03 0.  1.
</event>
<event>
 4    1  0.1253776E+000  0.2574729E+03  0.7818608E-02  0.1108671E+00
         21   -1    0    0  503  502  0.00000000000E+00  0.00000000000E+00  0.11216651337E+03  0.11216651337E+03  0.00000000000E+00 0. -1.
         21   -1    0    0  501  503 -0.00000000000E+00 -0.00000000000E+00 -0.75446300262E+03  0.75446300262E+03  0.00000000000E+00 0. -1.
          6    1    1    2  501    0 -0.46971772846E+02 -0.18574694092E+03 -0.52283257832E+03  0.58279171104E+03  0.17200000000E+03 0. -1.
         -6    1    1    2    0  502  0.46971772846E+02  0.18574694092E+03 -0.11946391092E+03  0.28383780495E+03  0.17200000000E+03 0. -1.
</event>
<event>
 4    1  0.1253776E+000  0.2088196E+03  0.7818608E-02  0.1142504E+00
         21   -1    0    0  503  502  0.00000000000E+00  0.00000000000E+00  0.54515635629E+03  0.54515635629E+03  0.00000000000E+00 0.  1.
         21   -1    0    0  501  503 -0.00000000000E+00 -0.00000000000E+00 -0.14860239786E+03  0.14860239786E+03  0.00000000000E+00 0.  1.
          6    1    1    2  501    0 -0.11820179426E+03  0.70678699977E+01 -0.37431506898E+02  0.21214791222E+03  0.17200000000E+03 0.  1.
         -6    1    1    2    0  502  0.11820179426E+03 -0.70678699977E+01  0.43398546532E+03  0.48161084193E+03  0.17200000000E+03 0.  1.
</event>
<event>
 4    1  0.1253776E+000  0.1973668E+03  0.7818608E-02  0.1151980E+00
         21   -1    0    0  503  502  0.00000000000E+00  0.00000000000E+00  0.17273737592E+03  0.17273737592E+03  0.00000000000E+00 0. -1.
         21   -1    0    0  501  503 -0.00000000000E+00 -0.00000000000E+00 -0.22579175295E+03  0.22579175295E+03  0.00000000000E+00 0. -1.
          6    1    1    2  501    0  0.96792263834E+02  0.95457970298E+00 -0.19462785005E+02  0.19832411240E+03  0.17200000000E+03 0. -1.
         -6    1    1    2    0  502 -0.96792263834E+02 -0.95457970298E+00 -0.33591592026E+02  0.20020501646E+03  0.17200000000E+03 0. -1.
</event>
<event>
 4    1  0.1253776E+000  0.1910487E+03  0.7818608E-02  0.1157519E+00
         21   -1    0    0  503  502  0.00000000000E+00  0.00000000000E+00  0.15132419035E+03  0.15132419035E+03  0.00000000000E+00 0. -1.
         21   -1    0    0  501  503 -0.00000000000E+00 -0.00000000000E+00 -0.27369615469E+03  0.27369615469E+03  0.00000000000E+00 0. -1.
          6    1    1    2  501    0  0.16105316444E+02  0.81585666024E+02  0.12037807814E+02  0.19142756054E+03  0.17200000000E+03 0. -1.
         -6    1    1    2    0  502 -0.16105316444E+02 -0.81585666024E+02 -0.13440977216E+03  0.23359278450E+03  0.17200000000E+03 0. -1.
</event>
<event>
 4    1  0.1253776E+000  0.1831096E+03  0.7818608E-02  0.1164827E+00
         21   -1    0    0  503  502  0.00000000000E+00  0.00000000000E+00  0.52893925663E+03  0.52893925663E+03  0.00000000000E+00 0.  1.
         21   -1    0    0  501  503 -0.00000000000E+00 -0.00000000000E+00 -0.71445914431E+02  0.71445914431E+02  0.00000000000E+00 0.  1.
          6    1    1    2  501    0  0.79266622694E+01 -0.62308200137E+02  0.12794104493E+03  0.22337872494E+03  0.17200000000E+03 0.  1.
         -6    1    1    2    0  502 -0.79266622694E+01  0.62308200137E+02  0.32955229727E+03  0.37700644612E+03  0.17200000000E+03 0.  1.
</event>
<event>
 4    1  0.1253776E+000  0.2657856E+03  0.7818608E-02  0.1103716E+00
         21   -1    0    0  503  502  0.00000000000E+00  0.00000000000E+00  0.12696439666E+03  0.12696439666E+03  0.00000000000E+00 0. -1.
         21   -1    0    0  501  503 -0.00000000000E+00 -0.00000000000E+00 -0.87780970405E+03  0.87780970405E+03  0.00000000000E+00 0.  1.
          6    1    1    2  501    0 -0.20017413439E+03 -0.31437447170E+02 -0.67942226248E+03  0.72955918740E+03  0.17200000000E+03 0.  1.
         -6    1    1    2    0  502  0.20017413439E+03  0.31437447170E+02 -0.71423044906E+02  0.27521491331E+03  0.17200000000E+03 0. -1.
</event>
<event>
 4    1  0.1253776E+000  0.2020016E+03  0.7818608E-02  0.1148061E+00
         21   -1    0    0  501  502  0.00000000000E+00  0.00000000000E+00  0.17448609065E+03  0.17448609065E+03  0.00000000000E+00 0.  1.
         21   -1    0    0  502  503 -0.00000000000E+00 -0.00000000000E+00 -0.31266937247E+03  0.31266937247E+03  0.00000000000E+00 0.  1.
          6    1    1    2  501    0  0.45974278960E+02 -0.95430686568E+02  0.53199325226E+02  0.20888948865E+03  0.17200000000E+03 0.  1.
         -6    1    1    2    0  503 -0.45974278960E+02  0.95430686568E+02 -0.19138260705E+03  0.27826597447E+03  0.17200000000E+03 0.  1.
</event>
<event>
 4    1  0.1253776E+000  0.2493048E+03  0.7818608E-02  0.1113745E+00
         21   -1    0    0  501  502  0.00000000000E+00  0.00000000000E+00  0.93042669468E+02  0.93042669468E+02  0.00000000000E+00 0. -1.
         21   -1    0    0  502  503 -0.00000000000E+00 -0.00000000000E+00 -0.66917472036E+03  0.66917472036E+03  0.00000000000E+00 0. -1.
          6    1    1    2  501    0 -0.17267985060E+03  0.52445907919E+02 -0.30400456354E+03  0.39315604881E+03  0.17200000000E+03 0.  1.
         -6    1    1    2    0  503  0.17267985060E+03 -0.52445907919E+02 -0.27212748735E+03  0.36906134102E+03  0.17200000000E+03 0.  1.
</event>
<event>
 4    1  0.1253776E+000  0.2683768E+03  0.7818608E-02  0.1102212E+00
         21   -1    0    0  503  502  0.00000000000E+00  0.00000000000E+00  0.71439531655E+03  0.71439531655E+03  0.00000000000E+00 0. -1.
         21   -1    0    0  501  503 -0.00000000000E+00 -0.00000000000E+00 -0.23489444067E+03  0.23489444067E+03  0.00000000000E+00 0.  1.
          6    1    1    2  501    0 -0.19400064823E+03 -0.69324298787E+02 -0.11884410155E+03  0.29351325420E+03  0.17200000000E+03 0.  1.
         -6    1    1    2    0  502  0.19400064823E+03  0.69324298787E+02  0.59834497743E+03  0.65577650303E+03  0.17200000000E+03 0. -1.
</event>
<event>
 4    1  0.1253776E+000  0.1936496E+03  0.7818608E-02  0.1155210E+00
         21   -1    0    0  501  502  0.00000000000E+00  0.00000000000E+00  0.11980257251E+04  0.11980257251E+04  0.00000000000E+00 0.  1.
         21   -1    0    0  502  503 -0.00000000000E+00 -0.00000000000E+00 -0.42361579345E+02  0.42361579345E+02  0.00000000000E+00 0.  1.
          6    1    1    2  501    0 -0.71023503914E+02  0.53589332960E+02  0.89472888299E+03  0.91544520796E+03  0.17200000000E+03 0. -1.
         -6    1    1    2    0  503  0.71023503914E+02 -0.53589332960E+02  0.26093526277E+03  0.32494209649E+03  0.17200000000E+03 0. -1.
</event>
<event>
 4    1  0.1253776E+000  0.2304383E+03  0.7818608E-02  0.1126332E+00
         21   -1    0    0  501  502  0.00000000000E+00  0.00000000000E+00  0.21034026940E+03  0.21034026940E+03  0.00000000000E+00 0.  1.
         21   -1    0    0  502  503 -0.00000000000E+00 -0.00000000000E+00 -0.38818867673E+03  0.38818867673E+03  0.00000000000E+00 0.  1.
          6    1    1    2  501    0  0.14735512135E+03 -0.42476738666E+02  0.88035693713E+02  0.24668216086E+03  0.17200000000E+03 0.  1.
         -6    1    1    2    0  503 -0.14735512135E+03  0.42476738666E+02 -0.26588410105E+03  0.35184678527E+03  0.17200000000E+03 0.  1.
</event>
<event>
 4    1  0.1253776E+000  0.2128377E+03  0.7818608E-02  0.1139338E+00
         21   -1    0    0  503  502  0.00000000000E+00  0.00000000000E+00  0.74943307433E+03  0.74943307433E+03  0.00000000000E+00 0. -1.
         21   -1    0    0  501  503 -0.00000000000E+00 -0.00000000000E+00 -0.66143444268E+02  0.66143444268E+02  0.00000000000E+00 0. -1.
          6    1    1    2  501    0  0.12393282711E+03  0.18882012886E+02  0.22195713761E+03  0.30751397851E+03  0.17200000000E+03 0. -1.
         -6    1    1    2    0  502 -0.12393282711E+03 -0.18882012886E+02  0.46133249245E+03  0.50806254008E+03  0.17200000000E+03 0. -1.
</event>
<event>
 4    1  0.1253776E+000  0.1926286E+03  0.7818608E-02  0.1156112E+00
         21   -1    0    0  503  502  0.00000000000E+00  0.00000000000E+00  0.29575401889E+03  0.29575401889E+03  0.00000000000E+00 0. -1.
         21   -1    0    0  501  503 -0.00000000000E+00 -0.00000000000E+00 -0.16805724756E+03  0.16805724756E+03  0.00000000000E+00 0. -1.
          6    1    1    2  501    0 -0.86684615041E+02  0.27506976195E+01 -0.52903796017E+02  0.19976135876E+03  0.17200000000E+03 0. -1.
         -6    1    1    2    0  502  0.86684615041E+02 -0.27506976195E+01  0.18060056734E+03  0.26404990768E+03  0.17200000000E+03 0. -1.
</event>
<event>
 4    1  0.1253776E+000  0.1921362E+03  0.7818608E-02  0.1156549E+00
         21   -1    0    0  503  502  0.00000000000E+00  0.00000000000E+00  0.28715800427E+03  0.28715800427E+03  0.00000000000E+00 0. -1.
         21   -1    0    0  501  503 -0.00000000000E+00 -0.00000000000E+00 -0.14923933349E+03  0.14923933349E+03  0.00000000000E+00 0. -1.
          6    1    1    2  501    0 -0.71489912605E+02 -0.47132976996E+02 -0.12268447579E+02  0.19252750435E+03  0.17200000000E+03 0. -1.
         -6    1    1    2    0  502  0.71489912605E+02  0.47132976996E+02  0.15018711836E+03  0.24386983341E+03  0.17200000000E+03 0. -1.
</event>
<event>
 4    1  0.1253776E+000  0.2409517E+03  0.7818608E-02  0.1119160E+00
         21   -1    0    0  503  502  0.00000000000E+00  0.00000000000E+00  0.31159846773E+03  0.31159846773E+03  0.00000000000E+00 0. -1.
         21   -1    0    0  501  503 -0.00000000000E+00 -0.00000000000E+00 -0.22732350052E+03  0.22732350052E+03  0.00000000000E+00 0. -1.
          6    1    1    2  501    0  0.13089039758E+03 -0.10649607183E+03 -0.72301128787E+02  0.25156542433E+03  0.17200000000E+03 0. -1.
         -6    1    1    2    0  502 -0.13089039758E+03  0.10649607183E+03  0.15657609600E+03  0.28735654392E+03  0.17200000000E+03 0. -1.
</event>
<event>
 4    1  0.1253776E+000  0.3148154E+03  0.7818608E-02  0.1078060E+00
         21   -1    0    0  501  502  0.00000000000E+00  0.00000000000E+00  0.70992334142E+03  0.70992334142E+03  0.00000000000E+00 0. -1.
         21   -1    0    0  502  503 -0.00000000000E+00 -0.00000000000E+00 -0.29150038717E+03  0.29150038717E+03  0.00000000000E+00 0. -1.
          6    1    1    2  501    0  0.62134675940E+02  0.25624986383E+03  0.57065536360E+03  0.65173326957E+03  0.17200000000E+03 0. -1.
         -6    1    1    2    0  503 -0.62134675940E+02 -0.25624986383E+03 -0.15223240935E+03  0.34969045902E+03  0.17200000000E+03 0. -1.
</event>
<event>
 4    1  0.1253776E+000  0.2424666E+03  0.7818608E-02  0.1118161E+00
         21   -1    0    0  503  502  0.00000000000E+00  0.00000000000E+00  0.18915972868E+04  0.18915972868E+04  0.00000000000E+00 0. -1.
         21   -1    0    0  501  503 -0.00000000000E+00 -0.00000000000E+00 -0.37175375673E+02  0.37175375673E+02  0.00000000000E+00 0.  1.
          6    1    1    2  501    0 -0.89491659925E+02 -0.14559282766E+03  0.53669484897E+03  0.58892392512E+03  0.17200000000E+03 0.  1.
         -6    1    1    2    0  502  0.89491659925E+02  0.14559282766E+03  0.13177270621E+04  0.13398487373E+04  0.17200000000E+03 0. -1.
</event>
<event>
 4    1  0.1253776E+000  0.2245264E+03  0.7818608E-02  0.1130553E+00
         21   -1    0    0  503  502  0.00000000000E+00  0.00000000000E+00  0.29747175942E+04  0.29747175942E+04  0.00000000000E+00 0.  1.
         21   -1    0    0  501  503 -0.00000000000E+00 -0.00000000000E+00 -0.23506366132E+02  0.23506366132E+02  0.00000000000E+00 0.  1.
          6    1    1    2  501    0 -0.14357166695E+03 -0.14672986681E+02  0.68369361052E+03  0.71961731021E+03  0.17200000000E+03 0.  1.
         -6    1    1    2    0  502  0.14357166695E+03  0.14672986681E+02  0.22675176175E+04  0.22786066501E+04  0.17200000000E+03 0.  1.
</event>
<event>
 4    1  0.1253776E+000  0.1815308E+03  0.7818608E-02  0.1166330E+00
         21   -1    0    0  503  502  0.00000000000E+00  0.00000000000E+00  0.29315020240E+03  0.29315020240E+03  0.00000000000E+00 0.  1.
         21   -1    0    0  501  503 -0.00000000000E+00 -0.00000000000E+00 -0.13855039336E+03  0.13855039336E+03  0.00000000000E+00 0.  1.
          6    1    1    2  501    0  0.24657005661E+02 -0.52549742546E+02  0.17105452278E+03  0.24942552623E+03  0.17200000000E+03 0.  1.
         -6    1    1    2    0  502 -0.24657005661E+02  0.52549742546E+02 -0.16454713733E+02  0.18227506953E+03  0.17200000000E+03 0.  1.
</event>
<event>
 4    1  0.1253776E+000  0.1869204E+03  0.7818608E-02  0.1161269E+00
         21   -1    0    0  501  502  0.00000000000E+00  0.00000000000E+00  0.16425226462E+03  0.16425226462E+03  0.00000000000E+00 0.  1.
         21   -1    0    0  502  503 -0.00000000000E+00 -0.00000000000E+00 -0.29767752605E+03  0.29767752605E+03  0.00000000000E+00 0.  1.
          6    1    1    2  501    0  0.17317725166E+01  0.73158978653E+02  0.56677880311E+02  0.19532438995E+03  0.17200000000E+03 0.  1.
         -6    1    1    2    0  503 -0.17317725166E+01 -0.73158978653E+02 -0.19010314174E+03  0.26660540072E+03  0.17200000000E+03 0.  1.
</event>
<event>
 4    1  0.1253776E+000  0.1992165E+03  0.7818608E-02  0.1150402E+00
         21   -1    0    0  501  502  0.00000000000E+00  0.00000000000E+00  0.11583917854E+03  0.11583917854E+03  0.00000000000E+00 0.  1.
         21   -1    0    0  502  503 -0.00000000000E+00 -0.00000000000E+00 -0.88842380824E+03  0.88842380824E+03  0.00000000000E+00 0.  1.
          6    1    1    2  501    0 -0.92803391881E+02  0.38610312015E+02  0.72859626305E+01  0.19934972032E+03  0.17200000000E+03 0.  1.
         -6    1    1    2    0  503  0.92803391881E+02 -0.38610312015E+02 -0.77987059234E+03  0.80491326646E+03  0.17200000000E+03 0.  1.
</event>
<event>
 4    1  0.1253776E+000  0.3587164E+03  0.7818608E-02  0.1059093E+00
         21   -1    0    0  503  502  0.00000000000E+00  0.00000000000E+00  0.17159772335E+03  0.17159772335E+03  0.00000000000E+00 0. -1.
         21   -1    0    0  501  503 -0.00000000000E+00 -0.00000000000E+00 -0.94803661514E+03  0.94803661514E+03  0.00000000000E+00 0.  1.
          6    1    1    2  501    0 -0.27096545626E+03 -0.16022219092E+03 -0.64416033949E+03  0.73730588762E+03  0.17200000000E+03 0.  1.
         -6    1    1    2    0  502  0.27096545626E+03  0.16022219092E+03 -0.13227855230E+03  0.38232845087E+03  0.17200000000E+03 0. -1.
</event>
<event>
 4    1  0.1253776E+000  0.2147990E+03  0.7818608E-02  0.1137821E+00
         21   -1    0    0  501  502  0.00000000000E+00  0.00000000000E+00  0.10470679355E+03  0.10470679355E+03  0.00000000000E+00 0.  1.
         21   -1    0    0  502  503 -0.00000000000E+00 -0.00000000000E+00 -0.45580278789E+03  0.45580278789E+03  0.00000000000E+00 0.  1.
          6    1    1    2  501    0  0.10746011409E+03  0.70759800651E+02 -0.12444236988E+03  0.24824288294E+03  0.17200000000E+03 0.  1.
         -6    1    1    2    0  503 -0.10746011409E+03 -0.70759800651E+02 -0.22665362447E+03  0.31226669850E+03  0.17200000000E+03 0.  1.
</event>
<event>
 4    1  0.1253776E+000  0.2101807E+03  0.7818608E-02  0.1141423E+00
         21   -1    0    0  501  502  0.00000000000E+00  0.00000000000E+00  0.15383409609E+03  0.15383409609E+03  0.00000000000E+00 0.  1.
         21   -1    0    0  502  503 -0.00000000000E+00 -0.00000000000E+00 -0.77093752337E+03  0.77093752337E+03  0.00000000000E+00 0.  1.
          6    1    1    2  501    0  0.10919394826E+02 -0.12030247821E+03  0.57729853045E+02  0.21796480308E+03  0.17200000000E+03 0.  1.
         -6    1    1    2    0  503 -0.10919394826E+02  0.12030247821E+03 -0.67483328032E+03  0.70680681638E+03  0.17200000000E+03 0.  1.
</event>
<event>
 4    1  0.1253776E+000  0.2235852E+03  0.7818608E-02  0.1131238E+00
         21   -1    0    0  501  502  0.00000000000E+00  0.00000000000E+00  0.94457971365E+03  0.94457971365E+03  0.00000000000E+00 0.  1.
         21   -1    0    0  502  503 -0.00000000000E+00 -0.00000000000E+00 -0.52964021464E+02  0.52964021464E+02  0.00000000000E+00 0.  1.
          6    1    1    2  501    0 -0.55521772014E+02  0.13161947866E+03  0.43199198281E+03  0.48642309520E+03  0.17200000000E+03 0.  1.
         -6    1    1    2    0  503  0.55521772014E+02 -0.13161947866E+03  0.45962370938E+03  0.51112063992E+03  0.17200000000E+03 0.  1.
</event>
<event>
 4    1  0.1253776E+000  0.1748773E+03  0.7818608E-02  0.1172855E+00
         21   -1    0    0  501  502  0.00000000000E+00  0.00000000000E+00  0.81139166478E+03  0.81139166478E+03  0.00000000000E+00 0.  1.
         21   -1    0    0  502  503 -0.00000000000E+00 -0.00000000000E+00 -0.37887920335E+02  0.37887920335E+02  0.00000000000E+00 0.  1.
          6    1    1    2  501    0  0.31276163608E+02 -0.44558475315E+01  0.35612762861E+03  0.39674795632E+03  0.17200000000E+03 0.  1.
         -6    1    1    2    0  503 -0.31276163608E+02  0.44558475315E+01  0.41737611584E+03  0.45253162880E+03  0.17200000000E+03 0.  1.
</event>
<event>
 4    1  0.1253776E+000  0.1819106E+03  0.7818608E-02  0.1165967E+00
         21   -1    0    0  503  502  0.00000000000E+00  0.00000000000E+00  0.11896557824E+03  0.11896557824E+03  0.00000000000E+00 0.  1.
         21   -1    0    0  501  503 -0.00000000000E+00 -0.00000000000E+00 -0.30605372832E+03  0.30605372832E+03  0.00000000000E+00 0.  1.
          6    1    1    2  501    0  0.19121703543E+02 -0.56052105680E+02 -0.15769933480E+03  0.24074999127E+03  0.17200000000E+03 0. -1.
         -6    1    1    2    0  502 -0.19121703543E+02  0.56052105680E+02 -0.29388815274E+02  0.18426931530E+03  0.17200000000E+03 0. -1.
</event>
<event>
 4    1  0.1253776E+000  0.1753684E+03  0.7818608E-02  0.1172362E+00
         21   -1    0    0  503  502  0.00000000000E+00  0.00000000000E+00  0.55482235418E+03  0.55482235418E+03  0.00000000000E+00 0.  1.
         21   -1    0    0  501  503 -0.00000000000E+00 -0.00000000000E+00 -0.75597107206E+02  0.75597107206E+02  0.00000000000E+00 0.  1.
          6    1    1    2  501    0  0.25400485055E+02  0.22910489717E+02  0.76809193536E+02  0.19145163199E+03  0.17200000000E+03 0.  1.
         -6    1    1    2    0  502 -0.25400485055E+02 -0.22910489717E+02  0.40241605344E+03  0.43896782940E+03  0.17200000000E+03 0.  1.
</event>
<event>
 4    1  0.1253776E+000  0.1788834E+03  0.7818608E-02  0.1168888E+00
         21   -1    0    0  503  502  0.00000000000E+00  0.00000000000E+00  0.12025638313E+03  0.12025638313E+03  0.00000000000E+00 0. -1.
         21   -1    0    0  501  503 -0.00000000000E+00 -0.00000000000E+00 -0.53109093183E+03  0.53109093183E+03  0.00000000000E+00 0. -1.
          6    1    1    2  501    0  0.19202995004E+01  0.49108032995E+02 -0.43546613152E+03  0.47077599573E+03  0.17200000000E+03 0.  1.
         -6    1    1    2    0  502 -0.19202995004E+01 -0.49108032995E+02  0.24631582822E+02  0.18057131923E+03  0.17200000000E+03 0.  1.
</event>
<event>
 4    1  0.1253776E+000  0.2324247E+03  0.7818608E-02  0.1124945E+00
         21   -1    0    0  503  502  0.00000000000E+00  0.00000000000E+00  0.76478240424E+02  0.76478240424E+02  0.00000000000E+00 0. -1.
         21   -1    0    0  501  503 -0.00000000000E+00 -0.00000000000E+00 -0.94628815602E+03  0.94628815602E+03  0.00000000000E+00 0. -1.
          6    1    1    2  501    0  0.37143899043E+02  0.15184712926E+03 -0.69240349677E+03  0.73037238600E+03  0.17200000000E+03 0. -1.
         -6    1    1    2    0  502 -0.37143899043E+02 -0.15184712926E+03 -0.17740641883E+03  0.29239401044E+03  0.17200000000E+03 0. -1.
</event>
<event>
 4    1  0.1253776E+000  0.2453789E+03  0.7818608E-02  0.1116261E+00
         21   -1    0    0  501  502  0.00000000000E+00  0.00000000000E+00  0.32560379926E+02  0.32560379926E+02  0.00000000000E+00 0. -1.
         21   -1    0    0  502  503 -0.00000000000E+00 -0.00000000000E+00 -0.19557687745E+04  0.19557687745E+04  0.00000000000E+00 0.  1.
          6    1    1    2  501    0  0.17486267704E+03  0.70616301163E+01 -0.72954220824E+03  0.76970296611E+03  0.17200000000E+03 0.  1.
         -6    1    1    2    0  503 -0.17486267704E+03 -0.70616301163E+01 -0.11936661864E+04  0.12186261883E+04  0.17200000000E+03 0.  1.
</event>
<event>
 4    1  0.1253776E+000  0.1983316E+03  0.7818608E-02  0.1151154E+00
         21   -1    0    0  503  502  0.00000000000E+00  0.00000000000E+00  0.25099523737E+03  0.25099523737E+03  0.00000000000E+00 0.  1.
         21   -1    0    0  501  503 -0.00000000000E+00 -0.00000000000E+00 -0.17355265126E+03  0.17355265126E+03  0.00000000000E+00 0.  1.
          6    1    1    2  501    0 -0.96340502134E+02 -0.21677690163E+02 -0.27391583735E+02  0.20021416898E+03  0.17200000000E+03 0.  1.
         -6    1    1    2    0  502  0.96340502134E+02  0.21677690163E+02  0.10483416984E+03  0.22433371964E+03  0.17200000000E+03 0.  1.
</event>
<event>
 4    1  0.1253776E+000  0.1931216E+03  0.7818608E-02  0.1155676E+00
         21   -1    0    0  503  502  0.00000000000E+00  0.00000000000E+00  0.71350369559E+03  0.71350369559E+03  0.00000000000E+00 0. -1.
         21   -1    0    0  501  503 -0.00000000000E+00 -0.00000000000E+00 -0.54131079389E+02  0.54131079389E+02  0.00000000000E+00 0. -1.
          6    1    1    2  501    0 -0.74751681382E+02  0.46088496018E+02  0.25854863152E+03  0.32271250084E+03  0.17200000000E+03 0. -1.
         -6    1    1    2    0  502  0.74751681382E+02 -0.46088496018E+02  0.40082398468E+03  0.44492227415E+03  0.17200000000E+03 0. -1.
</event>
<event>
 4    1  0.1253776E+000  0.1911210E+03  0.7818608E-02  0.1157454E+00
         21   -1    0    0  501  502  0.00000000000E+00  0.00000000000E+00  0.76270804348E+03  0.76270804348E+03  0.00000000000E+00 0. -1.
         21   -1    0    0  502  503 -0.00000000000E+00 -0.00000000000E+00 -0.48406033350E+02  0.48406033350E+02  0.00000000000E+00 0. -1.
          6    1    1    2  501    0  0.31393411115E+02 -0.77186160170E+02  0.39896285437E+03  0.44237835475E+03  0.17200000000E+03 0. -1.
         -6    1    1    2    0  503 -0.31393411115E+02  0.77186160170E+02  0.31533915576E+03  0.36873572208E+03  0.17200000000E+03 0. -1.
</event>
<event>
 4    1  0.1253776E+000  0.1752764E+03  0.7818608E-02  0.1172455E+00
         21   -1    0    0  501  502  0.00000000000E+00  0.00000000000E+00  0.40583551999E+03  0.40583551999E+03  0.00000000000E+00 0.  1.
         21   -1    0    0  502  503 -0.00000000000E+00 -0.00000000000E+00 -0.16854041285E+03  0.16854041285E+03  0.00000000000E+00 0.  1.
          6    1    1    2  501    0  0.27369026632E+02  0.19716452989E+02  0.33179612988E+03  0.37524721710E+03  0.17200000000E+03 0.  1.
         -6    1    1    2    0  503 -0.27369026632E+02 -0.19716452989E+02 -0.94501022740E+02  0.19912871575E+03  0.17200000000E+03 0.  1.
</event>
<event>
 4    1  0.1253776E+000  0.1985316E+03  0.7818608E-02  0.1150984E+00
         21   -1    0    0  501  502  0.00000000000E+00  0.00000000000E+00  0.11782373615E+03  0.11782373615E+03  0.00000000000E+00 0. -1.
         21   -1    0    0  502  503 -0.00000000000E+00 -0.00000000000E+00 -0.37954709400E+03  0.37954709400E+03  0.00000000000E+00 0. -1.
          6    1    1    2  501    0 -0.96997774413E+02  0.20548505777E+02 -0.45209674658E+02  0.20361415475E+03  0.17200000000E+03 0. -1.
         -6    1    1    2    0  503  0.96997774413E+02 -0.20548505777E+02 -0.21651368320E+03  0.29375667540E+03  0.17200000000E+03 0. -1.
</event>
<event>
 4    1  0.1253776E+000  0.2398605E+03  0.7818608E-02  0.1119886E+00
         21   -1    0    0  503  502  0.00000000000E+00  0.00000000000E+00  0.33566087017E+03  0.33566087017E+03  0.00000000000E+00 0.  1.
         21   -1    0    0  501  503 -0.00000000000E+00 -0.00000000000E+00 -0.22115271948E+03  0.22115271948E+03  0.00000000000E+00 0. -1.
          6    1    1    2  501    0  0.15324688743E+02  0.16647593007E+03 -0.74793852683E+02  0.25125127219E+03  0.17200000000E+03 0.  1.
         -6    1    1    2    0  502 -0.15324688743E+02 -0.16647593007E+03  0.18930200337E+03  0.30556231747E+03  0.17200000000E+03 0. -1.
</event>
<event>
 4    1  0.1253776E+000  0.2035486E+03  0.7818608E-02  0.1146779E+00
         21   -1    0    0  501  502  0.00000000000E+00  0.00000000000E+00  0.48992435991E+03  0.48992435991E+03  0.00000000000E+00 0. -1.
         21   -1    0    0  502  503 -0.00000000000E+00 -0.00000000000E+00 -0.24244426162E+03  0.24244426162E+03  0.00000000000E+00 0. -1.
          6    1    1    2  501    0 -0.52212777995E+02 -0.95508488546E+02  0.41923621623E+03  0.46603760639E+03  0.17200000000E+03 0. -1.
         -6    1    1    2    0  503  0.52212777995E+02  0.95508488546E+02 -0.17175611794E+03  0.26633101513E+03  0.17200000000E+03 0. -1.
</event>
<event>
 4    1  0.1253776E+000  0.1792338E+03  0.7818608E-02  0.1168547E+00
         21   -1    0    0  503  502  0.00000000000E+00  0.00000000000E+00  0.24588078160E+02  0.24588078160E+02  0.00000000000E+00 0.  1.
         21   -1    0    0  501  503 -0.00000000000E+00 -0.00000000000E+00 -0.24532994369E+04  0.24532994369E+04  0.00000000000E+00 0.  1.
          6    1    1    2  501    0  0.44639265783E+02  0.23411467679E+02 -0.20614205758E+04  0.20691978038E+04  0.17200000000E+03 0.  1.
         -6    1    1    2    0  502 -0.44639265783E+02 -0.23411467679E+02 -0.36729078296E+03  0.40868971129E+03  0.17200000000E+03 0.  1.
</event>
<event>
 4    1  0.1253776E+000  0.1882271E+03  0.7818608E-02  0.1160070E+00
         21   -1    0    0  501  502  0.00000000000E+00  0.00000000000E+00  0.10240995663E+03  0.10240995663E+03  0.00000000000E+00 0.  1.
         21   -1    0    0  502  503 -0.00000000000E+00 -0.00000000000E+00 -0.93691512297E+03  0.93691512297E+03  0.00000000000E+00 0.  1.
          6    1    1    2  501    0 -0.91775343507E+01  0.75902606147E+02 -0.45381364859E+01  0.18828177671E+03  0.17200000000E+03 0.  1.
         -6    1    1    2    0  503  0.91775343507E+01 -0.75902606147E+02 -0.82996702986E+03  0.85104330290E+03  0.17200000000E+03 0.  1.
</event>
<event>
 4    1  0.1253776E+000  0.1825858E+03  0.7818608E-02  0.1165324E+00
         21   -1    0    0  501  502  0.00000000000E+00  0.00000000000E+00  0.44198497374E+03  0.44198497374E+03  0.00000000000E+00 0. -1.
         21   -1    0    0  502  503 -0.00000000000E+00 -0.00000000000E+00 -0.78358021978E+02  0.78358021978E+02  0.00000000000E+00 0. -1.
          6    1    1    2  501    0  0.21560702288E+02 -0.57347324043E+02  0.23213236780E+03  0.29533542903E+03  0.17200000000E+03 0.  1.
         -6    1    1    2    0  503 -0.21560702288E+02  0.57347324043E+02  0.13149458397E+03  0.22500756670E+03  0.17200000000E+03 0.  1.
</event>
<event>
 4    1  0.1253776E+000  0.1765372E+03  0.7818608E-02  0.1171197E+00
         21   -1    0    0  501  502  0.00000000000E+00  0.00000000000E+00  0.25795162660E+03  0.25795162660E+03  0.00000000000E+00 0. -1.
         21   -1    0    0  502  503 -0.00000000000E+00 -0.00000000000E+00 -0.12266236039E+03  0.12266236039E+03  0.00000000000E+00 0. -1.
          6    1    1    2  501    0  0.10630081238E+02 -0.38319679114E+02  0.90975567599E+02  0.19859997567E+03  0.17200000000E+03 0. -1.
         -6    1    1    2    0  503 -0.10630081238E+02  0.38319679114E+02  0.44313698607E+02  0.18201401133E+03  0.17200000000E+03 0. -1.
</event>
<event>
 4    1  0.1253776E+000  0.1794572E+03  0.7818608E-02  0.1168329E+00
         21   -1    0    0  501  502  0.00000000000E+00  0.00000000000E+00  0.10203008535E+04  0.10203008535E+04  0.00000000000E+00 0. -1.
         21   -1    0    0  502  503 -0.00000000000E+00 -0.00000000000E+00 -0.31573042594E+02  0.31573042594E+02  0.00000000000E+00 0. -1.
          6    1    1    2  501    0 -0.20308099734E+01  0.51154280481E+02  0.50321208935E+03  0.53425395784E+03  0.17200000000E+03 0. -1.
         -6    1    1    2    0  503  0.20308099734E+01 -0.51154280481E+02  0.48551572157E+03  0.51761993827E+03  0.17200000000E+03 0. -1.
</event>
<event>
 4    1  0.1253776E+000  0.2380442E+03  0.7818608E-02  0.1121103E+00
         21   -1    0    0  501  502  0.00000000000E+00  0.00000000000E+00  0.34636691958E+03  0.34636691958E+03  0.00000000000E+00 0. -1.
         21   -1    0    0  502  503 -0.00000000000E+00 -0.00000000000E+00 -0.35895293147E+03  0.35895293147E+03  0.00000000000E+00 0. -1.
          6    1    1    2  501    0  0.16452201032E+03  0.36827057274E+01 -0.26645818363E+03  0.35730241788E+03  0.17200000000E+03 0. -1.
         -6    1    1    2    0  503 -0.16452201032E+03 -0.36827057274E+01  0.25387217175E+03  0.34801743317E+03  0.17200000000E+03 0. -1.
</event>
<event>
 4    1  0.1253776E+000  0.2052485E+03  0.7818608E-02  0.1145385E+00
         21   -1    0    0  501  502  0.00000000000E+00  0.00000000000E+00  0.34621137841E+03  0.34621137841E+03  0.00000000000E+00 0.  1.
         21   -1    0    0  502  503 -0.00000000000E+00 -0.00000000000E+00 -0.12450026429E+03  0.12450026429E+03  0.00000000000E+00 0.  1.
          6    1    1    2  501    0  0.10710589216E+03 -0.32730184103E+02  0.14627965661E+03  0.25204101854E+03  0.17200000000E+03 0.  1.
         -6    1    1    2    0  503 -0.10710589216E+03  0.32730184103E+02  0.75431457515E+02  0.21867062416E+03  0.17200000000E+03 0.  1.
</event>
<event>
 4    1  0.1253776E+000  0.1764025E+03  0.7818608E-02  0.1171331E+00
         21   -1    0    0  503  502  0.00000000000E+00  0.00000000000E+00  0.71684141989E+03  0.71684141989E+03  0.00000000000E+00 0.  1.
         21   -1    0    0  501  503 -0.00000000000E+00 -0.00000000000E+00 -0.43976608858E+02  0.43976608858E+02  0.00000000000E+00 0.  1.
          6    1    1    2  501    0 -0.34529408282E+02  0.18481064847E+02  0.29323888912E+03  0.34220881913E+03  0.17200000000E+03 0. -1.
         -6    1    1    2    0  502  0.34529408282E+02 -0.18481064847E+02  0.37962592191E+03  0.41860920963E+03  0.17200000000E+03 0. -1.
</event>
<event>
 4    1  0.1253776E+000  0.2488293E+03  0.7818608E-02  0.1114047E+00
         21   -1    0    0  503  502  0.00000000000E+00  0.00000000000E+00  0.30314364349E+03  0.30314364349E+03  0.00000000000E+00 0. -1.
         21   -1    0    0  501  503 -0.00000000000E+00 -0.00000000000E+00 -0.24919249309E+03  0.24919249309E+03  0.00000000000E+00 0.  1.
          6    1    1    2  501    0 -0.15381860397E+03 -0.93122774435E+02  0.14426306734E+03  0.28762448895E+03  0.17200000000E+03 0.  1.
         -6    1    1    2    0  502  0.15381860397E+03  0.93122774435E+02 -0.90311916941E+02  0.26471164762E+03  0.17200000000E+03 0.  1.
</event>
<event>
 4    1  0.1253776E+000  0.2359173E+03  0.7818608E-02  0.1122543E+00
         21   -1    0    0  503  502  0.00000000000E+00  0.00000000000E+00  0.59519604251E+02  0.59519604251E+02  0.00000000000E+00 0.  1.
         21   -1    0    0  501  503 -0.00000000000E+00 -0.00000000000E+00 -0.10107889868E+04  0.10107889868E+04  0.00000000000E+00 0. -1.
          6    1    1    2  501    0  0.56437459688E+02  0.15128705334E+03 -0.62207362508E+03  0.66530636129E+03  0.17200000000E+03 0. -1.
         -6    1    1    2    0  502 -0.56437459688E+02 -0.15128705334E+03 -0.32919575744E+03  0.40500222972E+03  0.17200000000E+03 0. -1.
</event>
<event>
 4    1  0.1253776E+000  0.2304779E+03  0.7818608E-02  0.1126304E+00
         21   -1    0    0  501  502  0.00000000000E+00  0.00000000000E+00  0.10627324897E+03  0.10627324897E+03  0.00000000000E+00 0.  1.
         21   -1    0    0  502  503 -0.00000000000E+00 -0.00000000000E+00 -0.11010633712E+04  0.11010633712E+04  0.00000000000E+00 0.  1.
          6    1    1    2  501    0 -0.10564505016E+03 -0.11124372629E+03 -0.51319211223E+02  0.23612222408E+03  0.17200000000E+03 0.  1.
         -6    1    1    2    0  503  0.10564505016E+03  0.11124372629E+03 -0.94347091102E+03  0.97121439611E+03  0.17200000000E+03 0.  1.
</event>
<event>
 4    1  0.1253776E+000  0.1765343E+03  0.7818608E-02  0.1171200E+00
         21   -1    0    0  503  502  0.00000000000E+00  0.00000000000E+00  0.24154755909E+03  0.24154755909E+03  0.00000000000E+00 0.  1.
         21   -1    0    0  501  503 -0.00000000000E+00 -0.00000000000E+00 -0.47529156458E+03  0.47529156458E+03  0.00000000000E+00 0.  1.
          6    1    1    2  501    0 -0.62780360791E+01  0.39255001213E+02 -0.42280077113E+03  0.45817557871E+03  0.17200000000E+03 0.  1.
         -6    1    1    2    0  502  0.62780360791E+01 -0.39255001213E+02  0.18905676564E+03  0.25866354496E+03  0.17200000000E+03 0.  1.
</event>
<event>
 4    1  0.1253776E+000  0.1789323E+03  0.7818608E-02  0.1168840E+00
         21   -1    0    0  503  502  0.00000000000E+00  0.00000000000E+00  0.23419052802E+03  0.23419052802E+03  0.00000000000E+00 0. -1.
         21   -1    0    0  501  503 -0.00000000000E+00 -0.00000000000E+00 -0.24388974122E+03  0.24388974122E+03  0.00000000000E+00 0. -1.
          6    1    1    2  501    0  0.46644267024E+02 -0.16033662348E+02 -0.16331170484E+03  0.24225498738E+03  0.17200000000E+03 0. -1.
         -6    1    1    2    0  502 -0.46644267024E+02  0.16033662348E+02  0.15361249164E+03  0.23582528186E+03  0.17200000000E+03 0. -1.
</event>
<event>
 4    1  0.1253776E+000  0.2051526E+03  0.7818608E-02  0.1145463E+00
         21   -1    0    0  503  502  0.00000000000E+00  0.00000000000E+00  0.34577563954E+02  0.34577563954E+02  0.00000000000E+00 0.  1.
         21   -1    0    0  501  503 -0.00000000000E+00 -0.00000000000E+00 -0.13259200519E+04  0.13259200519E+04  0.00000000000E+00 0. -1.
          6    1    1    2  501    0 -0.10886370997E+03 -0.25539434112E+02 -0.84046626612E+03  0.86514225104E+03  0.17200000000E+03 0. -1.
         -6    1    1    2    0  502  0.10886370997E+03  0.25539434112E+02 -0.45087622178E+03  0.49535536477E+03  0.17200000000E+03 0. -1.
</event>
<event>
 4    1  0.1253776E+000  0.1861381E+03  0.7818608E-02  0.1161991E+00
         21   -1    0    0  501  502  0.00000000000E+00  0.00000000000E+00  0.23991049762E+03  0.23991049762E+03  0.00000000000E+00 0.  1.
         21   -1    0    0  502  503 -0.00000000000E+00 -0.00000000000E+00 -0.34244221994E+03  0.34244221994E+03  0.00000000000E+00 0.  1.
          6    1    1    2  501    0  0.71003417875E+02 -0.46796106151E+01  0.17015659342E+03  0.25219169374E+03  0.17200000000E+03 0.  1.
         -6    1    1    2    0  503 -0.71003417875E+02  0.46796106151E+01 -0.27268831574E+03  0.33016102382E+03  0.17200000000E+03 0.  1.
</event>
<event>
 4    1  0.1253776E+000  0.1820904E+03  0.7818608E-02  0.1165795E+00
         21   -1    0    0  503  502  0.00000000000E+00  0.00000000000E+00  0.46647986487E+03  0.46647986487E+03  0.00000000000E+00 0.  1.
         21   -1    0    0  501  503 -0.00000000000E+00 -0.00000000000E+00 -0.78778135897E+02  0.78778135897E+02  0.00000000000E+00 0.  1.
          6    1    1    2  501    0  0.58915672602E+02  0.10091566419E+02  0.10862100482E+03  0.21202692961E+03  0.17200000000E+03 0.  1.
         -6    1    1    2    0  502 -0.58915672602E+02 -0.10091566419E+02  0.27908072415E+03  0.33323107116E+03  0.17200000000E+03 0.  1.
</event>
<event>
 4    1  0.1253776E+000  0.2303784E+03  0.7818608E-02  0.1126374E+00
         21   -1    0    0  503  502  0.00000000000E+00  0.00000000000E+00  0.15983703649E+03  0.15983703649E+03  0.00000000000E+00 0. -1.
         21   -1    0    0  501  503 -0.00000000000E+00 -0.00000000000E+00 -0.34714297950E+03  0.34714297950E+03  0.00000000000E+00 0. -1.
          6    1    1    2  501    0  0.14835685351E+03 -0.38476556125E+02 -0.40800423167E+02  0.23396340715E+03  0.17200000000E+03 0. -1.
         -6    1    1    2    0  502 -0.14835685351E+03  0.38476556125E+02 -0.14650551985E+03  0.27301660884E+03  0.17200000000E+03 0. -1.
</event>
<event>
 4    1  0.1253776E+000  0.1876343E+03  0.7818608E-02  0.1160612E+00
         21   -1    0    0  501  502  0.00000000000E+00  0.00000000000E+00  0.32448458449E+04  0.32448458449E+04  0.00000000000E+00 0.  1.
         21   -1    0    0  502  503 -0.00000000000E+00 -0.00000000000E+00 -0.11800991154E+02  0.11800991154E+02  0.00000000000E+00 0. -1.
          6    1    1    2  501    0  0.11675327812E+02  0.74069769012E+02  0.11542851326E+04  0.11694361083E+04  0.17200000000E+03 0. -1.
         -6    1    1    2    0  503 -0.11675327812E+02 -0.74069769012E+02  0.20787597211E+04  0.20872107278E+04  0.17200000000E+03 0. -1.
</event>
<event>
 4    1  0.1253776E+000  0.1974897E+03  0.7818608E-02  0.1151874E+00
         21   -1    0    0  503  502  0.00000000000E+00  0.00000000000E+00  0.13583193405E+03  0.13583193405E+03  0.00000000000E+00 0. -1.
         21   -1    0    0  501  503 -0.00000000000E+00 -0.00000000000E+00 -0.33050353422E+03  0.33050353422E+03  0.00000000000E+00 0. -1.
          6    1    1    2  501    0 -0.87843969042E+02 -0.41250639824E+02 -0.12873096989E+02  0.19790880427E+03  0.17200000000E+03 0. -1.
         -6    1    1    2    0  502  0.87843969042E+02  0.41250639824E+02 -0.18179850319E+03  0.26842666400E+03  0.17200000000E+03 0. -1.
</event>
<event>
 4    1  0.1253776E+000  0.2183662E+03  0.7818608E-02  0.1135107E+00
         21   -1    0    0  501  502  0.00000000000E+00  0.00000000000E+00  0.10116323596E+03  0.10116323596E+03  0.00000000000E+00 0.  1.
         21   -1    0    0  502  503 -0.00000000000E+00 -0.00000000000E+00 -0.58664542776E+03  0.58664542776E+03  0.00000000000E+00 0.  1.
          6    1    1    2  501    0 -0.68134374417E+02 -0.11600642148E+03 -0.90284333620E+02  0.23629440048E+03  0.17200000000E+03 0.  1.
         -6    1    1    2    0  503  0.68134374417E+02  0.11600642148E+03 -0.39519785818E+03  0.45151426324E+03  0.17200000000E+03 0.  1.
</event>
<event>
 4    1  0.1253776E+000  0.3339236E+03  0.7818608E-02  0.1069414E+00
         21   -1    0    0  501  502  0.00000000000E+00  0.00000000000E+00  0.26970680335E+03  0.26970680335E+03  0.00000000000E+00 0.  1.
         21   -1    0    0  502  503 -0.00000000000E+00 -0.00000000000E+00 -0.46004644450E+03  0.46004644450E+03  0.00000000000E+00 0.  1.
          6    1    1    2  501    0 -0.27283688432E+03  0.86492941019E+02 -0.21131812248E+03  0.39517128335E+03  0.17200000000E+03 0.  1.
         -6    1    1    2    0  503  0.27283688432E+03 -0.86492941019E+02  0.20978481328E+02  0.33458196450E+03  0.17200000000E+03 0.  1.
</event>
<event>
 4    1  0.1253776E+000  0.2503986E+03  0.7818608E-02  0.1113053E+00
         21   -1    0    0  503  502  0.00000000000E+00  0.00000000000E+00  0.33013167517E+02  0.33013167517E+02  0.00000000000E+00 0. -1.
         21   -1    0    0  501  503 -0.00000000000E+00 -0.00000000000E+00 -0.19060237863E+04  0.19060237863E+04  0.00000000000E+00 0.  1.
          6    1    1    2  501    0  0.17338504901E+03 -0.55254533658E+02 -0.99440845771E+03  0.10254499595E+04  0.17200000000E+03 0.  1.
         -6    1    1    2    0  502 -0.17338504901E+03  0.55254533658E+02 -0.87860216104E+03  0.91358699427E+03  0.17200000000E+03 0.  1.
</event>
<event>
 4    1  0.1253776E+000  0.2154962E+03  0.7818608E-02  0.1137286E+00
         21   -1    0    0  503  502  0.00000000000E+00  0.00000000000E+00  0.16057989378E+03  0.16057989378E+03  0.00000000000E+00 0. -1.
         21   -1    0    0  501  503 -0.00000000000E+00 -0.00000000000E+00 -0.62041959497E+03  0.62041959497E+03  0.00000000000E+00 0. -1.
          6    1    1    2  501    0  0.10188534054E+03  0.80461232585E+02 -0.51524522210E+03  0.55849464765E+03  0.17200000000E+03 0. -1.
         -6    1    1    2    0  502 -0.10188534054E+03 -0.80461232585E+02  0.55405520908E+02  0.22250484110E+03  0.17200000000E+03 0. -1.
</event>
<event>
 4    1  0.1253776E+000  0.2159810E+03  0.7818608E-02  0.1136915E+00
         21   -1    0    0  501  502  0.00000000000E+00  0.00000000000E+00  0.76963135292E+03  0.76963135292E+03  0.00000000000E+00 0. -1.
         21   -1    0    0  502  503 -0.00000000000E+00 -0.00000000000E+00 -0.72527250690E+02  0.72527250690E+02  0.00000000000E+00 0. -1.
          6    1    1    2  501    0 -0.13061431562E+03 -0.19197494509E+01  0.51923540862E+03  0.56236393417E+03  0.17200000000E+03 0. -1.
         -6    1    1    2    0  503  0.13061431562E+03  0.19197494509E+01  0.17786869361E+03  0.27979466944E+03  0.17200000000E+03 0. -1.
</event>
<event>
 4    1  0.1253776E+000  0.1748661E+03  0.7818608E-02  0.1172866E+00
         21   -1    0    0  503  502  0.00000000000E+00  0.00000000000E+00  0.10339485675E+04  0.10339485675E+04  0.00000000000E+00 0. -1.
         21   -1    0    0  501  503 -0.00000000000E+00 -0.00000000000E+00 -0.42464427452E+02  0.42464427452E+02  0.00000000000E+00 0. -1.
          6    1    1    2  501    0  0.31358079828E+02  0.32885508619E+01  0.19921282275E+03  0.26507337189E+03  0.17200000000E+03 0.  1.
         -6    1    1    2    0  502 -0.31358079828E+02 -0.32885508619E+01  0.79227131730E+03  0.81133962306E+03  0.17200000000E+03 0.  1.
</event>
<event>
 4    1  0.1253776E+000  0.2348655E+03  0.7818608E-02  0.1123261E+00
         21   -1    0    0  503  502  0.00000000000E+00  0.00000000000E+00  0.63147581646E+02  0.63147581646E+02  0.00000000000E+00 0.  1.
         21   -1    0    0  501  503 -0.00000000000E+00 -0.00000000000E+00 -0.89948892581E+03  0.89948892581E+03  0.00000000000E+00 0. -1.
          6    1    1    2  501    0  0.14693936320E+03  0.63139786265E+02 -0.49992509590E+03  0.55234673040E+03  0.17200000000E+03 0. -1.
         -6    1    1    2    0  502 -0.14693936320E+03 -0.63139786265E+02 -0.33641624826E+03  0.41028977706E+03  0.17200000000E+03 0. -1.
</event>
<event>
 4    1  0.1253776E+000  0.3687919E+03  0.7818608E-02  0.1055156E+00
         21   -1    0    0  503  502  0.00000000000E+00  0.00000000000E+00  0.25541318022E+03  0.25541318022E+03  0.00000000000E+00 0. -1.
         21   -1    0    0  501  503 -0.00000000000E+00 -0.00000000000E+00 -0.64009210580E+03  0.64009210580E+03  0.00000000000E+00 0.  1.
          6    1    1    2  501    0 -0.26735460294E+03 -0.18693568091E+03 -0.87668853785E+01  0.36889604334E+03  0.17200000000E+03 0.  1.
         -6    1    1    2    0  502  0.26735460294E+03  0.18693568091E+03 -0.37591204020E+03  0.52660924268E+03  0.17200000000E+03 0.  1.
</event>
<event>
 4    1  0.1253776E+000  0.2107500E+03  0.7818608E-02  0.1140973E+00
         21   -1    0    0  503  502  0.00000000000E+00  0.00000000000E+00  0.40802073923E+02  0.40802073923E+02  0.00000000000E+00 0.  1.
         21   -1    0    0  501  503 -0.00000000000E+00 -0.00000000000E+00 -0.13209027100E+04  0.13209027100E+04  0.00000000000E+00 0.  1.
          6    1    1    2  501    0 -0.73184357057E+02 -0.97342776296E+02 -0.92559934760E+03  0.94928905950E+03  0.17200000000E+03 0.  1.
         -6    1    1    2    0  502  0.73184357057E+02  0.97342776296E+02 -0.35450128846E+03  0.41241572440E+03  0.17200000000E+03 0.  1.
</event>
<event>
 4    1  0.1253776E+000  0.1722048E+03  0.7818608E-02  0.1175568E+00
         21   -1    0    0  503  502  0.00000000000E+00  0.00000000000E+00  0.28008372753E+02  0.28008372753E+02  0.00000000000E+00 0. -1.
         21   -1    0    0  501  503 -0.00000000000E+00 -0.00000000000E+00 -0.17330141425E+04  0.17330141425E+04  0.00000000000E+00 0. -1.
          6    1    1    2  501    0 -0.55233426909E+01 -0.63236966903E+01 -0.30328884995E+03  0.34876729055E+03  0.17200000000E+03 0.  1.
         -6    1    1    2    0  502  0.55233426909E+01  0.63236966903E+01 -0.14017169198E+04  0.14122552247E+04  0.17200000000E+03 0.  1.
</event>
<event>
 4    1  0.1253776E+000  0.1917879E+03  0.7818608E-02  0.1156859E+00
         21   -1    0    0  501  502  0.00000000000E+00  0.00000000000E+00  0.68000195360E+03  0.68000195360E+03  0.00000000000E+00 0.  1.
         21   -1    0    0  502  503 -0.00000000000E+00 -0.00000000000E+00 -0.59548107219E+02  0.59548107219E+02  0.00000000000E+00 0. -1.
          6    1    1    2  501    0  0.58981972316E+02 -0.60989564674E+02  0.42215753795E+03  0.46368047932E+03  0.17200000000E+03 0.  1.
         -6    1    1    2    0  503 -0.58981972316E+02  0.60989564674E+02  0.19829630844E+03  0.27586958150E+03  0.17200000000E+03 0.  1.
</event>
<event>
 4    1  0.1253776E+000  0.1961591E+03  0.7818608E-02  0.1153021E+00
         21   -1    0    0  503  502  0.00000000000E+00  0.00000000000E+00  0.12139171778E+04  0.12139171778E+04  0.00000000000E+00 0. -1.
         21   -1    0    0  501  503 -0.00000000000E+00 -0.00000000000E+00 -0.31738653627E+02  0.31738653627E+02  0.00000000000E+00 0. -1.
          6    1    1    2  501    0  0.94110236865E+02  0.61376205836E+01  0.56872200243E+03  0.60160046802E+03  0.17200000000E+03 0. -1.
         -6    1    1    2    0  502 -0.94110236865E+02 -0.61376205836E+01  0.61345652172E+03  0.64405536338E+03  0.17200000000E+03 0. -1.
</event>
<event>
 4    1  0.1253776E+000  0.2091787E+03  0.7818608E-02  0.1142218E+00
         21   -1    0    0  503  502  0.00000000000E+00  0.00000000000E+00  0.16785304346E+03  0.16785304346E+03  0.00000000000E+00 0. -1.
         21   -1    0    0  501  503 -0.00000000000E+00 -0.00000000000E+00 -0.29494406446E+03  0.29494406446E+03  0.00000000000E+00 0. -1.
          6    1    1    2  501    0 -0.11682767616E+03  0.22869662486E+02 -0.14241662019E+03  0.25305774259E+03  0.17200000000E+03 0. -1.
         -6    1    1    2    0  502  0.11682767616E+03 -0.22869662486E+02  0.15325599179E+02  0.20973936533E+03  0.17200000000E+03 0. -1.
</event>
<event>
 4    1  0.1253776E+000  0.2944404E+03  0.7818608E-02  0.1088053E+00
         21   -1    0    0  503  502  0.00000000000E+00  0.00000000000E+00  0.76877070342E+03  0.76877070342E+03  0.00000000000E+00 0.  1.
         21   -1    0    0  501  503 -0.00000000000E+00 -0.00000000000E+00 -0.11277639983E+03  0.11277639983E+03  0.00000000000E+00 0. -1.
          6    1    1    2  501    0  0.11065314242E+03 -0.21181833395E+03  0.32497801780E+03  0.43852689379E+03  0.17200000000E+03 0. -1.
         -6    1    1    2    0  502 -0.11065314242E+03  0.21181833395E+03  0.33101628580E+03  0.44302020946E+03  0.17200000000E+03 0. -1.
</event>
<event>
 4    1  0.1253776E+000  0.1746329E+03  0.7818608E-02  0.1173101E+00
         21   -1    0    0  501  502  0.00000000000E+00  0.00000000000E+00  0.16106005738E+04  0.16106005738E+04  0.00000000000E+00 0. -1.
         21   -1    0    0  502  503 -0.00000000000E+00 -0.00000000000E+00 -0.30042831474E+02  0.30042831474E+02  0.00000000000E+00 0. -1.
          6    1    1    2  501    0  0.25944431775E+02  0.15476775442E+02  0.12890822140E+04  0.13008572553E+04  0.17200000000E+03 0. -1.
         -6    1    1    2    0  503 -0.25944431775E+02 -0.15476775442E+02  0.29147552824E+03  0.33978614993E+03  0.17200000000E+03 0. -1.
</event>
<event>
 4    1  0.1253776E+000  0.2007941E+03  0.7818608E-02  0.1149071E+00
         21   -1    0    0  501  502  0.00000000000E+00  0.00000000000E+00  0.16747071187E+03  0.16747071187E+03  0.00000000000E+00 0. -1.
         21   -1    0    0  502  503 -0.00000000000E+00 -0.00000000000E+00 -0.35278251624E+03  0.35278251624E+03  0.00000000000E+00 0.  1.
          6    1    1    2  501    0 -0.10273793906E+03  0.13386542035E+02  0.53934881160E+02  0.20791165199E+03  0.17200000000E+03 0. -1.
         -6    1    1    2    0  503  0.10273793906E+03 -0.13386542035E+02 -0.23924668554E+03  0.31234157611E+03  0.17200000000E+03 0.  1.
</event>
<event>
 4    1  0.1253776E+000  0.1824727E+03  0.7818608E-02  0.1165431E+00
         21   -1    0    0  503  502  0.00000000000E+00  0.00000000000E+00  0.57998224329E+03  0.57998224329E+03  0.00000000000E+00 0.  1.
         21   -1    0    0  501  503 -0.00000000000E+00 -0.00000000000E+00 -0.92195646001E+02  0.92195646001E+02  0.00000000000E+00 0.  1.
          6    1    1    2  501    0 -0.56466825672E+02 -0.22886557063E+02  0.37448348712E+02  0.18627580551E+03  0.17200000000E+03 0.  1.
         -6    1    1    2    0  502  0.56466825672E+02  0.22886557063E+02  0.45033824858E+03  0.48590208379E+03  0.17200000000E+03 0.  1.
</event>
<event>
 4    1  0.1253776E+000  0.2129881E+03  0.7818608E-02  0.1139221E+00
         21   -1    0    0  501  502  0.00000000000E+00  0.00000000000E+00  0.22629450336E+03  0.22629450336E+03  0.00000000000E+00 0. -1.
         21   -1    0    0  502  503 -0.00000000000E+00 -0.00000000000E+00 -0.30453129270E+03  0.30453129270E+03  0.00000000000E+00 0. -1.
          6    1    1    2  501    0 -0.12492998493E+03 -0.13131088785E+02  0.11603559800E+03  0.24254522595E+03  0.17200000000E+03 0. -1.
         -6    1    1    2    0  503  0.12492998493E+03  0.13131088785E+02 -0.19427238734E+03  0.28828057012E+03  0.17200000000E+03 0. -1.
</event>
<event>
 4    1  0.1253776E+000  0.2002603E+03  0.7818608E-02  0.1149520E+00
         21   -1    0    0  501  502  0.00000000000E+00  0.00000000000E+00  0.37307219606E+02  0.37307219606E+02  0.00000000000E+00 0. -1.
         21   -1    0    0  502  503 -0.00000000000E+00 -0.00000000000E+00 -0.12510407708E+04  0.12510407708E+04  0.00000000000E+00 0.  1.
          6    1    1    2  501    0 -0.34712160150E+02 -0.96515474997E+02 -0.84852975592E+03  0.87184110804E+03  0.17200000000E+03 0. -1.
         -6    1    1    2    0  503  0.34712160150E+02  0.96515474997E+02 -0.36520379524E+03  0.41650688233E+03  0.17200000000E+03 0. -1.
</event>
<event>
 4    1  0.1253776E+000  0.1833000E+03  0.7818608E-02  0.1164647E+00
         21   -1    0    0  503  502  0.00000000000E+00  0.00000000000E+00  0.28492161785E+03  0.28492161785E+03  0.00000000000E+00 0. -1.
         21   -1    0    0  501  503 -0.00000000000E+00 -0.00000000000E+00 -0.23002422454E+03  0.23002422454E+03  0.00000000000E+00 0. -1.
          6    1    1    2  501    0 -0.62723122124E+02 -0.89835323004E+01 -0.15229323054E+03  0.23831097744E+03  0.17200000000E+03 0. -1.
         -6    1    1    2    0  502  0.62723122124E+02  0.89835323004E+01  0.20719062384E+03  0.27663486496E+03  0.17200000000E+03 0. -1.
</event>
<event>
 4    1  0.1253776E+000  0.1831736E+03  0.7818608E-02  0.1164767E+00
         21   -1    0    0  503  502  0.00000000000E+00  0.00000000000E+00  0.65291394718E+03  0.65291394718E+03  0.00000000000E+00 0.  1.
         21   -1    0    0  501  503 -0.00000000000E+00 -0.00000000000E+00 -0.57339544469E+02  0.57339544469E+02  0.00000000000E+00 0.  1.
          6    1    1    2  501    0 -0.36688838605E+02  0.51210212236E+02  0.41219002547E+03  0.45105783866E+03  0.17200000000E+03 0.  1.
         -6    1    1    2    0  502  0.36688838605E+02 -0.51210212236E+02  0.18338437724E+03  0.25919565300E+03  0.17200000000E+03 0.  1.
</event>
<event>
 4    1  0.1253776E+000  0.1993484E+03  0.7818608E-02  0.1150290E+00
         21   -1    0    0  501  502  0.00000000000E+00  0.00000000000E+00  0.27103234382E+03  0.27103234382E+03  0.00000000000E+00 0.  1.
         21   -1    0    0  502  503 -0.00000000000E+00 -0.00000000000E+00 -0.14781309907E+03  0.14781309907E+03  0.00000000000E+00 0.  1.
          6    1    1    2  501    0  0.79693968947E+02 -0.61681822010E+02  0.80395170531E+02  0.21494920167E+03  0.17200000000E+03 0.  1.
         -6    1    1    2    0  503 -0.79693968947E+02  0.61681822010E+02  0.42824074224E+02  0.20389624123E+03  0.17200000000E+03 0.  1.
</event>
<event>
 4    1  0.1253776E+000  0.2455952E+03  0.7818608E-02  0.1116121E+00
         21   -1    0    0  501  502  0.00000000000E+00  0.00000000000E+00  0.85113548390E+02  0.85113548390E+02  0.00000000000E+00 0.  1.
         21   -1    0    0  502  503 -0.00000000000E+00 -0.00000000000E+00 -0.70886240098E+03  0.70886240098E+03  0.00000000000E+00 0. -1.
          6    1    1    2  501    0  0.17381804689E+03  0.22809733708E+02 -0.31849829134E+03  0.40219169430E+03  0.17200000000E+03 0.  1.
         -6    1    1    2    0  503 -0.17381804689E+03 -0.22809733708E+02 -0.30525056125E+03  0.39178425507E+03  0.17200000000E+03 0. -1.
</event>
<event>
 4    1  0.1253776E+000  0.1862366E+03  0.7818608E-02  0.1161900E+00
         21   -1    0    0  503  502  0.00000000000E+00  0.00000000000E+00  0.89350868171E+02  0.89350868171E+02  0.00000000000E+00 0.  1.
         21   -1    0    0  501  503 -0.00000000000E+00 -0.00000000000E+00 -0.85059462836E+03  0.85059462836E+03  0.00000000000E+00 0.  1.
          6    1    1    2  501    0 -0.70304443792E+02  0.12544116362E+02 -0.72714158047E+03  0.75061238180E+03  0.17200000000E+03 0.  1.
         -6    1    1    2    0  502  0.70304443792E+02 -0.12544116362E+02 -0.34102179728E+02  0.18933311473E+03  0.17200000000E+03 0.  1.
</event>
<event>
 4    1  0.1253776E+000  0.2079194E+03  0.7818608E-02  0.1143224E+00
         21   -1    0    0  503  502  0.00000000000E+00  0.00000000000E+00  0.10742500077E+03  0.10742500077E+03  0.00000000000E+00 0.  1.
         21   -1    0    0  501  503 -0.00000000000E+00 -0.00000000000E+00 -0.42027767978E+03  0.42027767978E+03  0.00000000000E+00 0.  1.
          6    1    1    2  501    0 -0.10110307647E+03  0.58520301285E+02 -0.21080747938E+03  0.29609162619E+03  0.17200000000E+03 0.  1.
         -6    1    1    2    0  502  0.10110307647E+03 -0.58520301285E+02 -0.10204519963E+03  0.23161105436E+03  0.17200000000E+03 0.  1.
</event>
<event>
 4    1  0.1253776E+000  0.1814283E+03  0.7818608E-02  0.1166428E+00
         21   -1    0    0  501  502  0.00000000000E+00  0.00000000000E+00  0.67932113065E+03  0.67932113065E+03  0.00000000000E+00 0. -1.
         21   -1    0    0  502  503 -0.00000000000E+00 -0.00000000000E+00 -0.11432087633E+03  0.11432087633E+03  0.00000000000E+00 0. -1.
          6    1    1    2  501    0 -0.56865826400E+02  0.99244096658E+01  0.58370605841E+03  0.61125197648E+03  0.17200000000E+03 0. -1.
         -6    1    1    2    0  503  0.56865826400E+02 -0.99244096658E+01 -0.18705804099E+02  0.18239003050E+03  0.17200000000E+03 0. -1.
</event>
<event>
 4    1  0.1253776E+000  0.1907220E+03  0.7818608E-02  0.1157812E+00
         21   -1    0    0  503  502  0.00000000000E+00  0.00000000000E+00  0.70264898045E+03  0.70264898045E+03  0.00000000000E+00 0. -1.
         21   -1    0    0  501  503 -0.00000000000E+00 -0.00000000000E+00 -0.84642489427E+02  0.84642489427E+02  0.00000000000E+00 0.  1.
          6    1    1    2  501    0  0.61053960513E+02 -0.55346982047E+02  0.63679544002E+02  0.20107202401E+03  0.17200000000E+03 0.  1.
         -6    1    1    2    0  502 -0.61053960513E+02  0.55346982047E+02  0.55432694702E+03  0.58621944587E+03  0.17200000000E+03 0. -1.
</event>
<event>
 4    1  0.1253776E+000  0.1782836E+03  0.7818608E-02  0.1169475E+00
         21   -1    0    0  503  502  0.00000000000E+00  0.00000000000E+00  0.86058580078E+02  0.86058580078E+02  0.00000000000E+00 0.  1.
         21   -1    0    0  501  503 -0.00000000000E+00 -0.00000000000E+00 -0.10915932680E+04  0.10915932680E+04  0.00000000000E+00 0.  1.
          6    1    1    2  501    0 -0.13487682488E+02 -0.44934500697E+02 -0.98172897975E+03  0.99778595731E+03  0.17200000000E+03 0.  1.
         -6    1    1    2    0  502  0.13487682488E+02  0.44934500697E+02 -0.23805708215E+02  0.17986589081E+03  0.17200000000E+03 0.  1.
</event>
<event>
 4    1  0.1253776E+000  0.2203595E+03  0.7818608E-02  0.1133615E+00
         21   -1    0    0  501  502  0.00000000000E+00  0.00000000000E+00  0.86004357392E+03  0.86004357392E+03  0.00000000000E+00 0. -1.
         21   -1    0    0  502  503 -0.00000000000E+00 -0.00000000000E+00 -0.97004659538E+02  0.97004659538E+02  0.00000000000E+00 0.  1.
          6    1    1    2  501    0 -0.46127290239E-01  0.13774731279E+03  0.69088555301E+03  0.72517664860E+03  0.17200000000E+03 0. -1.
         -6    1    1    2    0  503  0.46127290239E-01 -0.13774731279E+03  0.72153361363E+02  0.23187158486E+03  0.17200000000E+03 0.  1.
</event>
<event>
 4    1  0.1253776E+000  0.1748868E+03  0.7818608E-02  0.1172845E+00
         21   -1    0    0  501  502  0.00000000000E+00  0.00000000000E+00  0.37266094196E+03  0.37266094196E+03  0.00000000000E+00 0.  1.
         21   -1    0    0  502  503 -0.00000000000E+00 -0.00000000000E+00 -0.84051285401E+02  0.84051285401E+02  0.00000000000E+00 0.  1.
          6    1    1    2  501    0  0.28585705659E+02  0.13573616127E+02  0.17933881895E+03  0.25049510495E+03  0.17200000000E+03 0.  1.
         -6    1    1    2    0  503 -0.28585705659E+02 -0.13573616127E+02  0.10927083761E+03  0.20621712241E+03  0.17200000000E+03 0.  1.
</event>
<event>
 4    1  0.1253776E+000  0.1949857E+03  0.7818608E-02  0.1154040E+00
         21   -1    0    0  503  502  0.00000000000E+00  0.00000000000E+00  0.21956254879E+03  0.21956254879E+03  0.00000000000E+00 0.  1.
         21   -1    0    0  501  503 -0.00000000000E+00 -0.00000000000E+00 -0.39851038181E+03  0.39851038181E+03  0.00000000000E+00 0.  1.
          6    1    1    2  501    0 -0.18411276142E+02  0.89980307468E+02 -0.32186483117E+03  0.37631954556E+03  0.17200000000E+03 0.  1.
         -6    1    1    2    0  502  0.18411276142E+02 -0.89980307468E+02  0.14291699816E+03  0.24175338505E+03  0.17200000000E+03 0.  1.
</event>
<event>
 4    1  0.1253776E+000  0.1901650E+03  0.7818608E-02  0.1158313E+00
         21   -1    0    0  503  502  0.00000000000E+00  0.00000000000E+00  0.42257054075E+02  0.42257054075E+02  0.00000000000E+00 0. -1.
         21   -1    0    0  501  503 -0.00000000000E+00 -0.00000000000E+00 -0.11207378020E+04  0.11207378020E+04  0.00000000000E+00 0. -1.
          6    1    1    2  501    0 -0.61973576574E+02  0.52325849009E+02 -0.82197864071E+03  0.84368928193E+03  0.17200000000E+03 0. -1.
         -6    1    1    2    0  502  0.61973576574E+02 -0.52325849009E+02 -0.25650210719E+03  0.31930557411E+03  0.17200000000E+03 0. -1.
</event>
<event>
 4    1  0.1253776E+000  0.1794219E+03  0.7818608E-02  0.1168364E+00
         21   -1    0    0  501  502  0.00000000000E+00  0.00000000000E+00  0.82608325438E+03  0.82608325438E+03  0.00000000000E+00 0.  1.
         21   -1    0    0  502  503 -0.00000000000E+00 -0.00000000000E+00 -0.47027426824E+02  0.47027426824E+02  0.00000000000E+00 0.  1.
          6    1    1    2  501    0 -0.50412387501E+02  0.81728939358E+01  0.57023298696E+03  0.59779416560E+03  0.17200000000E+03 0.  1.
         -6    1    1    2    0  503  0.50412387501E+02 -0.81728939358E+01  0.20882284059E+03  0.27531651560E+03  0.17200000000E+03 0.  1.
</event>
<event>
 4    1  0.1253776E+000  0.1792206E+03  0.7818608E-02  0.1168560E+00
         21   -1    0    0  501  502  0.00000000000E+00  0.00000000000E+00  0.36409194268E+03  0.36409194268E+03  0.00000000000E+00 0. -1.
         21   -1    0    0  502  503 -0.00000000000E+00 -0.00000000000E+00 -0.10369278723E+03  0.10369278723E+03  0.00000000000E+00 0. -1.
          6    1    1    2  501    0  0.40682726775E+01 -0.50194175900E+02  0.22055062279E+03  0.28418758479E+03  0.17200000000E+03 0. -1.
         -6    1    1    2    0  503 -0.40682726775E+01  0.50194175900E+02  0.39848532658E+02  0.18359714511E+03  0.17200000000E+03 0. -1.
</event>
<event>
 4    1  0.1253776E+000  0.1791081E+03  0.7818608E-02  0.1168669E+00
         21   -1    0    0  501  502  0.00000000000E+00  0.00000000000E+00  0.10272106046E+04  0.10272106046E+04  0.00000000000E+00 0.  1.
         21   -1    0    0  502  503 -0.00000000000E+00 -0.00000000000E+00 -0.37840552509E+02  0.37840552509E+02  0.00000000000E+00 0.  1.
          6    1    1    2  501    0 -0.49838484100E+02  0.34398768997E+01  0.71726350700E+03  0.73928793154E+03  0.17200000000E+03 0.  1.
         -6    1    1    2    0  503  0.49838484100E+02 -0.34398768997E+01  0.27210654510E+03  0.32576322557E+03  0.17200000000E+03 0.  1.
</event>
<event>
 4    1  0.1253776E+000  0.2027482E+03  0.7818608E-02  0.1147441E+00
         21   -1    0    0  501  502  0.00000000000E+00  0.00000000000E+00  0.19693279366E+04  0.19693279366E+04  0.00000000000E+00 0. -1.
         21   -1    0    0  502  503 -0.00000000000E+00 -0.00000000000E+00 -0.39550537514E+02  0.39550537514E+02  0.00000000000E+00 0.  1.
          6    1    1    2  501    0 -0.10684957429E+03  0.10295689230E+02  0.16551302198E+04  0.16675019872E+04  0.17200000000E+03 0. -1.
         -6    1    1    2    0  503  0.10684957429E+03 -0.10295689230E+02  0.27464717928E+03  0.34137648693E+03  0.17200000000E+03 0.  1.
</event>
<event>
 4    1  0.1253776E+000  0.1808271E+03  0.7818608E-02  0.1167005E+00
         21   -1    0    0  503  502  0.00000000000E+00  0.00000000000E+00  0.14107647577E+03  0.14107647577E+03  0.00000000000E+00 0.  1.
         21   -1    0    0  501  503 -0.00000000000E+00 -0.00000000000E+00 -0.28827566450E+03  0.28827566450E+03  0.00000000000E+00 0.  1.
          6    1    1    2  501    0  0.55806868275E+02 -0.17448191988E+00 -0.16863698921E+03  0.24725871293E+03  0.17200000000E+03 0.  1.
         -6    1    1    2    0  502 -0.55806868275E+02  0.17448191988E+00  0.21437800471E+02  0.18209342734E+03  0.17200000000E+03 0.  1.
</event>
<event>
 4    1  0.1253776E+000  0.1832972E+03  0.7818608E-02  0.1164650E+00
         21   -1    0    0  501  502  0.00000000000E+00  0.00000000000E+00  0.10093640423E+04  0.10093640423E+04  0.00000000000E+00 0. -1.
         21   -1    0    0  502  503 -0.00000000000E+00 -0.00000000000E+00 -0.33305405297E+02  0.33305405297E+02  0.00000000000E+00 0. -1.
          6    1    1    2  501    0 -0.59830746992E+02 -0.20836483697E+02  0.50055350325E+03  0.53305880253E+03  0.17200000000E+03 0.  1.
         -6    1    1    2    0  503  0.59830746992E+02  0.20836483697E+02  0.47550513371E+03  0.50961064502E+03  0.17200000000E+03 0.  1.
</event>
<event>
 4    1  0.1253776E+000  0.1807224E+03  0.7818608E-02  0.1167106E+00
         21   -1    0    0  501  502  0.00000000000E+00  0.00000000000E+00  0.12366870487E+03  0.12366870487E+03  0.00000000000E+00 0.  1.
         21   -1    0    0  502  503 -0.00000000000E+00 -0.00000000000E+00 -0.32638509268E+03  0.32638509268E+03  0.00000000000E+00 0.  1.
          6    1    1    2  501    0  0.36702227732E+02  0.41587491183E+02 -0.30543059289E+01  0.18074817213E+03  0.17200000000E+03 0. -1.
         -6    1    1    2    0  503 -0.36702227732E+02 -0.41587491183E+02 -0.19966208188E+03  0.26930562542E+03  0.17200000000E+03 0. -1.
</event>
<event>
 4    1  0.1253776E+000  0.1982063E+03  0.7818608E-02  0.1151261E+00
         21   -1    0    0  501  502  0.00000000000E+00  0.00000000000E+00  0.39411013876E+03  0.39411013876E+03  0.00000000000E+00 0.  1.
         21   -1    0    0  502  503 -0.00000000000E+00 -0.00000000000E+00 -0.11194508472E+03  0.11194508472E+03  0.00000000000E+00 0. -1.
          6    1    1    2  501    0  0.43643984456E+02  0.88300266891E+02  0.22482834417E+03  0.29972240299E+03  0.17200000000E+03 0.  1.
         -6    1    1    2    0  503 -0.43643984456E+02 -0.88300266891E+02  0.57336709874E+02  0.20633282049E+03  0.17200000000E+03 0. -1.
</event>
<event>
 4    1  0.1253776E+000  0.2193066E+03  0.7818608E-02  0.1134401E+00
         21   -1    0    0  501  502  0.00000000000E+00  0.00000000000E+00  0.11497447378E+04  0.11497447378E+04  0.00000000000E+00 0.  1.
         21   -1    0    0  502  503 -0.00000000000E+00 -0.00000000000E+00 -0.44190428830E+02  0.44190428830E+02  0.00000000000E+00 0. -1.
          6    1    1    2  501    0 -0.13576276753E+03 -0.89360815743E+01  0.69070667355E+03  0.72468689203E+03  0.17200000000E+03 0.  1.
         -6    1    1    2    0  503  0.13576276753E+03  0.89360815743E+01  0.41484763545E+03  0.46924827463E+03  0.17200000000E+03 0. -1.
</event>
<event>
 4    1  0.1253776E+000  0.2191477E+03  0.7818608E-02  0.1134520E+00
         21   -1    0    0  501  502  0.00000000000E+00  0.00000000000E+00  0.81848532459E+02  0.81848532459E+02  0.00000000000E+00 0. -1.
         21   -1    0    0  502  503 -0.00000000000E+00 -0.00000000000E+00 -0.75344333814E+03  0.75344333814E+03  0.00000000000E+00 0. -1.
          6    1    1    2  501    0 -0.74093200623E+02 -0.11380641975E+03 -0.13935965865E+03  0.25970525219E+03  0.17200000000E+03 0. -1.
         -6    1    1    2    0  503  0.74093200623E+02  0.11380641975E+03 -0.53223514703E+03  0.57558661841E+03  0.17200000000E+03 0. -1.
</event>
<event>
 4    1  0.1253776E+000  0.2106624E+03  0.7818608E-02  0.1141043E+00
         21   -1    0    0  503  502  0.00000000000E+00  0.00000000000E+00  0.18749639085E+04  0.18749639085E+04  0.00000000000E+00 0. -1.
         21   -1    0    0  501  503 -0.00000000000E+00 -0.00000000000E+00 -0.25780386118E+02  0.25780386118E+02  0.00000000000E+00 0. -1.
          6    1    1    2  501    0 -0.95562172527E+02 -0.75249606611E+02  0.65261818403E+03  0.68577629460E+03  0.17200000000E+03 0. -1.
         -6    1    1    2    0  502  0.95562172527E+02  0.75249606611E+02  0.11965653383E+04  0.12149680000E+04  0.17200000000E+03 0. -1.
</event>
<event>
 4    1  0.1253776E+000  0.1980230E+03  0.7818608E-02  0.1151418E+00
         21   -1    0    0  501  502  0.00000000000E+00  0.00000000000E+00  0.94167428937E+02  0.94167428937E+02  0.00000000000E+00 0. -1.
         21   -1    0    0  502  503 -0.00000000000E+00 -0.00000000000E+00 -0.43354290078E+03  0.43354290078E+03  0.00000000000E+00 0. -1.
          6    1    1    2  501    0  0.72205255375E+02 -0.66449375299E+02 -0.22212612286E+03  0.29757878425E+03  0.17200000000E+03 0. -1.
         -6    1    1    2    0  503 -0.72205255375E+02  0.66449375299E+02 -0.11724934899E+03  0.23013154547E+03  0.17200000000E+03 0. -1.
</event>
<event>
 4    1  0.1253776E+000  0.2893559E+03  0.7818608E-02  0.1090686E+00
         21   -1    0    0  503  502  0.00000000000E+00  0.00000000000E+00  0.40223051074E+02  0.40223051074E+02  0.00000000000E+00 0.  1.
         21   -1    0    0  501  503 -0.00000000000E+00 -0.00000000000E+00 -0.22210016680E+04  0.22210016680E+04  0.00000000000E+00 0. -1.
          6    1    1    2  501    0  0.20703176813E+03 -0.10621053097E+03 -0.13736787034E+04  0.14038233543E+04  0.17200000000E+03 0.  1.
         -6    1    1    2    0  502 -0.20703176813E+03  0.10621053097E+03 -0.80709991353E+03  0.85740136478E+03  0.17200000000E+03 0. -1.
</event>
<event>
 4    1  0.1253776E+000  0.1750265E+03  0.7818608E-02  0.1172705E+00
         21   -1    0    0  501  502  0.00000000000E+00  0.00000000000E+00  0.49075254460E+02  0.49075254460E+02  0.00000000000E+00 0. -1.
         21   -1    0    0  502  503 -0.00000000000E+00 -0.00000000000E+00 -0.10407867468E+04  0.10407867468E+04  0.00000000000E+00 0. -1.
          6    1    1    2  501    0 -0.73025084469E+01 -0.31574724153E+02 -0.15111131434E+03  0.23123347326E+03  0.17200000000E+03 0. -1.
         -6    1    1    2    0  503  0.73025084469E+01  0.31574724153E+02 -0.84060017796E+03  0.85862852796E+03  0.17200000000E+03 0. -1.
</event>
<event>
 4    1  0.1253776E+000  0.1734053E+03  0.7818608E-02  0.1174342E+00
         21   -1    0    0  503  502  0.00000000000E+00  0.00000000000E+00  0.78689509088E+03  0.78689509088E+03  0.00000000000E+00 0. -1.
         21   -1    0    0  501  503 -0.00000000000E+00 -0.00000000000E+00 -0.39844663607E+02  0.39844663607E+02  0.00000000000E+00 0. -1.
          6    1    1    2  501    0 -0.18009274700E+02  0.12691641915E+02  0.45718266526E+03  0.48896359902E+03  0.17200000000E+03 0.  1.
         -6    1    1    2    0  502  0.18009274700E+02 -0.12691641915E+02  0.28986776202E+03  0.33777615547E+03  0.17200000000E+03 0.  1.
</event>
<event>
 4    1  0.1253776E+000  0.2066735E+03  0.7818608E-02  0.1144228E+00
         21   -1    0    0  501  502  0.00000000000E+00  0.00000000000E+00  0.79205392652E+03  0.79205392652E+03  0.00000000000E+00 0.  1.
         21   -1    0    0  502  503 -0.00000000000E+00 -0.00000000000E+00 -0.54387408770E+02  0.54387408770E+02  0.00000000000E+00 0.  1.
          6    1    1    2  501    0 -0.78968308833E+01 -0.11431344544E+03  0.32993826624E+03  0.38932400809E+03  0.17200000000E+03 0.  1.
         -6    1    1    2    0  503  0.78968308833E+01  0.11431344544E+03  0.40772825151E+03  0.45711732720E+03  0.17200000000E+03 0.  1.
</event>
<event>
 4    1  0.1253776E+000  0.2494738E+03  0.7818608E-02  0.1113638E+00
         21   -1    0    0  503  502  0.00000000000E+00  0.00000000000E+00  0.75770731656E+03  0.75770731656E+03  0.00000000000E+00 0. -1.
         21   -1    0    0  501  503 -0.00000000000E+00 -0.00000000000E+00 -0.19811257871E+03  0.19811257871E+03  0.00000000000E+00 0.  1.
          6    1    1    2  501    0  0.17217559290E+03 -0.54851982979E+02 -0.85856300661E+02  0.26383418882E+03  0.17200000000E+03 0.  1.
         -6    1    1    2    0  502 -0.17217559290E+03  0.54851982979E+02  0.64545103851E+03  0.69198570646E+03  0.17200000000E+03 0. -1.
</event>
<event>
 4    1  0.1253776E+000  0.1893537E+03  0.7818608E-02  0.1159046E+00
         21   -1    0    0  501  502  0.00000000000E+00  0.00000000000E+00  0.26816525124E+03  0.26816525124E+03  0.00000000000E+00 0.  1.
         21   -1    0    0  502  503 -0.00000000000E+00 -0.00000000000E+00 -0.19484106091E+03  0.19484106091E+03  0.00000000000E+00 0.  1.
          6    1    1    2  501    0 -0.20609485513E+02  0.76459522644E+02  0.16634071674E+03  0.25203976579E+03  0.17200000000E+03 0.  1.
         -6    1    1    2    0  503  0.20609485513E+02 -0.76459522644E+02 -0.93016526416E+02  0.21096654636E+03  0.17200000000E+03 0.  1.
</event>
<event>
 4    1  0.1253776E+000  0.1965871E+03  0.7818608E-02  0.1152651E+00
         21   -1    0    0  503  502  0.00000000000E+00  0.00000000000E+00  0.15758495383E+03  0.15758495383E+03  0.00000000000E+00 0.  1.
         21   -1    0    0  501  503 -0.00000000000E+00 -0.00000000000E+00 -0.49095322363E+03  0.49095322363E+03  0.00000000000E+00 0.  1.
          6    1    1    2  501    0  0.71755058932E+02 -0.62559718844E+02 -0.39608638169E+03  0.44218879301E+03  0.17200000000E+03 0.  1.
         -6    1    1    2    0  502 -0.71755058932E+02  0.62559718844E+02  0.62718111890E+02  0.20634938445E+03  0.17200000000E+03 0.  1.
</event>
<event>
 4    1  0.1253776E+000  0.1745518E+03  0.7818608E-02  0.1173182E+00
         21   -1    0    0  501  502  0.00000000000E+00  0.00000000000E+00  0.96573630626E+02  0.96573630626E+02  0.00000000000E+00 0.  1.
         21   -1    0    0  502  503 -0.00000000000E+00 -0.00000000000E+00 -0.43599807370E+03  0.43599807370E+03  0.00000000000E+00 0.  1.
          6    1    1    2  501    0  0.27496606340E+02  0.11326011990E+02 -0.29718752663E+02  0.17706367828E+03  0.17200000000E+03 0.  1.
         -6    1    1    2    0  503 -0.27496606340E+02 -0.11326011990E+02 -0.30970569041E+03  0.35550802604E+03  0.17200000000E+03 0.  1.
</event>
<event>
 4    1  0.1253776E+000  0.2030106E+03  0.7818608E-02  0.1147224E+00
         21   -1    0    0  503  502  0.00000000000E+00  0.00000000000E+00  0.31848629427E+03  0.31848629427E+03  0.00000000000E+00 0.  1.
         21   -1    0    0  501  503 -0.00000000000E+00 -0.00000000000E+00 -0.17999979675E+03  0.17999979675E+03  0.00000000000E+00 0.  1.
          6    1    1    2  501    0  0.75958465440E+02  0.76548102611E+02 -0.62900191240E+02  0.21253172597E+03  0.17200000000E+03 0.  1.
         -6    1    1    2    0  502 -0.75958465440E+02 -0.76548102611E+02  0.20138668876E+03  0.28595436505E+03  0.17200000000E+03 0.  1.
</event>
<event>
 4    1  0.1253776E+000  0.1928237E+03  0.7818608E-02  0.1155939E+00
         21   -1    0    0  501  502  0.00000000000E+00  0.00000000000E+00  0.12120974880E+04  0.12120974880E+04  0.00000000000E+00 0.  1.
         21   -1    0    0  502  503 -0.00000000000E+00 -0.00000000000E+00 -0.30809288675E+02  0.30809288675E+02  0.00000000000E+00 0.  1.
          6    1    1    2  501    0  0.70239630508E+02  0.51607830801E+02  0.54960074498E+03  0.58244480663E+03  0.17200000000E+03 0.  1.
         -6    1    1    2    0  503 -0.70239630508E+02 -0.51607830801E+02  0.63168745439E+03  0.66046197009E+03  0.17200000000E+03 0.  1.
</event>
<event>
 4    1  0.1253776E+000  0.1753845E+03  0.7818608E-02  0.1172346E+00
         21   -1    0    0  503  502  0.00000000000E+00  0.00000000000E+00  0.12858402067E+03  0.12858402067E+03  0.00000000000E+00 0. -1.
         21   -1    0    0  501  503 -0.00000000000E+00 -0.00000000000E+00 -0.24049381483E+03  0.24049381483E+03  0.00000000000E+00 0. -1.
          6    1    1    2  501    0 -0.26526463344E+02 -0.21727137103E+02 -0.42518437115E+02  0.18046478670E+03  0.17200000000E+03 0.  1.
         -6    1    1    2    0  502  0.26526463344E+02  0.21727137103E+02 -0.69391357049E+02  0.18861304880E+03  0.17200000000E+03 0.  1.
</event>
<event>
 4    1  0.1253776E+000  0.2459599E+03  0.7818608E-02  0.1115885E+00
         21   -1    0    0  501  502  0.00000000000E+00  0.00000000000E+00  0.29175244437E+03  0.29175244437E+03  0.00000000000E+00 0.  1.
         21   -1    0    0  502  503 -0.00000000000E+00 -0.00000000000E+00 -0.24545273548E+03  0.24545273548E+03  0.00000000000E+00 0.  1.
          6    1    1    2  501    0  0.13750964697E+03  0.10955978600E+03  0.12897219674E+03  0.27772302254E+03  0.17200000000E+03 0.  1.
         -6    1    1    2    0  503 -0.13750964697E+03 -0.10955978600E+03 -0.82672487838E+02  0.25948215731E+03  0.17200000000E+03 0.  1.
</event>
<event>
 4    1  0.1253776E+000  0.2810074E+03  0.7818608E-02  0.1095140E+00
         21   -1    0    0  501  502  0.00000000000E+00  0.00000000000E+00  0.99407982166E+02  0.99407982166E+02  0.00000000000E+00 0. -1.
         21   -1    0    0  502  503 -0.00000000000E+00 -0.00000000000E+00 -0.82535352727E+03  0.82535352727E+03  0.00000000000E+00 0.  1.
          6    1    1    2  501    0  0.15319032864E+03 -0.16097786545E+03 -0.45258262266E+03  0.53272523902E+03  0.17200000000E+03 0. -1.
         -6    1    1    2    0  503 -0.15319032864E+03  0.16097786545E+03 -0.27336292244E+03  0.39203627041E+03  0.17200000000E+03 0.  1.
</event>
<event>
 4    1  0.1253776E+000  0.1963361E+03  0.7818608E-02  0.1152868E+00
         21   -1    0    0  503  502  0.00000000000E+00  0.00000000000E+00  0.92901563558E+02  0.92901563558E+02  0.00000000000E+00 0.  1.
         21   -1    0    0  501  503 -0.00000000000E+00 -0.00000000000E+00 -0.49896363085E+03  0.49896363085E+03  0.00000000000E+00 0.  1.
          6    1    1    2  501    0  0.91567140293E+02 -0.24068766482E+02 -0.32447594864E+03  0.37925253849E+03  0.17200000000E+03 0. -1.
         -6    1    1    2    0  502 -0.91567140293E+02  0.24068766482E+02 -0.81586118651E+02  0.21261265592E+03  0.17200000000E+03 0. -1.
</event>
<event>
 4    1  0.1253776E+000  0.2521059E+03  0.7818608E-02  0.1111981E+00
         21   -1    0    0  503  502  0.00000000000E+00  0.00000000000E+00  0.13718022813E+03  0.13718022813E+03  0.00000000000E+00 0.  1.
         21   -1    0    0  501  503 -0.00000000000E+00 -0.00000000000E+00 -0.51046595139E+03  0.51046595139E+03  0.00000000000E+00 0. -1.
          6    1    1    2  501    0  0.17493808731E+03  0.58051945775E+02 -0.28506199636E+03  0.38054921438E+03  0.17200000000E+03 0. -1.
         -6    1    1    2    0  502 -0.17493808731E+03 -0.58051945775E+02 -0.88223726898E+02  0.26709696514E+03  0.17200000000E+03 0. -1.
</event>
<event>
 4    1  0.1253776E+000  0.2106233E+03  0.7818608E-02  0.1141073E+00
         21   -1    0    0  501  502  0.00000000000E+00  0.00000000000E+00  0.11250207635E+04  0.11250207635E+04  0.00000000000E+00 0. -1.
         21   -1    0    0  502  503 -0.00000000000E+00 -0.00000000000E+00 -0.77461034126E+02  0.77461034126E+02  0.00000000000E+00 0.  1.
          6    1    1    2  501    0  0.10735199618E+02 -0.12109054347E+03  0.10250770017E+03  0.23424344777E+03  0.17200000000E+03 0.  1.
         -6    1    1    2    0  503 -0.10735199618E+02  0.12109054347E+03  0.94505202921E+03  0.96823834986E+03  0.17200000000E+03 0. -1.
</event>
<event>
 4    1  0.1253776E+000  0.2239381E+03  0.7818608E-02  0.1130981E+00
         21   -1    0    0  501  502  0.00000000000E+00  0.00000000000E+00  0.13742851436E+04  0.13742851436E+04  0.00000000000E+00 0.  1.
         21   -1    0    0  502  503 -0.00000000000E+00 -0.00000000000E+00 -0.38415899907E+02  0.38415899907E+02  0.00000000000E+00 0.  1.
          6    1    1    2  501    0  0.80380942405E+02 -0.11875671286E+03  0.82607158173E+03  0.85588697320E+03  0.17200000000E+03 0. -1.
         -6    1    1    2    0  503 -0.80380942405E+02  0.11875671286E+03  0.50979766197E+03  0.55681407031E+03  0.17200000000E+03 0. -1.
</event>
<event>
 4    1  0.1253776E+000  0.1961133E+03  0.7818608E-02  0.1153060E+00
         21   -1    0    0  501  502  0.00000000000E+00  0.00000000000E+00  0.73617216630E+03  0.73617216630E+03  0.00000000000E+00 0.  1.
         21   -1    0    0  502  503 -0.00000000000E+00 -0.00000000000E+00 -0.11214751459E+03  0.11214751459E+03  0.00000000000E+00 0.  1.
          6    1    1    2  501    0  0.73101498486E+02  0.59435749181E+02  0.62201223600E+03  0.65219602812E+03  0.17200000000E+03 0.  1.
         -6    1    1    2    0  503 -0.73101498486E+02 -0.59435749181E+02  0.20124157094E+01  0.19612365278E+03  0.17200000000E+03 0.  1.
</event>
<event>
 4    1  0.1253776E+000  0.1889298E+03  0.7818608E-02  0.1159430E+00
         21   -1    0    0  503  502  0.00000000000E+00  0.00000000000E+00  0.47782763694E+02  0.47782763694E+02  0.00000000000E+00 0.  1.
         21   -1    0    0  501  503 -0.00000000000E+00 -0.00000000000E+00 -0.75806758405E+03  0.75806758405E+03  0.00000000000E+00 0.  1.
          6    1    1    2  501    0 -0.15147779720E+02 -0.76687823497E+02 -0.30649189610E+03  0.36004410824E+03  0.17200000000E+03 0.  1.
         -6    1    1    2    0  502  0.15147779720E+02  0.76687823497E+02 -0.40379292426E+03  0.44580623951E+03  0.17200000000E+03 0.  1.
</event>
<event>
 4    1  0.1253776E+000  0.1764397E+03  0.7818608E-02  0.1171294E+00
         21   -1    0    0  501  502  0.00000000000E+00  0.00000000000E+00  0.82061490048E+02  0.82061490048E+02  0.00000000000E+00 0.  1.
         21   -1    0    0  502  503 -0.00000000000E+00 -0.00000000000E+00 -0.37945536303E+03  0.37945536303E+03  0.00000000000E+00 0.  1.
          6    1    1    2  501    0 -0.31544666237E+02 -0.23492534059E+02 -0.14506648446E+03  0.22841902294E+03  0.17200000000E+03 0. -1.
         -6    1    1    2    0  503  0.31544666237E+02  0.23492534059E+02 -0.15232738852E+03  0.23309783014E+03  0.17200000000E+03 0. -1.
</event>
<event>
 4    1  0.1253776E+000  0.1772986E+03  0.7818608E-02  0.1170443E+00
         21   -1    0    0  501  502  0.00000000000E+00  0.00000000000E+00  0.24134964172E+03  0.24134964172E+03  0.00000000000E+00 0.  1.
         21   -1    0    0  502  503 -0.00000000000E+00 -0.00000000000E+00 -0.22346148938E+03  0.22346148938E+03  0.00000000000E+00 0.  1.
          6    1    1    2  501    0  0.20679088542E+02  0.37725068693E+02  0.15904709057E+03  0.23818224646E+03  0.17200000000E+03 0.  1.
         -6    1    1    2    0  503 -0.20679088542E+02 -0.37725068693E+02 -0.14115893822E+03  0.22662888464E+03  0.17200000000E+03 0.  1.
</event>
<event>
 4    1  0.1253776E+000  0.1786875E+03  0.7818608E-02  0.1169079E+00
         21   -1    0    0  501  502  0.00000000000E+00  0.00000000000E+00  0.93680093829E+02  0.93680093829E+02  0.00000000000E+00 0. -1.
         21   -1    0    0  502  503 -0.00000000000E+00 -0.00000000000E+00 -0.62831388300E+03  0.62831388300E+03  0.00000000000E+00 0. -1.
          6    1    1    2  501    0  0.35534048430E+02 -0.32901954911E+02 -0.23131197920E+02  0.18017841034E+03  0.17200000000E+03 0. -1.
         -6    1    1    2    0  503 -0.35534048430E+02  0.32901954911E+02 -0.51150259125E+03  0.54181556649E+03  0.17200000000E+03 0. -1.
</event>
<event>
 4    1  0.1253776E+000  0.2026295E+03  0.7818608E-02  0.1147539E+00
         21   -1    0    0  501  502  0.00000000000E+00  0.00000000000E+00  0.35807266542E+03  0.35807266542E+03  0.00000000000E+00 0.  1.
         21   -1    0    0  502  503 -0.00000000000E+00 -0.00000000000E+00 -0.15642094485E+03  0.15642094485E+03  0.00000000000E+00 0.  1.
          6    1    1    2  501    0  0.10698568178E+03 -0.53635698816E+01  0.23373575430E+03  0.30933979186E+03  0.17200000000E+03 0.  1.
         -6    1    1    2    0  503 -0.10698568178E+03  0.53635698816E+01 -0.32084033729E+02  0.20515381841E+03  0.17200000000E+03 0.  1.
</event>
<event>
 4    1  0.1253776E+000  0.1753066E+03  0.7818608E-02  0.1172424E+00
         21   -1    0    0  503  502  0.00000000000E+00  0.00000000000E+00  0.36681072420E+03  0.36681072420E+03  0.00000000000E+00 0. -1.
         21   -1    0    0  501  503 -0.00000000000E+00 -0.00000000000E+00 -0.89321702191E+02  0.89321702191E+02  0.00000000000E+00 0. -1.
          6    1    1    2  501    0  0.33186349583E+02  0.68600345656E+01  0.19553794340E+03  0.26261660493E+03  0.17200000000E+03 0. -1.
         -6    1    1    2    0  502 -0.33186349583E+02 -0.68600345656E+01  0.81951078608E+02  0.19351582147E+03  0.17200000000E+03 0. -1.
</event>
<event>
 4    1  0.1253776E+000  0.1965114E+03  0.7818608E-02  0.1152716E+00
         21   -1    0    0  501  502  0.00000000000E+00  0.00000000000E+00  0.17836430236E+03  0.17836430236E+03  0.00000000000E+00 0.  1.
         21   -1    0    0  502  503 -0.00000000000E+00 -0.00000000000E+00 -0.22127420121E+03  0.22127420121E+03  0.00000000000E+00 0.  1.
          6    1    1    2  501    0  0.92550238691E+02  0.21614591952E+02  0.78810846485E+01  0.19666938949E+03  0.17200000000E+03 0.  1.
         -6    1    1    2    0  503 -0.92550238691E+02 -0.21614591952E+02 -0.50790983499E+02  0.20296911408E+03  0.17200000000E+03 0.  1.
</event>
<event>
 4    1  0.1253776E+000  0.1828872E+03  0.7818608E-02  0.1165038E+00
         21   -1    0    0  501  502  0.00000000000E+00  0.00000000000E+00  0.11727072572E+04  0.11727072572E+04  0.00000000000E+00 0.  1.
         21   -1    0    0  502  503 -0.00000000000E+00 -0.00000000000E+00 -0.55343336857E+02  0.55343336857E+02  0.00000000000E+00 0.  1.
          6    1    1    2  501    0 -0.62156098932E+02  0.57474778286E+00  0.98614197655E+03  0.10029574811E+04  0.17200000000E+03 0.  1.
         -6    1    1    2    0  503  0.62156098932E+02 -0.57474778286E+00  0.13122194379E+03  0.22509311296E+03  0.17200000000E+03 0.  1.
</event>
<event>
 4    1  0.1253776E+000  0.1977480E+03  0.7818608E-02  0.1151653E+00
         21   -1    0    0  503  502  0.00000000000E+00  0.00000000000E+00  0.73709951830E+03  0.73709951830E+03  0.00000000000E+00 0. -1.
         21   -1    0    0  501  503 -0.00000000000E+00 -0.00000000000E+00 -0.53632979955E+02  0.53632979955E+02  0.00000000000E+00 0. -1.
          6    1    1    2  501    0 -0.83099518344E+02  0.51134501226E+02  0.30056764026E+03  0.35978489899E+03  0.17200000000E+03 0. -1.
         -6    1    1    2    0  502  0.83099518344E+02 -0.51134501226E+02  0.38289889808E+03  0.43094759927E+03  0.17200000000E+03 0. -1.
</event>
<event>
 4    1  0.1253776E+000  0.2526213E+03  0.7818608E-02  0.1111659E+00
         21   -1    0    0  501  502  0.00000000000E+00  0.00000000000E+00  0.14529944965E+03  0.14529944965E+03  0.00000000000E+00 0.  1.
         21   -1    0    0  502  503 -0.00000000000E+00 -0.00000000000E+00 -0.44336163748E+03  0.44336163748E+03  0.00000000000E+00 0.  1.
          6    1    1    2  501    0 -0.16941799405E+03  0.74371097570E+02 -0.17749991638E+03  0.30874542454E+03  0.17200000000E+03 0.  1.
         -6    1    1    2    0  503  0.16941799405E+03 -0.74371097570E+02 -0.12056227146E+03  0.27991566258E+03  0.17200000000E+03 0.  1.
</event>
<event>
 4    1  0.1253776E+000  0.1930577E+03  0.7818608E-02  0.1155732E+00
         21   -1    0    0  503  502  0.00000000000E+00  0.00000000000E+00  0.13701571390E+03  0.13701571390E+03  0.00000000000E+00 0.  1.
         21   -1    0    0  501  503 -0.00000000000E+00 -0.00000000000E+00 -0.27786364652E+03  0.27786364652E+03  0.00000000000E+00 0.  1.
          6    1    1    2  501    0  0.49895386750E+02 -0.72095163358E+02 -0.10050209054E+03  0.21765094165E+03  0.17200000000E+03 0.  1.
         -6    1    1    2    0  502 -0.49895386750E+02  0.72095163358E+02 -0.40345842076E+02  0.19722841877E+03  0.17200000000E+03 0.  1.
</event>
<event>
 4    1  0.1253776E+000  0.2048989E+03  0.7818608E-02  0.1145670E+00
         21   -1    0    0  501  502  0.00000000000E+00  0.00000000000E+00  0.41362568202E+03  0.41362568202E+03  0.00000000000E+00 0. -1.
         21   -1    0    0  502  503 -0.00000000000E+00 -0.00000000000E+00 -0.10737453231E+03  0.10737453231E+03  0.00000000000E+00 0. -1.
          6    1    1    2  501    0  0.10870682330E+03  0.24132605227E+02  0.21405047327E+03  0.29631260718E+03  0.17200000000E+03 0. -1.
         -6    1    1    2    0  503 -0.10870682330E+03 -0.24132605227E+02  0.92200676439E+02  0.22468760714E+03  0.17200000000E+03 0. -1.
</event>
<event>
 4    1  0.1253776E+000  0.2795512E+03  0.7818608E-02  0.1095934E+00
         21   -1    0    0  503  502  0.00000000000E+00  0.00000000000E+00  0.93455078650E+02  0.93455078650E+02  0.00000000000E+00 0.  1.
         21   -1    0    0  501  503 -0.00000000000E+00 -0.00000000000E+00 -0.99195579977E+03  0.99195579977E+03  0.00000000000E+00 0.  1.
          6    1    1    2  501    0  0.15236681428E+02 -0.21984702939E+03 -0.66428787325E+03  0.72071301594E+03  0.17200000000E+03 0.  1.
         -6    1    1    2    0  502 -0.15236681428E+02  0.21984702939E+03 -0.23421284787E+03  0.36469786248E+03  0.17200000000E+03 0.  1.
</event>
<event>
 4    1  0.1253776E+000  0.2329725E+03  0.7818608E-02  0.1124565E+00
         21   -1    0    0  501  502  0.00000000000E+00  0.00000000000E+00  0.50148173631E+02  0.50148173631E+02  0.00000000000E+00 0.  1.
         21   -1    0    0  502  503 -0.00000000000E+00 -0.00000000000E+00 -0.13680114632E+04  0.13680114632E+04  0.00000000000E+00 0.  1.
          6    1    1    2  501    0  0.21827171227E+01  0.15712235294E+03 -0.33488948820E+03  0.40795485946E+03  0.17200000000E+03 0.  1.
         -6    1    1    2    0  503 -0.21827171227E+01 -0.15712235294E+03 -0.98297380135E+03  0.10102047774E+04  0.17200000000E+03 0.  1.
</event>
<event>
 4    1  0.1253776E+000  0.3204010E+03  0.7818608E-02  0.1075465E+00
         21   -1    0    0  503  502  0.00000000000E+00  0.00000000000E+00  0.11142280220E+04  0.11142280220E+04  0.00000000000E+00 0. -1.
         21   -1    0    0  501  503 -0.00000000000E+00 -0.00000000000E+00 -0.20959122580E+03  0.20959122580E+03  0.00000000000E+00 0.  1.
          6    1    1    2  501    0 -0.15648336602E+03 -0.22042180168E+03 -0.43193920310E+02  0.32329944208E+03  0.17200000000E+03 0.  1.
         -6    1    1    2    0  502  0.15648336602E+03  0.22042180168E+03  0.94783071655E+03  0.10005198058E+04  0.17200000000E+03 0. -1.
</event>
<event>
 4    1  0.1253776E+000  0.1871168E+03  0.7818608E-02  0.1161088E+00
         21   -1    0    0  501  502  0.00000000000E+00  0.00000000000E+00  0.79892962585E+03  0.79892962585E+03  0.00000000000E+00 0.  1.
         21   -1    0    0  502  503 -0.00000000000E+00 -0.00000000000E+00 -0.48223563011E+02  0.48223563011E+02  0.00000000000E+00 0.  1.
          6    1    1    2  501    0 -0.52994829140E+02  0.51188171649E+02  0.50328616873E+03  0.53694473503E+03  0.17200000000E+03 0.  1.
         -6    1    1    2    0  503  0.52994829140E+02 -0.51188171649E+02  0.24741989411E+03  0.31020845384E+03  0.17200000000E+03 0.  1.
</event>
<event>
 4    1  0.1253776E+000  0.1723938E+03  0.7818608E-02  0.1175374E+00
         21   -1    0    0  503  502  0.00000000000E+00  0.00000000000E+00  0.58613301208E+03  0.58613301208E+03  0.00000000000E+00 0. -1.
         21   -1    0    0  501  503 -0.00000000000E+00 -0.00000000000E+00 -0.69532358773E+02  0.69532358773E+02  0.00000000000E+00 0. -1.
          6    1    1    2  501    0 -0.10791917805E+02  0.43758834339E+01  0.87708352177E+02  0.19342277241E+03  0.17200000000E+03 0. -1.
         -6    1    1    2    0  502  0.10791917805E+02 -0.43758834339E+01  0.42889230113E+03  0.46224259844E+03  0.17200000000E+03 0. -1.
</event>
<event>
 4    1  0.1253776E+000  0.2445936E+03  0.7818608E-02  0.1116770E+00
         21   -1    0    0  501  502  0.00000000000E+00  0.00000000000E+00  0.36283479743E+03  0.36283479743E+03  0.00000000000E+00 0.  1.
         21   -1    0    0  502  503 -0.00000000000E+00 -0.00000000000E+00 -0.70829405314E+03  0.70829405314E+03  0.00000000000E+00 0. -1.
          6    1    1    2  501    0 -0.39990629584E+01 -0.17385640785E+03  0.29637349938E+03  0.38426981951E+03  0.17200000000E+03 0.  1.
         -6    1    1    2    0  503  0.39990629584E+01  0.17385640785E+03 -0.64183275509E+03  0.68685903107E+03  0.17200000000E+03 0. -1.
</event>
<event>
 4    1  0.1253776E+000  0.1963000E+03  0.7818608E-02  0.1152899E+00
         21   -1    0    0  503  502  0.00000000000E+00  0.00000000000E+00  0.24575906279E+03  0.24575906279E+03  0.00000000000E+00 0.  1.
         21   -1    0    0  501  503 -0.00000000000E+00 -0.00000000000E+00 -0.15822364863E+03  0.15822364863E+03  0.00000000000E+00 0.  1.
          6    1    1    2  501    0  0.12639036770E+02  0.93754672012E+02  0.62964420384E+02  0.20615092047E+03  0.17200000000E+03 0.  1.
         -6    1    1    2    0  502 -0.12639036770E+02 -0.93754672012E+02  0.24570993774E+02  0.19783179095E+03  0.17200000000E+03 0.  1.
</event>
<event>
 4    1  0.1253776E+000  0.1810620E+03  0.7818608E-02  0.1166779E+00
         21   -1    0    0  503  502  0.00000000000E+00  0.00000000000E+00  0.21069546638E+03  0.21069546638E+03  0.00000000000E+00 0.  1.
         21   -1    0    0  501  503 -0.00000000000E+00 -0.00000000000E+00 -0.49654853476E+03  0.49654853476E+03  0.00000000000E+00 0.  1.
          6    1    1    2  501    0 -0.23738469612E+02 -0.51341258021E+02 -0.43595187575E+03  0.47205664669E+03  0.17200000000E+03 0.  1.
         -6    1    1    2    0  502  0.23738469612E+02  0.51341258021E+02  0.15009880738E+03  0.23518735444E+03  0.17200000000E+03 0.  1.
</event>
<event>
 4    1  0.1253776E+000  0.1963210E+03  0.7818608E-02  0.1152881E+00
         21   -1    0    0  503  502  0.00000000000E+00  0.00000000000E+00  0.12517308984E+03  0.12517308984E+03  0.00000000000E+00 0. -1.
         21   -1    0    0  501  503 -0.00000000000E+00 -0.00000000000E+00 -0.31066739327E+03  0.31066739327E+03  0.00000000000E+00 0. -1.
          6    1    1    2  501    0 -0.91104061048E+02 -0.25651326735E+02 -0.11328077123E+03  0.22665937799E+03  0.17200000000E+03 0. -1.
         -6    1    1    2    0  502  0.91104061048E+02  0.25651326735E+02 -0.72213532199E+02  0.20918110511E+03  0.17200000000E+03 0. -1.
</event>
<event>
 4    1  0.1253776E+000  0.2226779E+03  0.7818608E-02  0.1131902E+00
         21   -1    0    0  503  502  0.00000000000E+00  0.00000000000E+00  0.15562619846E+04  0.15562619846E+04  0.00000000000E+00 0.  1.
         21   -1    0    0  501  503 -0.00000000000E+00 -0.00000000000E+00 -0.47887363717E+02  0.47887363717E+02  0.00000000000E+00 0.  1.
          6    1    1    2  501    0 -0.40522052844E+02 -0.13549694997E+03  0.29019618702E+03  0.36578584880E+03  0.17200000000E+03 0. -1.
         -6    1    1    2    0  502  0.40522052844E+02  0.13549694997E+03  0.12181784339E+04  0.12383634995E+04  0.17200000000E+03 0. -1.
</event>
<event>
 4    1  0.1253776E+000  0.5508170E+03  0.7818608E-02  0.1001305E+00
         21   -1    0    0  503  502  0.00000000000E+00  0.00000000000E+00  0.19821902626E+03  0.19821902626E+03  0.00000000000E+00 0. -1.
         21   -1    0    0  501  503 -0.00000000000E+00 -0.00000000000E+00 -0.24338013124E+04  0.24338013124E+04  0.00000000000E+00 0.  1.
          6    1    1    2  501    0 -0.53940969189E+02  0.52048610643E+03 -0.19194737237E+04  0.19969423605E+04  0.17200000000E+03 0. -1.
         -6    1    1    2    0  502  0.53940969189E+02 -0.52048610643E+03 -0.31610856248E+03  0.63507797822E+03  0.17200000000E+03 0.  1.
</event>
<event>
 4    1  0.1253776E+000  0.3076799E+03  0.7818608E-02  0.1081463E+00
         21   -1    0    0  501  502  0.00000000000E+00  0.00000000000E+00  0.11006104424E+03  0.11006104424E+03  0.00000000000E+00 0. -1.
         21   -1    0    0  502  503 -0.00000000000E+00 -0.00000000000E+00 -0.86552465690E+03  0.86552465690E+03  0.00000000000E+00 0.  1.
          6    1    1    2  501    0  0.12705314600E+03 -0.22122483112E+03 -0.33922539343E+03  0.45797466672E+03  0.17200000000E+03 0.  1.
         -6    1    1    2    0  503 -0.12705314600E+03  0.22122483112E+03 -0.41623821922E+03  0.51761103442E+03  0.17200000000E+03 0. -1.
</event>
<event>
 4    1  0.1253776E+000  0.1891566E+03  0.7818608E-02  0.1159224E+00
         21   -1    0    0  503  502  0.00000000000E+00  0.00000000000E+00  0.14665615757E+03  0.14665615757E+03  0.00000000000E+00 0.  1.
         21   -1    0    0  501  503 -0.00000000000E+00 -0.00000000000E+00 -0.27554687470E+03  0.27554687470E+03  0.00000000000E+00 0.  1.
          6    1    1    2  501    0 -0.38134691638E+02  0.68861920661E+02 -0.13590387242E+03  0.23291646864E+03  0.17200000000E+03 0. -1.
         -6    1    1    2    0  502  0.38134691638E+02 -0.68861920661E+02  0.70131552903E+01  0.18928656363E+03  0.17200000000E+03 0. -1.
</event>
<event>
 4    1  0.1253776E+000  0.2336923E+03  0.7818608E-02  0.1124068E+00
         21   -1    0    0  501  502  0.00000000000E+00  0.00000000000E+00  0.54242835664E+02  0.54242835664E+02  0.00000000000E+00 0.  1.
         21   -1    0    0  502  503 -0.00000000000E+00 -0.00000000000E+00 -0.10909900585E+04  0.10909900585E+04  0.00000000000E+00 0.  1.
          6    1    1    2  501    0 -0.99212062402E+02  0.12322771871E+03 -0.67743471670E+03  0.71661000508E+03  0.17200000000E+03 0.  1.
         -6    1    1    2    0  503  0.99212062402E+02 -0.12322771871E+03 -0.35931250612E+03  0.42862288907E+03  0.17200000000E+03 0.  1.
</event>
<event>
 4    1  0.1253776E+000  0.2921064E+03  0.7818608E-02  0.1089254E+00
         21   -1    0    0  501  502  0.00000000000E+00  0.00000000000E+00  0.10556003138E+04  0.10556003138E+04  0.00000000000E+00 0. -1.
         21   -1    0    0  502  503 -0.00000000000E+00 -0.00000000000E+00 -0.27612165739E+03  0.27612165739E+03  0.00000000000E+00 0.  1.
          6    1    1    2  501    0 -0.21980065576E+03  0.86196301488E+02  0.94972010332E+03  0.99362689442E+03  0.17200000000E+03 0. -1.
         -6    1    1    2    0  503  0.21980065576E+03 -0.86196301488E+02 -0.17024144694E+03  0.33809507675E+03  0.17200000000E+03 0.  1.
</event>
<event>
 4    1  0.1253776E+000  0.1787894E+03  0.7818608E-02  0.1168980E+00
         21   -1    0    0  501  502  0.00000000000E+00  0.00000000000E+00  0.26877326260E+03  0.26877326260E+03  0.00000000000E+00 0.  1.
         21   -1    0    0  502  503 -0.00000000000E+00 -0.00000000000E+00 -0.15474855914E+03  0.15474855914E+03  0.00000000000E+00 0.  1.
          6    1    1    2  501    0  0.46433300792E+02 -0.15020084061E+02  0.15888940851E+03  0.23918925244E+03  0.17200000000E+03 0.  1.
         -6    1    1    2    0  503 -0.46433300792E+02  0.15020084061E+02 -0.44864705041E+02  0.18433256930E+03  0.17200000000E+03 0.  1.
</event>
<event>
 4    1  0.1253776E+000  0.1960488E+03  0.7818608E-02  0.1153116E+00
         21   -1    0    0  503  502  0.00000000000E+00  0.00000000000E+00  0.29049562693E+02  0.29049562693E+02  0.00000000000E+00 0. -1.
         21   -1    0    0  501  503 -0.00000000000E+00 -0.00000000000E+00 -0.13456215102E+04  0.13456215102E+04  0.00000000000E+00 0. -1.
          6    1    1    2  501    0  0.93815614662E+02  0.70556293748E+01 -0.74722941238E+03  0.77251986783E+03  0.17200000000E+03 0. -1.
         -6    1    1    2    0  502 -0.93815614662E+02 -0.70556293748E+01 -0.56934253514E+03  0.60215120508E+03  0.17200000000E+03 0. -1.
</event>
<event>
 4    1  0.1253776E+000  0.1772036E+03  0.7818608E-02  0.1170537E+00
         21   -1    0    0  501  502  0.00000000000E+00  0.00000000000E+00  0.26428324423E+03  0.26428324423E+03  0.00000000000E+00 0. -1.
         21   -1    0    0  502  503 -0.00000000000E+00 -0.00000000000E+00 -0.20453165884E+03  0.20453165884E+03  0.00000000000E+00 0. -1.
          6    1    1    2  501    0 -0.30054385565E+02 -0.30229840792E+02  0.18162307629E+03  0.25374800729E+03  0.17200000000E+03 0. -1.
         -6    1    1    2    0  503  0.30054385565E+02  0.30229840792E+02 -0.12187149089E+03  0.21506689577E+03  0.17200000000E+03 0. -1.
</event>
<event>
 4    1  0.1253776E+000  0.1773499E+03  0.7818608E-02  0.1170393E+00
         21   -1    0    0  503  502  0.00000000000E+00  0.00000000000E+00  0.69929911841E+03  0.69929911841E+03  0.00000000000E+00 0. -1.
         21   -1    0    0  501  503 -0.00000000000E+00 -0.00000000000E+00 -0.44996621931E+02  0.44996621931E+02  0.00000000000E+00 0. -1.
          6    1    1    2  501    0  0.40204930987E+02 -0.15892266092E+02  0.33474379493E+03  0.37882239749E+03  0.17200000000E+03 0.  1.
         -6    1    1    2    0  502 -0.40204930987E+02  0.15892266092E+02  0.31955870154E+03  0.36547334284E+03  0.17200000000E+03 0.  1.
</event>
<event>
 4    1  0.1253776E+000  0.2111071E+03  0.7818608E-02  0.1140692E+00
         21   -1    0    0  501  502  0.00000000000E+00  0.00000000000E+00  0.76182716019E+03  0.76182716019E+03  0.00000000000E+00 0. -1.
         21   -1    0    0  502  503 -0.00000000000E+00 -0.00000000000E+00 -0.94755450389E+02  0.94755450389E+02  0.00000000000E+00 0.  1.
          6    1    1    2  501    0 -0.19920359324E+02 -0.12077002605E+03  0.59846459205E+03  0.63460703419E+03  0.17200000000E+03 0. -1.
         -6    1    1    2    0  503  0.19920359324E+02  0.12077002605E+03  0.68607117752E+02  0.22197557639E+03  0.17200000000E+03 0.  1.
</event>
<event>
 4    1  0.1253776E+000  0.1779893E+03  0.7818608E-02  0.1169763E+00
         21   -1    0    0  503  502  0.00000000000E+00  0.00000000000E+00  0.37504436786E+03  0.37504436786E+03  0.00000000000E+00 0. -1.
         21   -1    0    0  501  503 -0.00000000000E+00 -0.00000000000E+00 -0.84552657690E+02  0.84552657690E+02  0.00000000000E+00 0. -1.
          6    1    1    2  501    0 -0.45731817110E+02 -0.21925826237E+01  0.15240659601E+03  0.23432451221E+03  0.17200000000E+03 0.  1.
         -6    1    1    2    0  502  0.45731817110E+02  0.21925826237E+01  0.13808511416E+03  0.22527251334E+03  0.17200000000E+03 0.  1.
</event>
<event>
 4    1  0.1253776E+000  0.1940372E+03  0.7818608E-02  0.1154870E+00
         21   -1    0    0  501  502  0.00000000000E+00  0.00000000000E+00  0.32829390548E+02  0.32829390548E+02  0.00000000000E+00 0. -1.
         21   -1    0    0  502  503 -0.00000000000E+00 -0.00000000000E+00 -0.12866126237E+04  0.12866126237E+04  0.00000000000E+00 0.  1.
          6    1    1    2  501    0 -0.86206276045E+02  0.25197695652E+02 -0.84432645145E+03  0.86633573314E+03  0.17200000000E+03 0.  1.
         -6    1    1    2    0  503  0.86206276045E+02 -0.25197695652E+02 -0.40945678167E+03  0.45310628108E+03  0.17200000000E+03 0. -1.
</event>
<event>
 4    1  0.1253776E+000  0.1904326E+03  0.7818608E-02  0.1158072E+00
         21   -1    0    0  503  502  0.00000000000E+00  0.00000000000E+00  0.15456722003E+04  0.15456722003E+04  0.00000000000E+00 0. -1.
         21   -1    0    0  501  503 -0.00000000000E+00 -0.00000000000E+00 -0.23462436445E+02  0.23462436445E+02  0.00000000000E+00 0.  1.
          6    1    1    2  501    0 -0.23111098627E+02  0.78399313780E+02  0.75775664589E+03  0.78131921112E+03  0.17200000000E+03 0. -1.
         -6    1    1    2    0  502  0.23111098627E+02 -0.78399313780E+02  0.76445311798E+03  0.78781542564E+03  0.17200000000E+03 0.  1.
</event>
<event>
 4    1  0.1253776E+000  0.2121888E+03  0.7818608E-02  0.1139844E+00
         21   -1    0    0  501  502  0.00000000000E+00  0.00000000000E+00  0.29744985890E+03  0.29744985890E+03  0.00000000000E+00 0.  1.
         21   -1    0    0  502  503 -0.00000000000E+00 -0.00000000000E+00 -0.15338883898E+03  0.15338883898E+03  0.00000000000E+00 0. -1.
          6    1    1    2  501    0 -0.64528706918E+02  0.10618915850E+03  0.97910737819E+02  0.23368911823E+03  0.17200000000E+03 0. -1.
         -6    1    1    2    0  503  0.64528706918E+02 -0.10618915850E+03  0.46150282099E+02  0.21714957964E+03  0.17200000000E+03 0. -1.
</event>
<event>
 4    1  0.1253776E+000  0.1900860E+03  0.7818608E-02  0.1158384E+00
         21   -1    0    0  501  502  0.00000000000E+00  0.00000000000E+00  0.10213366839E+03  0.10213366839E+03  0.00000000000E+00 0. -1.
         21   -1    0    0  502  503 -0.00000000000E+00 -0.00000000000E+00 -0.10022190699E+04  0.10022190699E+04  0.00000000000E+00 0. -1.
          6    1    1    2  501    0 -0.33808829167E+02 -0.73523116550E+02 -0.58907139325E+01  0.19017724918E+03  0.17200000000E+03 0. -1.
         -6    1    1    2    0  503  0.33808829167E+02  0.73523116550E+02 -0.89419468755E+03  0.91417548908E+03  0.17200000000E+03 0. -1.
</event>
<event>
 4    1  0.1253776E+000  0.2561069E+03  0.7818608E-02  0.1109505E+00
         21   -1    0    0  501  502  0.00000000000E+00  0.00000000000E+00  0.77240733581E+02  0.77240733581E+02  0.00000000000E+00 0.  1.
         21   -1    0    0  502  503 -0.00000000000E+00 -0.00000000000E+00 -0.93460382099E+03  0.93460382099E+03  0.00000000000E+00 0. -1.
          6    1    1    2  501    0 -0.50083738555E+02 -0.18302563714E+03 -0.58164112397E+03  0.63552904088E+03  0.17200000000E+03 0.  1.
         -6    1    1    2    0  503  0.50083738555E+02  0.18302563714E+03 -0.27572196344E+03  0.37631551369E+03  0.17200000000E+03 0.  1.
</event>
<event>
 4    1  0.1253776E+000  0.2050427E+03  0.7818608E-02  0.1145553E+00
         21   -1    0    0  503  502  0.00000000000E+00  0.00000000000E+00  0.71144378430E+02  0.71144378430E+02  0.00000000000E+00 0. -1.
         21   -1    0    0  501  503 -0.00000000000E+00 -0.00000000000E+00 -0.74130524862E+03  0.74130524862E+03  0.00000000000E+00 0. -1.
          6    1    1    2  501    0 -0.78567691430E+02  0.79281924489E+02 -0.15213036455E+03  0.25531579173E+03  0.17200000000E+03 0.  1.
         -6    1    1    2    0  502  0.78567691430E+02 -0.79281924489E+02 -0.51803050564E+03  0.55713383532E+03  0.17200000000E+03 0.  1.
</event>
<event>
 4    1  0.1253776E+000  0.2295946E+03  0.7818608E-02  0.1126925E+00
         21   -1    0    0  501  502  0.00000000000E+00  0.00000000000E+00  0.58004714195E+03  0.58004714195E+03  0.00000000000E+00 0.  1.
         21   -1    0    0  502  503 -0.00000000000E+00 -0.00000000000E+00 -0.15236613742E+03  0.15236613742E+03  0.00000000000E+00 0.  1.
          6    1    1    2  501    0 -0.86463345820E+02  0.12511510697E+03  0.44647632050E+03  0.50205059997E+03  0.17200000000E+03 0.  1.
         -6    1    1    2    0  503  0.86463345820E+02 -0.12511510697E+03 -0.18795315968E+02  0.23036267941E+03  0.17200000000E+03 0.  1.
</event>
<event>
 4    1  0.1253776E+000  0.1904685E+03  0.7818608E-02  0.1158039E+00
         21   -1    0    0  501  502  0.00000000000E+00  0.00000000000E+00  0.12585951058E+03  0.12585951058E+03  0.00000000000E+00 0.  1.
         21   -1    0    0  502  503 -0.00000000000E+00 -0.00000000000E+00 -0.41497880292E+03  0.41497880292E+03  0.00000000000E+00 0.  1.
          6    1    1    2  501    0 -0.73472356937E+01 -0.81487810313E+02  0.48822929499E+01  0.19053105229E+03  0.17200000000E+03 0. -1.
         -6    1    1    2    0  503  0.73472356937E+01  0.81487810313E+02 -0.29400158529E+03  0.35030726121E+03  0.17200000000E+03 0. -1.
</event>
<event>
 4    1  0.1253776E+000  0.1850152E+03  0.7818608E-02  0.1163036E+00
         21   -1    0    0  503  502  0.00000000000E+00  0.00000000000E+00  0.42911679669E+02  0.42911679669E+02  0.00000000000E+00 0. -1.
         21   -1    0    0  501  503 -0.00000000000E+00 -0.00000000000E+00 -0.11920073674E+04  0.11920073674E+04  0.00000000000E+00 0. -1.
          6    1    1    2  501    0  0.40461301468E+02 -0.54858871455E+02 -0.92967747325E+03  0.94790865433E+03  0.17200000000E+03 0. -1.
         -6    1    1    2    0  502 -0.40461301468E+02  0.54858871455E+02 -0.21941821450E+03  0.28701039275E+03  0.17200000000E+03 0. -1.
</event>
<event>
 4    1  0.1253776E+000  0.1990598E+03  0.7818608E-02  0.1150535E+00
         21   -1    0    0  501  502  0.00000000000E+00  0.00000000000E+00  0.10765313164E+03  0.10765313164E+03  0.00000000000E+00 0. -1.
         21   -1    0    0  502  503 -0.00000000000E+00 -0.00000000000E+00 -0.53654449881E+03  0.53654449881E+03  0.00000000000E+00 0. -1.
          6    1    1    2  501    0  0.67330548272E+02  0.74211926187E+02 -0.33960202693E+02  0.20193590093E+03  0.17200000000E+03 0. -1.
         -6    1    1    2    0  503 -0.67330548272E+02 -0.74211926187E+02 -0.39493116448E+03  0.44226172952E+03  0.17200000000E+03 0. -1.
</event>
<event>
 4    1  0.1253776E+000  0.1888944E+03  0.7818608E-02  0.1159462E+00
         21   -1    0    0  501  502  0.00000000000E+00  0.00000000000E+00  0.91154861215E+03  0.91154861215E+03  0.00000000000E+00 0. -1.
         21   -1    0    0  502  503 -0.00000000000E+00 -0.00000000000E+00 -0.15535175093E+03  0.15535175093E+03  0.00000000000E+00 0. -1.
          6    1    1    2  501    0 -0.28946804191E+02  0.72520137337E+02  0.83947391028E+03  0.86046355752E+03  0.17200000000E+03 0. -1.
         -6    1    1    2    0  503  0.28946804191E+02 -0.72520137337E+02 -0.83277049054E+02  0.20643680556E+03  0.17200000000E+03 0. -1.
</event>
<event>
 4    1  0.1253776E+000  0.2163787E+03  0.7818608E-02  0.1136612E+00
         21   -1    0    0  501  502  0.00000000000E+00  0.00000000000E+00  0.15627277274E+04  0.15627277274E+04  0.00000000000E+00 0. -1.
         21   -1    0    0  502  503 -0.00000000000E+00 -0.00000000000E+00 -0.39468810654E+02  0.39468810654E+02  0.00000000000E+00 0.  1.
          6    1    1    2  501    0 -0.12826275680E+03  0.28007253990E+02  0.36842742065E+03  0.42726865710E+03  0.17200000000E+03 0.  1.
         -6    1    1    2    0  503  0.12826275680E+03 -0.28007253990E+02  0.11548314961E+04  0.11749278810E+04  0.17200000000E+03 0. -1.
</event>
<event>
 4    1  0.1253776E+000  0.1726859E+03  0.7818608E-02  0.1175075E+00
         21   -1    0    0  501  502  0.00000000000E+00  0.00000000000E+00  0.12311771356E+03  0.12311771356E+03  0.00000000000E+00 0.  1.
         21   -1    0    0  502  503 -0.00000000000E+00 -0.00000000000E+00 -0.31382085437E+03  0.31382085437E+03  0.00000000000E+00 0.  1.
          6    1    1    2  501    0 -0.15158672673E+02 -0.25786222796E+01  0.90090412926E+01  0.17292078381E+03  0.17200000000E+03 0.  1.
         -6    1    1    2    0  503  0.15158672673E+02  0.25786222796E+01 -0.19971218210E+03  0.26401778412E+03  0.17200000000E+03 0.  1.
</event>
<event>
 4    1  0.1253776E+000  0.2006553E+03  0.7818608E-02  0.1149187E+00
         21   -1    0    0  503  502  0.00000000000E+00  0.00000000000E+00  0.16504855192E+03  0.16504855192E+03  0.00000000000E+00 0.  1.
         21   -1    0    0  501  503 -0.00000000000E+00 -0.00000000000E+00 -0.25023414086E+03  0.25023414086E+03  0.00000000000E+00 0. -1.
          6    1    1    2  501    0  0.13441164676E+02 -0.10245915127E+03 -0.75514594661E+02  0.21439448825E+03  0.17200000000E+03 0. -1.
         -6    1    1    2    0  502 -0.13441164676E+02  0.10245915127E+03 -0.96709942847E+01  0.20088820452E+03  0.17200000000E+03 0.  1.
</event>
<event>
 4    1  0.1253776E+000  0.1865006E+03  0.7818608E-02  0.1161656E+00
         21   -1    0    0  503  502  0.00000000000E+00  0.00000000000E+00  0.84030638391E+03  0.84030638391E+03  0.00000000000E+00 0.  1.
         21   -1    0    0  501  503 -0.00000000000E+00 -0.00000000000E+00 -0.53122298434E+02  0.53122298434E+02  0.00000000000E+00 0.  1.
          6    1    1    2  501    0 -0.27937587481E+02  0.66467808543E+02  0.18368132288E+03  0.26176574784E+03  0.17200000000E+03 0.  1.
         -6    1    1    2    0  502  0.27937587481E+02 -0.66467808543E+02  0.60350276260E+03  0.63166293451E+03  0.17200000000E+03 0.  1.
</event>
<event>
 4    1  0.1253776E+000  0.1953841E+03  0.7818608E-02  0.1153693E+00
         21   -1    0    0  501  502  0.00000000000E+00  0.00000000000E+00  0.63448663422E+03  0.63448663422E+03  0.00000000000E+00 0. -1.
         21   -1    0    0  502  503 -0.00000000000E+00 -0.00000000000E+00 -0.61563277537E+02  0.61563277537E+02  0.00000000000E+00 0. -1.
          6    1    1    2  501    0 -0.92334847644E+02  0.80767376765E+01  0.33888014344E+03  0.39117094652E+03  0.17200000000E+03 0.  1.
         -6    1    1    2    0  503  0.92334847644E+02 -0.80767376765E+01  0.23404321324E+03  0.30487896524E+03  0.17200000000E+03 0.  1.
</event>
<event>
 4    1  0.1253776E+000  0.1749156E+03  0.7818608E-02  0.1172816E+00
         21   -1    0    0  503  502  0.00000000000E+00  0.00000000000E+00  0.77353390249E+03  0.77353390249E+03  0.00000000000E+00 0. -1.
         21   -1    0    0  501  503 -0.00000000000E+00 -0.00000000000E+00 -0.50246848933E+02  0.50246848933E+02  0.00000000000E+00 0. -1.
          6    1    1    2  501    0 -0.90965177218E+01 -0.30474980480E+02  0.55166263672E+03  0.57872889666E+03  0.17200000000E+03 0. -1.
         -6    1    1    2    0  502  0.90965177218E+01  0.30474980480E+02  0.17162441683E+03  0.24505185476E+03  0.17200000000E+03 0. -1.
</event>
<event>
 4    1  0.1253776E+000  0.2618866E+03  0.7818608E-02  0.1106015E+00
         21   -1    0    0  503  502  0.00000000000E+00  0.00000000000E+00  0.30847894763E+03  0.30847894763E+03  0.00000000000E+00 0. -1.
         21   -1    0    0  501  503 -0.00000000000E+00 -0.00000000000E+00 -0.25281288982E+03  0.25281288982E+03  0.00000000000E+00 0.  1.
          6    1    1    2  501    0  0.71874683339E+02 -0.18394182667E+03 -0.69615884759E+02  0.27098143316E+03  0.17200000000E+03 0.  1.
         -6    1    1    2    0  502 -0.71874683339E+02  0.18394182667E+03  0.12528194257E+03  0.29031040429E+03  0.17200000000E+03 0. -1.
</event>
<event>
 4    1  0.1253776E+000  0.2355939E+03  0.7818608E-02  0.1122763E+00
         21   -1    0    0  503  502  0.00000000000E+00  0.00000000000E+00  0.10091962340E+03  0.10091962340E+03  0.00000000000E+00 0. -1.
         21   -1    0    0  501  503 -0.00000000000E+00 -0.00000000000E+00 -0.11178228415E+04  0.11178228415E+04  0.00000000000E+00 0. -1.
          6    1    1    2  501    0  0.12184482211E+03  0.10523451811E+03 -0.94276870135E+03  0.97175989253E+03  0.17200000000E+03 0. -1.
         -6    1    1    2    0  502 -0.12184482211E+03 -0.10523451811E+03 -0.74134516747E+02  0.24698257236E+03  0.17200000000E+03 0. -1.
</event>
<event>
 4    1  0.1253776E+000  0.1870477E+03  0.7818608E-02  0.1161151E+00
         21   -1    0    0  501  502  0.00000000000E+00  0.00000000000E+00  0.11692467324E+03  0.11692467324E+03  0.00000000000E+00 0. -1.
         21   -1    0    0  502  503 -0.00000000000E+00 -0.00000000000E+00 -0.29997053876E+03  0.29997053876E+03  0.00000000000E+00 0. -1.
          6    1    1    2  501    0 -0.35870731233E+02  0.64157123543E+02 -0.81134693616E+02  0.20388644969E+03  0.17200000000E+03 0.  1.
         -6    1    1    2    0  503  0.35870731233E+02 -0.64157123543E+02 -0.10191117190E+03  0.21300876231E+03  0.17200000000E+03 0.  1.
</event>
<event>
 4    1  0.1253776E+000  0.3511654E+03  0.7818608E-02  0.1062138E+00
         21   -1    0    0  501  502  0.00000000000E+00  0.00000000000E+00  0.58092531016E+03  0.58092531016E+03  0.00000000000E+00 0.  1.
         21   -1    0    0  502  503 -0.00000000000E+00 -0.00000000000E+00 -0.23414410799E+03  0.23414410799E+03  0.00000000000E+00 0. -1.
          6    1    1    2  501    0  0.30035935734E+03  0.59307768686E+02  0.29793305384E+03  0.46052281110E+03  0.17200000000E+03 0. -1.
         -6    1    1    2    0  503 -0.30035935734E+03 -0.59307768686E+02  0.48848148331E+02  0.35454660704E+03  0.17200000000E+03 0. -1.
</event>
<event>
 4    1  0.1253776E+000  0.2167037E+03  0.7818608E-02  0.1136365E+00
         21   -1    0    0  501  502  0.00000000000E+00  0.00000000000E+00  0.16783502513E+03  0.16783502513E+03  0.00000000000E+00 0.  1.
         21   -1    0    0  502  503 -0.00000000000E+00 -0.00000000000E+00 -0.93277540222E+03  0.93277540222E+03  0.00000000000E+00 0.  1.
          6    1    1    2  501    0  0.11426710413E+03 -0.65723084743E+02  0.77959151609E+02  0.23030007441E+03  0.17200000000E+03 0.  1.
         -6    1    1    2    0  503 -0.11426710413E+03  0.65723084743E+02 -0.84289952870E+03  0.87031035294E+03  0.17200000000E+03 0.  1.
</event>
<event>
 4    1  0.1253776E+000  0.1746703E+03  0.7818608E-02  0.1173063E+00
         21   -1    0    0  503  502  0.00000000000E+00  0.00000000000E+00  0.85366742213E+02  0.85366742213E+02  0.00000000000E+00 0.  1.
         21   -1    0    0  501  503 -0.00000000000E+00 -0.00000000000E+00 -0.37703481390E+03  0.37703481390E+03  0.00000000000E+00 0.  1.
          6    1    1    2  501    0 -0.15262851913E+02  0.26320530867E+02 -0.19860039455E+03  0.26448410483E+03  0.17200000000E+03 0.  1.
         -6    1    1    2    0  502  0.15262851913E+02 -0.26320530867E+02 -0.93067677138E+02  0.19791745128E+03  0.17200000000E+03 0.  1.
</event>
<event>
 4    1  0.1253776E+000  0.2019552E+03  0.7818608E-02  0.1148100E+00
         21   -1    0    0  501  502  0.00000000000E+00  0.00000000000E+00  0.32256848948E+02  0.32256848948E+02  0.00000000000E+00 0.  1.
         21   -1    0    0  502  503 -0.00000000000E+00 -0.00000000000E+00 -0.13773929319E+04  0.13773929319E+04  0.00000000000E+00 0.  1.
          6    1    1    2  501    0  0.87067306042E+02  0.60176247335E+02 -0.47070450154E+03  0.51219978943E+03  0.17200000000E+03 0. -1.
         -6    1    1    2    0  503 -0.87067306042E+02 -0.60176247335E+02 -0.87443158146E+03  0.89744999146E+03  0.17200000000E+03 0. -1.
</event>
<event>
 4    1  0.1253776E+000  0.2424617E+03  0.7818608E-02  0.1118164E+00
         21   -1    0    0  503  502  0.00000000000E+00  0.00000000000E+00  0.46448997258E+02  0.46448997258E+02  0.00000000000E+00 0. -1.
         21   -1    0    0  501  503 -0.00000000000E+00 -0.00000000000E+00 -0.12721219575E+04  0.12721219575E+04  0.00000000000E+00 0. -1.
          6    1    1    2  501    0  0.15989141401E+03 -0.60319065309E+02 -0.65990189272E+03  0.70303496494E+03  0.17200000000E+03 0. -1.
         -6    1    1    2    0  502 -0.15989141401E+03  0.60319065309E+02 -0.56577106751E+03  0.61553598981E+03  0.17200000000E+03 0. -1.
</event>
<event>
 4    1  0.1253776E+000  0.2854365E+03  0.7818608E-02  0.1092756E+00
         21   -1    0    0  503  502  0.00000000000E+00  0.00000000000E+00  0.56494029004E+02  0.56494029004E+02  0.00000000000E+00 0.  1.
         21   -1    0    0  501  503 -0.00000000000E+00 -0.00000000000E+00 -0.14813065865E+04  0.14813065865E+04  0.00000000000E+00 0.  1.
          6    1    1    2  501    0 -0.17197938714E+03 -0.14937570368E+03 -0.83738537939E+03  0.88469671870E+03  0.17200000000E+03 0.  1.
         -6    1    1    2    0  502  0.17197938714E+03  0.14937570368E+03 -0.58742717813E+03  0.65310389683E+03  0.17200000000E+03 0.  1.
</event>
<event>
 4    1  0.1253776E+000  0.2067135E+03  0.7818608E-02  0.1144195E+00
         21   -1    0    0  503  502  0.00000000000E+00  0.00000000000E+00  0.53324166220E+02  0.53324166220E+02  0.00000000000E+00 0.  1.
         21   -1    0    0  501  503 -0.00000000000E+00 -0.00000000000E+00 -0.81339443220E+03  0.81339443220E+03  0.00000000000E+00 0.  1.
          6    1    1    2  501    0  0.93760464719E+02  0.65995846860E+02 -0.43280376974E+03  0.47963483991E+03  0.17200000000E+03 0.  1.
         -6    1    1    2    0  502 -0.93760464719E+02 -0.65995846860E+02 -0.32726649624E+03  0.38708375852E+03  0.17200000000E+03 0.  1.
</event>
<event>
 4    1  0.1253776E+000  0.2299361E+03  0.7818608E-02  0.1126685E+00
         21   -1    0    0  501  502  0.00000000000E+00  0.00000000000E+00  0.18503591639E+03  0.18503591639E+03  0.00000000000E+00 0. -1.
         21   -1    0    0  502  503 -0.00000000000E+00 -0.00000000000E+00 -0.33073311537E+03  0.33073311537E+03  0.00000000000E+00 0.  1.
          6    1    1    2  501    0  0.10657655445E+03 -0.10921558948E+03  0.22277575493E+02  0.23101276440E+03  0.17200000000E+03 0. -1.
         -6    1    1    2    0  503 -0.10657655445E+03  0.10921558948E+03 -0.16797477447E+03  0.28475626737E+03  0.17200000000E+03 0.  1.
</event>
<event>
 4    1  0.1253776E+000  0.1891080E+03  0.7818608E-02  0.1159268E+00
         21   -1    0    0  501  502  0.00000000000E+00  0.00000000000E+00  0.14897266355E+03  0.14897266355E+03  0.00000000000E+00 0.  1.
         21   -1    0    0  502  503 -0.00000000000E+00 -0.00000000000E+00 -0.24041547878E+03  0.24041547878E+03  0.00000000000E+00 0.  1.
          6    1    1    2  501    0 -0.77235092863E+02  0.14580495750E+02 -0.53245071416E+02  0.19646090720E+03  0.17200000000E+03 0.  1.
         -6    1    1    2    0  503  0.77235092863E+02 -0.14580495750E+02 -0.38197743808E+02  0.19292723514E+03  0.17200000000E+03 0.  1.
</event>
<event>
 4    1  0.1253776E+000  0.1747943E+03  0.7818608E-02  0.1172938E+00
         21   -1    0    0  503  502  0.00000000000E+00  0.00000000000E+00  0.17286316613E+04  0.17286316613E+04  0.00000000000E+00 0.  1.
         21   -1    0    0  501  503 -0.00000000000E+00 -0.00000000000E+00 -0.10859812710E+03  0.10859812710E+03  0.00000000000E+00 0.  1.
          6    1    1    2  501    0  0.22747178486E+02  0.21251137667E+02 -0.30526773127E+02  0.17743993028E+03  0.17200000000E+03 0.  1.
         -6    1    1    2    0  502 -0.22747178486E+02 -0.21251137667E+02  0.16505603073E+04  0.16597898581E+04  0.17200000000E+03 0.  1.
</event>
<event>
 4    1  0.1253776E+000  0.1946853E+03  0.7818608E-02  0.1154302E+00
         21   -1    0    0  501  502  0.00000000000E+00  0.00000000000E+00  0.16245080510E+03  0.16245080510E+03  0.00000000000E+00 0. -1.
         21   -1    0    0  502  503 -0.00000000000E+00 -0.00000000000E+00 -0.24817073079E+03  0.24817073079E+03  0.00000000000E+00 0. -1.
          6    1    1    2  501    0  0.89090837657E+02  0.19523988351E+02  0.73707812000E+01  0.19482477227E+03  0.17200000000E+03 0. -1.
         -6    1    1    2    0  503 -0.89090837657E+02 -0.19523988351E+02 -0.93090706892E+02  0.21579676361E+03  0.17200000000E+03 0. -1.
</event>
<event>
 4    1  0.1253776E+000  0.1741988E+03  0.7818608E-02  0.1173539E+00
         21   -1    0    0  503  502  0.00000000000E+00  0.00000000000E+00  0.18956852214E+03  0.18956852214E+03  0.00000000000E+00 0.  1.
         21   -1    0    0  501  503 -0.00000000000E+00 -0.00000000000E+00 -0.24485114273E+03  0.24485114273E+03  0.00000000000E+00 0.  1.
          6    1    1    2  501    0 -0.23234864299E+02  0.14878327487E+02 -0.15545126083E+03  0.23347444837E+03  0.17200000000E+03 0.  1.
         -6    1    1    2    0  502  0.23234864299E+02 -0.14878327487E+02  0.10016864024E+03  0.20094521650E+03  0.17200000000E+03 0.  1.
</event>
<event>
 4    1  0.1253776E+000  0.1744073E+03  0.7818608E-02  0.1173328E+00
         21   -1    0    0  503  502  0.00000000000E+00  0.00000000000E+00  0.17244177137E+04  0.17244177137E+04  0.00000000000E+00 0.  1.
         21   -1    0    0  501  503 -0.00000000000E+00 -0.00000000000E+00 -0.18641366977E+02  0.18641366977E+02  0.00000000000E+00 0.  1.
          6    1    1    2  501    0  0.13349821171E+01 -0.28846804031E+02  0.65084625888E+03  0.67380915174E+03  0.17200000000E+03 0.  1.
         -6    1    1    2    0  502 -0.13349821171E+01  0.28846804031E+02  0.10549300879E+04  0.10692499289E+04  0.17200000000E+03 0.  1.
</event>
<event>
 4    1  0.1253776E+000  0.2027034E+03  0.7818608E-02  0.1147478E+00
         21   -1    0    0  501  502  0.00000000000E+00  0.00000000000E+00  0.17008502665E+03  0.17008502665E+03  0.00000000000E+00 0. -1.
         21   -1    0    0  502  503 -0.00000000000E+00 -0.00000000000E+00 -0.26905686613E+03  0.26905686613E+03  0.00000000000E+00 0. -1.
          6    1    1    2  501    0  0.85541126197E+02 -0.64709972026E+02  0.20685222875E+02  0.20375608751E+03  0.17200000000E+03 0. -1.
         -6    1    1    2    0  503 -0.85541126197E+02  0.64709972026E+02 -0.11965706236E+03  0.23538580527E+03  0.17200000000E+03 0. -1.
</event>
<event>
 4    1  0.1253776E+000  0.2353293E+03  0.7818608E-02  0.1122944E+00
         21   -1    0    0  503  502  0.00000000000E+00  0.00000000000E+00  0.87602024945E+02  0.87602024945E+02  0.00000000000E+00 0. -1.
         21   -1    0    0  501  503 -0.00000000000E+00 -0.00000000000E+00 -0.81120306604E+03  0.81120306604E+03  0.00000000000E+00 0.  1.
          6    1    1    2  501    0 -0.41414237388E+02 -0.15517964173E+03 -0.57292111597E+03  0.61936940947E+03  0.17200000000E+03 0.  1.
         -6    1    1    2    0  502  0.41414237388E+02  0.15517964173E+03 -0.15067992512E+03  0.27943568151E+03  0.17200000000E+03 0. -1.
</event>
<event>
 4    1  0.1253776E+000  0.2057278E+03  0.7818608E-02  0.1144995E+00
         21   -1    0    0  501  502  0.00000000000E+00  0.00000000000E+00  0.14495824498E+03  0.14495824498E+03  0.00000000000E+00 0. -1.
         21   -1    0    0  502  503 -0.00000000000E+00 -0.00000000000E+00 -0.30563479894E+03  0.30563479894E+03  0.00000000000E+00 0. -1.
          6    1    1    2  501    0  0.87348728556E+02  0.71485014715E+02 -0.32705544970E+02  0.20831121041E+03  0.17200000000E+03 0. -1.
         -6    1    1    2    0  503 -0.87348728556E+02 -0.71485014715E+02 -0.12797100899E+03  0.24228183351E+03  0.17200000000E+03 0. -1.
</event>
<event>
 4    1  0.1253776E+000  0.2239537E+03  0.7818608E-02  0.1130969E+00
         21   -1    0    0  501  502  0.00000000000E+00  0.00000000000E+00  0.12360578200E+03  0.12360578200E+03  0.00000000000E+00 0. -1.
         21   -1    0    0  502  503 -0.00000000000E+00 -0.00000000000E+00 -0.53956568249E+03  0.53956568249E+03  0.00000000000E+00 0. -1.
          6    1    1    2  501    0 -0.13360174177E+03  0.52171045125E+02 -0.42860462330E+02  0.22801811898E+03  0.17200000000E+03 0. -1.
         -6    1    1    2    0  503  0.13360174177E+03 -0.52171045125E+02 -0.37309943816E+03  0.43515334551E+03  0.17200000000E+03 0. -1.
</event>
<event>
 4    1  0.1253776E+000  0.1855396E+03  0.7818608E-02  0.1162547E+00
         21   -1    0    0  501  502  0.00000000000E+00  0.00000000000E+00  0.27009759880E+03  0.27009759880E+03  0.00000000000E+00 0.  1.
         21   -1    0    0  502  503 -0.00000000000E+00 -0.00000000000E+00 -0.12918539856E+03  0.12918539856E+03  0.00000000000E+00 0.  1.
          6    1    1    2  501    0 -0.22267719289E+02  0.65917441799E+02  0.47342373027E+02  0.19148436161E+03  0.17200000000E+03 0.  1.
         -6    1    1    2    0  503  0.22267719289E+02 -0.65917441799E+02  0.93569827219E+02  0.20779863575E+03  0.17200000000E+03 0.  1.
</event>
<event>
 4    1  0.1253776E+000  0.1990735E+03  0.7818608E-02  0.1150523E+00
         21   -1    0    0  503  502  0.00000000000E+00  0.00000000000E+00  0.31353705227E+03  0.31353705227E+03  0.00000000000E+00 0.  1.
         21   -1    0    0  501  503 -0.00000000000E+00 -0.00000000000E+00 -0.13218744075E+03  0.13218744075E+03  0.00000000000E+00 0. -1.
          6    1    1    2  501    0 -0.24161583309E+02 -0.97275323398E+02  0.44032294484E+02  0.20388504999E+03  0.17200000000E+03 0. -1.
         -6    1    1    2    0  502  0.24161583309E+02  0.97275323398E+02  0.13731731704E+03  0.24183944304E+03  0.17200000000E+03 0. -1.
</event>
<event>
 4    1  0.1253776E+000  0.1931754E+03  0.7818608E-02  0.1155628E+00
         21   -1    0    0  501  502  0.00000000000E+00  0.00000000000E+00  0.55306023281E+02  0.55306023281E+02  0.00000000000E+00 0. -1.
         21   -1    0    0  502  503 -0.00000000000E+00 -0.00000000000E+00 -0.96263110975E+03  0.96263110975E+03  0.00000000000E+00 0. -1.
          6    1    1    2  501    0  0.87319889721E+02 -0.10391455216E+02 -0.17531899977E+03  0.26087065217E+03  0.17200000000E+03 0. -1.
         -6    1    1    2    0  503 -0.87319889721E+02  0.10391455216E+02 -0.73200608670E+03  0.75706648086E+03  0.17200000000E+03 0. -1.
</event>
<event>
 4    1  0.1253776E+000  0.1885844E+03  0.7818608E-02  0.1159744E+00
         21   -1    0    0  501  502  0.00000000000E+00  0.00000000000E+00  0.31275466491E+02  0.31275466491E+02  0.00000000000E+00 0.  1.
         21   -1    0    0  502  503 -0.00000000000E+00 -0.00000000000E+00 -0.19577307836E+04  0.19577307836E+04  0.00000000000E+00 0.  1.
          6    1    1    2  501    0  0.26526059394E+02 -0.72639078018E+02 -0.31935889754E+03  0.37088296392E+03  0.17200000000E+03 0.  1.
         -6    1    1    2    0  503 -0.26526059394E+02  0.72639078018E+02 -0.16070964196E+04  0.16181232862E+04  0.17200000000E+03 0.  1.
</event>
<event>
 4    1  0.1253776E+000  0.1875127E+03  0.7818608E-02  0.1160724E+00
         21   -1    0    0  503  502  0.00000000000E+00  0.00000000000E+00  0.10141412693E+04  0.10141412693E+04  0.00000000000E+00 0.  1.
         21   -1    0    0  501  503 -0.00000000000E+00 -0.00000000000E+00 -0.39364291924E+02  0.39364291924E+02  0.00000000000E+00 0. -1.
          6    1    1    2  501    0  0.35710103057E+02 -0.65588075795E+02  0.30549908801E+03  0.35845599440E+03  0.17200000000E+03 0. -1.
         -6    1    1    2    0  502 -0.35710103057E+02  0.65588075795E+02  0.66927788935E+03  0.69504956681E+03  0.17200000000E+03 0.  1.
</event>
<event>
 4    1  0.1253776E+000  0.1939447E+03  0.7818608E-02  0.1154951E+00
         21   -1    0    0  501  502  0.00000000000E+00  0.00000000000E+00  0.11805534436E+03  0.11805534436E+03  0.00000000000E+00 0. -1.
         21   -1    0    0  502  503 -0.00000000000E+00 -0.00000000000E+00 -0.36095444642E+03  0.36095444642E+03  0.00000000000E+00 0. -1.
          6    1    1    2  501    0  0.82120204775E+02 -0.35872152765E+02 -0.39424559523E+02  0.19791118025E+03  0.17200000000E+03 0. -1.
         -6    1    1    2    0  503 -0.82120204775E+02  0.35872152765E+02 -0.20347454254E+03  0.28109861052E+03  0.17200000000E+03 0. -1.
</event>
<event>
 4    1  0.1253776E+000  0.2272703E+03  0.7818608E-02  0.1128576E+00
         21   -1    0    0  501  502  0.00000000000E+00  0.00000000000E+00  0.37859062899E+02  0.37859062899E+02  0.00000000000E+00 0. -1.
         21   -1    0    0  502  503 -0.00000000000E+00 -0.00000000000E+00 -0.15465107859E+04  0.15465107859E+04  0.00000000000E+00 0. -1.
          6    1    1    2  501    0  0.26500397707E+02  0.14616950235E+03 -0.10262300446E+04  0.10510946194E+04  0.17200000000E+03 0.  1.
         -6    1    1    2    0  503 -0.26500397707E+02 -0.14616950235E+03 -0.48242167841E+03  0.53327522940E+03  0.17200000000E+03 0.  1.
</event>
<event>
 4    1  0.1253776E+000  0.1983368E+03  0.7818608E-02  0.1151150E+00
         21   -1    0    0  501  502  0.00000000000E+00  0.00000000000E+00  0.27905207874E+03  0.27905207874E+03  0.00000000000E+00 0. -1.
         21   -1    0    0  502  503 -0.00000000000E+00 -0.00000000000E+00 -0.20037307593E+03  0.20037307593E+03  0.00000000000E+00 0. -1.
          6    1    1    2  501    0  0.98633634289E+02  0.49894548311E+01  0.16986096455E+03  0.26113260185E+03  0.17200000000E+03 0.  1.
         -6    1    1    2    0  503 -0.98633634289E+02 -0.49894548311E+01 -0.91181961728E+02  0.21829255282E+03  0.17200000000E+03 0.  1.
</event>
<event>
 4    1  0.1253776E+000  0.1894307E+03  0.7818608E-02  0.1158976E+00
         21   -1    0    0  501  502  0.00000000000E+00  0.00000000000E+00  0.14131483924E+03  0.14131483924E+03  0.00000000000E+00 0. -1.
         21   -1    0    0  502  503 -0.00000000000E+00 -0.00000000000E+00 -0.46272244826E+03  0.46272244826E+03  0.00000000000E+00 0.  1.
          6    1    1    2  501    0 -0.46250395374E+02 -0.64504872396E+02  0.42172625491E+02  0.19406830750E+03  0.17200000000E+03 0. -1.
         -6    1    1    2    0  503  0.46250395374E+02  0.64504872396E+02 -0.36358023451E+03  0.40996898000E+03  0.17200000000E+03 0.  1.
</event>
<event>
 4    1  0.1253776E+000  0.2427004E+03  0.7818608E-02  0.1118007E+00
         21   -1    0    0  501  502  0.00000000000E+00  0.00000000000E+00  0.11621423979E+03  0.11621423979E+03  0.00000000000E+00 0. -1.
         21   -1    0    0  502  503 -0.00000000000E+00 -0.00000000000E+00 -0.56154777333E+03  0.56154777333E+03  0.00000000000E+00 0. -1.
          6    1    1    2  501    0 -0.12168951175E+03  0.12046219593E+03 -0.32842855225E+03  0.40837334861E+03  0.17200000000E+03 0. -1.
         -6    1    1    2    0  503  0.12168951175E+03 -0.12046219593E+03 -0.11690498129E+03  0.26938866451E+03  0.17200000000E+03 0. -1.
</event>
<event>
 4    1  0.1253776E+000  0.1879957E+03  0.7818608E-02  0.1160282E+00
         21   -1    0    0  503  502  0.00000000000E+00  0.00000000000E+00  0.99698553491E+02  0.99698553491E+02  0.00000000000E+00 0. -1.
         21   -1    0    0  501  503 -0.00000000000E+00 -0.00000000000E+00 -0.40604800569E+03  0.40604800569E+03  0.00000000000E+00 0. -1.
          6    1    1    2  501    0 -0.75300642400E+02  0.93910421509E+01 -0.24328042151E+03  0.30745364188E+03  0.17200000000E+03 0. -1.
         -6    1    1    2    0  502  0.75300642400E+02 -0.93910421509E+01 -0.63069030695E+02  0.19829291730E+03  0.17200000000E+03 0. -1.
</event>
<event>
 4    1  0.1253776E+000  0.2206148E+03  0.7818608E-02  0.1133426E+00
         21   -1    0    0  501  502  0.00000000000E+00  0.00000000000E+00  0.26673829937E+03  0.26673829937E+03  0.00000000000E+00 0. -1.
         21   -1    0    0  502  503 -0.00000000000E+00 -0.00000000000E+00 -0.25579781178E+03  0.25579781178E+03  0.00000000000E+00 0.  1.
          6    1    1    2  501    0  0.13405013197E+03 -0.33428403425E+02  0.14535861219E+03  0.26419693824E+03  0.17200000000E+03 0. -1.
         -6    1    1    2    0  503 -0.13405013197E+03  0.33428403425E+02 -0.13441812460E+03  0.25833917291E+03  0.17200000000E+03 0. -1.
</event>
<event>
 4    1  0.1253776E+000  0.1823770E+03  0.7818608E-02  0.1165522E+00
         21   -1    0    0  503  502  0.00000000000E+00  0.00000000000E+00  0.59459621420E+03  0.59459621420E+03  0.00000000000E+00 0.  1.
         21   -1    0    0  501  503 -0.00000000000E+00 -0.00000000000E+00 -0.63151119814E+02  0.63151119814E+02  0.00000000000E+00 0.  1.
          6    1    1    2  501    0  0.42449331077E+02  0.43306367728E+02  0.37685896357E+03  0.41866939895E+03  0.17200000000E+03 0.  1.
         -6    1    1    2    0  502 -0.42449331077E+02 -0.43306367728E+02  0.15458613083E+03  0.23907793507E+03  0.17200000000E+03 0.  1.
</event>
<event>
 4    1  0.1253776E+000  0.5409933E+03  0.7818608E-02  0.1003600E+00
         21   -1    0    0  503  502  0.00000000000E+00  0.00000000000E+00  0.60483900670E+03  0.60483900670E+03  0.00000000000E+00 0. -1.
         21   -1    0    0  501  503 -0.00000000000E+00 -0.00000000000E+00 -0.68800724742E+03  0.68800724742E+03  0.00000000000E+00 0.  1.
          6    1    1    2  501    0 -0.27051862688E+03  0.43578594065E+03  0.31051379637E+03  0.62377282026E+03  0.17200000000E+03 0. -1.
         -6    1    1    2    0  502  0.27051862688E+03 -0.43578594065E+03 -0.39368203709E+03  0.66907343385E+03  0.17200000000E+03 0.  1.
</event>
<event>
 4    1  0.1253776E+000  0.2289719E+03  0.7818608E-02  0.1127365E+00
         21   -1    0    0  501  502  0.00000000000E+00  0.00000000000E+00  0.35599724184E+03  0.35599724184E+03  0.00000000000E+00 0.  1.
         21   -1    0    0  502  503 -0.00000000000E+00 -0.00000000000E+00 -0.61710837739E+03  0.61710837739E+03  0.00000000000E+00 0. -1.
          6    1    1    2  501    0  0.90361355302E+02 -0.12115680374E+03  0.29398866646E+03  0.37263585661E+03  0.17200000000E+03 0.  1.
         -6    1    1    2    0  503 -0.90361355302E+02  0.12115680374E+03 -0.55509980201E+03  0.60046976262E+03  0.17200000000E+03 0. -1.
</event>
<event>
 4    1  0.1253776E+000  0.1843710E+03  0.7818608E-02  0.1163639E+00
         21   -1    0    0  503  502  0.00000000000E+00  0.00000000000E+00  0.23049633822E+03  0.23049633822E+03  0.00000000000E+00 0. -1.
         21   -1    0    0  501  503 -0.00000000000E+00 -0.00000000000E+00 -0.15088532863E+03  0.15088532863E+03  0.00000000000E+00 0. -1.
          6    1    1    2  501    0  0.27521189174E+02  0.60425423017E+02  0.68470319360E+02  0.19667443208E+03  0.17200000000E+03 0.  1.
         -6    1    1    2    0  502 -0.27521189174E+02 -0.60425423017E+02  0.11140690227E+02  0.18470723478E+03  0.17200000000E+03 0.  1.
</event>
<event>
 4    1  0.1253776E+000  0.2589329E+03  0.7818608E-02  0.1107786E+00
         21   -1    0    0  503  502  0.00000000000E+00  0.00000000000E+00  0.13170681366E+03  0.13170681366E+03  0.00000000000E+00 0.  1.
         21   -1    0    0  501  503 -0.00000000000E+00 -0.00000000000E+00 -0.62924714132E+03  0.62924714132E+03  0.00000000000E+00 0.  1.
          6    1    1    2  501    0  0.64662201643E+02 -0.18243092127E+03 -0.41505500035E+03  0.48920026029E+03  0.17200000000E+03 0.  1.
         -6    1    1    2    0  502 -0.64662201643E+02  0.18243092127E+03 -0.82485327301E+02  0.27175369469E+03  0.17200000000E+03 0.  1.
</event>
<event>
 4    1  0.1253776E+000  0.2249195E+03  0.7818608E-02  0.1130268E+00
         21   -1    0    0  501  502  0.00000000000E+00  0.00000000000E+00  0.10255448351E+04  0.10255448351E+04  0.00000000000E+00 0.  1.
         21   -1    0    0  502  503 -0.00000000000E+00 -0.00000000000E+00 -0.13435794951E+03  0.13435794951E+03  0.00000000000E+00 0. -1.
          6    1    1    2  501    0  0.12153050466E+03 -0.78962754813E+02  0.90695788267E+03  0.93443104676E+03  0.17200000000E+03 0. -1.
         -6    1    1    2    0  503 -0.12153050466E+03  0.78962754813E+02 -0.15770997097E+02  0.22547173783E+03  0.17200000000E+03 0. -1.
</event>
<event>
 4    1  0.1253776E+000  0.2976253E+03  0.7818608E-02  0.1086434E+00
         21   -1    0    0  501  502  0.00000000000E+00  0.00000000000E+00  0.28888715980E+03  0.28888715980E+03  0.00000000000E+00 0.  1.
         21   -1    0    0  502  503 -0.00000000000E+00 -0.00000000000E+00 -0.32547695555E+03  0.32547695555E+03  0.00000000000E+00 0. -1.
          6    1    1    2  501    0 -0.47478288742E+02 -0.23820713222E+03  0.55628515407E+02  0.30277938746E+03  0.17200000000E+03 0.  1.
         -6    1    1    2    0  503  0.47478288742E+02  0.23820713222E+03 -0.92218311160E+02  0.31158472789E+03  0.17200000000E+03 0. -1.
</event>
<event>
 4    1  0.1253776E+000  0.2455602E+03  0.7818608E-02  0.1116143E+00
         21   -1    0    0  503  502  0.00000000000E+00  0.00000000000E+00  0.20176697642E+04  0.20176697642E+04  0.00000000000E+00 0.  1.
         21   -1    0    0  501  503 -0.00000000000E+00 -0.00000000000E+00 -0.40856904876E+02  0.40856904876E+02  0.00000000000E+00 0.  1.
          6    1    1    2  501    0 -0.77926984122E+02  0.15698144992E+03  0.45504964820E+03  0.51707830432E+03  0.17200000000E+03 0.  1.
         -6    1    1    2    0  502  0.77926984122E+02 -0.15698144992E+03  0.15217632111E+04  0.15414483647E+04  0.17200000000E+03 0.  1.
</event>
<event>
 4    1  0.1253776E+000  0.1777399E+03  0.7818608E-02  0.1170009E+00
         21   -1    0    0  503  502  0.00000000000E+00  0.00000000000E+00  0.15033690702E+04  0.15033690702E+04  0.00000000000E+00 0.  1.
         21   -1    0    0  501  503 -0.00000000000E+00 -0.00000000000E+00 -0.37147436107E+02  0.37147436107E+02  0.00000000000E+00 0.  1.
          6    1    1    2  501    0  0.32635885540E+02 -0.30697778268E+02  0.22549114292E+03  0.28711967914E+03  0.17200000000E+03 0.  1.
         -6    1    1    2    0  502 -0.32635885540E+02  0.30697778268E+02  0.12407304912E+04  0.12533968272E+04  0.17200000000E+03 0.  1.
</event>
<event>
 4    1  0.1253776E+000  0.1979969E+03  0.7818608E-02  0.1151440E+00
         21   -1    0    0  501  502  0.00000000000E+00  0.00000000000E+00  0.17828123533E+03  0.17828123533E+03  0.00000000000E+00 0.  1.
         21   -1    0    0  502  503 -0.00000000000E+00 -0.00000000000E+00 -0.50696194049E+03  0.50696194049E+03  0.00000000000E+00 0.  1.
          6    1    1    2  501    0 -0.36123587715E+02  0.91180440835E+02  0.93481775016E+02  0.21895576868E+03  0.17200000000E+03 0.  1.
         -6    1    1    2    0  503  0.36123587715E+02 -0.91180440835E+02 -0.42216248018E+03  0.46628740713E+03  0.17200000000E+03 0.  1.
</event>
<event>
 4    1  0.1253776E+000  0.1832002E+03  0.7818608E-02  0.1164741E+00
         21   -1    0    0  503  502  0.00000000000E+00  0.00000000000E+00  0.72361033118E+03  0.72361033118E+03  0.00000000000E+00 0.  1.
         21   -1    0    0  501  503 -0.00000000000E+00 -0.00000000000E+00 -0.46987876551E+02  0.46987876551E+02  0.00000000000E+00 0.  1.
          6    1    1    2  501    0 -0.53674521406E+02 -0.33126405638E+02  0.38207220146E+03  0.42372335329E+03  0.17200000000E+03 0.  1.
         -6    1    1    2    0  502  0.53674521406E+02  0.33126405638E+02  0.29455025318E+03  0.34687485444E+03  0.17200000000E+03 0.  1.
</event>
<event>
 4    1  0.1253776E+000  0.2961322E+03  0.7818608E-02  0.1087190E+00
         21   -1    0    0  503  502  0.00000000000E+00  0.00000000000E+00  0.24813867134E+03  0.24813867134E+03  0.00000000000E+00 0. -1.
         21   -1    0    0  501  503 -0.00000000000E+00 -0.00000000000E+00 -0.35750237946E+03  0.35750237946E+03  0.00000000000E+00 0.  1.
          6    1    1    2  501    0  0.21393121869E+03 -0.11110233988E+03 -0.22276445087E+02  0.29696891464E+03  0.17200000000E+03 0.  1.
         -6    1    1    2    0  502 -0.21393121869E+03  0.11110233988E+03 -0.87087263037E+02  0.30867213616E+03  0.17200000000E+03 0. -1.
</event>
<event>
 4    1  0.1253776E+000  0.1738660E+03  0.7818608E-02  0.1173875E+00
         21   -1    0    0  501  502  0.00000000000E+00  0.00000000000E+00  0.50484778205E+02  0.50484778205E+02  0.00000000000E+00 0. -1.
         21   -1    0    0  502  503 -0.00000000000E+00 -0.00000000000E+00 -0.67125405088E+03  0.67125405088E+03  0.00000000000E+00 0. -1.
          6    1    1    2  501    0  0.22510371653E+02 -0.11775623249E+02 -0.19181006743E+03  0.25888314758E+03  0.17200000000E+03 0.  1.
         -6    1    1    2    0  503 -0.22510371653E+02  0.11775623249E+02 -0.42895920524E+03  0.46285568150E+03  0.17200000000E+03 0.  1.
</event>
<event>
 4    1  0.1253776E+000  0.1822711E+03  0.7818608E-02  0.1165623E+00
         21   -1    0    0  503  502  0.00000000000E+00  0.00000000000E+00  0.13490322453E+03  0.13490322453E+03  0.00000000000E+00 0. -1.
         21   -1    0    0  501  503 -0.00000000000E+00 -0.00000000000E+00 -0.56247959196E+03  0.56247959196E+03  0.00000000000E+00 0. -1.
          6    1    1    2  501    0 -0.33562514722E+02  0.50122859046E+02 -0.47522981133E+03  0.50898537992E+03  0.17200000000E+03 0. -1.
         -6    1    1    2    0  502  0.33562514722E+02 -0.50122859046E+02  0.47653443890E+02  0.18839743657E+03  0.17200000000E+03 0. -1.
</event>
<event>
 4    1  0.1253776E+000  0.2226811E+03  0.7818608E-02  0.1131900E+00
         21   -1    0    0  501  502  0.00000000000E+00  0.00000000000E+00  0.14163711535E+03  0.14163711535E+03  0.00000000000E+00 0.  1.
         21   -1    0    0  502  503 -0.00000000000E+00 -0.00000000000E+00 -0.36064579646E+03  0.36064579646E+03  0.00000000000E+00 0.  1.
          6    1    1    2  501    0 -0.12031946209E+03 -0.74337670276E+02 -0.66554644472E+02  0.23241424844E+03  0.17200000000E+03 0.  1.
         -6    1    1    2    0  503  0.12031946209E+03  0.74337670276E+02 -0.15245403663E+03  0.26986866336E+03  0.17200000000E+03 0.  1.
</event>
<event>
 4    1  0.1253776E+000  0.2061066E+03  0.7818608E-02  0.1144687E+00
         21   -1    0    0  501  502  0.00000000000E+00  0.00000000000E+00  0.25647204121E+03  0.25647204121E+03  0.00000000000E+00 0. -1.
         21   -1    0    0  502  503 -0.00000000000E+00 -0.00000000000E+00 -0.16653316557E+03  0.16653316557E+03  0.00000000000E+00 0. -1.
          6    1    1    2  501    0  0.10072448285E+03 -0.52445367521E+02  0.60529251293E+02  0.21481091285E+03  0.17200000000E+03 0. -1.
         -6    1    1    2    0  503 -0.10072448285E+03  0.52445367521E+02  0.29409624352E+02  0.20819429393E+03  0.17200000000E+03 0. -1.
</event>
<event>
 4    1  0.1253776E+000  0.2152613E+03  0.7818608E-02  0.1137466E+00
         21   -1    0    0  501  502  0.00000000000E+00  0.00000000000E+00  0.40666021646E+03  0.40666021646E+03  0.00000000000E+00 0.  1.
         21   -1    0    0  502  503 -0.00000000000E+00 -0.00000000000E+00 -0.21632099132E+03  0.21632099132E+03  0.00000000000E+00 0.  1.
          6    1    1    2  501    0  0.12483337301E+03 -0.34205829900E+02  0.30945473073E+03  0.37696105924E+03  0.17200000000E+03 0.  1.
         -6    1    1    2    0  503 -0.12483337301E+03  0.34205829900E+02 -0.11911550559E+03  0.24602014854E+03  0.17200000000E+03 0.  1.
</event>
<event>
 4    1  0.1253776E+000  0.2222122E+03  0.7818608E-02  0.1132244E+00
         21   -1    0    0  503  502  0.00000000000E+00  0.00000000000E+00  0.13713217387E+03  0.13713217387E+03  0.00000000000E+00 0.  1.
         21   -1    0    0  501  503 -0.00000000000E+00 -0.00000000000E+00 -0.42425796916E+03  0.42425796916E+03  0.00000000000E+00 0. -1.
          6    1    1    2  501    0  0.69727132013E+02 -0.12219824337E+03 -0.25273694691E+03  0.33653268482E+03  0.17200000000E+03 0.  1.
         -6    1    1    2    0  502 -0.69727132013E+02  0.12219824337E+03 -0.34388848386E+02  0.22485745822E+03  0.17200000000E+03 0.  1.
</event>
<event>
 4    1  0.1253776E+000  0.3207879E+03  0.7818608E-02  0.1075287E+00
         21   -1    0    0  503  502  0.00000000000E+00  0.00000000000E+00  0.31378011265E+03  0.31378011265E+03  0.00000000000E+00 0. -1.
         21   -1    0    0  501  503 -0.00000000000E+00 -0.00000000000E+00 -0.72882515271E+03  0.72882515271E+03  0.00000000000E+00 0.  1.
          6    1    1    2  501    0  0.26829540006E+03  0.36585243755E+02 -0.59414008303E+03  0.67520910836E+03  0.17200000000E+03 0.  1.
         -6    1    1    2    0  502 -0.26829540006E+03 -0.36585243755E+02  0.17909504297E+03  0.36739615699E+03  0.17200000000E+03 0. -1.
</event>
<event>
 4    1  0.1253776E+000  0.1764032E+03  0.7818608E-02  0.1171330E+00
         21   -1    0    0  501  502  0.00000000000E+00  0.00000000000E+00  0.12133260433E+03  0.12133260433E+03  0.00000000000E+00 0.  1.
         21   -1    0    0  502  503 -0.00000000000E+00 -0.00000000000E+00 -0.42264156088E+03  0.42264156088E+03  0.00000000000E+00 0.  1.
          6    1    1    2  501    0  0.39143854148E+02 -0.13538472921E+01  0.19891542895E+02  0.17752111902E+03  0.17200000000E+03 0.  1.
         -6    1    1    2    0  503 -0.39143854148E+02  0.13538472921E+01 -0.32120049944E+03  0.36645304619E+03  0.17200000000E+03 0.  1.
</event>
<event>
 4    1  0.1253776E+000  0.2278029E+03  0.7818608E-02  0.1128196E+00
         21   -1    0    0  501  502  0.00000000000E+00  0.00000000000E+00  0.58307748414E+02  0.58307748414E+02  0.00000000000E+00 0.  1.
         21   -1    0    0  502  503 -0.00000000000E+00 -0.00000000000E+00 -0.11997744517E+04  0.11997744517E+04  0.00000000000E+00 0. -1.
          6    1    1    2  501    0 -0.77802617951E+02 -0.12750267242E+03 -0.25110255552E+03  0.33903786252E+03  0.17200000000E+03 0.  1.
         -6    1    1    2    0  503  0.77802617951E+02  0.12750267242E+03 -0.89036414778E+03  0.91904433761E+03  0.17200000000E+03 0. -1.
</event>
<event>
 4    1  0.1253776E+000  0.1790701E+03  0.7818608E-02  0.1168706E+00
         21   -1    0    0  501  502  0.00000000000E+00  0.00000000000E+00  0.72259911182E+03  0.72259911182E+03  0.00000000000E+00 0.  1.
         21   -1    0    0  502  503 -0.00000000000E+00 -0.00000000000E+00 -0.44932251399E+02  0.44932251399E+02  0.00000000000E+00 0.  1.
          6    1    1    2  501    0  0.27678135265E+02 -0.41425003517E+02  0.38153015497E+03  0.42146336643E+03  0.17200000000E+03 0.  1.
         -6    1    1    2    0  503 -0.27678135265E+02  0.41425003517E+02  0.29613670545E+03  0.34606799679E+03  0.17200000000E+03 0.  1.
</event>
<event>
 4    1  0.1253776E+000  0.2160677E+03  0.7818608E-02  0.1136849E+00
         21   -1    0    0  503  502  0.00000000000E+00  0.00000000000E+00  0.29543254870E+03  0.29543254870E+03  0.00000000000E+00 0. -1.
         21   -1    0    0  501  503 -0.00000000000E+00 -0.00000000000E+00 -0.22934185736E+03  0.22934185736E+03  0.00000000000E+00 0. -1.
          6    1    1    2  501    0  0.53262890017E+02 -0.11943329181E+03 -0.11327410173E+03  0.24395956379E+03  0.17200000000E+03 0. -1.
         -6    1    1    2    0  502 -0.53262890017E+02  0.11943329181E+03  0.17936479307E+03  0.28081484227E+03  0.17200000000E+03 0. -1.
</event>
<event>
 4    1  0.1253776E+000  0.3450448E+03  0.7818608E-02  0.1064667E+00
         21   -1    0    0  503  502  0.00000000000E+00  0.00000000000E+00  0.35482877884E+03  0.35482877884E+03  0.00000000000E+00 0. -1.
         21   -1    0    0  501  503 -0.00000000000E+00 -0.00000000000E+00 -0.40295469881E+03  0.40295469881E+03  0.00000000000E+00 0. -1.
          6    1    1    2  501    0 -0.26176527287E+03 -0.14474416830E+03  0.13092373749E+03  0.36904871952E+03  0.17200000000E+03 0.  1.
         -6    1    1    2    0  502  0.26176527287E+03  0.14474416830E+03 -0.17904965746E+03  0.38873475813E+03  0.17200000000E+03 0.  1.
</event>
<event>
 4    1  0.1253776E+000  0.2224068E+03  0.7818608E-02  0.1132101E+00
         21   -1    0    0  501  502  0.00000000000E+00  0.00000000000E+00  0.59358679146E+03  0.59358679146E+03  0.00000000000E+00 0. -1.
         21   -1    0    0  502  503 -0.00000000000E+00 -0.00000000000E+00 -0.90388755332E+02  0.90388755332E+02  0.00000000000E+00 0. -1.
          6    1    1    2  501    0 -0.15874389466E+02 -0.14010272343E+03  0.15604341150E+03  0.27168790114E+03  0.17200000000E+03 0.  1.
         -6    1    1    2    0  503  0.15874389466E+02  0.14010272343E+03  0.34715462463E+03  0.41228764565E+03  0.17200000000E+03 0.  1.
</event>
<event>
 4    1  0.1253776E+000  0.2189975E+03  0.7818608E-02  0.1134633E+00
         21   -1    0    0  503  502  0.00000000000E+00  0.00000000000E+00  0.98567681232E+02  0.98567681232E+02  0.00000000000E+00 0.  1.
         21   -1    0    0  501  503 -0.00000000000E+00 -0.00000000000E+00 -0.50594976338E+03  0.50594976338E+03  0.00000000000E+00 0.  1.
          6    1    1    2  501    0 -0.15075723504E+02 -0.13471691037E+03 -0.26284949321E+03  0.34212538558E+03  0.17200000000E+03 0.  1.
         -6    1    1    2    0  502  0.15075723504E+02  0.13471691037E+03 -0.14453258894E+03  0.26239205903E+03  0.17200000000E+03 0.  1.
</event>
<event>
 4    1  0.1253776E+000  0.1783095E+03  0.7818608E-02  0.1169449E+00
         21   -1    0    0  501  502  0.00000000000E+00  0.00000000000E+00  0.35086694534E+02  0.35086694534E+02  0.00000000000E+00 0. -1.
         21   -1    0    0  502  503 -0.00000000000E+00 -0.00000000000E+00 -0.93399059276E+03  0.93399059276E+03  0.00000000000E+00 0. -1.
          6    1    1    2  501    0  0.46671794444E+02 -0.56601643909E+01 -0.36581687778E+03  0.40695980382E+03  0.17200000000E+03 0.  1.
         -6    1    1    2    0  503 -0.46671794444E+02  0.56601643909E+01 -0.53308702045E+03  0.56211748348E+03  0.17200000000E+03 0.  1.
</event>
<event>
 4    1  0.1253776E+000  0.1847185E+03  0.7818608E-02  0.1163313E+00
         21   -1    0    0  501  502  0.00000000000E+00  0.00000000000E+00  0.25800788042E+02  0.25800788042E+02  0.00000000000E+00 0. -1.
         21   -1    0    0  502  503 -0.00000000000E+00 -0.00000000000E+00 -0.13335812674E+04  0.13335812674E+04  0.00000000000E+00 0. -1.
          6    1    1    2  501    0 -0.19336741988E+02  0.64521384150E+02 -0.71591564519E+03  0.73936197470E+03  0.17200000000E+03 0. -1.
         -6    1    1    2    0  503  0.19336741988E+02 -0.64521384150E+02 -0.59186483421E+03  0.62002008079E+03  0.17200000000E+03 0. -1.
</event>
<event>
 4    1  0.1253776E+000  0.1997177E+03  0.7818608E-02  0.1149977E+00
         21   -1    0    0  503  502  0.00000000000E+00  0.00000000000E+00  0.15507012037E+03  0.15507012037E+03  0.00000000000E+00 0. -1.
         21   -1    0    0  501  503 -0.00000000000E+00 -0.00000000000E+00 -0.44895522327E+03  0.44895522327E+03  0.00000000000E+00 0. -1.
          6    1    1    2  501    0  0.76246688036E+02  0.67004532302E+02 -0.34430948576E+03  0.39804043358E+03  0.17200000000E+03 0.  1.
         -6    1    1    2    0  502 -0.76246688036E+02 -0.67004532302E+02  0.50424382861E+02  0.20598491006E+03  0.17200000000E+03 0.  1.
</event>
<event>
 4    1  0.1253776E+000  0.1911506E+03  0.7818608E-02  0.1157428E+00
         21   -1    0    0  503  502  0.00000000000E+00  0.00000000000E+00  0.50391550090E+03  0.50391550090E+03  0.00000000000E+00 0. -1.
         21   -1    0    0  501  503 -0.00000000000E+00 -0.00000000000E+00 -0.17201334932E+03  0.17201334932E+03  0.00000000000E+00 0. -1.
          6    1    1    2  501    0 -0.57019907515E+02 -0.60854580084E+02 -0.91094619059E+02  0.21174697021E+03  0.17200000000E+03 0. -1.
         -6    1    1    2    0  502  0.57019907515E+02  0.60854580084E+02  0.42299677064E+03  0.46418188002E+03  0.17200000000E+03 0. -1.
</event>
<event>
 4    1  0.1253776E+000  0.2138578E+03  0.7818608E-02  0.1138547E+00
         21   -1    0    0  501  502  0.00000000000E+00  0.00000000000E+00  0.55354137656E+03  0.55354137656E+03  0.00000000000E+00 0. -1.
         21   -1    0    0  502  503 -0.00000000000E+00 -0.00000000000E+00 -0.93102902466E+02  0.93102902466E+02  0.00000000000E+00 0. -1.
          6    1    1    2  501    0  0.26589150951E+02  0.12427455123E+03  0.33869589009E+03  0.40056217120E+03  0.17200000000E+03 0. -1.
         -6    1    1    2    0  503 -0.26589150951E+02 -0.12427455123E+03  0.12174258400E+03  0.24608210783E+03  0.17200000000E+03 0. -1.
</event>
<event>
 4    1  0.1253776E+000  0.1831620E+03  0.7818608E-02  0.1164777E+00
         21   -1    0    0  501  502  0.00000000000E+00  0.00000000000E+00  0.88652074565E+02  0.88652074565E+02  0.00000000000E+00 0. -1.
         21   -1    0    0  502  503 -0.00000000000E+00 -0.00000000000E+00 -0.43240405744E+03  0.43240405744E+03  0.00000000000E+00 0. -1.
          6    1    1    2  501    0 -0.42031428495E+02 -0.46879427069E+02 -0.79827853502E+02  0.19980192156E+03  0.17200000000E+03 0.  1.
         -6    1    1    2    0  503  0.42031428495E+02  0.46879427069E+02 -0.26392412937E+03  0.32125421044E+03  0.17200000000E+03 0.  1.
</event>
<event>
 4    1  0.1253776E+000  0.1966557E+03  0.7818608E-02  0.1152592E+00
         21   -1    0    0  503  502  0.00000000000E+00  0.00000000000E+00  0.87008732935E+03  0.87008732935E+03  0.00000000000E+00 0.  1.
         21   -1    0    0  501  503 -0.00000000000E+00 -0.00000000000E+00 -0.54045857620E+02  0.54045857620E+02  0.00000000000E+00 0. -1.
          6    1    1    2  501    0 -0.91960472617E+02 -0.25153881992E+02  0.21329847889E+03  0.29012012581E+03  0.17200000000E+03 0.  1.
         -6    1    1    2    0  502  0.91960472617E+02  0.25153881992E+02  0.60274299284E+03  0.63401306116E+03  0.17200000000E+03 0.  1.
</event>
<event>
 4    1  0.1253776E+000  0.1859384E+03  0.7818608E-02  0.1162176E+00
         21   -1    0    0  501  502  0.00000000000E+00  0.00000000000E+00  0.18490678083E+02  0.18490678083E+02  0.00000000000E+00 0. -1.
         21   -1    0    0  502  503 -0.00000000000E+00 -0.00000000000E+00 -0.18707703079E+04  0.18707703079E+04  0.00000000000E+00 0. -1.
          6    1    1    2  501    0 -0.49375392580E+02  0.50509076120E+02 -0.94811206263E+03  0.96617264475E+03  0.17200000000E+03 0. -1.
         -6    1    1    2    0  503  0.49375392580E+02 -0.50509076120E+02 -0.90416756715E+03  0.92308834120E+03  0.17200000000E+03 0. -1.
</event>
<event>
 4    1  0.1253776E+000  0.1855791E+03  0.7818608E-02  0.1162510E+00
         21   -1    0    0  503  502  0.00000000000E+00  0.00000000000E+00  0.34168748671E+02  0.34168748671E+02  0.00000000000E+00 0. -1.
         21   -1    0    0  501  503 -0.00000000000E+00 -0.00000000000E+00 -0.12770618081E+04  0.12770618081E+04  0.00000000000E+00 0. -1.
          6    1    1    2  501    0  0.60609227953E+02 -0.34382284793E+02 -0.92241962314E+03  0.94090253543E+03  0.17200000000E+03 0. -1.
         -6    1    1    2    0  502 -0.60609227953E+02  0.34382284793E+02 -0.32047343624E+03  0.37032802129E+03  0.17200000000E+03 0. -1.
</event>
<event>
 4    1  0.1253776E+000  0.1930804E+03  0.7818608E-02  0.1155712E+00
         21   -1    0    0  503  502  0.00000000000E+00  0.00000000000E+00  0.64493594632E+03  0.64493594632E+03  0.00000000000E+00 0. -1.
         21   -1    0    0  501  503 -0.00000000000E+00 -0.00000000000E+00 -0.69783918345E+02  0.69783918345E+02  0.00000000000E+00 0. -1.
          6    1    1    2  501    0 -0.13613142037E+02 -0.86664463458E+02  0.13951171701E+03  0.23820908053E+03  0.17200000000E+03 0. -1.
         -6    1    1    2    0  502  0.13613142037E+02  0.86664463458E+02  0.43564031096E+03  0.47651078414E+03  0.17200000000E+03 0. -1.
</event>
<event>
 4    1  0.1253776E+000  0.1917083E+03  0.7818608E-02  0.1156930E+00
         21   -1    0    0  501  502  0.00000000000E+00  0.00000000000E+00  0.93545297860E+03  0.93545297860E+03  0.00000000000E+00 0.  1.
         21   -1    0    0  502  503 -0.00000000000E+00 -0.00000000000E+00 -0.52432030000E+02  0.52432030000E+02  0.00000000000E+00 0.  1.
          6    1    1    2  501    0 -0.30104395792E+02 -0.79131411819E+02  0.68882106573E+03  0.71500105984E+03  0.17200000000E+03 0.  1.
         -6    1    1    2    0  503  0.30104395792E+02  0.79131411819E+02  0.19419988287E+03  0.27288394876E+03  0.17200000000E+03 0.  1.
</event>
<event>
 4    1  0.1253776E+000  0.1932354E+03  0.7818608E-02  0.1155575E+00
         21   -1    0    0  503  502  0.00000000000E+00  0.00000000000E+00  0.50749826868E+03  0.50749826868E+03  0.00000000000E+00 0.  1.
         21   -1    0    0  501  503 -0.00000000000E+00 -0.00000000000E+00 -0.10096617217E+03  0.10096617217E+03  0.00000000000E+00 0.  1.
          6    1    1    2  501    0  0.72489376255E+02  0.50012219532E+02  0.44809239060E+02  0.19836279812E+03  0.17200000000E+03 0.  1.
         -6    1    1    2    0  502 -0.72489376255E+02 -0.50012219532E+02  0.36172285745E+03  0.41010164273E+03  0.17200000000E+03 0.  1.
</event>
<event>
 4    1  0.1253776E+000  0.1913125E+03  0.7818608E-02  0.1157283E+00
         21   -1    0    0  503  502  0.00000000000E+00  0.00000000000E+00  0.99156684267E+02  0.99156684267E+02  0.00000000000E+00 0. -1.
         21   -1    0    0  501  503 -0.00000000000E+00 -0.00000000000E+00 -0.46944493969E+03  0.46944493969E+03  0.00000000000E+00 0. -1.
          6    1    1    2  501    0 -0.67723580328E+02 -0.49294977787E+02 -0.31657439733E+03  0.36989164253E+03  0.17200000000E+03 0. -1.
         -6    1    1    2    0  502  0.67723580328E+02  0.49294977787E+02 -0.53713858091E+02  0.19870998143E+03  0.17200000000E+03 0. -1.
</event>
<event>
 4    1  0.1253776E+000  0.2001905E+03  0.7818608E-02  0.1149578E+00
         21   -1    0    0  503  502  0.00000000000E+00  0.00000000000E+00  0.19122245037E+03  0.19122245037E+03  0.00000000000E+00 0. -1.
         21   -1    0    0  501  503 -0.00000000000E+00 -0.00000000000E+00 -0.21795071228E+03  0.21795071228E+03  0.00000000000E+00 0. -1.
          6    1    1    2  501    0  0.10237019716E+03 -0.35466231036E+01 -0.53460185121E+02  0.20720576052E+03  0.17200000000E+03 0. -1.
         -6    1    1    2    0  502 -0.10237019716E+03  0.35466231036E+01  0.26731923208E+02  0.20196740212E+03  0.17200000000E+03 0. -1.
</event>
<event>
 4    1  0.1253776E+000  0.3807873E+03  0.7818608E-02  0.1050643E+00
         21   -1    0    0  503  502  0.00000000000E+00  0.00000000000E+00  0.42277060166E+03  0.42277060166E+03  0.00000000000E+00 0.  1.
         21   -1    0    0  501  503 -0.00000000000E+00 -0.00000000000E+00 -0.59019797519E+03  0.59019797519E+03  0.00000000000E+00 0. -1.
          6    1    1    2  501    0  0.33298101982E+03 -0.67369034452E+02 -0.41151689371E+03  0.56066487332E+03  0.17200000000E+03 0. -1.
         -6    1    1    2    0  502 -0.33298101982E+03  0.67369034452E+02  0.24408952018E+03  0.45230370353E+03  0.17200000000E+03 0.  1.
</event>
<event>
 4    1  0.1253776E+000  0.2086792E+03  0.7818608E-02  0.1142616E+00
         21   -1    0    0  503  502  0.00000000000E+00  0.00000000000E+00  0.30662882963E+03  0.30662882963E+03  0.00000000000E+00 0.  1.
         21   -1    0    0  501  503 -0.00000000000E+00 -0.00000000000E+00 -0.15029273600E+03  0.15029273600E+03  0.00000000000E+00 0.  1.
          6    1    1    2  501    0  0.83043431194E+02 -0.84064231671E+02  0.24563307579E+02  0.21011987671E+03  0.17200000000E+03 0.  1.
         -6    1    1    2    0  502 -0.83043431194E+02  0.84064231671E+02  0.13177278604E+03  0.24680168892E+03  0.17200000000E+03 0.  1.
</event>
<event>
 4    1  0.1253776E+000  0.1821252E+03  0.7818608E-02  0.1165762E+00
         21   -1    0    0  503  502  0.00000000000E+00  0.00000000000E+00  0.80874863401E+03  0.80874863401E+03  0.00000000000E+00 0. -1.
         21   -1    0    0  501  503 -0.00000000000E+00 -0.00000000000E+00 -0.63080713697E+02  0.63080713697E+02  0.00000000000E+00 0. -1.
          6    1    1    2  501    0  0.33954298968E+02  0.49322510127E+02  0.11500776881E+03  0.21539821566E+03  0.17200000000E+03 0. -1.
         -6    1    1    2    0  502 -0.33954298968E+02 -0.49322510127E+02  0.63066015150E+03  0.65643113205E+03  0.17200000000E+03 0. -1.
</event>
<event>
 4    1  0.1253776E+000  0.1777895E+03  0.7818608E-02  0.1169960E+00
         21   -1    0    0  501  502  0.00000000000E+00  0.00000000000E+00  0.28214557352E+03  0.28214557352E+03  0.00000000000E+00 0. -1.
         21   -1    0    0  502  503 -0.00000000000E+00 -0.00000000000E+00 -0.27805529516E+03  0.27805529516E+03  0.00000000000E+00 0. -1.
          6    1    1    2  501    0 -0.18687483466E+01  0.44962530936E+02  0.21848322894E+03  0.28168074613E+03  0.17200000000E+03 0. -1.
         -6    1    1    2    0  503  0.18687483466E+01 -0.44962530936E+02 -0.21439295058E+03  0.27852012255E+03  0.17200000000E+03 0. -1.
</event>
<event>
 4    1  0.1253776E+000  0.1961834E+03  0.7818608E-02  0.1153000E+00
         21   -1    0    0  501  502  0.00000000000E+00  0.00000000000E+00  0.34309061099E+03  0.34309061099E+03  0.00000000000E+00 0. -1.
         21   -1    0    0  502  503 -0.00000000000E+00 -0.00000000000E+00 -0.11227149529E+03  0.11227149529E+03  0.00000000000E+00 0. -1.
          6    1    1    2  501    0  0.41187153638E+02 -0.84897311411E+02  0.10891302957E+03  0.22438801911E+03  0.17200000000E+03 0.  1.
         -6    1    1    2    0  503 -0.41187153638E+02  0.84897311411E+02  0.12190608614E+03  0.23097408718E+03  0.17200000000E+03 0.  1.
</event>
<event>
 4    1  0.1253776E+000  0.2028453E+03  0.7818608E-02  0.1147360E+00
         21   -1    0    0  503  502  0.00000000000E+00  0.00000000000E+00  0.32264546741E+03  0.32264546741E+03  0.00000000000E+00 0.  1.
         21   -1    0    0  501  503 -0.00000000000E+00 -0.00000000000E+00 -0.12930177835E+03  0.12930177835E+03  0.00000000000E+00 0.  1.
          6    1    1    2  501    0  0.43605387510E+02 -0.98289320908E+02  0.12314143297E+03  0.23729735131E+03  0.17200000000E+03 0. -1.
         -6    1    1    2    0  502 -0.43605387510E+02  0.98289320908E+02  0.70202256088E+02  0.21464989444E+03  0.17200000000E+03 0. -1.
</event>
<event>
 4    1  0.1253776E+000  0.2549898E+03  0.7818608E-02  0.1110191E+00
         21   -1    0    0  501  502  0.00000000000E+00  0.00000000000E+00  0.49429464210E+03  0.49429464210E+03  0.00000000000E+00 0. -1.
         21   -1    0    0  502  503 -0.00000000000E+00 -0.00000000000E+00 -0.13440157746E+03  0.13440157746E+03  0.00000000000E+00 0.  1.
          6    1    1    2  501    0  0.45018676407E+02 -0.18278166576E+03  0.22580981715E+03  0.34060224909E+03  0.17200000000E+03 0. -1.
         -6    1    1    2    0  503 -0.45018676407E+02  0.18278166576E+03  0.13408324750E+03  0.28809397048E+03  0.17200000000E+03 0.  1.
</event>
<event>
 4    1  0.1253776E+000  0.2400221E+03  0.7818608E-02  0.1119778E+00
         21   -1    0    0  503  502  0.00000000000E+00  0.00000000000E+00  0.62604767216E+02  0.62604767216E+02  0.00000000000E+00 0. -1.
         21   -1    0    0  501  503 -0.00000000000E+00 -0.00000000000E+00 -0.13875780698E+04  0.13875780698E+04  0.00000000000E+00 0. -1.
          6    1    1    2  501    0 -0.26368469350E+02 -0.16532186429E+03 -0.10832961550E+04  0.11095680126E+04  0.17200000000E+03 0. -1.
         -6    1    1    2    0  502  0.26368469350E+02  0.16532186429E+03 -0.24167714755E+03  0.34061482445E+03  0.17200000000E+03 0. -1.
</event>
<event>
 4    1  0.1253776E+000  0.2088139E+03  0.7818608E-02  0.1142509E+00
         21   -1    0    0  503  502  0.00000000000E+00  0.00000000000E+00  0.30956292636E+02  0.30956292636E+02  0.00000000000E+00 0. -1.
         21   -1    0    0  501  503 -0.00000000000E+00 -0.00000000000E+00 -0.18039929295E+04  0.18039929295E+04  0.00000000000E+00 0. -1.
          6    1    1    2  501    0  0.10859013298E+03 -0.47195685928E+02 -0.13160772341E+04  0.13325398815E+04  0.17200000000E+03 0. -1.
         -6    1    1    2    0  502 -0.10859013298E+03  0.47195685928E+02 -0.45695940274E+03  0.50240934058E+03  0.17200000000E+03 0. -1.
</event>
<event>
 4    1  0.1253776E+000  0.2285796E+03  0.7818608E-02  0.1127644E+00
         21   -1    0    0  501  502  0.00000000000E+00  0.00000000000E+00  0.30499938949E+03  0.30499938949E+03  0.00000000000E+00 0. -1.
         21   -1    0    0  502  503 -0.00000000000E+00 -0.00000000000E+00 -0.65040237649E+03  0.65040237649E+03  0.00000000000E+00 0. -1.
          6    1    1    2  501    0 -0.14219804722E+03  0.49440338564E+02  0.23729092287E+03  0.32947778952E+03  0.17200000000E+03 0. -1.
         -6    1    1    2    0  503  0.14219804722E+03 -0.49440338564E+02 -0.58269390987E+03  0.62592397646E+03  0.17200000000E+03 0. -1.
</event>
<event>
 4    1  0.1253776E+000  0.1991285E+03  0.7818608E-02  0.1150476E+00
         21   -1    0    0  503  502  0.00000000000E+00  0.00000000000E+00  0.39458878365E+03  0.39458878365E+03  0.00000000000E+00 0. -1.
         21   -1    0    0  501  503 -0.00000000000E+00 -0.00000000000E+00 -0.13555407455E+03  0.13555407455E+03  0.00000000000E+00 0. -1.
          6    1    1    2  501    0  0.98318165436E+02 -0.20042866151E+02 -0.52977605054E+01  0.19919900704E+03  0.17200000000E+03 0. -1.
         -6    1    1    2    0  502 -0.98318165436E+02  0.20042866151E+02  0.26433246960E+03  0.33094385117E+03  0.17200000000E+03 0. -1.
</event>
<event>
 4    1  0.1253776E+000  0.2516661E+03  0.7818608E-02  0.1112256E+00
         21   -1    0    0  503  502  0.00000000000E+00  0.00000000000E+00  0.93362075930E+03  0.93362075930E+03  0.00000000000E+00 0. -1.
         21   -1    0    0  501  503 -0.00000000000E+00 -0.00000000000E+00 -0.92504114659E+02  0.92504114659E+02  0.00000000000E+00 0.  1.
          6    1    1    2  501    0  0.27957281106E+02 -0.18157706826E+03  0.15562791644E+03  0.29589844485E+03  0.17200000000E+03 0.  1.
         -6    1    1    2    0  502 -0.27957281106E+02  0.18157706826E+03  0.68548872820E+03  0.73022642911E+03  0.17200000000E+03 0.  1.
</event>
<event>
 4    1  0.1253776E+000  0.1721179E+03  0.7818608E-02  0.1175657E+00
         21   -1    0    0  501  502  0.00000000000E+00  0.00000000000E+00  0.11470900849E+03  0.11470900849E+03  0.00000000000E+00 0. -1.
         21   -1    0    0  502  503 -0.00000000000E+00 -0.00000000000E+00 -0.27784184680E+03  0.27784184680E+03  0.00000000000E+00 0. -1.
          6    1    1    2  501    0 -0.50796360292E+01 -0.38420294158E+01 -0.29457534577E+02  0.17462047485E+03  0.17200000000E+03 0.  1.
         -6    1    1    2    0  503  0.50796360292E+01  0.38420294158E+01 -0.13367530373E+03  0.21793038044E+03  0.17200000000E+03 0.  1.
</event>
<event>
 4    1  0.1253776E+000  0.1823476E+03  0.7818608E-02  0.1165550E+00
         21   -1    0    0  501  502  0.00000000000E+00  0.00000000000E+00  0.66902748914E+03  0.66902748914E+03  0.00000000000E+00 0. -1.
         21   -1    0    0  502  503 -0.00000000000E+00 -0.00000000000E+00 -0.68233749382E+02  0.68233749382E+02  0.00000000000E+00 0. -1.
          6    1    1    2  501    0 -0.40662093242E+02 -0.44868967034E+02  0.10827621229E+03  0.21207161097E+03  0.17200000000E+03 0.  1.
         -6    1    1    2    0  503  0.40662093242E+02  0.44868967034E+02  0.49251752747E+03  0.52518962756E+03  0.17200000000E+03 0.  1.
</event>
<event>
 4    1  0.1253776E+000  0.2180661E+03  0.7818608E-02  0.1135333E+00
         21   -1    0    0  503  502  0.00000000000E+00  0.00000000000E+00  0.35311067740E+03  0.35311067740E+03  0.00000000000E+00 0. -1.
         21   -1    0    0  501  503 -0.00000000000E+00 -0.00000000000E+00 -0.37963543805E+03  0.37963543805E+03  0.00000000000E+00 0. -1.
          6    1    1    2  501    0 -0.89326811680E+02  0.99947699369E+02 -0.30756494862E+03  0.37702655014E+03  0.17200000000E+03 0. -1.
         -6    1    1    2    0  502  0.89326811680E+02 -0.99947699369E+02  0.28104018796E+03  0.35571956531E+03  0.17200000000E+03 0. -1.
</event>
<event>
 4    1  0.1253776E+000  0.2181930E+03  0.7818608E-02  0.1135237E+00
         21   -1    0    0  503  502  0.00000000000E+00  0.00000000000E+00  0.13992894494E+03  0.13992894494E+03  0.00000000000E+00 0. -1.
         21   -1    0    0  501  503 -0.00000000000E+00 -0.00000000000E+00 -0.88584790985E+03  0.88584790985E+03  0.00000000000E+00 0. -1.
          6    1    1    2  501    0 -0.97174131312E+02  0.92635748823E+02 -0.77547918785E+03  0.80559056880E+03  0.17200000000E+03 0. -1.
         -6    1    1    2    0  502  0.97174131312E+02 -0.92635748823E+02  0.29560222944E+02  0.22018628599E+03  0.17200000000E+03 0. -1.
</event>
<event>
 4    1  0.1253776E+000  0.2617975E+03  0.7818608E-02  0.1106068E+00
         21   -1    0    0  503  502  0.00000000000E+00  0.00000000000E+00  0.56964450004E+03  0.56964450004E+03  0.00000000000E+00 0.  1.
         21   -1    0    0  501  503 -0.00000000000E+00 -0.00000000000E+00 -0.12032825493E+03  0.12032825493E+03  0.00000000000E+00 0. -1.
          6    1    1    2  501    0 -0.19609347715E+03 -0.22389688091E+02  0.22798611631E+03  0.34715359589E+03  0.17200000000E+03 0. -1.
         -6    1    1    2    0  502  0.19609347715E+03  0.22389688091E+02  0.22133012880E+03  0.34281915907E+03  0.17200000000E+03 0.  1.
</event>
<event>
 4    1  0.1253776E+000  0.1721672E+03  0.7818608E-02  0.1175606E+00
         21   -1    0    0  503  502  0.00000000000E+00  0.00000000000E+00  0.19779622662E+03  0.19779622662E+03  0.00000000000E+00 0.  1.
         21   -1    0    0  501  503 -0.00000000000E+00 -0.00000000000E+00 -0.15080264998E+03  0.15080264998E+03  0.00000000000E+00 0.  1.
          6    1    1    2  501    0  0.62926845961E+01 -0.42362284982E+01  0.37284696427E+02  0.17615814514E+03  0.17200000000E+03 0.  1.
         -6    1    1    2    0  502 -0.62926845961E+01  0.42362284982E+01  0.97088802077E+01  0.17244073146E+03  0.17200000000E+03 0.  1.
</event>
<event>
 4    1  0.1253776E+000  0.2328500E+03  0.7818608E-02  0.1124650E+00
         21   -1    0    0  501  502  0.00000000000E+00  0.00000000000E+00  0.10840067119E+04  0.10840067119E+04  0.00000000000E+00 0.  1.
         21   -1    0    0  502  503 -0.00000000000E+00 -0.00000000000E+00 -0.54084671916E+02  0.54084671916E+02  0.00000000000E+00 0. -1.
          6    1    1    2  501    0 -0.22731009266E+02  0.15530114460E+03  0.35891084682E+03  0.42782723179E+03  0.17200000000E+03 0. -1.
         -6    1    1    2    0  503  0.22731009266E+02 -0.15530114460E+03  0.67101119312E+03  0.71026415198E+03  0.17200000000E+03 0.  1.
</event>
<event>
 4    1  0.1253776E+000  0.3083548E+03  0.7818608E-02  0.1081137E+00
         21   -1    0    0  501  502  0.00000000000E+00  0.00000000000E+00  0.20412861470E+04  0.20412861470E+04  0.00000000000E+00 0. -1.
         21   -1    0    0  502  503 -0.00000000000E+00 -0.00000000000E+00 -0.24951058285E+03  0.24951058285E+03  0.00000000000E+00 0. -1.
          6    1    1    2  501    0  0.25204277690E+03  0.44419987945E+02  0.19288538149E+04  0.19533457800E+04  0.17200000000E+03 0. -1.
         -6    1    1    2    0  503 -0.25204277690E+03 -0.44419987945E+02 -0.13707825081E+03  0.33745094986E+03  0.17200000000E+03 0. -1.
</event>
<event>
 4    1  0.1253776E+000  0.2074775E+03  0.7818608E-02  0.1143579E+00
         21   -1    0    0  501  502  0.00000000000E+00  0.00000000000E+00  0.34461715836E+03  0.34461715836E+03  0.00000000000E+00 0. -1.
         21   -1    0    0  502  503 -0.00000000000E+00 -0.00000000000E+00 -0.12506647438E+03  0.12506647438E+03  0.00000000000E+00 0.  1.
          6    1    1    2  501    0  0.50353959759E+02 -0.10453422084E+03  0.11802051869E+03  0.23869597278E+03  0.17200000000E+03 0.  1.
         -6    1    1    2    0  503 -0.50353959759E+02  0.10453422084E+03  0.10153016529E+03  0.23098765996E+03  0.17200000000E+03 0.  1.
</event>
<event>
 4    1  0.1253776E+000  0.1740106E+03  0.7818608E-02  0.1173729E+00
         21   -1    0    0  501  502  0.00000000000E+00  0.00000000000E+00  0.32687828600E+03  0.32687828600E+03  0.00000000000E+00 0.  1.
         21   -1    0    0  502  503 -0.00000000000E+00 -0.00000000000E+00 -0.93181209142E+02  0.93181209142E+02  0.00000000000E+00 0.  1.
          6    1    1    2  501    0  0.97348230720E+01 -0.24513889930E+02  0.10073791226E+03  0.20106671666E+03  0.17200000000E+03 0.  1.
         -6    1    1    2    0  503 -0.97348230720E+01  0.24513889930E+02  0.13295916460E+03  0.21899277849E+03  0.17200000000E+03 0.  1.
</event>
<event>
 4    1  0.1253776E+000  0.2044076E+03  0.7818608E-02  0.1146073E+00
         21   -1    0    0  501  502  0.00000000000E+00  0.00000000000E+00  0.21605179338E+04  0.21605179338E+04  0.00000000000E+00 0. -1.
         21   -1    0    0  502  503 -0.00000000000E+00 -0.00000000000E+00 -0.43286827869E+02  0.43286827869E+02  0.00000000000E+00 0. -1.
          6    1    1    2  501    0  0.11010862493E+03  0.86342073020E+01  0.18782070705E+04  0.18892972922E+04  0.17200000000E+03 0. -1.
         -6    1    1    2    0  503 -0.11010862493E+03 -0.86342073020E+01  0.23902403550E+03  0.31450746949E+03  0.17200000000E+03 0. -1.
</event>
<event>
 4    1  0.1253776E+000  0.1808541E+03  0.7818608E-02  0.1166979E+00
         21   -1    0    0  501  502  0.00000000000E+00  0.00000000000E+00  0.22915905702E+03  0.22915905702E+03  0.00000000000E+00 0. -1.
         21   -1    0    0  502  503 -0.00000000000E+00 -0.00000000000E+00 -0.21394950569E+03  0.21394950569E+03  0.00000000000E+00 0. -1.
          6    1    1    2  501    0 -0.48266330662E+02 -0.28188178211E+02  0.13543085213E+03  0.22594186813E+03  0.17200000000E+03 0. -1.
         -6    1    1    2    0  503  0.48266330662E+02  0.28188178211E+02 -0.12022130080E+03  0.21716669458E+03  0.17200000000E+03 0. -1.
</event>
<event>
 4    1  0.1253776E+000  0.1845062E+03  0.7818608E-02  0.1163512E+00
         21   -1    0    0  503  502  0.00000000000E+00  0.00000000000E+00  0.19981302589E+03  0.19981302589E+03  0.00000000000E+00 0. -1.
         21   -1    0    0  501  503 -0.00000000000E+00 -0.00000000000E+00 -0.20335533959E+03  0.20335533959E+03  0.00000000000E+00 0. -1.
          6    1    1    2  501    0 -0.47987073232E+02 -0.46430299054E+02 -0.82956270474E+02  0.20229749054E+03  0.17200000000E+03 0. -1.
         -6    1    1    2    0  502  0.47987073232E+02  0.46430299054E+02  0.79413956783E+02  0.20087087494E+03  0.17200000000E+03 0. -1.
</event>
<event>
 4    1  0.1253776E+000  0.1823969E+03  0.7818608E-02  0.1165503E+00
         21   -1    0    0  501  502  0.00000000000E+00  0.00000000000E+00  0.95526640884E+03  0.95526640884E+03  0.00000000000E+00 0. -1.
         21   -1    0    0  502  503 -0.00000000000E+00 -0.00000000000E+00 -0.44790714345E+02  0.44790714345E+02  0.00000000000E+00 0. -1.
          6    1    1    2  501    0  0.57806564417E+02  0.18520987086E+02  0.69107999953E+03  0.71474484370E+03  0.17200000000E+03 0. -1.
         -6    1    1    2    0  503 -0.57806564417E+02 -0.18520987086E+02  0.21939569496E+03  0.28531227948E+03  0.17200000000E+03 0. -1.
</event>
<event>
 4    1  0.1253776E+000  0.1850172E+03  0.7818608E-02  0.1163034E+00
         21   -1    0    0  501  502  0.00000000000E+00  0.00000000000E+00  0.31826414659E+03  0.31826414659E+03  0.00000000000E+00 0.  1.
         21   -1    0    0  502  503 -0.00000000000E+00 -0.00000000000E+00 -0.22678303129E+03  0.22678303129E+03  0.00000000000E+00 0.  1.
          6    1    1    2  501    0  0.14530083927E+02  0.66605196428E+02 -0.15185869081E+03  0.23935838716E+03  0.17200000000E+03 0.  1.
         -6    1    1    2    0  503 -0.14530083927E+02 -0.66605196428E+02  0.24333980612E+03  0.30568879072E+03  0.17200000000E+03 0.  1.
</event>
<event>
 4    1  0.1253776E+000  0.2069153E+03  0.7818608E-02  0.1144032E+00
         21   -1    0    0  501  502  0.00000000000E+00  0.00000000000E+00  0.25769387685E+03  0.25769387685E+03  0.00000000000E+00 0.  1.
         21   -1    0    0  502  503 -0.00000000000E+00 -0.00000000000E+00 -0.19231784196E+03  0.19231784196E+03  0.00000000000E+00 0.  1.
          6    1    1    2  501    0 -0.89258293994E+02  0.72545762703E+02 -0.50321786997E+02  0.21294650262E+03  0.17200000000E+03 0.  1.
         -6    1    1    2    0  503  0.89258293994E+02 -0.72545762703E+02  0.11569782189E+03  0.23706521618E+03  0.17200000000E+03 0.  1.
</event>
<event>
 4    1  0.1253776E+000  0.1785873E+03  0.7818608E-02  0.1169177E+00
         21   -1    0    0  503  502  0.00000000000E+00  0.00000000000E+00  0.34493646552E+03  0.34493646552E+03  0.00000000000E+00 0. -1.
         21   -1    0    0  501  503 -0.00000000000E+00 -0.00000000000E+00 -0.12315092123E+03  0.12315092123E+03  0.00000000000E+00 0. -1.
          6    1    1    2  501    0 -0.87419383099E+01  0.47254581485E+02 -0.59416843665E+01  0.17868609507E+03  0.17200000000E+03 0. -1.
         -6    1    1    2    0  502  0.87419383099E+01 -0.47254581485E+02  0.22772722866E+03  0.28940129169E+03  0.17200000000E+03 0. -1.
</event>
<event>
 4    1  0.1253776E+000  0.2430086E+03  0.7818608E-02  0.1117805E+00
         21   -1    0    0  501  502  0.00000000000E+00  0.00000000000E+00  0.88517211730E+02  0.88517211730E+02  0.00000000000E+00 0. -1.
         21   -1    0    0  502  503 -0.00000000000E+00 -0.00000000000E+00 -0.12706172452E+04  0.12706172452E+04  0.00000000000E+00 0.  1.
          6    1    1    2  501    0 -0.15051722665E+03 -0.82545393666E+02 -0.12271535950E+03  0.27223562770E+03  0.17200000000E+03 0. -1.
         -6    1    1    2    0  503  0.15051722665E+03  0.82545393666E+02 -0.10593846740E+04  0.10868988292E+04  0.17200000000E+03 0.  1.
</event>
<event>
 4    1  0.1253776E+000  0.2083964E+03  0.7818608E-02  0.1142842E+00
         21   -1    0    0  503  502  0.00000000000E+00  0.00000000000E+00  0.13685262030E+03  0.13685262030E+03  0.00000000000E+00 0.  1.
         21   -1    0    0  501  503 -0.00000000000E+00 -0.00000000000E+00 -0.36233994260E+03  0.36233994260E+03  0.00000000000E+00 0.  1.
          6    1    1    2  501    0  0.48495805649E+02  0.10720648726E+03 -0.24785388486E+02  0.20986516995E+03  0.17200000000E+03 0.  1.
         -6    1    1    2    0  502 -0.48495805649E+02 -0.10720648726E+03 -0.20070193382E+03  0.28932739295E+03  0.17200000000E+03 0.  1.
</event>
<event>
 4    1  0.1253776E+000  0.2335151E+03  0.7818608E-02  0.1124190E+00
         21   -1    0    0  501  502  0.00000000000E+00  0.00000000000E+00  0.21280458355E+03  0.21280458355E+03  0.00000000000E+00 0.  1.
         21   -1    0    0  502  503 -0.00000000000E+00 -0.00000000000E+00 -0.25644118224E+03  0.25644118224E+03  0.00000000000E+00 0.  1.
          6    1    1    2  501    0 -0.55020196067E+02 -0.14804757738E+03 -0.28369866537E+02  0.23523213316E+03  0.17200000000E+03 0.  1.
         -6    1    1    2    0  503  0.55020196067E+02  0.14804757738E+03 -0.15266732158E+02  0.23401363263E+03  0.17200000000E+03 0.  1.
</event>
<event>
 4    1  0.1253776E+000  0.1777602E+03  0.7818608E-02  0.1169989E+00
         21   -1    0    0  503  502  0.00000000000E+00  0.00000000000E+00  0.36465400608E+02  0.36465400608E+02  0.00000000000E+00 0.  1.
         21   -1    0    0  501  503 -0.00000000000E+00 -0.00000000000E+00 -0.10687429101E+04  0.10687429101E+04  0.00000000000E+00 0.  1.
          6    1    1    2  501    0  0.35361578117E+02  0.27645008560E+02 -0.75650441238E+03  0.77710849542E+03  0.17200000000E+03 0.  1.
         -6    1    1    2    0  502 -0.35361578117E+02 -0.27645008560E+02 -0.27577309716E+03  0.32809981533E+03  0.17200000000E+03 0.  1.
</event>
<event>
 4    1  0.1253776E+000  0.1830275E+03  0.7818608E-02  0.1164905E+00
         21   -1    0    0  501  502  0.00000000000E+00  0.00000000000E+00  0.14672863170E+04  0.14672863170E+04  0.00000000000E+00 0. -1.
         21   -1    0    0  502  503 -0.00000000000E+00 -0.00000000000E+00 -0.74248139889E+02  0.74248139889E+02  0.00000000000E+00 0. -1.
          6    1    1    2  501    0  0.28538217837E+02 -0.55683406892E+02  0.13379294485E+04  0.13503904179E+04  0.17200000000E+03 0.  1.
         -6    1    1    2    0  503 -0.28538217837E+02  0.55683406892E+02  0.55108728688E+02  0.19114403903E+03  0.17200000000E+03 0.  1.
</event>
<event>
 4    1  0.1253776E+000  0.2920543E+03  0.7818608E-02  0.1089281E+00
         21   -1    0    0  503  502  0.00000000000E+00  0.00000000000E+00  0.56730358405E+03  0.56730358405E+03  0.00000000000E+00 0. -1.
         21   -1    0    0  501  503 -0.00000000000E+00 -0.00000000000E+00 -0.17021197552E+03  0.17021197552E+03  0.00000000000E+00 0.  1.
          6    1    1    2  501    0  0.20478631784E+03 -0.11736392369E+03  0.32450384299E+03  0.43657584756E+03  0.17200000000E+03 0.  1.
         -6    1    1    2    0  502 -0.20478631784E+03  0.11736392369E+03  0.72587765537E+02  0.30093971201E+03  0.17200000000E+03 0.  1.
</event>
<event>
 4    1  0.1253776E+000  0.2132275E+03  0.7818608E-02  0.1139035E+00
         21   -1    0    0  501  502  0.00000000000E+00  0.00000000000E+00  0.10644728488E+03  0.10644728488E+03  0.00000000000E+00 0.  1.
         21   -1    0    0  502  503 -0.00000000000E+00 -0.00000000000E+00 -0.80491458123E+03  0.80491458123E+03  0.00000000000E+00 0.  1.
          6    1    1    2  501    0 -0.16278426517E+02  0.12496788367E+03 -0.37048117816E+02  0.21642209257E+03  0.17200000000E+03 0.  1.
         -6    1    1    2    0  503  0.16278426517E+02 -0.12496788367E+03 -0.66141917853E+03  0.69493977354E+03  0.17200000000E+03 0.  1.
</event>
<event>
 4    1  0.1253776E+000  0.2916138E+03  0.7818608E-02  0.1089510E+00
         21   -1    0    0  503  502  0.00000000000E+00  0.00000000000E+00  0.16353043202E+03  0.16353043202E+03  0.00000000000E+00 0.  1.
         21   -1    0    0  501  503 -0.00000000000E+00 -0.00000000000E+00 -0.52094476666E+03  0.52094476666E+03  0.00000000000E+00 0. -1.
          6    1    1    2  501    0 -0.20902015483E+03  0.10846743133E+03 -0.19314976685E+03  0.34977913205E+03  0.17200000000E+03 0. -1.
         -6    1    1    2    0  502  0.20902015483E+03 -0.10846743133E+03 -0.16426456779E+03  0.33469606663E+03  0.17200000000E+03 0.  1.
</event>
<event>
 4    1  0.1253776E+000  0.2373104E+03  0.7818608E-02  0.1121598E+00
         21   -1    0    0  501  502  0.00000000000E+00  0.00000000000E+00  0.56905470092E+03  0.56905470092E+03  0.00000000000E+00 0. -1.
         21   -1    0    0  502  503 -0.00000000000E+00 -0.00000000000E+00 -0.11135063016E+03  0.11135063016E+03  0.00000000000E+00 0.  1.
          6    1    1    2  501    0  0.63808019302E+02  0.15053485323E+03  0.34231639247E+03  0.41652937222E+03  0.17200000000E+03 0. -1.
         -6    1    1    2    0  503 -0.63808019302E+02 -0.15053485323E+03  0.11538767829E+03  0.26387595886E+03  0.17200000000E+03 0. -1.
</event>
<event>
 4    1  0.1253776E+000  0.1787598E+03  0.7818608E-02  0.1169009E+00
         21   -1    0    0  501  502  0.00000000000E+00  0.00000000000E+00  0.16924437834E+03  0.16924437834E+03  0.00000000000E+00 0. -1.
         21   -1    0    0  502  503 -0.00000000000E+00 -0.00000000000E+00 -0.20772017864E+03  0.20772017864E+03  0.00000000000E+00 0. -1.
          6    1    1    2  501    0 -0.33665780845E+01  0.48576963574E+02  0.37631330869E+02  0.18267778272E+03  0.17200000000E+03 0. -1.
         -6    1    1    2    0  503  0.33665780845E+01 -0.48576963574E+02 -0.76107131163E+02  0.19428677426E+03  0.17200000000E+03 0. -1.
</event>
<event>
 4    1  0.1253776E+000  0.2587008E+03  0.7818608E-02  0.1107926E+00
         21   -1    0    0  501  502  0.00000000000E+00  0.00000000000E+00  0.76376036114E+03  0.76376036114E+03  0.00000000000E+00 0. -1.
         21   -1    0    0  502  503 -0.00000000000E+00 -0.00000000000E+00 -0.14148910976E+03  0.14148910976E+03  0.00000000000E+00 0.  1.
          6    1    1    2  501    0  0.18049035974E+03 -0.69031251013E+02  0.59040169352E+03  0.64459308349E+03  0.17200000000E+03 0. -1.
         -6    1    1    2    0  503 -0.18049035974E+03  0.69031251013E+02  0.31869557855E+02  0.26065638740E+03  0.17200000000E+03 0. -1.
</event>
<event>
 4    1  0.1253776E+000  0.1999576E+03  0.7818608E-02  0.1149775E+00
         21   -1    0    0  503  502  0.00000000000E+00  0.00000000000E+00  0.15657215384E+04  0.15657215384E+04  0.00000000000E+00 0.  1.
         21   -1    0    0  501  503 -0.00000000000E+00 -0.00000000000E+00 -0.33956086419E+02  0.33956086419E+02  0.00000000000E+00 0.  1.
          6    1    1    2  501    0 -0.10161535671E+03  0.85642043694E+01  0.36760190177E+03  0.41846646760E+03  0.17200000000E+03 0.  1.
         -6    1    1    2    0  502  0.10161535671E+03 -0.85642043694E+01  0.11641635502E+04  0.11812111572E+04  0.17200000000E+03 0.  1.
</event>
<event>
 4    1  0.1253776E+000  0.1978228E+03  0.7818608E-02  0.1151589E+00
         21   -1    0    0  503  502  0.00000000000E+00  0.00000000000E+00  0.83286024131E+03  0.83286024131E+03  0.00000000000E+00 0.  1.
         21   -1    0    0  501  503 -0.00000000000E+00 -0.00000000000E+00 -0.17953194413E+03  0.17953194413E+03  0.00000000000E+00 0.  1.
          6    1    1    2  501    0 -0.94653113914E+02  0.24303608725E+02 -0.10827546813E+03  0.22551597364E+03  0.17200000000E+03 0.  1.
         -6    1    1    2    0  502  0.94653113914E+02 -0.24303608725E+02  0.76160376530E+03  0.78687621180E+03  0.17200000000E+03 0.  1.
</event>
<event>
 4    1  0.1253776E+000  0.2066754E+03  0.7818608E-02  0.1144226E+00
         21   -1    0    0  501  502  0.00000000000E+00  0.00000000000E+00  0.19568981572E+03  0.19568981572E+03  0.00000000000E+00 0.  1.
         21   -1    0    0  502  503 -0.00000000000E+00 -0.00000000000E+00 -0.22053616581E+03  0.22053616581E+03  0.00000000000E+00 0.  1.
          6    1    1    2  501    0 -0.11264586577E+03  0.21014614906E+02  0.86376205242E+01  0.20685577972E+03  0.17200000000E+03 0.  1.
         -6    1    1    2    0  503  0.11264586577E+03 -0.21014614906E+02 -0.33483970617E+02  0.20937020180E+03  0.17200000000E+03 0.  1.
</event>
<event>
 4    1  0.1253776E+000  0.2008710E+03  0.7818608E-02  0.1149006E+00
         21   -1    0    0  501  502  0.00000000000E+00  0.00000000000E+00  0.43220167527E+03  0.43220167527E+03  0.00000000000E+00 0. -1.
         21   -1    0    0  502  503 -0.00000000000E+00 -0.00000000000E+00 -0.93407571343E+02  0.93407571343E+02  0.00000000000E+00 0. -1.
          6    1    1    2  501    0 -0.77172172689E+02  0.69351491818E+02  0.17549495044E+03  0.26673517069E+03  0.17200000000E+03 0. -1.
         -6    1    1    2    0  503  0.77172172689E+02 -0.69351491818E+02  0.16329915349E+03  0.25887407592E+03  0.17200000000E+03 0. -1.
</event>
<event>
 4    1  0.1253776E+000  0.1877292E+03  0.7818608E-02  0.1160525E+00
         21   -1    0    0  503  502  0.00000000000E+00  0.00000000000E+00  0.20635396382E+03  0.20635396382E+03  0.00000000000E+00 0.  1.
         21   -1    0    0  501  503 -0.00000000000E+00 -0.00000000000E+00 -0.17291436033E+03  0.17291436033E+03  0.00000000000E+00 0. -1.
          6    1    1    2  501    0  0.48217071387E+02  0.57735441407E+02 -0.43215435363E+01  0.18777897355E+03  0.17200000000E+03 0.  1.
         -6    1    1    2    0  502 -0.48217071387E+02 -0.57735441407E+02  0.37761147025E+02  0.19148935060E+03  0.17200000000E+03 0. -1.
</event>
<event>
 4    1  0.1253776E+000  0.2183551E+03  0.7818608E-02  0.1135115E+00
         21   -1    0    0  501  502  0.00000000000E+00  0.00000000000E+00  0.15982560241E+04  0.15982560241E+04  0.00000000000E+00 0.  1.
         21   -1    0    0  502  503 -0.00000000000E+00 -0.00000000000E+00 -0.47278404782E+02  0.47278404782E+02  0.00000000000E+00 0. -1.
          6    1    1    2  501    0  0.10657931441E+03  0.82071956346E+02  0.12752933947E+04  0.12938516912E+04  0.17200000000E+03 0.  1.
         -6    1    1    2    0  503 -0.10657931441E+03 -0.82071956346E+02  0.27568422465E+03  0.35168273770E+03  0.17200000000E+03 0. -1.
</event>
<event>
 4    1  0.1253776E+000  0.1830240E+03  0.7818608E-02  0.1164908E+00
         21   -1    0    0  503  502  0.00000000000E+00  0.00000000000E+00  0.23397237678E+03  0.23397237678E+03  0.00000000000E+00 0. -1.
         21   -1    0    0  501  503 -0.00000000000E+00 -0.00000000000E+00 -0.59605546980E+03  0.59605546980E+03  0.00000000000E+00 0.  1.
          6    1    1    2  501    0 -0.45343312654E+02  0.43101645829E+02 -0.54279579419E+03  0.57282199859E+03  0.17200000000E+03 0.  1.
         -6    1    1    2    0  502  0.45343312654E+02 -0.43101645829E+02  0.18071270117E+03  0.25720584799E+03  0.17200000000E+03 0. -1.
</event>
<event>
 4    1  0.1253776E+000  0.2140756E+03  0.7818608E-02  0.1138379E+00
         21   -1    0    0  503  502  0.00000000000E+00  0.00000000000E+00  0.44642433019E+02  0.44642433019E+02  0.00000000000E+00 0.  1.
         21   -1    0    0  501  503 -0.00000000000E+00 -0.00000000000E+00 -0.13168663819E+04  0.13168663819E+04  0.00000000000E+00 0. -1.
          6    1    1    2  501    0 -0.68824330776E+02 -0.10727330502E+03 -0.95573959742E+03  0.97942152751E+03  0.17200000000E+03 0.  1.
         -6    1    1    2    0  502  0.68824330776E+02  0.10727330502E+03 -0.31648435143E+03  0.38208728738E+03  0.17200000000E+03 0.  1.
</event>
<event>
 4    1  0.1253776E+000  0.2545800E+03  0.7818608E-02  0.1110444E+00
         21   -1    0    0  503  502  0.00000000000E+00  0.00000000000E+00  0.24607513980E+03  0.24607513980E+03  0.00000000000E+00 0.  1.
         21   -1    0    0  501  503 -0.00000000000E+00 -0.00000000000E+00 -0.26733467026E+03  0.26733467026E+03  0.00000000000E+00 0. -1.
          6    1    1    2  501    0  0.17731956338E+03 -0.61520286523E+02 -0.41856598898E+02  0.25799796139E+03  0.17200000000E+03 0.  1.
         -6    1    1    2    0  502 -0.17731956338E+03  0.61520286523E+02  0.20597068443E+02  0.25541184867E+03  0.17200000000E+03 0. -1.
</event>
<event>
 4    1  0.1253776E+000  0.1919992E+03  0.7818608E-02  0.1156670E+00
         21   -1    0    0  503  502  0.00000000000E+00  0.00000000000E+00  0.37504849086E+02  0.37504849086E+02  0.00000000000E+00 0.  1.
         21   -1    0    0  501  503 -0.00000000000E+00 -0.00000000000E+00 -0.22097635939E+04  0.22097635939E+04  0.00000000000E+00 0.  1.
          6    1    1    2  501    0  0.82271402290E+02 -0.22607681648E+02 -0.19233682090E+04  0.19329275616E+04  0.17200000000E+03 0.  1.
         -6    1    1    2    0  502 -0.82271402290E+02  0.22607681648E+02 -0.24889053578E+03  0.31434088138E+03  0.17200000000E+03 0.  1.
</event>
<event>
 4    1  0.1253776E+000  0.1816403E+03  0.7818608E-02  0.1166225E+00
         21   -1    0    0  503  502  0.00000000000E+00  0.00000000000E+00  0.17147383626E+03  0.17147383626E+03  0.00000000000E+00 0. -1.
         21   -1    0    0  501  503 -0.00000000000E+00 -0.00000000000E+00 -0.24252473406E+03  0.24252473406E+03  0.00000000000E+00 0. -1.
          6    1    1    2  501    0 -0.54481981407E+02 -0.20997648630E+02 -0.12962247534E+03  0.22314832211E+03  0.17200000000E+03 0. -1.
         -6    1    1    2    0  502  0.54481981407E+02  0.20997648630E+02  0.58571577543E+02  0.19085024821E+03  0.17200000000E+03 0. -1.
</event>
<event>
 4    1  0.1253776E+000  0.1823764E+03  0.7818608E-02  0.1165523E+00
         21   -1    0    0  503  502  0.00000000000E+00  0.00000000000E+00  0.18740031873E+03  0.18740031873E+03  0.00000000000E+00 0. -1.
         21   -1    0    0  501  503 -0.00000000000E+00 -0.00000000000E+00 -0.18258048984E+03  0.18258048984E+03  0.00000000000E+00 0. -1.
          6    1    1    2  501    0 -0.29464399061E+02 -0.52999836584E+02 -0.28487828426E+02  0.18458789196E+03  0.17200000000E+03 0. -1.
         -6    1    1    2    0  502  0.29464399061E+02  0.52999836584E+02  0.33307657316E+02  0.18539291660E+03  0.17200000000E+03 0. -1.
</event>
<event>
 4    1  0.1253776E+000  0.2269057E+03  0.7818608E-02  0.1128837E+00
         21   -1    0    0  503  502  0.00000000000E+00  0.00000000000E+00  0.60930888497E+03  0.60930888497E+03  0.00000000000E+00 0. -1.
         21   -1    0    0  501  503 -0.00000000000E+00 -0.00000000000E+00 -0.64227440668E+03  0.64227440668E+03  0.00000000000E+00 0. -1.
          6    1    1    2  501    0  0.77819678589E+01 -0.14778921281E+03 -0.59965788926E+03  0.64115192786E+03  0.17200000000E+03 0. -1.
         -6    1    1    2    0  502 -0.77819678589E+01  0.14778921281E+03  0.56669236755E+03  0.61043136378E+03  0.17200000000E+03 0. -1.
</event>
<event>
 4    1  0.1253776E+000  0.1930271E+03  0.7818608E-02  0.1155759E+00
         21   -1    0    0  501  502  0.00000000000E+00  0.00000000000E+00  0.12812942179E+02  0.12812942179E+02  0.00000000000E+00 0.  1.
         21   -1    0    0  502  503 -0.00000000000E+00 -0.00000000000E+00 -0.29117597892E+04  0.29117597892E+04  0.00000000000E+00 0.  1.
          6    1    1    2  501    0 -0.82909853188E+02  0.28309113749E+02 -0.15023377508E+04  0.15146874816E+04  0.17200000000E+03 0. -1.
         -6    1    1    2    0  503  0.82909853188E+02 -0.28309113749E+02 -0.13966090963E+04  0.14098852498E+04  0.17200000000E+03 0. -1.
</event>
<event>
 4    1  0.1253776E+000  0.1976949E+03  0.7818608E-02  0.1151699E+00
         21   -1    0    0  503  502  0.00000000000E+00  0.00000000000E+00  0.85094348816E+02  0.85094348816E+02  0.00000000000E+00 0. -1.
         21   -1    0    0  501  503 -0.00000000000E+00 -0.00000000000E+00 -0.45954679405E+03  0.45954679405E+03  0.00000000000E+00 0. -1.
          6    1    1    2  501    0 -0.96804840784E+02 -0.11317714977E+02 -0.19362155759E+03  0.27671750114E+03  0.17200000000E+03 0.  1.
         -6    1    1    2    0  502  0.96804840784E+02  0.11317714977E+02 -0.18083088764E+03  0.26792364173E+03  0.17200000000E+03 0.  1.
</event>
<event>
 4    1  0.1253776E+000  0.1788992E+03  0.7818608E-02  0.1168873E+00
         21   -1    0    0  503  502  0.00000000000E+00  0.00000000000E+00  0.84541056770E+02  0.84541056770E+02  0.00000000000E+00 0. -1.
         21   -1    0    0  501  503 -0.00000000000E+00 -0.00000000000E+00 -0.41943503571E+03  0.41943503571E+03  0.00000000000E+00 0. -1.
          6    1    1    2  501    0 -0.47845238553E+02  0.11477783323E+02 -0.24609922143E+03  0.30425274551E+03  0.17200000000E+03 0.  1.
         -6    1    1    2    0  502  0.47845238553E+02 -0.11477783323E+02 -0.88794757503E+02  0.19972334696E+03  0.17200000000E+03 0.  1.
</event>
<event>
 4    1  0.1253776E+000  0.2228097E+03  0.7818608E-02  0.1131805E+00
         21   -1    0    0  503  502  0.00000000000E+00  0.00000000000E+00  0.31969904014E+03  0.31969904014E+03  0.00000000000E+00 0.  1.
         21   -1    0    0  501  503 -0.00000000000E+00 -0.00000000000E+00 -0.20438606770E+03  0.20438606770E+03  0.00000000000E+00 0. -1.
          6    1    1    2  501    0  0.14162293338E+03  0.17688346101E+01 -0.70782107035E+02  0.23378257144E+03  0.17200000000E+03 0.  1.
         -6    1    1    2    0  502 -0.14162293338E+03 -0.17688346101E+01  0.18609507947E+03  0.29030253639E+03  0.17200000000E+03 0.  1.
</event>
<event>
 4    1  0.1253776E+000  0.1844703E+03  0.7818608E-02  0.1163546E+00
         21   -1    0    0  503  502  0.00000000000E+00  0.00000000000E+00  0.24670550914E+03  0.24670550914E+03  0.00000000000E+00 0. -1.
         21   -1    0    0  501  503 -0.00000000000E+00 -0.00000000000E+00 -0.30920950616E+03  0.30920950616E+03  0.00000000000E+00 0. -1.
          6    1    1    2  501    0 -0.21603112208E+02 -0.63075988446E+02  0.17561852206E+03  0.25469813518E+03  0.17200000000E+03 0. -1.
         -6    1    1    2    0  502  0.21603112208E+02  0.63075988446E+02 -0.23812251908E+03  0.30121688012E+03  0.17200000000E+03 0. -1.
</event>
<event>
 4    1  0.1253776E+000  0.1823456E+03  0.7818608E-02  0.1165552E+00
         21   -1    0    0  501  502  0.00000000000E+00  0.00000000000E+00  0.54876492141E+03  0.54876492141E+03  0.00000000000E+00 0.  1.
         21   -1    0    0  502  503 -0.00000000000E+00 -0.00000000000E+00 -0.60904718399E+02  0.60904718399E+02  0.00000000000E+00 0.  1.
          6    1    1    2  501    0 -0.37509591562E+02  0.47528429334E+02  0.22203333490E+03  0.28731293542E+03  0.17200000000E+03 0.  1.
         -6    1    1    2    0  503  0.37509591562E+02 -0.47528429334E+02  0.26582686811E+03  0.32235670439E+03  0.17200000000E+03 0.  1.
</event>
<event>
 4    1  0.1253776E+000  0.1827289E+03  0.7818608E-02  0.1165188E+00
         21   -1    0    0  503  502  0.00000000000E+00  0.00000000000E+00  0.23442184311E+02  0.23442184311E+02  0.00000000000E+00 0. -1.
         21   -1    0    0  501  503 -0.00000000000E+00 -0.00000000000E+00 -0.14455586911E+04  0.14455586911E+04  0.00000000000E+00 0. -1.
          6    1    1    2  501    0 -0.56370732617E+02 -0.25063395144E+02 -0.80002945373E+03  0.82063204916E+03  0.17200000000E+03 0. -1.
         -6    1    1    2    0  502  0.56370732617E+02  0.25063395144E+02 -0.62208705305E+03  0.64836882624E+03  0.17200000000E+03 0. -1.
</event>
<event>
 4    1  0.1253776E+000  0.1748890E+03  0.7818608E-02  0.1172843E+00
         21   -1    0    0  501  502  0.00000000000E+00  0.00000000000E+00  0.45072866430E+02  0.45072866430E+02  0.00000000000E+00 0. -1.
         21   -1    0    0  502  503 -0.00000000000E+00 -0.00000000000E+00 -0.68123672156E+03  0.68123672156E+03  0.00000000000E+00 0. -1.
          6    1    1    2  501    0 -0.29787375268E+02 -0.10718525579E+02 -0.29546297536E+03  0.34334318738E+03  0.17200000000E+03 0.  1.
         -6    1    1    2    0  503  0.29787375268E+02  0.10718525579E+02 -0.34070087977E+03  0.38296640061E+03  0.17200000000E+03 0.  1.
</event>
<event>
 4    1  0.1253776E+000  0.1745060E+03  0.7818608E-02  0.1173229E+00
         21   -1    0    0  501  502  0.00000000000E+00  0.00000000000E+00  0.57563857477E+03  0.57563857477E+03  0.00000000000E+00 0. -1.
         21   -1    0    0  502  503 -0.00000000000E+00 -0.00000000000E+00 -0.14391931969E+03  0.14391931969E+03  0.00000000000E+00 0. -1.
          6    1    1    2  501    0 -0.74466901599E-01  0.29467428730E+02  0.50197330598E+03  0.53144099844E+03  0.17200000000E+03 0. -1.
         -6    1    1    2    0  503  0.74466901599E-01 -0.29467428730E+02 -0.70254050903E+02  0.18811689602E+03  0.17200000000E+03 0. -1.
</event>
<event>
 4    1  0.1253776E+000  0.2943162E+03  0.7818608E-02  0.1088117E+00
         21   -1    0    0  501  502  0.00000000000E+00  0.00000000000E+00  0.36863539749E+03  0.36863539749E+03  0.00000000000E+00 0.  1.
         21   -1    0    0  502  503 -0.00000000000E+00 -0.00000000000E+00 -0.24578478058E+03  0.24578478058E+03  0.00000000000E+00 0.  1.
          6    1    1    2  501    0 -0.22877000396E+03 -0.68573490152E+02  0.12583643723E+03  0.32008881143E+03  0.17200000000E+03 0.  1.
         -6    1    1    2    0  503  0.22877000396E+03  0.68573490152E+02 -0.29858203234E+01  0.29433136664E+03  0.17200000000E+03 0.  1.
</event>
<event>
 4    1  0.1253776E+000  0.2106914E+03  0.7818608E-02  0.1141020E+00
         21   -1    0    0  501  502  0.00000000000E+00  0.00000000000E+00  0.15721528884E+03  0.15721528884E+03  0.00000000000E+00 0.  1.
         21   -1    0    0  502  503 -0.00000000000E+00 -0.00000000000E+00 -0.53835670967E+03  0.53835670967E+03  0.00000000000E+00 0. -1.
          6    1    1    2  501    0  0.52639742968E+02  0.10970840441E+03 -0.43039687077E+03  0.47919969001E+03  0.17200000000E+03 0. -1.
         -6    1    1    2    0  503 -0.52639742968E+02 -0.10970840441E+03  0.49255449946E+02  0.21637230850E+03  0.17200000000E+03 0.  1.
</event>
<event>
 4    1  0.1253776E+000  0.3002460E+03  0.7818608E-02  0.1085118E+00
         21   -1    0    0  503  502  0.00000000000E+00  0.00000000000E+00  0.64955186088E+03  0.64955186088E+03  0.00000000000E+00 0.  1.
         21   -1    0    0  501  503 -0.00000000000E+00 -0.00000000000E+00 -0.18982750667E+03  0.18982750667E+03  0.00000000000E+00 0. -1.
          6    1    1    2  501    0  0.55722586753E+02  0.23970538979E+03  0.12232973943E+02  0.30049513510E+03  0.17200000000E+03 0.  1.
         -6    1    1    2    0  502 -0.55722586753E+02 -0.23970538979E+03  0.44749138027E+03  0.53888423245E+03  0.17200000000E+03 0.  1.
</event>
<event>
 4    1  0.1253776E+000  0.1736108E+03  0.7818608E-02  0.1174134E+00
         21   -1    0    0  501  502  0.00000000000E+00  0.00000000000E+00  0.16435606182E+04  0.16435606182E+04  0.00000000000E+00 0. -1.
         21   -1    0    0  502  503 -0.00000000000E+00 -0.00000000000E+00 -0.19263324025E+02  0.19263324025E+02  0.00000000000E+00 0. -1.
          6    1    1    2  501    0 -0.20511259662E+02 -0.11662017257E+02  0.99430339186E+03  0.10093462981E+04  0.17200000000E+03 0.  1.
         -6    1    1    2    0  503  0.20511259662E+02  0.11662017257E+02  0.62999390232E+03  0.65347764413E+03  0.17200000000E+03 0.  1.
</event>
<event>
 4    1  0.1253776E+000  0.1792697E+03  0.7818608E-02  0.1168512E+00
         21   -1    0    0  501  502  0.00000000000E+00  0.00000000000E+00  0.12982528065E+03  0.12982528065E+03  0.00000000000E+00 0. -1.
         21   -1    0    0  502  503 -0.00000000000E+00 -0.00000000000E+00 -0.26887091279E+03  0.26887091279E+03  0.00000000000E+00 0. -1.
          6    1    1    2  501    0  0.33319859716E+02 -0.37992157230E+02 -0.13380207388E+02  0.17976831482E+03  0.17200000000E+03 0. -1.
         -6    1    1    2    0  503 -0.33319859716E+02  0.37992157230E+02 -0.12566542475E+03  0.21892787863E+03  0.17200000000E+03 0. -1.
</event>
<event>
 4    1  0.1253776E+000  0.1792078E+03  0.7818608E-02  0.1168572E+00
         21   -1    0    0  501  502  0.00000000000E+00  0.00000000000E+00  0.15420209617E+04  0.15420209617E+04  0.00000000000E+00 0.  1.
         21   -1    0    0  502  503 -0.00000000000E+00 -0.00000000000E+00 -0.25296847855E+02  0.25296847855E+02  0.00000000000E+00 0.  1.
          6    1    1    2  501    0  0.49439763291E+02  0.93354005087E+01  0.10877801933E+04  0.11024432815E+04  0.17200000000E+03 0.  1.
         -6    1    1    2    0  503 -0.49439763291E+02 -0.93354005087E+01  0.42894392050E+03  0.46487452805E+03  0.17200000000E+03 0.  1.
</event>
<event>
 4    1  0.1253776E+000  0.1798848E+03  0.7818608E-02  0.1167915E+00
         21   -1    0    0  501  502  0.00000000000E+00  0.00000000000E+00  0.60016819698E+03  0.60016819698E+03  0.00000000000E+00 0. -1.
         21   -1    0    0  502  503 -0.00000000000E+00 -0.00000000000E+00 -0.74345945511E+02  0.74345945511E+02  0.00000000000E+00 0. -1.
          6    1    1    2  501    0 -0.18346185013E+02 -0.49375774543E+02  0.43970537304E+03  0.47507827218E+03  0.17200000000E+03 0. -1.
         -6    1    1    2    0  503  0.18346185013E+02  0.49375774543E+02  0.86116878428E+02  0.19943587031E+03  0.17200000000E+03 0. -1.
</event>
<event>
 4    1  0.1253776E+000  0.2066660E+03  0.7818608E-02  0.1144234E+00
         21   -1    0    0  503  502  0.00000000000E+00  0.00000000000E+00  0.38175967246E+03  0.38175967246E+03  0.00000000000E+00 0. -1.
         21   -1    0    0  501  503 -0.00000000000E+00 -0.00000000000E+00 -0.11415372274E+03  0.11415372274E+03  0.00000000000E+00 0. -1.
          6    1    1    2  501    0 -0.90684260567E+02 -0.70022989302E+02  0.98800068740E+02  0.22906834729E+03  0.17200000000E+03 0. -1.
         -6    1    1    2    0  502  0.90684260567E+02  0.70022989302E+02  0.16880588098E+03  0.26684504792E+03  0.17200000000E+03 0. -1.
</event>
<event>
 4    1  0.1253776E+000  0.1928986E+03  0.7818608E-02  0.1155873E+00
         21   -1    0    0  501  502  0.00000000000E+00  0.00000000000E+00  0.43111167975E+03  0.43111167975E+03  0.00000000000E+00 0.  1.
         21   -1    0    0  502  503 -0.00000000000E+00 -0.00000000000E+00 -0.95989548695E+02  0.95989548695E+02  0.00000000000E+00 0. -1.
          6    1    1    2  501    0 -0.80951307505E+02  0.32753063901E+02  0.25124592961E+03  0.31675604892E+03  0.17200000000E+03 0.  1.
         -6    1    1    2    0  503  0.80951307505E+02 -0.32753063901E+02  0.83876201451E+02  0.21034517953E+03  0.17200000000E+03 0. -1.
</event>
<event>
 4    1  0.1253776E+000  0.2068057E+03  0.7818608E-02  0.1144121E+00
         21   -1    0    0  503  502  0.00000000000E+00  0.00000000000E+00  0.74994778280E+03  0.74994778280E+03  0.00000000000E+00 0.  1.
         21   -1    0    0  501  503 -0.00000000000E+00 -0.00000000000E+00 -0.59264181873E+02  0.59264181873E+02  0.00000000000E+00 0. -1.
          6    1    1    2  501    0 -0.47069808554E+02  0.10473323777E+03  0.26676170496E+03  0.33753581322E+03  0.17200000000E+03 0.  1.
         -6    1    1    2    0  502  0.47069808554E+02 -0.10473323777E+03  0.42392189597E+03  0.47167615145E+03  0.17200000000E+03 0.  1.
</event>
<event>
 4    1  0.1253776E+000  0.1838560E+03  0.7818608E-02  0.1164123E+00
         21   -1    0    0  503  502  0.00000000000E+00  0.00000000000E+00  0.10969257321E+03  0.10969257321E+03  0.00000000000E+00 0.  1.
         21   -1    0    0  501  503 -0.00000000000E+00 -0.00000000000E+00 -0.61005597549E+03  0.61005597549E+03  0.00000000000E+00 0.  1.
          6    1    1    2  501    0  0.90969349749E+01 -0.64313746639E+02 -0.50334086061E+03  0.53586848591E+03  0.17200000000E+03 0.  1.
         -6    1    1    2    0  502 -0.90969349749E+01  0.64313746639E+02  0.29774583284E+01  0.18388006279E+03  0.17200000000E+03 0.  1.
</event>
<event>
 4    1  0.1253776E+000  0.1951740E+03  0.7818608E-02  0.1153876E+00
         21   -1    0    0  501  502  0.00000000000E+00  0.00000000000E+00  0.96915143427E+02  0.96915143427E+02  0.00000000000E+00 0. -1.
         21   -1    0    0  502  503 -0.00000000000E+00 -0.00000000000E+00 -0.39644960240E+03  0.39644960240E+03  0.00000000000E+00 0. -1.
          6    1    1    2  501    0  0.46401934641E+02 -0.79723051708E+02 -0.17259636798E+03  0.26054253156E+03  0.17200000000E+03 0.  1.
         -6    1    1    2    0  503 -0.46401934641E+02  0.79723051708E+02 -0.12693809100E+03  0.23282221427E+03  0.17200000000E+03 0.  1.
</event>
<event>
 4    1  0.1253776E+000  0.2301839E+03  0.7818608E-02  0.1126510E+00
         21   -1    0    0  501  502  0.00000000000E+00  0.00000000000E+00  0.53603165730E+02  0.53603165730E+02  0.00000000000E+00 0. -1.
         21   -1    0    0  502  503 -0.00000000000E+00 -0.00000000000E+00 -0.10137717915E+04  0.10137717915E+04  0.00000000000E+00 0.  1.
          6    1    1    2  501    0 -0.41686841244E+02 -0.14718301717E+03 -0.56441209138E+03  0.60954543897E+03  0.17200000000E+03 0. -1.
         -6    1    1    2    0  503  0.41686841244E+02  0.14718301717E+03 -0.39575653438E+03  0.45782951825E+03  0.17200000000E+03 0.  1.
</event>
<event>
 4    1  0.1253776E+000  0.2024009E+03  0.7818608E-02  0.1147729E+00
         21   -1    0    0  503  502  0.00000000000E+00  0.00000000000E+00  0.69743632367E+03  0.69743632367E+03  0.00000000000E+00 0.  1.
         21   -1    0    0  501  503 -0.00000000000E+00 -0.00000000000E+00 -0.64941534178E+02  0.64941534178E+02  0.00000000000E+00 0.  1.
          6    1    1    2  501    0  0.67943255200E+02 -0.82254744647E+02  0.19843448934E+03  0.28344730640E+03  0.17200000000E+03 0.  1.
         -6    1    1    2    0  502 -0.67943255200E+02  0.82254744647E+02  0.43406030015E+03  0.47893055145E+03  0.17200000000E+03 0.  1.
</event>
<event>
 4    1  0.1253776E+000  0.1917536E+03  0.7818608E-02  0.1156889E+00
         21   -1    0    0  503  502  0.00000000000E+00  0.00000000000E+00  0.46115662201E+03  0.46115662201E+03  0.00000000000E+00 0. -1.
         21   -1    0    0  501  503 -0.00000000000E+00 -0.00000000000E+00 -0.94893459727E+02  0.94893459727E+02  0.00000000000E+00 0. -1.
          6    1    1    2  501    0  0.22882195509E+02  0.81620218102E+02  0.72004403812E+02  0.20482697343E+03  0.17200000000E+03 0. -1.
         -6    1    1    2    0  502 -0.22882195509E+02 -0.81620218102E+02  0.29425875847E+03  0.35122310831E+03  0.17200000000E+03 0. -1.
</event>
<event>
 4    1  0.1253776E+000  0.1857532E+03  0.7818608E-02  0.1162348E+00
         21   -1    0    0  503  502  0.00000000000E+00  0.00000000000E+00  0.79033963293E+02  0.79033963293E+02  0.00000000000E+00 0.  1.
         21   -1    0    0  501  503 -0.00000000000E+00 -0.00000000000E+00 -0.52550454245E+03  0.52550454245E+03  0.00000000000E+00 0. -1.
          6    1    1    2  501    0 -0.19572033211E+02 -0.67358538400E+02 -0.34758055062E+03  0.39410211411E+03  0.17200000000E+03 0. -1.
         -6    1    1    2    0  502  0.19572033211E+02  0.67358538400E+02 -0.98890028543E+02  0.21043639164E+03  0.17200000000E+03 0.  1.
</event>
<event>
 4    1  0.1253776E+000  0.2488020E+03  0.7818608E-02  0.1114064E+00
         21   -1    0    0  503  502  0.00000000000E+00  0.00000000000E+00  0.22228244833E+02  0.22228244833E+02  0.00000000000E+00 0.  1.
         21   -1    0    0  501  503 -0.00000000000E+00 -0.00000000000E+00 -0.28047961038E+04  0.28047961038E+04  0.00000000000E+00 0.  1.
          6    1    1    2  501    0 -0.92267834659E+02 -0.15428890479E+03 -0.15104720474E+04  0.15308259945E+04  0.17200000000E+03 0. -1.
         -6    1    1    2    0  502  0.92267834659E+02  0.15428890479E+03 -0.12720958115E+04  0.12961983541E+04  0.17200000000E+03 0. -1.
</event>
<event>
 4    1  0.1253776E+000  0.1850724E+03  0.7818608E-02  0.1162982E+00
         21   -1    0    0  501  502  0.00000000000E+00  0.00000000000E+00  0.22764110110E+03  0.22764110110E+03  0.00000000000E+00 0.  1.
         21   -1    0    0  502  503 -0.00000000000E+00 -0.00000000000E+00 -0.18186441315E+03  0.18186441315E+03  0.00000000000E+00 0.  1.
          6    1    1    2  501    0 -0.68197885876E+02 -0.41040150992E+01  0.10796755564E+03  0.21426336049E+03  0.17200000000E+03 0. -1.
         -6    1    1    2    0  503  0.68197885876E+02  0.41040150992E+01 -0.62190867699E+02  0.19524215376E+03  0.17200000000E+03 0. -1.
</event>
<event>
 4    1  0.1253776E+000  0.2124803E+03  0.7818608E-02  0.1139617E+00
         21   -1    0    0  501  502  0.00000000000E+00  0.00000000000E+00  0.45423053063E+03  0.45423053063E+03  0.00000000000E+00 0. -1.
         21   -1    0    0  502  503 -0.00000000000E+00 -0.00000000000E+00 -0.11625408036E+03  0.11625408036E+03  0.00000000000E+00 0. -1.
          6    1    1    2  501    0 -0.43136339187E+02 -0.11706043719E+03  0.27761498119E+03  0.34959686425E+03  0.17200000000E+03 0. -1.
         -6    1    1    2    0  503  0.43136339187E+02  0.11706043719E+03  0.60361469077E+02  0.22088774675E+03  0.17200000000E+03 0. -1.
</event>
<event>
 4    1  0.1253776E+000  0.1798060E+03  0.7818608E-02  0.1167991E+00
         21   -1    0    0  503  502  0.00000000000E+00  0.00000000000E+00  0.20572046284E+04  0.20572046284E+04  0.00000000000E+00 0. -1.
         21   -1    0    0  501  503 -0.00000000000E+00 -0.00000000000E+00 -0.16784177261E+02  0.16784177261E+02  0.00000000000E+00 0. -1.
          6    1    1    2  501    0 -0.50036170283E+02 -0.15574722050E+02  0.75855416096E+03  0.77957334832E+03  0.17200000000E+03 0. -1.
         -6    1    1    2    0  502  0.50036170283E+02  0.15574722050E+02  0.12818662902E+04  0.12944154574E+04  0.17200000000E+03 0. -1.
</event>
<event>
 4    1  0.1253776E+000  0.2024111E+03  0.7818608E-02  0.1147721E+00
         21   -1    0    0  503  502  0.00000000000E+00  0.00000000000E+00  0.16912197694E+02  0.16912197694E+02  0.00000000000E+00 0.  1.
         21   -1    0    0  501  503 -0.00000000000E+00 -0.00000000000E+00 -0.28101804151E+04  0.28101804151E+04  0.00000000000E+00 0. -1.
          6    1    1    2  501    0  0.10496254171E+03  0.19212007749E+02 -0.19216414543E+04  0.19322722674E+04  0.17200000000E+03 0. -1.
         -6    1    1    2    0  502 -0.10496254171E+03 -0.19212007749E+02 -0.87162676311E+03  0.89482034542E+03  0.17200000000E+03 0.  1.
</event>
<event>
 4    1  0.1253776E+000  0.1736799E+03  0.7818608E-02  0.1174064E+00
         21   -1    0    0  503  502  0.00000000000E+00  0.00000000000E+00  0.12336178499E+03  0.12336178499E+03  0.00000000000E+00 0.  1.
         21   -1    0    0  501  503 -0.00000000000E+00 -0.00000000000E+00 -0.30047920141E+03  0.30047920141E+03  0.00000000000E+00 0.  1.
          6    1    1    2  501    0  0.19130105545E+02  0.14653789093E+02 -0.18001066095E+03  0.25013702750E+03  0.17200000000E+03 0.  1.
         -6    1    1    2    0  502 -0.19130105545E+02 -0.14653789093E+02  0.28932445202E+01  0.17370395890E+03  0.17200000000E+03 0.  1.
</event>
<event>
 4    1  0.1253776E+000  0.2789550E+03  0.7818608E-02  0.1096261E+00
         21   -1    0    0  503  502  0.00000000000E+00  0.00000000000E+00  0.29787140924E+03  0.29787140924E+03  0.00000000000E+00 0.  1.
         21   -1    0    0  501  503 -0.00000000000E+00 -0.00000000000E+00 -0.29945093788E+03  0.29945093788E+03  0.00000000000E+00 0.  1.
          6    1    1    2  501    0  0.12062708179E+03 -0.18352385038E+03 -0.10747648297E+03  0.29894329046E+03  0.17200000000E+03 0.  1.
         -6    1    1    2    0  502 -0.12062708179E+03  0.18352385038E+03  0.10589695432E+03  0.29837905666E+03  0.17200000000E+03 0.  1.
</event>
<event>
 4    1  0.1253776E+000  0.1864818E+03  0.7818608E-02  0.1161673E+00
         21   -1    0    0  503  502  0.00000000000E+00  0.00000000000E+00  0.17592051538E+02  0.17592051538E+02  0.00000000000E+00 0. -1.
         21   -1    0    0  501  503 -0.00000000000E+00 -0.00000000000E+00 -0.20825788396E+04  0.20825788396E+04  0.00000000000E+00 0.  1.
          6    1    1    2  501    0  0.59344687587E+02  0.40861466162E+02 -0.79580142048E+03  0.81735876591E+03  0.17200000000E+03 0. -1.
         -6    1    1    2    0  502 -0.59344687587E+02 -0.40861466162E+02 -0.12691853676E+04  0.12828121252E+04  0.17200000000E+03 0. -1.
</event>
<event>
 4    1  0.1253776E+000  0.1835809E+03  0.7818608E-02  0.1164382E+00
         21   -1    0    0  503  502  0.00000000000E+00  0.00000000000E+00  0.35086531235E+03  0.35086531235E+03  0.00000000000E+00 0.  1.
         21   -1    0    0  501  503 -0.00000000000E+00 -0.00000000000E+00 -0.10162212427E+03  0.10162212427E+03  0.00000000000E+00 0.  1.
          6    1    1    2  501    0 -0.63668508794E+02  0.80160156711E+01  0.71661849769E+02  0.19707195699E+03  0.17200000000E+03 0.  1.
         -6    1    1    2    0  502  0.63668508794E+02 -0.80160156711E+01  0.17758133832E+03  0.25541547964E+03  0.17200000000E+03 0.  1.
</event>
<event>
 4    1  0.1253776E+000  0.1731514E+03  0.7818608E-02  0.1174601E+00
         21   -1    0    0  503  502  0.00000000000E+00  0.00000000000E+00  0.15849051543E+03  0.15849051543E+03  0.00000000000E+00 0. -1.
         21   -1    0    0  501  503 -0.00000000000E+00 -0.00000000000E+00 -0.24935857083E+03  0.24935857083E+03  0.00000000000E+00 0. -1.
          6    1    1    2  501    0 -0.88247827829E+01  0.17875406247E+02 -0.14562299833E+03  0.22624646867E+03  0.17200000000E+03 0.  1.
         -6    1    1    2    0  502  0.88247827829E+01 -0.17875406247E+02  0.54754942939E+02  0.18160261759E+03  0.17200000000E+03 0.  1.
</event>
<event>
 4    1  0.1253776E+000  0.1869268E+03  0.7818608E-02  0.1161263E+00
         21   -1    0    0  501  502  0.00000000000E+00  0.00000000000E+00  0.45393662123E+02  0.45393662123E+02  0.00000000000E+00 0.  1.
         21   -1    0    0  502  503 -0.00000000000E+00 -0.00000000000E+00 -0.77011350449E+03  0.77011350449E+03  0.00000000000E+00 0.  1.
          6    1    1    2  501    0 -0.33292704587E+02 -0.65186169803E+02 -0.37125369319E+03  0.41565724536E+03  0.17200000000E+03 0. -1.
         -6    1    1    2    0  503  0.33292704587E+02  0.65186169803E+02 -0.35346614917E+03  0.39984992125E+03  0.17200000000E+03 0. -1.
</event>
<event>
 4    1  0.1253776E+000  0.2459816E+03  0.7818608E-02  0.1115871E+00
         21   -1    0    0  503  502  0.00000000000E+00  0.00000000000E+00  0.78560456441E+03  0.78560456441E+03  0.00000000000E+00 0.  1.
         21   -1    0    0  501  503 -0.00000000000E+00 -0.00000000000E+00 -0.91497678746E+02  0.91497678746E+02  0.00000000000E+00 0. -1.
          6    1    1    2  501    0 -0.14612346684E+03  0.97830797621E+02  0.17260344214E+03  0.30049772173E+03  0.17200000000E+03 0. -1.
         -6    1    1    2    0  502  0.14612346684E+03 -0.97830797621E+02  0.52150344353E+03  0.57660452143E+03  0.17200000000E+03 0.  1.
</event>
<event>
 4    1  0.1253776E+000  0.2994996E+03  0.7818608E-02  0.1085491E+00
         21   -1    0    0  503  502  0.00000000000E+00  0.00000000000E+00  0.32759234713E+03  0.32759234713E+03  0.00000000000E+00 0. -1.
         21   -1    0    0  501  503 -0.00000000000E+00 -0.00000000000E+00 -0.27782280719E+03  0.27782280719E+03  0.00000000000E+00 0.  1.
          6    1    1    2  501    0 -0.21583374128E+03 -0.11632622766E+03  0.61238057885E+02  0.30569608249E+03  0.17200000000E+03 0. -1.
         -6    1    1    2    0  502  0.21583374128E+03  0.11632622766E+03 -0.11468517938E+02  0.29971907183E+03  0.17200000000E+03 0.  1.
</event>
<event>
 4    1  0.1253776E+000  0.1964656E+03  0.7818608E-02  0.1152756E+00
         21   -1    0    0  501  502  0.00000000000E+00  0.00000000000E+00  0.55384331472E+03  0.55384331472E+03  0.00000000000E+00 0.  1.
         21   -1    0    0  502  503 -0.00000000000E+00 -0.00000000000E+00 -0.80102558910E+02  0.80102558910E+02  0.00000000000E+00 0.  1.
          6    1    1    2  501    0 -0.79038061649E+02 -0.52609127808E+02  0.12260222847E+03  0.23158160968E+03  0.17200000000E+03 0. -1.
         -6    1    1    2    0  503  0.79038061649E+02  0.52609127808E+02  0.35113852735E+03  0.40236426395E+03  0.17200000000E+03 0. -1.
</event>
<event>
 4    1  0.1253776E+000  0.1860860E+03  0.7818608E-02  0.1162040E+00
         21   -1    0    0  503  502  0.00000000000E+00  0.00000000000E+00  0.51353731870E+03  0.51353731870E+03  0.00000000000E+00 0.  1.
         21   -1    0    0  501  503 -0.00000000000E+00 -0.00000000000E+00 -0.77649594577E+02  0.77649594577E+02  0.00000000000E+00 0.  1.
          6    1    1    2  501    0  0.19747571645E+01 -0.70993622416E+02  0.11070926898E+03  0.21652837303E+03  0.17200000000E+03 0. -1.
         -6    1    1    2    0  502 -0.19747571645E+01  0.70993622416E+02  0.32517845514E+03  0.37465854025E+03  0.17200000000E+03 0. -1.
</event>
<event>
 4    1  0.1253776E+000  0.1748768E+03  0.7818608E-02  0.1172855E+00
         21   -1    0    0  503  502  0.00000000000E+00  0.00000000000E+00  0.88948630644E+02  0.88948630644E+02  0.00000000000E+00 0. -1.
         21   -1    0    0  501  503 -0.00000000000E+00 -0.00000000000E+00 -0.42062551549E+03  0.42062551549E+03  0.00000000000E+00 0. -1.
          6    1    1    2  501    0 -0.79707202102E+01 -0.30567206148E+02 -0.27471628550E+03  0.32565460843E+03  0.17200000000E+03 0. -1.
         -6    1    1    2    0  502  0.79707202102E+01  0.30567206148E+02 -0.56960599348E+02  0.18391953771E+03  0.17200000000E+03 0. -1.
</event>
<event>
 4    1  0.1253776E+000  0.2021909E+03  0.7818608E-02  0.1147904E+00
         21   -1    0    0  503  502  0.00000000000E+00  0.00000000000E+00  0.26048778232E+03  0.26048778232E+03  0.00000000000E+00 0. -1.
         21   -1    0    0  501  503 -0.00000000000E+00 -0.00000000000E+00 -0.35681481449E+03  0.35681481449E+03  0.00000000000E+00 0. -1.
          6    1    1    2  501    0 -0.10494503542E+03 -0.16843405866E+02 -0.27917035534E+03  0.34469877877E+03  0.17200000000E+03 0. -1.
         -6    1    1    2    0  502  0.10494503542E+03  0.16843405866E+02  0.18284332318E+03  0.27260381804E+03  0.17200000000E+03 0. -1.
</event>
<event>
 4    1  0.1253776E+000  0.1953734E+03  0.7818608E-02  0.1153702E+00
         21   -1    0    0  503  502  0.00000000000E+00  0.00000000000E+00  0.13295127801E+04  0.13295127801E+04  0.00000000000E+00 0.  1.
         21   -1    0    0  501  503 -0.00000000000E+00 -0.00000000000E+00 -0.54005656360E+02  0.54005656360E+02  0.00000000000E+00 0. -1.
          6    1    1    2  501    0 -0.49448312714E+01 -0.92532848878E+02  0.16432409199E+03  0.25529039678E+03  0.17200000000E+03 0. -1.
         -6    1    1    2    0  502  0.49448312714E+01  0.92532848878E+02  0.11111830318E+04  0.11282280397E+04  0.17200000000E+03 0.  1.
</event>
<event>
 4    1  0.1253776E+000  0.2187412E+03  0.7818608E-02  0.1134825E+00
         21   -1    0    0  503  502  0.00000000000E+00  0.00000000000E+00  0.24365647643E+03  0.24365647643E+03  0.00000000000E+00 0. -1.
         21   -1    0    0  501  503 -0.00000000000E+00 -0.00000000000E+00 -0.24089731692E+03  0.24089731692E+03  0.00000000000E+00 0.  1.
          6    1    1    2  501    0  0.12214882907E+03  0.57822005118E+02 -0.10277810103E+03  0.24168379915E+03  0.17200000000E+03 0.  1.
         -6    1    1    2    0  502 -0.12214882907E+03 -0.57822005118E+02  0.10553726054E+03  0.24286999420E+03  0.17200000000E+03 0. -1.
</event>
<event>
 4    1  0.1253776E+000  0.1969955E+03  0.7818608E-02  0.1152299E+00
         21   -1    0    0  501  502  0.00000000000E+00  0.00000000000E+00  0.22132600906E+03  0.22132600906E+03  0.00000000000E+00 0.  1.
         21   -1    0    0  502  503 -0.00000000000E+00 -0.00000000000E+00 -0.17821629304E+03  0.17821629304E+03  0.00000000000E+00 0. -1.
          6    1    1    2  501    0 -0.65899943048E+02 -0.69860060327E+02  0.46935357252E+02  0.20250964985E+03  0.17200000000E+03 0. -1.
         -6    1    1    2    0  503  0.65899943048E+02  0.69860060327E+02 -0.38256412304E+01  0.19703265225E+03  0.17200000000E+03 0. -1.
</event>
<event>
 4    1  0.1253776E+000  0.1771450E+03  0.7818608E-02  0.1170595E+00
         21   -1    0    0  501  502  0.00000000000E+00  0.00000000000E+00  0.46646608509E+03  0.46646608509E+03  0.00000000000E+00 0. -1.
         21   -1    0    0  502  503 -0.00000000000E+00 -0.00000000000E+00 -0.93160092529E+02  0.93160092529E+02  0.00000000000E+00 0.  1.
          6    1    1    2  501    0  0.34539029704E+02  0.24564420139E+02  0.33415523829E+03  0.37820639681E+03  0.17200000000E+03 0. -1.
         -6    1    1    2    0  503 -0.34539029704E+02 -0.24564420139E+02  0.39150754270E+02  0.18141978081E+03  0.17200000000E+03 0.  1.
</event>
<event>
 4    1  0.1253776E+000  0.2008641E+03  0.7818608E-02  0.1149012E+00
         21   -1    0    0  503  502  0.00000000000E+00  0.00000000000E+00  0.98879228909E+02  0.98879228909E+02  0.00000000000E+00 0.  1.
         21   -1    0    0  501  503 -0.00000000000E+00 -0.00000000000E+00 -0.48605539539E+03  0.48605539539E+03  0.00000000000E+00 0. -1.
          6    1    1    2  501    0 -0.10375775859E+02  0.10322166946E+03 -0.31076264963E+03  0.37002674792E+03  0.17200000000E+03 0. -1.
         -6    1    1    2    0  502  0.10375775859E+02 -0.10322166946E+03 -0.76413516848E+02  0.21490787638E+03  0.17200000000E+03 0.  1.
</event>
<event>
 4    1  0.1253776E+000  0.3248044E+03  0.7818608E-02  0.1073459E+00
         21   -1    0    0  501  502  0.00000000000E+00  0.00000000000E+00  0.22410352730E+04  0.22410352730E+04  0.00000000000E+00 0.  1.
         21   -1    0    0  502  503 -0.00000000000E+00 -0.00000000000E+00 -0.47491680702E+02  0.47491680702E+02  0.00000000000E+00 0.  1.
          6    1    1    2  501    0 -0.19945316298E+02  0.27480185726E+03  0.12038875838E+04  0.12469335150E+04  0.17200000000E+03 0.  1.
         -6    1    1    2    0  503  0.19945316298E+02 -0.27480185726E+03  0.98965600854E+03  0.10415934387E+04  0.17200000000E+03 0.  1.
</event>
<event>
 4    1  0.1253776E+000  0.2262842E+03  0.7818608E-02  0.1129283E+00
         21   -1    0    0  503  502  0.00000000000E+00  0.00000000000E+00  0.49391324297E+03  0.49391324297E+03  0.00000000000E+00 0.  1.
         21   -1    0    0  501  503 -0.00000000000E+00 -0.00000000000E+00 -0.12525282876E+03  0.12525282876E+03  0.00000000000E+00 0.  1.
          6    1    1    2  501    0  0.14220616042E+03  0.37388915861E+02  0.55823255116E+02  0.23306814219E+03  0.17200000000E+03 0.  1.
         -6    1    1    2    0  502 -0.14220616042E+03 -0.37388915861E+02  0.31283715909E+03  0.38609792955E+03  0.17200000000E+03 0.  1.
</event>
<event>
 4    1  0.1253776E+000  0.2103682E+03  0.7818608E-02  0.1141275E+00
         21   -1    0    0  503  502  0.00000000000E+00  0.00000000000E+00  0.33129632668E+03  0.33129632668E+03  0.00000000000E+00 0.  1.
         21   -1    0    0  501  503 -0.00000000000E+00 -0.00000000000E+00 -0.24179965942E+03  0.24179965942E+03  0.00000000000E+00 0.  1.
          6    1    1    2  501    0  0.37909496675E+02  0.11503753273E+03  0.23644801691E+03  0.31648448394E+03  0.17200000000E+03 0.  1.
         -6    1    1    2    0  502 -0.37909496675E+02 -0.11503753273E+03 -0.14695134966E+03  0.25661150216E+03  0.17200000000E+03 0.  1.
</event>
<event>
 4    1  0.1253776E+000  0.2049640E+03  0.7818608E-02  0.1145617E+00
         21   -1    0    0  503  502  0.00000000000E+00  0.00000000000E+00  0.79447796333E+02  0.79447796333E+02  0.00000000000E+00 0. -1.
         21   -1    0    0  501  503 -0.00000000000E+00 -0.00000000000E+00 -0.14538470519E+04  0.14538470519E+04  0.00000000000E+00 0. -1.
          6    1    1    2  501    0  0.59657576747E+02  0.94165920723E+02 -0.12987375537E+04  0.13148115760E+04  0.17200000000E+03 0. -1.
         -6    1    1    2    0  502 -0.59657576747E+02 -0.94165920723E+02 -0.75661701828E+02  0.21848327216E+03  0.17200000000E+03 0. -1.
</event>
<event>
 4    1  0.1253776E+000  0.2067333E+03  0.7818608E-02  0.1144179E+00
         21   -1    0    0  503  502  0.00000000000E+00  0.00000000000E+00  0.20438514015E+03  0.20438514015E+03  0.00000000000E+00 0. -1.
         21   -1    0    0  501  503 -0.00000000000E+00 -0.00000000000E+00 -0.21491764360E+03  0.21491764360E+03  0.00000000000E+00 0. -1.
          6    1    1    2  501    0  0.97089640679E+02  0.61059401642E+02 -0.39734693642E+02  0.21051720769E+03  0.17200000000E+03 0. -1.
         -6    1    1    2    0  502 -0.97089640679E+02 -0.61059401642E+02  0.29202190188E+02  0.20878557605E+03  0.17200000000E+03 0. -1.
</event>
<event>
 4    1  0.1253776E+000  0.2477685E+03  0.7818608E-02  0.1114723E+00
         21   -1    0    0  501  502  0.00000000000E+00  0.00000000000E+00  0.78446112989E+02  0.78446112989E+02  0.00000000000E+00 0. -1.
         21   -1    0    0  502  503 -0.00000000000E+00 -0.00000000000E+00 -0.84389904126E+03  0.84389904126E+03  0.00000000000E+00 0.  1.
          6    1    1    2  501    0  0.59501155026E+02  0.16812156801E+03 -0.50705362311E+03  0.56435150907E+03  0.17200000000E+03 0. -1.
         -6    1    1    2    0  503 -0.59501155026E+02 -0.16812156801E+03 -0.25839930515E+03  0.35799364517E+03  0.17200000000E+03 0. -1.
</event>
<event>
 4    1  0.1253776E+000  0.1796423E+03  0.7818608E-02  0.1168150E+00
         21   -1    0    0  501  502  0.00000000000E+00  0.00000000000E+00  0.69644683481E+03  0.69644683481E+03  0.00000000000E+00 0.  1.
         21   -1    0    0  502  503 -0.00000000000E+00 -0.00000000000E+00 -0.18990961608E+03  0.18990961608E+03  0.00000000000E+00 0.  1.
          6    1    1    2  501    0 -0.48256465318E+02 -0.18938517099E+02  0.63860545044E+03  0.66339149468E+03  0.17200000000E+03 0.  1.
         -6    1    1    2    0  503  0.48256465318E+02  0.18938517099E+02 -0.13206823171E+03  0.22296495622E+03  0.17200000000E+03 0.  1.
</event>
<event>
 4    1  0.1253776E+000  0.1870977E+03  0.7818608E-02  0.1161105E+00
         21   -1    0    0  501  502  0.00000000000E+00  0.00000000000E+00  0.26829340855E+03  0.26829340855E+03  0.00000000000E+00 0. -1.
         21   -1    0    0  502  503 -0.00000000000E+00 -0.00000000000E+00 -0.14310141737E+03  0.14310141737E+03  0.00000000000E+00 0. -1.
          6    1    1    2  501    0  0.34965575650E+02  0.64799453261E+02  0.12369699774E+03  0.22429112304E+03  0.17200000000E+03 0. -1.
         -6    1    1    2    0  503 -0.34965575650E+02 -0.64799453261E+02  0.14949934376E+01  0.18710370287E+03  0.17200000000E+03 0. -1.
</event>
<event>
 4    1  0.1253776E+000  0.2166312E+03  0.7818608E-02  0.1136420E+00
         21   -1    0    0  501  502  0.00000000000E+00  0.00000000000E+00  0.29271709274E+02  0.29271709274E+02  0.00000000000E+00 0.  1.
         21   -1    0    0  502  503 -0.00000000000E+00 -0.00000000000E+00 -0.17030492955E+04  0.17030492955E+04  0.00000000000E+00 0.  1.
          6    1    1    2  501    0 -0.56419856566E+02  0.11900365553E+03 -0.10465933111E+04  0.10687781009E+04  0.17200000000E+03 0. -1.
         -6    1    1    2    0  503  0.56419856566E+02 -0.11900365553E+03 -0.62718427516E+03  0.66354290385E+03  0.17200000000E+03 0. -1.
</event>
<event>
 4    1  0.1253776E+000  0.1900151E+03  0.7818608E-02  0.1158448E+00
         21   -1    0    0  503  502  0.00000000000E+00  0.00000000000E+00  0.16886003708E+04  0.16886003708E+04  0.00000000000E+00 0.  1.
         21   -1    0    0  501  503 -0.00000000000E+00 -0.00000000000E+00 -0.22479678075E+02  0.22479678075E+02  0.00000000000E+00 0. -1.
          6    1    1    2  501    0 -0.65702182727E+02 -0.46956862570E+02  0.64401129242E+03  0.67145831481E+03  0.17200000000E+03 0. -1.
         -6    1    1    2    0  502  0.65702182727E+02  0.46956862570E+02  0.10221094003E+04  0.10396217341E+04  0.17200000000E+03 0. -1.
</event>
<event>
 4    1  0.1253776E+000  0.2885712E+03  0.7818608E-02  0.1091098E+00
         21   -1    0    0  501  502  0.00000000000E+00  0.00000000000E+00  0.10222346891E+04  0.10222346891E+04  0.00000000000E+00 0. -1.
         21   -1    0    0  502  503 -0.00000000000E+00 -0.00000000000E+00 -0.83081352810E+02  0.83081352810E+02  0.00000000000E+00 0. -1.
          6    1    1    2  501    0 -0.16562332392E+03 -0.16204397453E+03  0.54673245472E+03  0.61821494009E+03  0.17200000000E+03 0. -1.
         -6    1    1    2    0  503  0.16562332392E+03  0.16204397453E+03  0.39242088161E+03  0.48710110186E+03  0.17200000000E+03 0. -1.
</event>
<event>
 4    1  0.1253776E+000  0.1735518E+03  0.7818608E-02  0.1174194E+00
         21   -1    0    0  501  502  0.00000000000E+00  0.00000000000E+00  0.44877355586E+02  0.44877355586E+02  0.00000000000E+00 0.  1.
         21   -1    0    0  502  503 -0.00000000000E+00 -0.00000000000E+00 -0.67239548832E+03  0.67239548832E+03  0.00000000000E+00 0.  1.
          6    1    1    2  501    0 -0.10678593672E+00 -0.23156668856E+02 -0.29843550681E+03  0.34523034982E+03  0.17200000000E+03 0. -1.
         -6    1    1    2    0  503  0.10678593672E+00  0.23156668856E+02 -0.32908262592E+03  0.37204249408E+03  0.17200000000E+03 0. -1.
</event>
<event>
 4    1  0.1253776E+000  0.1738152E+03  0.7818608E-02  0.1173927E+00
         21   -1    0    0  503  502  0.00000000000E+00  0.00000000000E+00  0.66917530538E+03  0.66917530538E+03  0.00000000000E+00 0.  1.
         21   -1    0    0  501  503 -0.00000000000E+00 -0.00000000000E+00 -0.45240508275E+02  0.45240508275E+02  0.00000000000E+00 0.  1.
          6    1    1    2  501    0 -0.22787888760E+02 -0.10413411536E+02  0.29578857641E+03  0.34307813825E+03  0.17200000000E+03 0.  1.
         -6    1    1    2    0  502  0.22787888760E+02  0.10413411536E+02  0.32814622070E+03  0.37133767540E+03  0.17200000000E+03 0.  1.
</event>
<event>
 4    1  0.1253776E+000  0.2078821E+03  0.7818608E-02  0.1143254E+00
         21   -1    0    0  501  502  0.00000000000E+00  0.00000000000E+00  0.14652597518E+03  0.14652597518E+03  0.00000000000E+00 0. -1.
         21   -1    0    0  502  503 -0.00000000000E+00 -0.00000000000E+00 -0.30008859083E+03  0.30008859083E+03  0.00000000000E+00 0. -1.
          6    1    1    2  501    0 -0.11671182884E+03  0.30544645921E+01 -0.10605801111E+03  0.23337369703E+03  0.17200000000E+03 0. -1.
         -6    1    1    2    0  503  0.11671182884E+03 -0.30544645921E+01 -0.47504604544E+02  0.21324086897E+03  0.17200000000E+03 0. -1.
</event>
<event>
 4    1  0.1253776E+000  0.1801298E+03  0.7818608E-02  0.1167678E+00
         21   -1    0    0  501  502  0.00000000000E+00  0.00000000000E+00  0.75599233746E+03  0.75599233746E+03  0.00000000000E+00 0. -1.
         21   -1    0    0  502  503 -0.00000000000E+00 -0.00000000000E+00 -0.43044687430E+02  0.43044687430E+02  0.00000000000E+00 0. -1.
          6    1    1    2  501    0 -0.43555920539E+02 -0.31074350442E+02  0.33491921429E+03  0.38028622585E+03  0.17200000000E+03 0. -1.
         -6    1    1    2    0  503  0.43555920539E+02  0.31074350442E+02  0.37802843573E+03  0.41875079904E+03  0.17200000000E+03 0. -1.
</event>
<event>
 4    1  0.1253776E+000  0.1923163E+03  0.7818608E-02  0.1156389E+00
         21   -1    0    0  501  502  0.00000000000E+00  0.00000000000E+00  0.69841274446E+03  0.69841274446E+03  0.00000000000E+00 0.  1.
         21   -1    0    0  502  503 -0.00000000000E+00 -0.00000000000E+00 -0.64193486600E+02  0.64193486600E+02  0.00000000000E+00 0.  1.
          6    1    1    2  501    0  0.64076982711E+02  0.57408032188E+02  0.47664187962E+03  0.51397764862E+03  0.17200000000E+03 0.  1.
         -6    1    1    2    0  503 -0.64076982711E+02 -0.57408032188E+02  0.15757737824E+03  0.24862858244E+03  0.17200000000E+03 0.  1.
</event>
<event>
 4    1  0.1253776E+000  0.1748372E+03  0.7818608E-02  0.1172895E+00
         21   -1    0    0  501  502  0.00000000000E+00  0.00000000000E+00  0.18252602873E+03  0.18252602873E+03  0.00000000000E+00 0.  1.
         21   -1    0    0  502  503 -0.00000000000E+00 -0.00000000000E+00 -0.16748786762E+03  0.16748786762E+03  0.00000000000E+00 0.  1.
          6    1    1    2  501    0 -0.23868580738E+02  0.20355622409E+02  0.92043312124E+01  0.17507935407E+03  0.17200000000E+03 0. -1.
         -6    1    1    2    0  503  0.23868580738E+02 -0.20355622409E+02  0.58338298993E+01  0.17493454228E+03  0.17200000000E+03 0. -1.
</event>
<event>
 4    1  0.1253776E+000  0.5694412E+03  0.7818608E-02  0.9970916E-01
         21   -1    0    0  501  502  0.00000000000E+00  0.00000000000E+00  0.17564858250E+03  0.17564858250E+03  0.00000000000E+00 0. -1.
         21   -1    0    0  502  503 -0.00000000000E+00 -0.00000000000E+00 -0.19092815582E+04  0.19092815582E+04  0.00000000000E+00 0.  1.
          6    1    1    2  501    0  0.50831579988E+03  0.19051084862E+03 -0.10564658028E+04  0.12001597095E+04  0.17200000000E+03 0.  1.
         -6    1    1    2    0  503 -0.50831579988E+03 -0.19051084862E+03 -0.67716717289E+03  0.88477043118E+03  0.17200000000E+03 0.  1.
</event>
<event>
 4    1  0.1253776E+000  0.2239859E+03  0.7818608E-02  0.1130946E+00
         21   -1    0    0  503  502  0.00000000000E+00  0.00000000000E+00  0.26000179343E+03  0.26000179343E+03  0.00000000000E+00 0. -1.
         21   -1    0    0  501  503 -0.00000000000E+00 -0.00000000000E+00 -0.52471474984E+03  0.52471474984E+03  0.00000000000E+00 0.  1.
          6    1    1    2  501    0 -0.37362462766E+02 -0.13852703530E+03 -0.44433908894E+03  0.49760116469E+03  0.17200000000E+03 0.  1.
         -6    1    1    2    0  502  0.37362462766E+02  0.13852703530E+03  0.17962613253E+03  0.28711537858E+03  0.17200000000E+03 0. -1.
</event>
<event>
 4    1  0.1253776E+000  0.1998442E+03  0.7818608E-02  0.1149871E+00
         21   -1    0    0  501  502  0.00000000000E+00  0.00000000000E+00  0.95805510076E+03  0.95805510076E+03  0.00000000000E+00 0. -1.
         21   -1    0    0  502  503 -0.00000000000E+00 -0.00000000000E+00 -0.47434184741E+02  0.47434184741E+02  0.00000000000E+00 0. -1.
          6    1    1    2  501    0  0.85617486158E+02  0.54985021913E+02  0.28030227725E+03  0.34424856311E+03  0.17200000000E+03 0. -1.
         -6    1    1    2    0  503 -0.85617486158E+02 -0.54985021913E+02  0.63031863877E+03  0.66124072239E+03  0.17200000000E+03 0. -1.
</event>
<event>
 4    1  0.1253776E+000  0.3450620E+03  0.7818608E-02  0.1064660E+00
         21   -1    0    0  501  502  0.00000000000E+00  0.00000000000E+00  0.25377387897E+03  0.25377387897E+03  0.00000000000E+00 0.  1.
         21   -1    0    0  502  503 -0.00000000000E+00 -0.00000000000E+00 -0.69153528742E+03  0.69153528742E+03  0.00000000000E+00 0.  1.
          6    1    1    2  501    0  0.28783223500E+03 -0.81464073601E+02  0.49129981540E+02  0.34854202886E+03  0.17200000000E+03 0.  1.
         -6    1    1    2    0  503 -0.28783223500E+03  0.81464073601E+02 -0.48689138999E+03  0.59676713753E+03  0.17200000000E+03 0.  1.
</event>
<event>
 4    1  0.1253776E+000  0.1902180E+03  0.7818608E-02  0.1158265E+00
         21   -1    0    0  501  502  0.00000000000E+00  0.00000000000E+00  0.91054048565E+03  0.91054048565E+03  0.00000000000E+00 0. -1.
         21   -1    0    0  502  503 -0.00000000000E+00 -0.00000000000E+00 -0.68058649956E+02  0.68058649956E+02  0.00000000000E+00 0. -1.
          6    1    1    2  501    0  0.37749179590E+02 -0.71929764252E+02  0.73687665938E+03  0.76103226127E+03  0.17200000000E+03 0. -1.
         -6    1    1    2    0  503 -0.37749179590E+02  0.71929764252E+02  0.10560517631E+03  0.21756687433E+03  0.17200000000E+03 0. -1.
</event>
<event>
 4    1  0.1253776E+000  0.2205871E+03  0.7818608E-02  0.1133446E+00
         21   -1    0    0  503  502  0.00000000000E+00  0.00000000000E+00  0.81705723774E+02  0.81705723774E+02  0.00000000000E+00 0.  1.
         21   -1    0    0  501  503 -0.00000000000E+00 -0.00000000000E+00 -0.59761956676E+03  0.59761956676E+03  0.00000000000E+00 0.  1.
          6    1    1    2  501    0  0.50359728923E+02 -0.12860243891E+03 -0.27801328805E+03  0.35489446026E+03  0.17200000000E+03 0. -1.
         -6    1    1    2    0  502 -0.50359728923E+02  0.12860243891E+03 -0.23790055493E+03  0.32443083027E+03  0.17200000000E+03 0. -1.
</event>
<event>
 4    1  0.1253776E+000  0.2134320E+03  0.7818608E-02  0.1138877E+00
         21   -1    0    0  501  502  0.00000000000E+00  0.00000000000E+00  0.15955213212E+02  0.15955213212E+02  0.00000000000E+00 0. -1.
         21   -1    0    0  502  503 -0.00000000000E+00 -0.00000000000E+00 -0.30841990232E+04  0.30841990232E+04  0.00000000000E+00 0.  1.
          6    1    1    2  501    0  0.44816064276E+02 -0.11815562839E+03 -0.11116252690E+04  0.11319293135E+04  0.17200000000E+03 0.  1.
         -6    1    1    2    0  503 -0.44816064276E+02  0.11815562839E+03 -0.19566185411E+04  0.19682249230E+04  0.17200000000E+03 0.  1.
</event>
<event>
 4    1  0.1253776E+000  0.1853228E+03  0.7818608E-02  0.1162749E+00
         21   -1    0    0  501  502  0.00000000000E+00  0.00000000000E+00  0.23465743340E+02  0.23465743340E+02  0.00000000000E+00 0. -1.
         21   -1    0    0  502  503 -0.00000000000E+00 -0.00000000000E+00 -0.14696321646E+04  0.14696321646E+04  0.00000000000E+00 0.  1.
          6    1    1    2  501    0  0.25074872402E+02  0.64278955911E+02 -0.77090005671E+03  0.79286280707E+03  0.17200000000E+03 0. -1.
         -6    1    1    2    0  503 -0.25074872402E+02 -0.64278955911E+02 -0.67526636454E+03  0.70023510086E+03  0.17200000000E+03 0.  1.
</event>
<event>
 4    1  0.1253776E+000  0.1735052E+03  0.7818608E-02  0.1174241E+00
         21   -1    0    0  501  502  0.00000000000E+00  0.00000000000E+00  0.66267975442E+03  0.66267975442E+03  0.00000000000E+00 0.  1.
         21   -1    0    0  502  503 -0.00000000000E+00 -0.00000000000E+00 -0.51522864372E+02  0.51522864372E+02  0.00000000000E+00 0.  1.
          6    1    1    2  501    0 -0.72924910197E+01 -0.21606928193E+02  0.42840235938E+03  0.46220409052E+03  0.17200000000E+03 0.  1.
         -6    1    1    2    0  503  0.72924910197E+01  0.21606928193E+02  0.18275453066E+03  0.25199852827E+03  0.17200000000E+03 0.  1.
</event>
<event>
 4    1  0.1253776E+000  0.1813899E+03  0.7818608E-02  0.1166465E+00
         21   -1    0    0  501  502  0.00000000000E+00  0.00000000000E+00  0.88052568107E+02  0.88052568107E+02  0.00000000000E+00 0.  1.
         21   -1    0    0  502  503 -0.00000000000E+00 -0.00000000000E+00 -0.70567973578E+03  0.70567973578E+03  0.00000000000E+00 0.  1.
          6    1    1    2  501    0 -0.51335635218E+02 -0.26133148933E+02 -0.36594868328E+02  0.18504451709E+03  0.17200000000E+03 0.  1.
         -6    1    1    2    0  503  0.51335635218E+02  0.26133148933E+02 -0.58103229935E+03  0.60868778680E+03  0.17200000000E+03 0.  1.
</event>
<event>
 4    1  0.1253776E+000  0.1728632E+03  0.7818608E-02  0.1174894E+00
         21   -1    0    0  503  502  0.00000000000E+00  0.00000000000E+00  0.40783362548E+03  0.40783362548E+03  0.00000000000E+00 0.  1.
         21   -1    0    0  501  503 -0.00000000000E+00 -0.00000000000E+00 -0.16470153737E+03  0.16470153737E+03  0.00000000000E+00 0.  1.
          6    1    1    2  501    0  0.15055776485E+02  0.84273294670E+01 -0.91725159983E+02  0.19569159732E+03  0.17200000000E+03 0.  1.
         -6    1    1    2    0  502 -0.15055776485E+02 -0.84273294670E+01  0.33485724809E+03  0.37684356553E+03  0.17200000000E+03 0.  1.
</event>
<event>
 4    1  0.1253776E+000  0.1768623E+03  0.7818608E-02  0.1170875E+00
         21   -1    0    0  501  502  0.00000000000E+00  0.00000000000E+00  0.30960863441E+03  0.30960863441E+03  0.00000000000E+00 0.  1.
         21   -1    0    0  502  503 -0.00000000000E+00 -0.00000000000E+00 -0.21309167104E+03  0.21309167104E+03  0.00000000000E+00 0.  1.
          6    1    1    2  501    0 -0.41183416723E+02 -0.43250051235E+00  0.23778279645E+03  0.29634594506E+03  0.17200000000E+03 0.  1.
         -6    1    1    2    0  503  0.41183416723E+02  0.43250051235E+00 -0.14126583308E+03  0.22635436039E+03  0.17200000000E+03 0.  1.
</event>
<event>
 4    1  0.1253776E+000  0.1825383E+03  0.7818608E-02  0.1165369E+00
         21   -1    0    0  501  502  0.00000000000E+00  0.00000000000E+00  0.71308978199E+03  0.71308978199E+03  0.00000000000E+00 0. -1.
         21   -1    0    0  502  503 -0.00000000000E+00 -0.00000000000E+00 -0.57351632921E+02  0.57351632921E+02  0.00000000000E+00 0. -1.
          6    1    1    2  501    0 -0.60623857666E+02 -0.78093882008E+01  0.49367594155E+03  0.52634225930E+03  0.17200000000E+03 0. -1.
         -6    1    1    2    0  503  0.60623857666E+02  0.78093882008E+01  0.16206220751E+03  0.24409915560E+03  0.17200000000E+03 0. -1.
</event>
<event>
 4    1  0.1253776E+000  0.1775851E+03  0.7818608E-02  0.1170161E+00
         21   -1    0    0  501  502  0.00000000000E+00  0.00000000000E+00  0.29121688215E+03  0.29121688215E+03  0.00000000000E+00 0. -1.
         21   -1    0    0  502  503 -0.00000000000E+00 -0.00000000000E+00 -0.14180816481E+03  0.14180816481E+03  0.00000000000E+00 0. -1.
          6    1    1    2  501    0 -0.35567365814E+02  0.26219214457E+02  0.17996329598E+03  0.25283052153E+03  0.17200000000E+03 0. -1.
         -6    1    1    2    0  503  0.35567365814E+02 -0.26219214457E+02 -0.30554578641E+02  0.18019452543E+03  0.17200000000E+03 0. -1.
</event>
<event>
 4    1  0.1253776E+000  0.1808683E+03  0.7818608E-02  0.1166965E+00
         21   -1    0    0  501  502  0.00000000000E+00  0.00000000000E+00  0.63609307387E+03  0.63609307387E+03  0.00000000000E+00 0. -1.
         21   -1    0    0  502  503 -0.00000000000E+00 -0.00000000000E+00 -0.51505659206E+02  0.51505659206E+02  0.00000000000E+00 0. -1.
          6    1    1    2  501    0 -0.41146530392E+02 -0.37898778338E+02  0.27899262932E+03  0.33249096466E+03  0.17200000000E+03 0. -1.
         -6    1    1    2    0  503  0.41146530392E+02  0.37898778338E+02  0.30559478534E+03  0.35510776841E+03  0.17200000000E+03 0. -1.
</event>
<event>
 4    1  0.1253776E+000  0.2171315E+03  0.7818608E-02  0.1136040E+00
         21   -1    0    0  503  502  0.00000000000E+00  0.00000000000E+00  0.69902526918E+02  0.69902526918E+02  0.00000000000E+00 0.  1.
         21   -1    0    0  501  503 -0.00000000000E+00 -0.00000000000E+00 -0.69498165404E+03  0.69498165404E+03  0.00000000000E+00 0.  1.
          6    1    1    2  501    0 -0.57794439485E+02 -0.11925557525E+03 -0.24681298585E+03  0.32872897567E+03  0.17200000000E+03 0.  1.
         -6    1    1    2    0  502  0.57794439485E+02  0.11925557525E+03 -0.37826614127E+03  0.43615520528E+03  0.17200000000E+03 0.  1.
</event>
<event>
 4    1  0.1253776E+000  0.1811441E+03  0.7818608E-02  0.1166700E+00
         21   -1    0    0  501  502  0.00000000000E+00  0.00000000000E+00  0.46996764477E+02  0.46996764477E+02  0.00000000000E+00 0.  1.
         21   -1    0    0  502  503 -0.00000000000E+00 -0.00000000000E+00 -0.88494359933E+03  0.88494359933E+03  0.00000000000E+00 0.  1.
          6    1    1    2  501    0 -0.51430543916E+02  0.24168117503E+02 -0.20492019860E+03  0.27350591684E+03  0.17200000000E+03 0. -1.
         -6    1    1    2    0  503  0.51430543916E+02 -0.24168117503E+02 -0.63302663625E+03  0.65843444697E+03  0.17200000000E+03 0. -1.
</event>
<event>
 4    1  0.1253776E+000  0.2098741E+03  0.7818608E-02  0.1141666E+00
         21   -1    0    0  501  502  0.00000000000E+00  0.00000000000E+00  0.67615286512E+02  0.67615286512E+02  0.00000000000E+00 0.  1.
         21   -1    0    0  502  503 -0.00000000000E+00 -0.00000000000E+00 -0.11117134837E+04  0.11117134837E+04  0.00000000000E+00 0.  1.
          6    1    1    2  501    0  0.73210004865E+02 -0.95411846532E+02 -0.14263132261E+03  0.25375346197E+03  0.17200000000E+03 0.  1.
         -6    1    1    2    0  503 -0.73210004865E+02  0.95411846532E+02 -0.90146687454E+03  0.92557530821E+03  0.17200000000E+03 0.  1.
</event>
<event>
 4    1  0.1253776E+000  0.1876768E+03  0.7818608E-02  0.1160574E+00
         21   -1    0    0  503  502  0.00000000000E+00  0.00000000000E+00  0.16604325090E+03  0.16604325090E+03  0.00000000000E+00 0.  1.
         21   -1    0    0  501  503 -0.00000000000E+00 -0.00000000000E+00 -0.29174190839E+03  0.29174190839E+03  0.00000000000E+00 0.  1.
          6    1    1    2  501    0 -0.66780713242E+02  0.34335418413E+02 -0.18241984848E+03  0.26172425516E+03  0.17200000000E+03 0.  1.
         -6    1    1    2    0  502  0.66780713242E+02 -0.34335418413E+02  0.56721190991E+02  0.19606090412E+03  0.17200000000E+03 0.  1.
</event>
<event>
 4    1  0.1253776E+000  0.1889139E+03  0.7818608E-02  0.1159445E+00
         21   -1    0    0  503  502  0.00000000000E+00  0.00000000000E+00  0.39411361942E+03  0.39411361942E+03  0.00000000000E+00 0. -1.
         21   -1    0    0  501  503 -0.00000000000E+00 -0.00000000000E+00 -0.94646085532E+02  0.94646085532E+02  0.00000000000E+00 0. -1.
          6    1    1    2  501    0 -0.44856564530E+02  0.63971418581E+02  0.20054986975E+03  0.27551534264E+03  0.17200000000E+03 0.  1.
         -6    1    1    2    0  502  0.44856564530E+02 -0.63971418581E+02  0.98917664142E+02  0.21324436231E+03  0.17200000000E+03 0.  1.
</event>
<event>
 4    1  0.1253776E+000  0.2201471E+03  0.7818608E-02  0.1133773E+00
         21   -1    0    0  503  502  0.00000000000E+00  0.00000000000E+00  0.65128336260E+02  0.65128336260E+02  0.00000000000E+00 0.  1.
         21   -1    0    0  501  503 -0.00000000000E+00 -0.00000000000E+00 -0.15241717205E+04  0.15241717205E+04  0.00000000000E+00 0. -1.
          6    1    1    2  501    0  0.10326695634E+03  0.90645896000E+02 -0.12980007573E+04  0.13165373935E+04  0.17200000000E+03 0. -1.
         -6    1    1    2    0  502 -0.10326695634E+03 -0.90645896000E+02 -0.16104262694E+03  0.27276266318E+03  0.17200000000E+03 0.  1.
</event>
<event>
 4    1  0.1253776E+000  0.1825118E+03  0.7818608E-02  0.1165394E+00
         21   -1    0    0  503  502  0.00000000000E+00  0.00000000000E+00  0.77289834613E+02  0.77289834613E+02  0.00000000000E+00 0.  1.
         21   -1    0    0  501  503 -0.00000000000E+00 -0.00000000000E+00 -0.65711953091E+03  0.65711953091E+03  0.00000000000E+00 0. -1.
          6    1    1    2  501    0 -0.61026430999E+02  0.15213730344E+01 -0.50532798880E+03  0.53727731771E+03  0.17200000000E+03 0. -1.
         -6    1    1    2    0  502  0.61026430999E+02 -0.15213730344E+01 -0.74501707495E+02  0.19713204782E+03  0.17200000000E+03 0.  1.
</event>
<event>
 4    1  0.1253776E+000  0.2937765E+03  0.7818608E-02  0.1088394E+00
         21   -1    0    0  503  502  0.00000000000E+00  0.00000000000E+00  0.19953260689E+03  0.19953260689E+03  0.00000000000E+00 0.  1.
         21   -1    0    0  501  503 -0.00000000000E+00 -0.00000000000E+00 -0.44008650574E+03  0.44008650574E+03  0.00000000000E+00 0.  1.
          6    1    1    2  501    0 -0.22453413796E+03 -0.79404312153E+02 -0.16217268039E+03  0.33556609209E+03  0.17200000000E+03 0. -1.
         -6    1    1    2    0  502  0.22453413796E+03  0.79404312153E+02 -0.78381218452E+02  0.30405302054E+03  0.17200000000E+03 0. -1.
</event>
<event>
 4    1  0.1253776E+000  0.1944923E+03  0.7818608E-02  0.1154471E+00
         21   -1    0    0  501  502  0.00000000000E+00  0.00000000000E+00  0.27264169914E+03  0.27264169914E+03  0.00000000000E+00 0. -1.
         21   -1    0    0  502  503 -0.00000000000E+00 -0.00000000000E+00 -0.21574488844E+03  0.21574488844E+03  0.00000000000E+00 0. -1.
          6    1    1    2  501    0  0.81701991513E+02 -0.39598498900E+02  0.17433413990E+03  0.26118891413E+03  0.17200000000E+03 0. -1.
         -6    1    1    2    0  503 -0.81701991513E+02  0.39598498900E+02 -0.11743732919E+03  0.22719767345E+03  0.17200000000E+03 0. -1.
</event>
<event>
 4    1  0.1253776E+000  0.2838187E+03  0.7818608E-02  0.1093621E+00
         21   -1    0    0  501  502  0.00000000000E+00  0.00000000000E+00  0.22490068545E+04  0.22490068545E+04  0.00000000000E+00 0.  1.
         21   -1    0    0  502  503 -0.00000000000E+00 -0.00000000000E+00 -0.36743556151E+02  0.36743556151E+02  0.00000000000E+00 0. -1.
          6    1    1    2  501    0 -0.15300620586E+03 -0.16600649248E+03  0.12876016734E+04  0.13185109495E+04  0.17200000000E+03 0.  1.
         -6    1    1    2    0  503  0.15300620586E+03  0.16600649248E+03  0.92466162498E+03  0.96723946120E+03  0.17200000000E+03 0.  1.
</event>
<event>
 4    1  0.1253776E+000  0.2173395E+03  0.7818608E-02  0.1135882E+00
         21   -1    0    0  501  502  0.00000000000E+00  0.00000000000E+00  0.47692599384E+03  0.47692599384E+03  0.00000000000E+00 0.  1.
         21   -1    0    0  502  503 -0.00000000000E+00 -0.00000000000E+00 -0.12235055123E+03  0.12235055123E+03  0.00000000000E+00 0.  1.
          6    1    1    2  501    0  0.13271659013E+03  0.62271401497E+01  0.30806641364E+03  0.37701642641E+03  0.17200000000E+03 0. -1.
         -6    1    1    2    0  503 -0.13271659013E+03 -0.62271401497E+01  0.46509028971E+02  0.22226011866E+03  0.17200000000E+03 0. -1.
</event>
<event>
 4    1  0.1253776E+000  0.2368402E+03  0.7818608E-02  0.1121916E+00
         21   -1    0    0  501  502  0.00000000000E+00  0.00000000000E+00  0.27654014609E+03  0.27654014609E+03  0.00000000000E+00 0. -1.
         21   -1    0    0  502  503 -0.00000000000E+00 -0.00000000000E+00 -0.20489712130E+03  0.20489712130E+03  0.00000000000E+00 0.  1.
          6    1    1    2  501    0 -0.12685203006E+03 -0.10206773468E+03  0.59944239319E+02  0.24430835397E+03  0.17200000000E+03 0. -1.
         -6    1    1    2    0  503  0.12685203006E+03  0.10206773468E+03  0.11698785475E+02  0.23712891341E+03  0.17200000000E+03 0.  1.
</event>
<event>
 4    1  0.1253776E+000  0.2445013E+03  0.7818608E-02  0.1116830E+00
         21   -1    0    0  501  502  0.00000000000E+00  0.00000000000E+00  0.15235775285E+03  0.15235775285E+03  0.00000000000E+00 0. -1.
         21   -1    0    0  502  503 -0.00000000000E+00 -0.00000000000E+00 -0.39335401487E+03  0.39335401487E+03  0.00000000000E+00 0.  1.
          6    1    1    2  501    0 -0.17253401870E+03 -0.20710395656E+02 -0.13413178681E+03  0.27887675473E+03  0.17200000000E+03 0.  1.
         -6    1    1    2    0  503  0.17253401870E+03  0.20710395656E+02 -0.10686447521E+03  0.26683501299E+03  0.17200000000E+03 0. -1.
</event>
<event>
 4    1  0.1253776E+000  0.1947478E+03  0.7818608E-02  0.1154247E+00
         21   -1    0    0  501  502  0.00000000000E+00  0.00000000000E+00  0.24414168168E+03  0.24414168168E+03  0.00000000000E+00 0.  1.
         21   -1    0    0  502  503 -0.00000000000E+00 -0.00000000000E+00 -0.15535833716E+03  0.15535833716E+03  0.00000000000E+00 0.  1.
          6    1    1    2  501    0  0.40393268971E+02  0.81921309742E+02  0.42697479219E+02  0.19937349849E+03  0.17200000000E+03 0.  1.
         -6    1    1    2    0  503 -0.40393268971E+02 -0.81921309742E+02  0.46085865306E+02  0.20012652035E+03  0.17200000000E+03 0.  1.
</event>
<event>
 4    1  0.1253776E+000  0.2347967E+03  0.7818608E-02  0.1123308E+00
         21   -1    0    0  501  502  0.00000000000E+00  0.00000000000E+00  0.21223296661E+03  0.21223296661E+03  0.00000000000E+00 0. -1.
         21   -1    0    0  502  503 -0.00000000000E+00 -0.00000000000E+00 -0.27663289040E+03  0.27663289040E+03  0.00000000000E+00 0.  1.
          6    1    1    2  501    0 -0.15982930002E+03  0.25505858411E+00 -0.92568764823E+02  0.25238551151E+03  0.17200000000E+03 0.  1.
         -6    1    1    2    0  503  0.15982930002E+03 -0.25505858411E+00  0.28168841029E+02  0.23648034549E+03  0.17200000000E+03 0. -1.
</event>
<event>
 4    1  0.1253776E+000  0.2028450E+03  0.7818608E-02  0.1147361E+00
         21   -1    0    0  501  502  0.00000000000E+00  0.00000000000E+00  0.12086714153E+03  0.12086714153E+03  0.00000000000E+00 0. -1.
         21   -1    0    0  502  503 -0.00000000000E+00 -0.00000000000E+00 -0.43919623673E+03  0.43919623673E+03  0.00000000000E+00 0. -1.
          6    1    1    2  501    0  0.52466819213E+02 -0.93857943182E+02 -0.26365417130E+02  0.20455125479E+03  0.17200000000E+03 0.  1.
         -6    1    1    2    0  503 -0.52466819213E+02  0.93857943182E+02 -0.29196367807E+03  0.35551212347E+03  0.17200000000E+03 0.  1.
</event>
<event>
 4    1  0.1253776E+000  0.1810510E+03  0.7818608E-02  0.1166790E+00
         21   -1    0    0  503  502  0.00000000000E+00  0.00000000000E+00  0.83485339519E+02  0.83485339519E+02  0.00000000000E+00 0. -1.
         21   -1    0    0  501  503 -0.00000000000E+00 -0.00000000000E+00 -0.13311835359E+04  0.13311835359E+04  0.00000000000E+00 0.  1.
          6    1    1    2  501    0 -0.56037620064E+02  0.74333895470E+01 -0.12177768758E+04  0.12311620484E+04  0.17200000000E+03 0.  1.
         -6    1    1    2    0  502  0.56037620064E+02 -0.74333895470E+01 -0.29921320577E+02  0.18350682703E+03  0.17200000000E+03 0. -1.
</event>
<event>
 4    1  0.1253776E+000  0.1738489E+03  0.7818608E-02  0.1173892E+00
         21   -1    0    0  501  502  0.00000000000E+00  0.00000000000E+00  0.12273997366E+04  0.12273997366E+04  0.00000000000E+00 0. -1.
         21   -1    0    0  502  503 -0.00000000000E+00 -0.00000000000E+00 -0.28903858089E+02  0.28903858089E+02  0.00000000000E+00 0. -1.
          6    1    1    2  501    0 -0.13672851105E+02  0.21272159646E+02  0.84096261255E+03  0.85874418038E+03  0.17200000000E+03 0.  1.
         -6    1    1    2    0  503  0.13672851105E+02 -0.21272159646E+02  0.35753326594E+03  0.39755941428E+03  0.17200000000E+03 0.  1.
</event>
<event>
 4    1  0.1253776E+000  0.1820661E+03  0.7818608E-02  0.1165818E+00
         21   -1    0    0  501  502  0.00000000000E+00  0.00000000000E+00  0.65602604965E+03  0.65602604965E+03  0.00000000000E+00 0. -1.
         21   -1    0    0  502  503 -0.00000000000E+00 -0.00000000000E+00 -0.60363847409E+02  0.60363847409E+02  0.00000000000E+00 0. -1.
          6    1    1    2  501    0  0.43936857775E+02  0.40418091870E+02  0.44241632846E+03  0.47841433644E+03  0.17200000000E+03 0. -1.
         -6    1    1    2    0  503 -0.43936857775E+02 -0.40418091870E+02  0.15324587378E+03  0.23797556062E+03  0.17200000000E+03 0. -1.
</event>
<event>
 4    1  0.1253776E+000  0.3552466E+03  0.7818608E-02  0.1060482E+00
         21   -1    0    0  501  502  0.00000000000E+00  0.00000000000E+00  0.91159382542E+03  0.91159382542E+03  0.00000000000E+00 0.  1.
         21   -1    0    0  502  503 -0.00000000000E+00 -0.00000000000E+00 -0.14475725949E+03  0.14475725949E+03  0.00000000000E+00 0. -1.
          6    1    1    2  501    0  0.12724365923E+03  0.28359342534E+03  0.27307262407E+03  0.44807235769E+03  0.17200000000E+03 0. -1.
         -6    1    1    2    0  503 -0.12724365923E+03 -0.28359342534E+03  0.49376394186E+03  0.60827872722E+03  0.17200000000E+03 0.  1.
</event>
<event>
 4    1  0.1253776E+000  0.1816706E+03  0.7818608E-02  0.1166196E+00
         21   -1    0    0  503  502  0.00000000000E+00  0.00000000000E+00  0.13765985319E+04  0.13765985319E+04  0.00000000000E+00 0. -1.
         21   -1    0    0  501  503 -0.00000000000E+00 -0.00000000000E+00 -0.27725839820E+02  0.27725839820E+02  0.00000000000E+00 0. -1.
          6    1    1    2  501    0 -0.50226623035E+02  0.29957898643E+02  0.41618103187E+03  0.45410443804E+03  0.17200000000E+03 0. -1.
         -6    1    1    2    0  502  0.50226623035E+02 -0.29957898643E+02  0.93269166020E+03  0.95021993368E+03  0.17200000000E+03 0. -1.
</event>
<event>
 4    1  0.1253776E+000  0.2575996E+03  0.7818608E-02  0.1108594E+00
         21   -1    0    0  501  502  0.00000000000E+00  0.00000000000E+00  0.14034788592E+03  0.14034788592E+03  0.00000000000E+00 0. -1.
         21   -1    0    0  502  503 -0.00000000000E+00 -0.00000000000E+00 -0.65804208381E+03  0.65804208381E+03  0.00000000000E+00 0.  1.
          6    1    1    2  501    0  0.67988678927E+02 -0.17930730362E+03 -0.47050503867E+02  0.26186126004E+03  0.17200000000E+03 0. -1.
         -6    1    1    2    0  503 -0.67988678927E+02  0.17930730362E+03 -0.47064369403E+03  0.53652870969E+03  0.17200000000E+03 0.  1.
</event>
<event>
 4    1  0.1253776E+000  0.1924725E+03  0.7818608E-02  0.1156250E+00
         21   -1    0    0  501  502  0.00000000000E+00  0.00000000000E+00  0.89563665138E+02  0.89563665138E+02  0.00000000000E+00 0. -1.
         21   -1    0    0  502  503 -0.00000000000E+00 -0.00000000000E+00 -0.41622973551E+03  0.41622973551E+03  0.00000000000E+00 0.  1.
          6    1    1    2  501    0  0.74537713953E+02 -0.43655373681E+02 -0.14332246644E+03  0.23997289813E+03  0.17200000000E+03 0. -1.
         -6    1    1    2    0  503 -0.74537713953E+02  0.43655373681E+02 -0.18334360393E+03  0.26582050251E+03  0.17200000000E+03 0.  1.
</event>
<event>
 4    1  0.1253776E+000  0.2005440E+03  0.7818608E-02  0.1149281E+00
         21   -1    0    0  503  502  0.00000000000E+00  0.00000000000E+00  0.56187078085E+03  0.56187078085E+03  0.00000000000E+00 0.  1.
         21   -1    0    0  501  503 -0.00000000000E+00 -0.00000000000E+00 -0.79265945953E+02  0.79265945953E+02  0.00000000000E+00 0.  1.
          6    1    1    2  501    0  0.37441438246E+02 -0.96083373684E+02  0.14147083469E+03  0.24542182679E+03  0.17200000000E+03 0.  1.
         -6    1    1    2    0  502 -0.37441438246E+02  0.96083373684E+02  0.34113400021E+03  0.39571490001E+03  0.17200000000E+03 0.  1.
</event>
<event>
 4    1  0.1253776E+000  0.1955144E+03  0.7818608E-02  0.1153580E+00
         21   -1    0    0  503  502  0.00000000000E+00  0.00000000000E+00  0.21536993575E+03  0.21536993575E+03  0.00000000000E+00 0.  1.
         21   -1    0    0  501  503 -0.00000000000E+00 -0.00000000000E+00 -0.18573509813E+03  0.18573509813E+03  0.00000000000E+00 0.  1.
          6    1    1    2  501    0  0.77634360655E+02 -0.51135024405E+02  0.57073999655E+02  0.20367455931E+03  0.17200000000E+03 0.  1.
         -6    1    1    2    0  502 -0.77634360655E+02  0.51135024405E+02 -0.27439162036E+02  0.19743047457E+03  0.17200000000E+03 0.  1.
</event>
<event>
 4    1  0.1253776E+000  0.1933784E+03  0.7818608E-02  0.1155449E+00
         21   -1    0    0  503  502  0.00000000000E+00  0.00000000000E+00  0.44915742732E+03  0.44915742732E+03  0.00000000000E+00 0. -1.
         21   -1    0    0  501  503 -0.00000000000E+00 -0.00000000000E+00 -0.97165673378E+02  0.97165673378E+02  0.00000000000E+00 0. -1.
          6    1    1    2  501    0 -0.80711979407E+02  0.36011091254E+02  0.72644649203E+02  0.20657315259E+03  0.17200000000E+03 0. -1.
         -6    1    1    2    0  502  0.80711979407E+02 -0.36011091254E+02  0.27934710474E+03  0.33974994811E+03  0.17200000000E+03 0. -1.
</event>
<event>
 4    1  0.1253776E+000  0.1899275E+03  0.7818608E-02  0.1158527E+00
         21   -1    0    0  503  502  0.00000000000E+00  0.00000000000E+00  0.10858339891E+04  0.10858339891E+04  0.00000000000E+00 0.  1.
         21   -1    0    0  501  503 -0.00000000000E+00 -0.00000000000E+00 -0.38960082946E+02  0.38960082946E+02  0.00000000000E+00 0. -1.
          6    1    1    2  501    0  0.22823474777E+02 -0.77249923427E+02  0.30758531051E+03  0.36149852684E+03  0.17200000000E+03 0. -1.
         -6    1    1    2    0  502 -0.22823474777E+02  0.77249923427E+02  0.73928859562E+03  0.76329554518E+03  0.17200000000E+03 0.  1.
</event>
<event>
 4    1  0.1253776E+000  0.2288964E+03  0.7818608E-02  0.1127419E+00
         21   -1    0    0  503  502  0.00000000000E+00  0.00000000000E+00  0.75189911714E+02  0.75189911714E+02  0.00000000000E+00 0.  1.
         21   -1    0    0  501  503 -0.00000000000E+00 -0.00000000000E+00 -0.71249473078E+03  0.71249473078E+03  0.00000000000E+00 0. -1.
          6    1    1    2  501    0  0.79880609962E+02 -0.12817431510E+03 -0.37707500641E+03  0.44111124147E+03  0.17200000000E+03 0. -1.
         -6    1    1    2    0  502 -0.79880609962E+02  0.12817431510E+03 -0.26022981266E+03  0.34657340102E+03  0.17200000000E+03 0.  1.
</event>
<event>
 4    1  0.1253776E+000  0.2562291E+03  0.7818608E-02  0.1109430E+00
         21   -1    0    0  501  502  0.00000000000E+00  0.00000000000E+00  0.14981908430E+03  0.14981908430E+03  0.00000000000E+00 0.  1.
         21   -1    0    0  502  503 -0.00000000000E+00 -0.00000000000E+00 -0.44480086471E+03  0.44480086471E+03  0.00000000000E+00 0. -1.
          6    1    1    2  501    0  0.23879676090E+02 -0.18841208672E+03 -0.18366090559E+03  0.31525336095E+03  0.17200000000E+03 0. -1.
         -6    1    1    2    0  503 -0.23879676090E+02  0.18841208672E+03 -0.11132087482E+03  0.27936658805E+03  0.17200000000E+03 0.  1.
</event>
<event>
 4    1  0.1253776E+000  0.2220250E+03  0.7818608E-02  0.1132382E+00
         21   -1    0    0  501  502  0.00000000000E+00  0.00000000000E+00  0.69774709540E+03  0.69774709540E+03  0.00000000000E+00 0.  1.
         21   -1    0    0  502  503 -0.00000000000E+00 -0.00000000000E+00 -0.16903749968E+03  0.16903749968E+03  0.00000000000E+00 0. -1.
          6    1    1    2  501    0  0.46666575501E+02 -0.13241344371E+03 -0.66290210331E+02  0.23170990771E+03  0.17200000000E+03 0. -1.
         -6    1    1    2    0  503 -0.46666575501E+02  0.13241344371E+03  0.59499980605E+03  0.63507468738E+03  0.17200000000E+03 0.  1.
</event>
<event>
 4    1  0.1253776E+000  0.1971867E+03  0.7818608E-02  0.1152135E+00
         21   -1    0    0  503  502  0.00000000000E+00  0.00000000000E+00  0.68875893372E+03  0.68875893372E+03  0.00000000000E+00 0. -1.
         21   -1    0    0  501  503 -0.00000000000E+00 -0.00000000000E+00 -0.99788658897E+02  0.99788658897E+02  0.00000000000E+00 0. -1.
          6    1    1    2  501    0  0.66646935370E+02 -0.69690653731E+02  0.34661088557E+02  0.20020987056E+03  0.17200000000E+03 0. -1.
         -6    1    1    2    0  502 -0.66646935370E+02  0.69690653731E+02  0.55430918627E+03  0.58833772205E+03  0.17200000000E+03 0. -1.
</event>
<event>
 4    1  0.1253776E+000  0.1871557E+03  0.7818608E-02  0.1161052E+00
         21   -1    0    0  501  502  0.00000000000E+00  0.00000000000E+00  0.88557983682E+03  0.88557983682E+03  0.00000000000E+00 0.  1.
         21   -1    0    0  502  503 -0.00000000000E+00 -0.00000000000E+00 -0.78892622618E+02  0.78892622618E+02  0.00000000000E+00 0.  1.
          6    1    1    2  501    0  0.71717334064E+02 -0.17317135540E+02  0.74387506084E+03  0.76705760236E+03  0.17200000000E+03 0.  1.
         -6    1    1    2    0  503 -0.71717334064E+02  0.17317135540E+02  0.62812153364E+02  0.19741485709E+03  0.17200000000E+03 0.  1.
</event>
<event>
 4    1  0.1253776E+000  0.2033620E+03  0.7818608E-02  0.1146933E+00
         21   -1    0    0  501  502  0.00000000000E+00  0.00000000000E+00  0.14263559588E+03  0.14263559588E+03  0.00000000000E+00 0. -1.
         21   -1    0    0  502  503 -0.00000000000E+00 -0.00000000000E+00 -0.28999246806E+03  0.28999246806E+03  0.00000000000E+00 0.  1.
          6    1    1    2  501    0 -0.25495395005E+02 -0.10546140518E+03 -0.70839340689E+02  0.21534701144E+03  0.17200000000E+03 0. -1.
         -6    1    1    2    0  503  0.25495395005E+02  0.10546140518E+03 -0.76517531489E+02  0.21728105250E+03  0.17200000000E+03 0.  1.
</event>
<event>
 4    1  0.1253776E+000  0.1989586E+03  0.7818608E-02  0.1150621E+00
         21   -1    0    0  503  502  0.00000000000E+00  0.00000000000E+00  0.28786031042E+03  0.28786031042E+03  0.00000000000E+00 0.  1.
         21   -1    0    0  501  503 -0.00000000000E+00 -0.00000000000E+00 -0.16398231622E+03  0.16398231622E+03  0.00000000000E+00 0.  1.
          6    1    1    2  501    0 -0.98784562987E+02 -0.15560112516E+02 -0.28828602726E+02  0.20103630349E+03  0.17200000000E+03 0.  1.
         -6    1    1    2    0  502  0.98784562987E+02  0.15560112516E+02  0.15270659692E+03  0.25080632314E+03  0.17200000000E+03 0.  1.
</event>
<event>
 4    1  0.1253776E+000  0.1776924E+03  0.7818608E-02  0.1170055E+00
         21   -1    0    0  501  502  0.00000000000E+00  0.00000000000E+00  0.16642351307E+04  0.16642351307E+04  0.00000000000E+00 0.  1.
         21   -1    0    0  502  503 -0.00000000000E+00 -0.00000000000E+00 -0.20242643917E+02  0.20242643917E+02  0.00000000000E+00 0.  1.
          6    1    1    2  501    0  0.43397216258E+02  0.10357858982E+02  0.10329747156E+04  0.10481466342E+04  0.17200000000E+03 0.  1.
         -6    1    1    2    0  503 -0.43397216258E+02 -0.10357858982E+02  0.61101777121E+03  0.63633114049E+03  0.17200000000E+03 0.  1.
</event>
<event>
 4    1  0.1253776E+000  0.2588520E+03  0.7818608E-02  0.1107835E+00
         21   -1    0    0  503  502  0.00000000000E+00  0.00000000000E+00  0.19424337793E+03  0.19424337793E+03  0.00000000000E+00 0. -1.
         21   -1    0    0  501  503 -0.00000000000E+00 -0.00000000000E+00 -0.34697293577E+03  0.34697293577E+03  0.00000000000E+00 0. -1.
          6    1    1    2  501    0  0.49597575595E+02  0.18697709264E+03 -0.55704834003E+02  0.26477798475E+03  0.17200000000E+03 0. -1.
         -6    1    1    2    0  502 -0.49597575595E+02 -0.18697709264E+03 -0.97024723842E+02  0.27643832895E+03  0.17200000000E+03 0. -1.
</event>
<event>
 4    1  0.1253776E+000  0.2513157E+03  0.7818608E-02  0.1112476E+00
         21   -1    0    0  503  502  0.00000000000E+00  0.00000000000E+00  0.53294039490E+03  0.53294039490E+03  0.00000000000E+00 0. -1.
         21   -1    0    0  501  503 -0.00000000000E+00 -0.00000000000E+00 -0.16621276743E+03  0.16621276743E+03  0.00000000000E+00 0. -1.
          6    1    1    2  501    0 -0.83810006122E+02  0.16294612966E+03 -0.39091838596E+01  0.25134605630E+03  0.17200000000E+03 0. -1.
         -6    1    1    2    0  502  0.83810006122E+02 -0.16294612966E+03  0.37063681134E+03  0.44780710603E+03  0.17200000000E+03 0. -1.
</event>
<event>
 4    1  0.1253776E+000  0.1803268E+03  0.7818608E-02  0.1167487E+00
         21   -1    0    0  503  502  0.00000000000E+00  0.00000000000E+00  0.19595922331E+04  0.19595922331E+04  0.00000000000E+00 0. -1.
         21   -1    0    0  501  503 -0.00000000000E+00 -0.00000000000E+00 -0.30298361924E+02  0.30298361924E+02  0.00000000000E+00 0.  1.
          6    1    1    2  501    0 -0.25525151174E+02  0.47772550625E+02  0.29550722550E+03  0.34618242338E+03  0.17200000000E+03 0.  1.
         -6    1    1    2    0  502  0.25525151174E+02 -0.47772550625E+02  0.16337866457E+04  0.16437081717E+04  0.17200000000E+03 0. -1.
</event>
<event>
 4    1  0.1253776E+000  0.3035615E+03  0.7818608E-02  0.1083474E+00
         21   -1    0    0  503  502  0.00000000000E+00  0.00000000000E+00  0.20609995580E+03  0.20609995580E+03  0.00000000000E+00 0. -1.
         21   -1    0    0  501  503 -0.00000000000E+00 -0.00000000000E+00 -0.44867075244E+03  0.44867075244E+03  0.00000000000E+00 0. -1.
          6    1    1    2  501    0 -0.21708109179E+03 -0.12426325094E+03 -0.14058836861E+03  0.33453646339E+03  0.17200000000E+03 0.  1.
         -6    1    1    2    0  502  0.21708109179E+03  0.12426325094E+03 -0.10198242802E+03  0.32023424485E+03  0.17200000000E+03 0.  1.
</event>
<event>
 4    1  0.1253776E+000  0.2496913E+03  0.7818608E-02  0.1113500E+00
         21   -1    0    0  501  502  0.00000000000E+00  0.00000000000E+00  0.45416698044E+03  0.45416698044E+03  0.00000000000E+00 0.  1.
         21   -1    0    0  502  503 -0.00000000000E+00 -0.00000000000E+00 -0.21834404636E+03  0.21834404636E+03  0.00000000000E+00 0.  1.
          6    1    1    2  501    0 -0.19314145183E+02  0.17996862447E+03  0.32280414902E+03  0.40810324751E+03  0.17200000000E+03 0.  1.
         -6    1    1    2    0  503  0.19314145183E+02 -0.17996862447E+03 -0.86981214946E+02  0.26440777929E+03  0.17200000000E+03 0.  1.
</event>
<event>
 4    1  0.1253776E+000  0.2240664E+03  0.7818608E-02  0.1130887E+00
         21   -1    0    0  501  502  0.00000000000E+00  0.00000000000E+00  0.13118912265E+03  0.13118912265E+03  0.00000000000E+00 0. -1.
         21   -1    0    0  502  503 -0.00000000000E+00 -0.00000000000E+00 -0.41786100577E+03  0.41786100577E+03  0.00000000000E+00 0. -1.
          6    1    1    2  501    0 -0.62552777693E+01  0.14346645569E+03 -0.22297241410E+03  0.31610512469E+03  0.17200000000E+03 0.  1.
         -6    1    1    2    0  503  0.62552777693E+01 -0.14346645569E+03 -0.63699469029E+02  0.23294500373E+03  0.17200000000E+03 0.  1.
</event>
<event>
 4    1  0.1253776E+000  0.1966714E+03  0.7818608E-02  0.1152578E+00
         21   -1    0    0  501  502  0.00000000000E+00  0.00000000000E+00  0.37329588510E+02  0.37329588510E+02  0.00000000000E+00 0.  1.
         21   -1    0    0  502  503 -0.00000000000E+00 -0.00000000000E+00 -0.12003840050E+04  0.12003840050E+04  0.00000000000E+00 0.  1.
          6    1    1    2  501    0 -0.68753846966E+02 -0.66094928737E+02 -0.35262966271E+03  0.40376640537E+03  0.17200000000E+03 0.  1.
         -6    1    1    2    0  503  0.68753846966E+02  0.66094928737E+02 -0.81042475376E+03  0.83394718813E+03  0.17200000000E+03 0.  1.
</event>
<event>
 4    1  0.1253776E+000  0.2162465E+03  0.7818608E-02  0.1136713E+00
         21   -1    0    0  503  502  0.00000000000E+00  0.00000000000E+00  0.64484764094E+03  0.64484764094E+03  0.00000000000E+00 0. -1.
         21   -1    0    0  501  503 -0.00000000000E+00 -0.00000000000E+00 -0.73247786130E+02  0.73247786130E+02  0.00000000000E+00 0.  1.
          6    1    1    2  501    0 -0.13045686846E+03  0.12630906712E+02  0.24994113154E+03  0.33050431702E+03  0.17200000000E+03 0.  1.
         -6    1    1    2    0  502  0.13045686846E+03 -0.12630906712E+02  0.32165872327E+03  0.38759111005E+03  0.17200000000E+03 0. -1.
</event>
<event>
 4    1  0.1253776E+000  0.1940130E+03  0.7818608E-02  0.1154891E+00
         21   -1    0    0  503  502  0.00000000000E+00  0.00000000000E+00  0.13925310775E+03  0.13925310775E+03  0.00000000000E+00 0. -1.
         21   -1    0    0  501  503 -0.00000000000E+00 -0.00000000000E+00 -0.13691319079E+04  0.13691319079E+04  0.00000000000E+00 0.  1.
          6    1    1    2  501    0 -0.48063517490E+02  0.75808500597E+02 -0.12905926961E+04  0.13050940723E+04  0.17200000000E+03 0.  1.
         -6    1    1    2    0  502  0.48063517490E+02 -0.75808500597E+02  0.60713895923E+02  0.20329094332E+03  0.17200000000E+03 0. -1.
</event>
<event>
 4    1  0.1253776E+000  0.2168953E+03  0.7818608E-02  0.1136219E+00
         21   -1    0    0  503  502  0.00000000000E+00  0.00000000000E+00  0.53544501748E+03  0.53544501748E+03  0.00000000000E+00 0.  1.
         21   -1    0    0  501  503 -0.00000000000E+00 -0.00000000000E+00 -0.13508001249E+03  0.13508001249E+03  0.00000000000E+00 0.  1.
          6    1    1    2  501    0 -0.12181504982E+03  0.51192474973E+02  0.19577633215E+01  0.21690414633E+03  0.17200000000E+03 0.  1.
         -6    1    1    2    0  502  0.12181504982E+03 -0.51192474973E+02  0.39840724167E+03  0.45362088364E+03  0.17200000000E+03 0.  1.
</event>
<event>
 4    1  0.1253776E+000  0.2044614E+03  0.7818608E-02  0.1146029E+00
         21   -1    0    0  501  502  0.00000000000E+00  0.00000000000E+00  0.58189029286E+03  0.58189029286E+03  0.00000000000E+00 0. -1.
         21   -1    0    0  502  503 -0.00000000000E+00 -0.00000000000E+00 -0.18457959572E+03  0.18457959572E+03  0.00000000000E+00 0. -1.
          6    1    1    2  501    0  0.11032682361E+03  0.69613346032E+01  0.49816210869E+03  0.53848858365E+03  0.17200000000E+03 0. -1.
         -6    1    1    2    0  503 -0.11032682361E+03 -0.69613346032E+01 -0.10085141154E+03  0.22798130493E+03  0.17200000000E+03 0. -1.
</event>
<event>
 4    1  0.1253776E+000  0.1845230E+03  0.7818608E-02  0.1163496E+00
         21   -1    0    0  501  502  0.00000000000E+00  0.00000000000E+00  0.27112192718E+03  0.27112192718E+03  0.00000000000E+00 0. -1.
         21   -1    0    0  502  503 -0.00000000000E+00 -0.00000000000E+00 -0.16029765732E+03  0.16029765732E+03  0.00000000000E+00 0.  1.
          6    1    1    2  501    0  0.47728417551E+02 -0.46762729068E+02  0.15579332470E+03  0.24149599312E+03  0.17200000000E+03 0.  1.
         -6    1    1    2    0  503 -0.47728417551E+02  0.46762729068E+02 -0.44969054839E+02  0.18992359139E+03  0.17200000000E+03 0.  1.
</event>
<event>
 4    1  0.1253776E+000  0.2247901E+03  0.7818608E-02  0.1130361E+00
         21   -1    0    0  501  502  0.00000000000E+00  0.00000000000E+00  0.13835713701E+03  0.13835713701E+03  0.00000000000E+00 0. -1.
         21   -1    0    0  502  503 -0.00000000000E+00 -0.00000000000E+00 -0.36828922585E+03  0.36828922585E+03  0.00000000000E+00 0. -1.
          6    1    1    2  501    0 -0.99737281881E+02 -0.10487645813E+03 -0.13809709810E+03  0.26382078267E+03  0.17200000000E+03 0. -1.
         -6    1    1    2    0  503  0.99737281881E+02  0.10487645813E+03 -0.91834990743E+02  0.24282558018E+03  0.17200000000E+03 0. -1.
</event>
<event>
 4    1  0.1253776E+000  0.2115230E+03  0.7818608E-02  0.1140366E+00
         21   -1    0    0  501  502  0.00000000000E+00  0.00000000000E+00  0.70828884862E+02  0.70828884862E+02  0.00000000000E+00 0.  1.
         21   -1    0    0  502  503 -0.00000000000E+00 -0.00000000000E+00 -0.80871118282E+03  0.80871118282E+03  0.00000000000E+00 0.  1.
          6    1    1    2  501    0  0.19853607730E+02  0.12150646900E+03 -0.16319108529E+03  0.26715785234E+03  0.17200000000E+03 0.  1.
         -6    1    1    2    0  503 -0.19853607730E+02 -0.12150646900E+03 -0.57469121268E+03  0.61238221535E+03  0.17200000000E+03 0.  1.
</event>
<event>
 4    1  0.1253776E+000  0.1880584E+03  0.7818608E-02  0.1160224E+00
         21   -1    0    0  503  502  0.00000000000E+00  0.00000000000E+00  0.92944562607E+03  0.92944562607E+03  0.00000000000E+00 0.  1.
         21   -1    0    0  501  503 -0.00000000000E+00 -0.00000000000E+00 -0.40445409967E+02  0.40445409967E+02  0.00000000000E+00 0.  1.
          6    1    1    2  501    0 -0.75900287522E+02  0.45963521212E+01  0.56250289417E+03  0.59310663970E+03  0.17200000000E+03 0.  1.
         -6    1    1    2    0  502  0.75900287522E+02 -0.45963521212E+01  0.32649732193E+03  0.37678439634E+03  0.17200000000E+03 0.  1.
</event>
<event>
 4    1  0.1253776E+000  0.1811011E+03  0.7818608E-02  0.1166742E+00
         21   -1    0    0  503  502  0.00000000000E+00  0.00000000000E+00  0.14216323577E+03  0.14216323577E+03  0.00000000000E+00 0.  1.
         21   -1    0    0  501  503 -0.00000000000E+00 -0.00000000000E+00 -0.44786601937E+03  0.44786601937E+03  0.00000000000E+00 0.  1.
          6    1    1    2  501    0 -0.35238513564E+02 -0.44405654458E+02 -0.35828027957E+03  0.40145033780E+03  0.17200000000E+03 0.  1.
         -6    1    1    2    0  502  0.35238513564E+02  0.44405654458E+02  0.52577495974E+02  0.18857891735E+03  0.17200000000E+03 0.  1.
</event>
<event>
 4    1  0.1253776E+000  0.1721906E+03  0.7818608E-02  0.1175582E+00
         21   -1    0    0  501  502  0.00000000000E+00  0.00000000000E+00  0.84149200308E+02  0.84149200308E+02  0.00000000000E+00 0. -1.
         21   -1    0    0  502  503 -0.00000000000E+00 -0.00000000000E+00 -0.35855539345E+03  0.35855539345E+03  0.00000000000E+00 0. -1.
          6    1    1    2  501    0  0.56131220390E+01  0.58388917873E+01 -0.16633338341E+03  0.23940842557E+03  0.17200000000E+03 0.  1.
         -6    1    1    2    0  503 -0.56131220390E+01 -0.58388917873E+01 -0.10807280973E+03  0.20329616818E+03  0.17200000000E+03 0.  1.
</event>
<event>
 4    1  0.1253776E+000  0.1905120E+03  0.7818608E-02  0.1158000E+00
         21   -1    0    0  501  502  0.00000000000E+00  0.00000000000E+00  0.26182931698E+03  0.26182931698E+03  0.00000000000E+00 0. -1.
         21   -1    0    0  502  503 -0.00000000000E+00 -0.00000000000E+00 -0.14907057975E+03  0.14907057975E+03  0.00000000000E+00 0. -1.
          6    1    1    2  501    0  0.27769269219E+02  0.77069479873E+02  0.11077646581E+03  0.22037754518E+03  0.17200000000E+03 0.  1.
         -6    1    1    2    0  503 -0.27769269219E+02 -0.77069479873E+02  0.19822714086E+01  0.19052235155E+03  0.17200000000E+03 0.  1.
</event>
<event>
 4    1  0.1253776E+000  0.1872946E+03  0.7818608E-02  0.1160924E+00
         21   -1    0    0  503  502  0.00000000000E+00  0.00000000000E+00  0.85577408217E+02  0.85577408217E+02  0.00000000000E+00 0.  1.
         21   -1    0    0  501  503 -0.00000000000E+00 -0.00000000000E+00 -0.43790279264E+03  0.43790279264E+03  0.00000000000E+00 0.  1.
          6    1    1    2  501    0  0.74117547112E+02 -0.13609478197E+01 -0.24233615963E+03  0.30627777790E+03  0.17200000000E+03 0. -1.
         -6    1    1    2    0  502 -0.74117547112E+02  0.13609478197E+01 -0.10998922479E+03  0.21720242296E+03  0.17200000000E+03 0. -1.
</event>
<event>
 4    1  0.1253776E+000  0.1946627E+03  0.7818608E-02  0.1154322E+00
         21   -1    0    0  501  502  0.00000000000E+00  0.00000000000E+00  0.15860225234E+03  0.15860225234E+03  0.00000000000E+00 0. -1.
         21   -1    0    0  502  503 -0.00000000000E+00 -0.00000000000E+00 -0.37109910072E+03  0.37109910072E+03  0.00000000000E+00 0.  1.
          6    1    1    2  501    0  0.88630166659E+02  0.21313518755E+02 -0.26431286987E+03  0.32826036268E+03  0.17200000000E+03 0.  1.
         -6    1    1    2    0  503 -0.88630166659E+02 -0.21313518755E+02  0.51816021487E+02  0.20144099038E+03  0.17200000000E+03 0. -1.
</event>
<event>
 4    1  0.1253776E+000  0.1939189E+03  0.7818608E-02  0.1154973E+00
         21   -1    0    0  501  502  0.00000000000E+00  0.00000000000E+00  0.49009019132E+03  0.49009019132E+03  0.00000000000E+00 0. -1.
         21   -1    0    0  502  503 -0.00000000000E+00 -0.00000000000E+00 -0.22715631332E+03  0.22715631332E+03  0.00000000000E+00 0. -1.
          6    1    1    2  501    0 -0.73441586771E+02 -0.51253066688E+02  0.42330247348E+03  0.46560662320E+03  0.17200000000E+03 0. -1.
         -6    1    1    2    0  503  0.73441586771E+02  0.51253066688E+02 -0.16036859548E+03  0.25163988144E+03  0.17200000000E+03 0. -1.
</event>
<event>
 4    1  0.1253776E+000  0.2716490E+03  0.7818608E-02  0.1100340E+00
         21   -1    0    0  501  502  0.00000000000E+00  0.00000000000E+00  0.19473083740E+03  0.19473083740E+03  0.00000000000E+00 0. -1.
         21   -1    0    0  502  503 -0.00000000000E+00 -0.00000000000E+00 -0.42007745119E+03  0.42007745119E+03  0.00000000000E+00 0.  1.
          6    1    1    2  501    0 -0.20330541806E+03 -0.53629103154E+02 -0.20885956320E+03  0.34265943859E+03  0.17200000000E+03 0.  1.
         -6    1    1    2    0  503  0.20330541806E+03  0.53629103154E+02 -0.16487050583E+02  0.27214884999E+03  0.17200000000E+03 0. -1.
</event>
<event>
 4    1  0.1253776E+000  0.1809811E+03  0.7818608E-02  0.1166857E+00
         21   -1    0    0  501  502  0.00000000000E+00  0.00000000000E+00  0.46720166581E+03  0.46720166581E+03  0.00000000000E+00 0.  1.
         21   -1    0    0  502  503 -0.00000000000E+00 -0.00000000000E+00 -0.71371349056E+02  0.71371349056E+02  0.00000000000E+00 0.  1.
          6    1    1    2  501    0 -0.31566615984E+02 -0.46622910302E+02  0.16207487005E+03  0.24294528296E+03  0.17200000000E+03 0.  1.
         -6    1    1    2    0  503  0.31566615984E+02  0.46622910302E+02  0.23375544671E+03  0.29562773191E+03  0.17200000000E+03 0.  1.
</event>
<event>
 4    1  0.1253776E+000  0.2112969E+03  0.7818608E-02  0.1140543E+00
         21   -1    0    0  501  502  0.00000000000E+00  0.00000000000E+00  0.87348197567E+03  0.87348197567E+03  0.00000000000E+00 0.  1.
         21   -1    0    0  502  503 -0.00000000000E+00 -0.00000000000E+00 -0.10188363792E+03  0.10188363792E+03  0.00000000000E+00 0. -1.
          6    1    1    2  501    0 -0.60217340706E+02  0.10694043116E+03  0.73006272047E+03  0.76002497311E+03  0.17200000000E+03 0.  1.
         -6    1    1    2    0  503  0.60217340706E+02 -0.10694043116E+03  0.41535617280E+02  0.21534064048E+03  0.17200000000E+03 0. -1.
</event>
<event>
 4    1  0.1253776E+000  0.2808525E+03  0.7818608E-02  0.1095224E+00
         21   -1    0    0  503  502  0.00000000000E+00  0.00000000000E+00  0.23654779158E+03  0.23654779158E+03  0.00000000000E+00 0. -1.
         21   -1    0    0  501  503 -0.00000000000E+00 -0.00000000000E+00 -0.34224600661E+03  0.34224600661E+03  0.00000000000E+00 0.  1.
          6    1    1    2  501    0  0.18662701432E+03  0.12026830450E+03 -0.99229810837E+02  0.29786685432E+03  0.17200000000E+03 0.  1.
         -6    1    1    2    0  502 -0.18662701432E+03 -0.12026830450E+03 -0.64684041880E+01  0.28092694388E+03  0.17200000000E+03 0.  1.
</event>
<event>
 4    1  0.1253776E+000  0.2408345E+03  0.7818608E-02  0.1119238E+00
         21   -1    0    0  501  502  0.00000000000E+00  0.00000000000E+00  0.51268626161E+03  0.51268626161E+03  0.00000000000E+00 0.  1.
         21   -1    0    0  502  503 -0.00000000000E+00 -0.00000000000E+00 -0.22026456825E+03  0.22026456825E+03  0.00000000000E+00 0.  1.
          6    1    1    2  501    0  0.16855780927E+03 -0.23504786874E+01  0.40179453512E+03  0.46844434917E+03  0.17200000000E+03 0.  1.
         -6    1    1    2    0  503 -0.16855780927E+03  0.23504786874E+01 -0.10937284176E+03  0.26450648069E+03  0.17200000000E+03 0.  1.
</event>
<event>
 4    1  0.1253776E+000  0.2800970E+03  0.7818608E-02  0.1095636E+00
         21   -1    0    0  503  502  0.00000000000E+00  0.00000000000E+00  0.12232919075E+04  0.12232919075E+04  0.00000000000E+00 0.  1.
         21   -1    0    0  501  503 -0.00000000000E+00 -0.00000000000E+00 -0.68448279924E+02  0.68448279924E+02  0.00000000000E+00 0. -1.
          6    1    1    2  501    0  0.30233544953E+01  0.22104567202E+03  0.41526719822E+03  0.50090036505E+03  0.17200000000E+03 0. -1.
         -6    1    1    2    0  502 -0.30233544953E+01 -0.22104567202E+03  0.73957642938E+03  0.79083982239E+03  0.17200000000E+03 0.  1.
</event>
<event>
 4    1  0.1253776E+000  0.2400600E+03  0.7818608E-02  0.1119753E+00
         21   -1    0    0  501  502  0.00000000000E+00  0.00000000000E+00  0.59465074780E+03  0.59465074780E+03  0.00000000000E+00 0. -1.
         21   -1    0    0  502  503 -0.00000000000E+00 -0.00000000000E+00 -0.14472004893E+03  0.14472004893E+03  0.00000000000E+00 0. -1.
          6    1    1    2  501    0  0.14474491264E+03  0.84224068977E+02  0.43744558128E+03  0.49898639272E+03  0.17200000000E+03 0. -1.
         -6    1    1    2    0  503 -0.14474491264E+03 -0.84224068977E+02  0.12485117589E+02  0.24038440401E+03  0.17200000000E+03 0. -1.
</event>
<event>
 4    1  0.1253776E+000  0.1858442E+03  0.7818608E-02  0.1162264E+00
         21   -1    0    0  503  502  0.00000000000E+00  0.00000000000E+00  0.28779783079E+03  0.28779783079E+03  0.00000000000E+00 0.  1.
         21   -1    0    0  501  503 -0.00000000000E+00 -0.00000000000E+00 -0.81897891851E+03  0.81897891851E+03  0.00000000000E+00 0.  1.
          6    1    1    2  501    0  0.68105112782E+02  0.17769418367E+02 -0.77682863623E+03  0.79874951560E+03  0.17200000000E+03 0.  1.
         -6    1    1    2    0  502 -0.68105112782E+02 -0.17769418367E+02  0.24564754850E+03  0.30802723370E+03  0.17200000000E+03 0.  1.
</event>
<event>
 4    1  0.1253776E+000  0.1883760E+03  0.7818608E-02  0.1159934E+00
         21   -1    0    0  501  502  0.00000000000E+00  0.00000000000E+00  0.10616247539E+03  0.10616247539E+03  0.00000000000E+00 0. -1.
         21   -1    0    0  502  503 -0.00000000000E+00 -0.00000000000E+00 -0.60854319469E+03  0.60854319469E+03  0.00000000000E+00 0.  1.
          6    1    1    2  501    0 -0.16879461225E+02 -0.74944077824E+02 -0.11277433829E+02  0.18871330511E+03  0.17200000000E+03 0. -1.
         -6    1    1    2    0  503  0.16879461225E+02  0.74944077824E+02 -0.49110328547E+03  0.52599236498E+03  0.17200000000E+03 0.  1.
</event>
<event>
 4    1  0.1253776E+000  0.2137336E+03  0.7818608E-02  0.1138643E+00
         21   -1    0    0  501  502  0.00000000000E+00  0.00000000000E+00  0.33995032225E+03  0.33995032225E+03  0.00000000000E+00 0. -1.
         21   -1    0    0  502  503 -0.00000000000E+00 -0.00000000000E+00 -0.30272651748E+03  0.30272651748E+03  0.00000000000E+00 0. -1.
          6    1    1    2  501    0  0.10639867159E+03  0.69118678543E+02  0.25824191860E+03  0.33521777632E+03  0.17200000000E+03 0.  1.
         -6    1    1    2    0  503 -0.10639867159E+03 -0.69118678543E+02 -0.22101811382E+03  0.30745906342E+03  0.17200000000E+03 0.  1.
</event>
<event>
 4    1  0.1253776E+000  0.2720906E+03  0.7818608E-02  0.1100089E+00
         21   -1    0    0  501  502  0.00000000000E+00  0.00000000000E+00  0.14527674299E+03  0.14527674299E+03  0.00000000000E+00 0. -1.
         21   -1    0    0  502  503 -0.00000000000E+00 -0.00000000000E+00 -0.62101248497E+03  0.62101248497E+03  0.00000000000E+00 0. -1.
          6    1    1    2  501    0 -0.57840071411E+01  0.21075063592E+03 -0.75583744967E+02  0.28239367518E+03  0.17200000000E+03 0. -1.
         -6    1    1    2    0  503  0.57840071411E+01 -0.21075063592E+03 -0.40015199701E+03  0.48389555277E+03  0.17200000000E+03 0. -1.
</event>
<event>
 4    1  0.1253776E+000  0.2078457E+03  0.7818608E-02  0.1143283E+00
         21   -1    0    0  501  502  0.00000000000E+00  0.00000000000E+00  0.25011844845E+03  0.25011844845E+03  0.00000000000E+00 0. -1.
         21   -1    0    0  502  503 -0.00000000000E+00 -0.00000000000E+00 -0.17781593294E+03  0.17781593294E+03  0.00000000000E+00 0.  1.
          6    1    1    2  501    0  0.11182052478E+03  0.33346461309E+02 -0.79972239149E-01  0.20784567024E+03  0.17200000000E+03 0. -1.
         -6    1    1    2    0  503 -0.11182052478E+03 -0.33346461309E+02  0.72382487742E+02  0.22008871115E+03  0.17200000000E+03 0. -1.
</event>
<event>
 4    1  0.1253776E+000  0.1962611E+03  0.7818608E-02  0.1152932E+00
         21   -1    0    0  503  502  0.00000000000E+00  0.00000000000E+00  0.28477418447E+02  0.28477418447E+02  0.00000000000E+00 0.  1.
         21   -1    0    0  501  503 -0.00000000000E+00 -0.00000000000E+00 -0.13908755883E+04  0.13908755883E+04  0.00000000000E+00 0.  1.
          6    1    1    2  501    0 -0.77339288424E+02  0.54342180310E+02 -0.79893277255E+03  0.82268585326E+03  0.17200000000E+03 0. -1.
         -6    1    1    2    0  502  0.77339288424E+02 -0.54342180310E+02 -0.56346539730E+03  0.59666715348E+03  0.17200000000E+03 0. -1.
</event>
<event>
 4    1  0.1253776E+000  0.1722476E+03  0.7818608E-02  0.1175524E+00
         21   -1    0    0  501  502  0.00000000000E+00  0.00000000000E+00  0.27524028632E+03  0.27524028632E+03  0.00000000000E+00 0.  1.
         21   -1    0    0  502  503 -0.00000000000E+00 -0.00000000000E+00 -0.24946795396E+03  0.24946795396E+03  0.00000000000E+00 0.  1.
          6    1    1    2  501    0 -0.28721711007E+01  0.87735629226E+01  0.21059481231E+03  0.27206506528E+03  0.17200000000E+03 0.  1.
         -6    1    1    2    0  503  0.28721711007E+01 -0.87735629226E+01 -0.18482247996E+03  0.25264317499E+03  0.17200000000E+03 0.  1.
</event>
<event>
 4    1  0.1253776E+000  0.3371433E+03  0.7818608E-02  0.1068019E+00
         21   -1    0    0  501  502  0.00000000000E+00  0.00000000000E+00  0.67322720824E+03  0.67322720824E+03  0.00000000000E+00 0. -1.
         21   -1    0    0  502  503 -0.00000000000E+00 -0.00000000000E+00 -0.28799508240E+03  0.28799508240E+03  0.00000000000E+00 0.  1.
          6    1    1    2  501    0  0.49953085543E+02 -0.28563312330E+03  0.50176178756E+03  0.60450846424E+03  0.17200000000E+03 0. -1.
         -6    1    1    2    0  503 -0.49953085543E+02  0.28563312330E+03 -0.11652966172E+03  0.35671382640E+03  0.17200000000E+03 0. -1.
</event>
<event>
 4    1  0.1253776E+000  0.1993751E+03  0.7818608E-02  0.1150267E+00
         21   -1    0    0  503  502  0.00000000000E+00  0.00000000000E+00  0.12278474438E+04  0.12278474438E+04  0.00000000000E+00 0.  1.
         21   -1    0    0  501  503 -0.00000000000E+00 -0.00000000000E+00 -0.40383298945E+02  0.40383298945E+02  0.00000000000E+00 0. -1.
          6    1    1    2  501    0  0.90055003911E+02 -0.45349160129E+02  0.31133378775E+03  0.36970147071E+03  0.17200000000E+03 0. -1.
         -6    1    1    2    0  502 -0.90055003911E+02  0.45349160129E+02  0.87613035711E+03  0.89852927203E+03  0.17200000000E+03 0. -1.
</event>
<event>
 4    1  0.1253776E+000  0.2404876E+03  0.7818608E-02  0.1119468E+00
         21   -1    0    0  503  502  0.00000000000E+00  0.00000000000E+00  0.10914306642E+03  0.10914306642E+03  0.00000000000E+00 0. -1.
         21   -1    0    0  501  503 -0.00000000000E+00 -0.00000000000E+00 -0.91017355948E+03  0.91017355948E+03  0.00000000000E+00 0.  1.
          6    1    1    2  501    0 -0.60955513039E+02 -0.15663553740E+03 -0.72994926430E+03  0.76854420472E+03  0.17200000000E+03 0.  1.
         -6    1    1    2    0  502  0.60955513039E+02  0.15663553740E+03 -0.71081228755E+02  0.25077242119E+03  0.17200000000E+03 0.  1.
</event>
<event>
 4    1  0.1253776E+000  0.2727973E+03  0.7818608E-02  0.1099689E+00
         21   -1    0    0  503  502  0.00000000000E+00  0.00000000000E+00  0.16064860408E+04  0.16064860408E+04  0.00000000000E+00 0.  1.
         21   -1    0    0  501  503 -0.00000000000E+00 -0.00000000000E+00 -0.49013657215E+02  0.49013657215E+02  0.00000000000E+00 0. -1.
          6    1    1    2  501    0 -0.20700972049E+03  0.44512465322E+02  0.97265186552E+03  0.10101831693E+04  0.17200000000E+03 0. -1.
         -6    1    1    2    0  502  0.20700972049E+03 -0.44512465322E+02  0.58482051812E+03  0.64531652881E+03  0.17200000000E+03 0.  1.
</event>
<event>
 4    1  0.1253776E+000  0.2377357E+03  0.7818608E-02  0.1121311E+00
         21   -1    0    0  501  502  0.00000000000E+00  0.00000000000E+00  0.28390096151E+03  0.28390096151E+03  0.00000000000E+00 0.  1.
         21   -1    0    0  502  503 -0.00000000000E+00 -0.00000000000E+00 -0.20341422787E+03  0.20341422787E+03  0.00000000000E+00 0.  1.
          6    1    1    2  501    0 -0.16235758564E+03 -0.23963724438E+02  0.75821145858E+02  0.24953374895E+03  0.17200000000E+03 0.  1.
         -6    1    1    2    0  503  0.16235758564E+03  0.23963724438E+02  0.46655877807E+01  0.23778144043E+03  0.17200000000E+03 0.  1.
</event>
<event>
 4    1  0.1253776E+000  0.2111898E+03  0.7818608E-02  0.1140627E+00
         21   -1    0    0  503  502  0.00000000000E+00  0.00000000000E+00  0.21864088230E+02  0.21864088230E+02  0.00000000000E+00 0.  1.
         21   -1    0    0  501  503 -0.00000000000E+00 -0.00000000000E+00 -0.20523897054E+04  0.20523897054E+04  0.00000000000E+00 0.  1.
          6    1    1    2  501    0 -0.11994359032E+03 -0.25112818460E+02 -0.10960845846E+04  0.11162448365E+04  0.17200000000E+03 0.  1.
         -6    1    1    2    0  502  0.11994359032E+03  0.25112818460E+02 -0.93444103262E+03  0.95800895714E+03  0.17200000000E+03 0.  1.
</event>
<event>
 4    1  0.1253776E+000  0.2405419E+03  0.7818608E-02  0.1119432E+00
         21   -1    0    0  503  502  0.00000000000E+00  0.00000000000E+00  0.21954791234E+03  0.21954791234E+03  0.00000000000E+00 0. -1.
         21   -1    0    0  501  503 -0.00000000000E+00 -0.00000000000E+00 -0.50511914231E+03  0.50511914231E+03  0.00000000000E+00 0.  1.
          6    1    1    2  501    0  0.85655800050E+02 -0.14470475348E+03 -0.39336097199E+03  0.46107834046E+03  0.17200000000E+03 0.  1.
         -6    1    1    2    0  502 -0.85655800050E+02  0.14470475348E+03  0.10778974202E+03  0.26358871418E+03  0.17200000000E+03 0.  1.
</event>
<event>
 4    1  0.1253776E+000  0.2145424E+03  0.7818608E-02  0.1138019E+00
         21   -1    0    0  503  502  0.00000000000E+00  0.00000000000E+00  0.17657775863E+03  0.17657775863E+03  0.00000000000E+00 0.  1.
         21   -1    0    0  501  503 -0.00000000000E+00 -0.00000000000E+00 -0.40648063883E+03  0.40648063883E+03  0.00000000000E+00 0.  1.
          6    1    1    2  501    0  0.12424169804E+03 -0.31756209413E+02 -0.28955669354E+03  0.36037693481E+03  0.17200000000E+03 0.  1.
         -6    1    1    2    0  502 -0.12424169804E+03  0.31756209413E+02  0.59653813337E+02  0.22268146266E+03  0.17200000000E+03 0.  1.
</event>
<event>
 4    1  0.1253776E+000  0.1840793E+03  0.7818608E-02  0.1163912E+00
         21   -1    0    0  501  502  0.00000000000E+00  0.00000000000E+00  0.29493094676E+03  0.29493094676E+03  0.00000000000E+00 0. -1.
         21   -1    0    0  502  503 -0.00000000000E+00 -0.00000000000E+00 -0.14361492502E+03  0.14361492502E+03  0.00000000000E+00 0. -1.
          6    1    1    2  501    0  0.54162263782E+02  0.36981594008E+02  0.17371984621E+03  0.25310822603E+03  0.17200000000E+03 0.  1.
         -6    1    1    2    0  503 -0.54162263782E+02 -0.36981594008E+02 -0.22403824474E+02  0.18543764576E+03  0.17200000000E+03 0.  1.
</event>
<event>
 4    1  0.1253776E+000  0.2176517E+03  0.7818608E-02  0.1135646E+00
         21   -1    0    0  501  502  0.00000000000E+00  0.00000000000E+00  0.30592883472E+03  0.30592883472E+03  0.00000000000E+00 0.  1.
         21   -1    0    0  502  503 -0.00000000000E+00 -0.00000000000E+00 -0.20295932793E+03  0.20295932793E+03  0.00000000000E+00 0.  1.
          6    1    1    2  501    0  0.56978654655E+02 -0.12058903890E+03  0.17536847502E+03  0.27951097549E+03  0.17200000000E+03 0.  1.
         -6    1    1    2    0  503 -0.56978654655E+02  0.12058903890E+03 -0.72398968234E+02  0.22937718716E+03  0.17200000000E+03 0.  1.
</event>
<event>
 4    1  0.1253776E+000  0.1869531E+03  0.7818608E-02  0.1161238E+00
         21   -1    0    0  503  502  0.00000000000E+00  0.00000000000E+00  0.11060210304E+04  0.11060210304E+04  0.00000000000E+00 0.  1.
         21   -1    0    0  501  503 -0.00000000000E+00 -0.00000000000E+00 -0.33890439108E+02  0.33890439108E+02  0.00000000000E+00 0.  1.
          6    1    1    2  501    0 -0.58678378919E+02 -0.43866950032E+02  0.38792974877E+03  0.43062855391E+03  0.17200000000E+03 0.  1.
         -6    1    1    2    0  502  0.58678378919E+02  0.43866950032E+02  0.68420084252E+03  0.70928291560E+03  0.17200000000E+03 0.  1.
</event>
<event>
 4    1  0.1253776E+000  0.3319177E+03  0.7818608E-02  0.1070291E+00
         21   -1    0    0  501  502  0.00000000000E+00  0.00000000000E+00  0.46344644132E+03  0.46344644132E+03  0.00000000000E+00 0.  1.
         21   -1    0    0  502  503 -0.00000000000E+00 -0.00000000000E+00 -0.27217399621E+03  0.27217399621E+03  0.00000000000E+00 0.  1.
          6    1    1    2  501    0  0.17310995585E+03  0.22498507346E+03 -0.35232507286E+02  0.33378236871E+03  0.17200000000E+03 0.  1.
         -6    1    1    2    0  503 -0.17310995585E+03 -0.22498507346E+03  0.22650495239E+03  0.40183806882E+03  0.17200000000E+03 0.  1.
</event>
<event>
 4    1  0.1253776E+000  0.1986191E+03  0.7818608E-02  0.1150909E+00
         21   -1    0    0  503  502  0.00000000000E+00  0.00000000000E+00  0.15424832650E+04  0.15424832650E+04  0.00000000000E+00 0.  1.
         21   -1    0    0  501  503 -0.00000000000E+00 -0.00000000000E+00 -0.10872872748E+03  0.10872872748E+03  0.00000000000E+00 0.  1.
          6    1    1    2  501    0  0.85243021288E+02  0.50982022572E+02 -0.51284705787E+01  0.19868528006E+03  0.17200000000E+03 0.  1.
         -6    1    1    2    0  502 -0.85243021288E+02 -0.50982022572E+02  0.14388830080E+04  0.14525267124E+04  0.17200000000E+03 0.  1.
</event>
<event>
 4    1  0.1253776E+000  0.2168811E+03  0.7818608E-02  0.1136230E+00
         21   -1    0    0  503  502  0.00000000000E+00  0.00000000000E+00  0.18744651274E+03  0.18744651274E+03  0.00000000000E+00 0. -1.
         21   -1    0    0  501  503 -0.00000000000E+00 -0.00000000000E+00 -0.13048331265E+04  0.13048331265E+04  0.00000000000E+00 0.  1.
          6    1    1    2  501    0 -0.12198637912E+03 -0.50722323014E+02 -0.12292591896E+04  0.12482450024E+04  0.17200000000E+03 0.  1.
         -6    1    1    2    0  502  0.12198637912E+03  0.50722323014E+02  0.11187257587E+03  0.24403463683E+03  0.17200000000E+03 0.  1.
</event>
<event>
 4    1  0.1253776E+000  0.1766427E+03  0.7818608E-02  0.1171092E+00
         21   -1    0    0  501  502  0.00000000000E+00  0.00000000000E+00  0.29873998657E+03  0.29873998657E+03  0.00000000000E+00 0. -1.
         21   -1    0    0  502  503 -0.00000000000E+00 -0.00000000000E+00 -0.10452867617E+03  0.10452867617E+03  0.00000000000E+00 0. -1.
          6    1    1    2  501    0  0.24419254894E+02 -0.31974289555E+02  0.91487840622E+02  0.19892883196E+03  0.17200000000E+03 0.  1.
         -6    1    1    2    0  503 -0.24419254894E+02  0.31974289555E+02  0.10272346977E+03  0.20433983078E+03  0.17200000000E+03 0.  1.
</event>
<event>
 4    1  0.1253776E+000  0.1961309E+03  0.7818608E-02  0.1153045E+00
         21   -1    0    0  501  502  0.00000000000E+00  0.00000000000E+00  0.21531585313E+03  0.21531585313E+03  0.00000000000E+00 0.  1.
         21   -1    0    0  502  503 -0.00000000000E+00 -0.00000000000E+00 -0.67251978942E+03  0.67251978942E+03  0.00000000000E+00 0.  1.
          6    1    1    2  501    0 -0.91245490711E+02  0.23613126571E+02  0.15180980057E+03  0.24801922278E+03  0.17200000000E+03 0.  1.
         -6    1    1    2    0  503  0.91245490711E+02 -0.23613126571E+02 -0.60901373685E+03  0.63981641976E+03  0.17200000000E+03 0.  1.
</event>
<event>
 4    1  0.1253776E+000  0.1856619E+03  0.7818608E-02  0.1162433E+00
         21   -1    0    0  501  502  0.00000000000E+00  0.00000000000E+00  0.15504669263E+03  0.15504669263E+03  0.00000000000E+00 0. -1.
         21   -1    0    0  502  503 -0.00000000000E+00 -0.00000000000E+00 -0.29975767833E+03  0.29975767833E+03  0.00000000000E+00 0. -1.
          6    1    1    2  501    0  0.64428928282E+02  0.27115477115E+02  0.43223582013E+02  0.19062689721E+03  0.17200000000E+03 0.  1.
         -6    1    1    2    0  503 -0.64428928282E+02 -0.27115477115E+02 -0.18793456771E+03  0.26417747375E+03  0.17200000000E+03 0.  1.
</event>
<event>
 4    1  0.1253776E+000  0.2455673E+03  0.7818608E-02  0.1116139E+00
         21   -1    0    0  501  502  0.00000000000E+00  0.00000000000E+00  0.11961653674E+03  0.11961653674E+03  0.00000000000E+00 0. -1.
         21   -1    0    0  502  503 -0.00000000000E+00 -0.00000000000E+00 -0.75282759393E+03  0.75282759393E+03  0.00000000000E+00 0.  1.
          6    1    1    2  501    0 -0.43632383716E+02  0.16975129418E+03 -0.65885896529E+02  0.25425231198E+03  0.17200000000E+03 0. -1.
         -6    1    1    2    0  503  0.43632383716E+02 -0.16975129418E+03 -0.56732516066E+03  0.61819181869E+03  0.17200000000E+03 0.  1.
</event>
<event>
 4    1  0.1253776E+000  0.2678540E+03  0.7818608E-02  0.1102514E+00
         21   -1    0    0  503  502  0.00000000000E+00  0.00000000000E+00  0.57386046465E+03  0.57386046465E+03  0.00000000000E+00 0.  1.
         21   -1    0    0  501  503 -0.00000000000E+00 -0.00000000000E+00 -0.13803828602E+03  0.13803828602E+03  0.00000000000E+00 0. -1.
          6    1    1    2  501    0  0.20486067251E+03 -0.13923609428E+02  0.32720983148E+03  0.42286172191E+03  0.17200000000E+03 0. -1.
         -6    1    1    2    0  502 -0.20486067251E+03  0.13923609428E+02  0.10861234715E+03  0.28903702876E+03  0.17200000000E+03 0. -1.
</event>
<event>
 4    1  0.1253776E+000  0.3347271E+03  0.7818608E-02  0.1069064E+00
         21   -1    0    0  501  502  0.00000000000E+00  0.00000000000E+00  0.34634120415E+04  0.34634120415E+04  0.00000000000E+00 0.  1.
         21   -1    0    0  502  503 -0.00000000000E+00 -0.00000000000E+00 -0.47197899174E+02  0.47197899174E+02  0.00000000000E+00 0.  1.
          6    1    1    2  501    0 -0.28614379322E+03  0.24082143949E+02  0.26926172353E+04  0.27133429189E+04  0.17200000000E+03 0.  1.
         -6    1    1    2    0  503  0.28614379322E+03 -0.24082143949E+02  0.72359690708E+03  0.79726702177E+03  0.17200000000E+03 0.  1.
</event>
<event>
 4    1  0.1253776E+000  0.2015928E+03  0.7818608E-02  0.1148402E+00
         21   -1    0    0  501  502  0.00000000000E+00  0.00000000000E+00  0.11654919206E+04  0.11654919206E+04  0.00000000000E+00 0. -1.
         21   -1    0    0  502  503 -0.00000000000E+00 -0.00000000000E+00 -0.46575527810E+02  0.46575527810E+02  0.00000000000E+00 0. -1.
          6    1    1    2  501    0 -0.10293557720E+03 -0.21445841580E+02  0.86328777404E+03  0.88651307829E+03  0.17200000000E+03 0. -1.
         -6    1    1    2    0  503  0.10293557720E+03  0.21445841580E+02  0.25562861872E+03  0.32555437009E+03  0.17200000000E+03 0. -1.
</event>
<event>
 4    1  0.1253776E+000  0.2616167E+03  0.7818608E-02  0.1106176E+00
         21   -1    0    0  501  502  0.00000000000E+00  0.00000000000E+00  0.57503990803E+02  0.57503990803E+02  0.00000000000E+00 0.  1.
         21   -1    0    0  502  503 -0.00000000000E+00 -0.00000000000E+00 -0.14386992901E+04  0.14386992901E+04  0.00000000000E+00 0.  1.
          6    1    1    2  501    0  0.14166804747E+03 -0.13707458682E+03 -0.37970722494E+03  0.46110828956E+03  0.17200000000E+03 0.  1.
         -6    1    1    2    0  503 -0.14166804747E+03  0.13707458682E+03 -0.10014880743E+04  0.10350949913E+04  0.17200000000E+03 0.  1.
</event>
<event>
 4    1  0.1253776E+000  0.2269785E+03  0.7818608E-02  0.1128785E+00
         21   -1    0    0  503  502  0.00000000000E+00  0.00000000000E+00  0.62582454747E+03  0.62582454747E+03  0.00000000000E+00 0.  1.
         21   -1    0    0  501  503 -0.00000000000E+00 -0.00000000000E+00 -0.82331666124E+02  0.82331666124E+02  0.00000000000E+00 0.  1.
          6    1    1    2  501    0 -0.49805141936E+02 -0.13948001888E+03  0.26794154427E+03  0.35115794021E+03  0.17200000000E+03 0.  1.
         -6    1    1    2    0  502  0.49805141936E+02  0.13948001888E+03  0.27555133708E+03  0.35699827338E+03  0.17200000000E+03 0.  1.
</event>
<event>
 4    1  0.1253776E+000  0.2378883E+03  0.7818608E-02  0.1121208E+00
         21   -1    0    0  503  502  0.00000000000E+00  0.00000000000E+00  0.11453196044E+03  0.11453196044E+03  0.00000000000E+00 0.  1.
         21   -1    0    0  501  503 -0.00000000000E+00 -0.00000000000E+00 -0.59087524118E+03  0.59087524118E+03  0.00000000000E+00 0.  1.
          6    1    1    2  501    0  0.11638984701E+03  0.11601831844E+03 -0.95436050429E+02  0.25631794011E+03  0.17200000000E+03 0.  1.
         -6    1    1    2    0  502 -0.11638984701E+03 -0.11601831844E+03 -0.38090723031E+03  0.44908926151E+03  0.17200000000E+03 0.  1.
</event>
<event>
 4    1  0.1253776E+000  0.1897269E+03  0.7818608E-02  0.1158708E+00
         21   -1    0    0  503  502  0.00000000000E+00  0.00000000000E+00  0.33545528345E+03  0.33545528345E+03  0.00000000000E+00 0.  1.
         21   -1    0    0  501  503 -0.00000000000E+00 -0.00000000000E+00 -0.11167449254E+03  0.11167449254E+03  0.00000000000E+00 0.  1.
          6    1    1    2  501    0 -0.77614660271E+02 -0.19704097977E+02  0.67671905035E+02  0.20143429126E+03  0.17200000000E+03 0.  1.
         -6    1    1    2    0  502  0.77614660271E+02  0.19704097977E+02  0.15610888587E+03  0.24569548472E+03  0.17200000000E+03 0.  1.
</event>
<event>
 4    1  0.1253776E+000  0.2620157E+03  0.7818608E-02  0.1105938E+00
         21   -1    0    0  501  502  0.00000000000E+00  0.00000000000E+00  0.16628898558E+04  0.16628898558E+04  0.00000000000E+00 0.  1.
         21   -1    0    0  502  503 -0.00000000000E+00 -0.00000000000E+00 -0.78711219979E+02  0.78711219979E+02  0.00000000000E+00 0. -1.
          6    1    1    2  501    0  0.11191801432E+03  0.16291901275E+03  0.13925559955E+04  0.14169913364E+04  0.17200000000E+03 0.  1.
         -6    1    1    2    0  503 -0.11191801432E+03 -0.16291901275E+03  0.19162264027E+03  0.32460973939E+03  0.17200000000E+03 0. -1.
</event>
<event>
 4    1  0.1253776E+000  0.1797572E+03  0.7818608E-02  0.1168038E+00
         21   -1    0    0  501  502  0.00000000000E+00  0.00000000000E+00  0.55032864476E+03  0.55032864476E+03  0.00000000000E+00 0.  1.
         21   -1    0    0  502  503 -0.00000000000E+00 -0.00000000000E+00 -0.59329547358E+02  0.59329547358E+02  0.00000000000E+00 0. -1.
          6    1    1    2  501    0  0.49545188717E+02  0.16550143668E+02  0.21447946489E+03  0.27984651836E+03  0.17200000000E+03 0. -1.
         -6    1    1    2    0  503 -0.49545188717E+02 -0.16550143668E+02  0.27651963251E+03  0.32981167375E+03  0.17200000000E+03 0.  1.
</event>
<event>
 4    1  0.1253776E+000  0.1786671E+03  0.7818608E-02  0.1169099E+00
         21   -1    0    0  503  502  0.00000000000E+00  0.00000000000E+00  0.43794980820E+03  0.43794980820E+03  0.00000000000E+00 0.  1.
         21   -1    0    0  501  503 -0.00000000000E+00 -0.00000000000E+00 -0.84121782668E+02  0.84121782668E+02  0.00000000000E+00 0.  1.
          6    1    1    2  501    0  0.31690264786E+02 -0.36519486790E+02  0.81529097036E+02  0.19638976415E+03  0.17200000000E+03 0.  1.
         -6    1    1    2    0  502 -0.31690264786E+02  0.36519486790E+02  0.27229892850E+03  0.32568182672E+03  0.17200000000E+03 0.  1.
</event>
<event>
 4    1  0.1253776E+000  0.1742218E+03  0.7818608E-02  0.1173515E+00
         21   -1    0    0  501  502  0.00000000000E+00  0.00000000000E+00  0.16099892317E+03  0.16099892317E+03  0.00000000000E+00 0. -1.
         21   -1    0    0  502  503 -0.00000000000E+00 -0.00000000000E+00 -0.19429011030E+03  0.19429011030E+03  0.00000000000E+00 0. -1.
          6    1    1    2  501    0  0.93950346032E+01 -0.26095393402E+02 -0.47231142367E+02  0.18051043472E+03  0.17200000000E+03 0. -1.
         -6    1    1    2    0  503 -0.93950346032E+01  0.26095393402E+02  0.13939955236E+02  0.17477859876E+03  0.17200000000E+03 0. -1.
</event>
<event>
 4    1  0.1253776E+000  0.1945153E+03  0.7818608E-02  0.1154451E+00
         21   -1    0    0  501  502  0.00000000000E+00  0.00000000000E+00  0.19951130879E+04  0.19951130879E+04  0.00000000000E+00 0.  1.
         21   -1    0    0  502  503 -0.00000000000E+00 -0.00000000000E+00 -0.77377701194E+02  0.77377701194E+02  0.00000000000E+00 0.  1.
          6    1    1    2  501    0 -0.26610204415E+02  0.86856692853E+02  0.18592157994E+04  0.18693634149E+04  0.17200000000E+03 0.  1.
         -6    1    1    2    0  503  0.26610204415E+02 -0.86856692853E+02  0.58519587330E+02  0.20312737426E+03  0.17200000000E+03 0.  1.
</event>
<event>
 4    1  0.1253776E+000  0.2074489E+03  0.7818608E-02  0.1143602E+00
         21   -1    0    0  503  502  0.00000000000E+00  0.00000000000E+00  0.81701276558E+03  0.81701276558E+03  0.00000000000E+00 0. -1.
         21   -1    0    0  501  503 -0.00000000000E+00 -0.00000000000E+00 -0.61886850321E+02  0.61886850321E+02  0.00000000000E+00 0.  1.
          6    1    1    2  501    0  0.11398357259E+03  0.21419388074E+02  0.20800611136E+03  0.29377131815E+03  0.17200000000E+03 0.  1.
         -6    1    1    2    0  502 -0.11398357259E+03 -0.21419388074E+02  0.54711980390E+03  0.58512829775E+03  0.17200000000E+03 0. -1.
</event>
<event>
 4    1  0.1253776E+000  0.2403826E+03  0.7818608E-02  0.1119538E+00
         21   -1    0    0  501  502  0.00000000000E+00  0.00000000000E+00  0.46265183456E+03  0.46265183456E+03  0.00000000000E+00 0.  1.
         21   -1    0    0  502  503 -0.00000000000E+00 -0.00000000000E+00 -0.12571002887E+03  0.12571002887E+03  0.00000000000E+00 0. -1.
          6    1    1    2  501    0  0.62228388805E+02 -0.15597257994E+03  0.19212940387E+03  0.30772963117E+03  0.17200000000E+03 0.  1.
         -6    1    1    2    0  503 -0.62228388805E+02  0.15597257994E+03  0.14481240181E+03  0.28063223226E+03  0.17200000000E+03 0.  1.
</event>
<event>
 4    1  0.1253776E+000  0.1880581E+03  0.7818608E-02  0.1160225E+00
         21   -1    0    0  501  502  0.00000000000E+00  0.00000000000E+00  0.30687014764E+03  0.30687014764E+03  0.00000000000E+00 0. -1.
         21   -1    0    0  502  503 -0.00000000000E+00 -0.00000000000E+00 -0.14992753039E+03  0.14992753039E+03  0.00000000000E+00 0. -1.
          6    1    1    2  501    0  0.26421692590E+02 -0.71300258133E+02  0.18832045880E+03  0.26613986521E+03  0.17200000000E+03 0. -1.
         -6    1    1    2    0  503 -0.26421692590E+02  0.71300258133E+02 -0.31377841557E+02  0.19065781282E+03  0.17200000000E+03 0. -1.
</event>
<event>
 4    1  0.1253776E+000  0.3120536E+03  0.7818608E-02  0.1079366E+00
         21   -1    0    0  503  502  0.00000000000E+00  0.00000000000E+00  0.10000266787E+04  0.10000266787E+04  0.00000000000E+00 0. -1.
         21   -1    0    0  501  503 -0.00000000000E+00 -0.00000000000E+00 -0.10225860916E+03  0.10225860916E+03  0.00000000000E+00 0.  1.
          6    1    1    2  501    0  0.20670932040E+03  0.15831845400E+03  0.32843871164E+03  0.45304465930E+03  0.17200000000E+03 0.  1.
         -6    1    1    2    0  502 -0.20670932040E+03 -0.15831845400E+03  0.56932935792E+03  0.64924062858E+03  0.17200000000E+03 0. -1.
</event>
<event>
 4    1  0.1253776E+000  0.2425663E+03  0.7818608E-02  0.1118095E+00
         21   -1    0    0  503  502  0.00000000000E+00  0.00000000000E+00  0.21711318093E+03  0.21711318093E+03  0.00000000000E+00 0. -1.
         21   -1    0    0  501  503 -0.00000000000E+00 -0.00000000000E+00 -0.57702588691E+03  0.57702588691E+03  0.00000000000E+00 0.  1.
          6    1    1    2  501    0  0.16707585294E+03 -0.36607041131E+02 -0.46912124830E+03  0.52812229805E+03  0.17200000000E+03 0.  1.
         -6    1    1    2    0  502 -0.16707585294E+03  0.36607041131E+02  0.10920854231E+03  0.26601676979E+03  0.17200000000E+03 0. -1.
</event>
<event>
 4    1  0.1253776E+000  0.2002843E+03  0.7818608E-02  0.1149499E+00
         21   -1    0    0  503  502  0.00000000000E+00  0.00000000000E+00  0.22313584039E+03  0.22313584039E+03  0.00000000000E+00 0. -1.
         21   -1    0    0  501  503 -0.00000000000E+00 -0.00000000000E+00 -0.23705982554E+03  0.23705982554E+03  0.00000000000E+00 0. -1.
          6    1    1    2  501    0 -0.61899077322E+02  0.81843269997E+02 -0.12007450138E+03  0.23352024002E+03  0.17200000000E+03 0. -1.
         -6    1    1    2    0  502  0.61899077322E+02 -0.81843269997E+02  0.10615051623E+03  0.22667542591E+03  0.17200000000E+03 0. -1.
</event>
<event>
 4    1  0.1253776E+000  0.2278913E+03  0.7818608E-02  0.1128133E+00
         21   -1    0    0  501  502  0.00000000000E+00  0.00000000000E+00  0.13902589378E+03  0.13902589378E+03  0.00000000000E+00 0. -1.
         21   -1    0    0  502  503 -0.00000000000E+00 -0.00000000000E+00 -0.40219462535E+03  0.40219462535E+03  0.00000000000E+00 0. -1.
          6    1    1    2  501    0 -0.30271955145E+02  0.14640370730E+03 -0.59377909706E+02  0.23549983639E+03  0.17200000000E+03 0.  1.
         -6    1    1    2    0  503  0.30271955145E+02 -0.14640370730E+03 -0.20379082187E+03  0.30572068274E+03  0.17200000000E+03 0.  1.
</event>
<event>
 4    1  0.1253776E+000  0.1857214E+03  0.7818608E-02  0.1162378E+00
         21   -1    0    0  503  502  0.00000000000E+00  0.00000000000E+00  0.73615296938E+02  0.73615296938E+02  0.00000000000E+00 0. -1.
         21   -1    0    0  501  503 -0.00000000000E+00 -0.00000000000E+00 -0.70592396040E+03  0.70592396040E+03  0.00000000000E+00 0. -1.
          6    1    1    2  501    0  0.63226309136E+02  0.30180954999E+02 -0.54217359865E+03  0.57310092243E+03  0.17200000000E+03 0. -1.
         -6    1    1    2    0  502 -0.63226309136E+02 -0.30180954999E+02 -0.90135064806E+02  0.20643833491E+03  0.17200000000E+03 0. -1.
</event>
<event>
 4    1  0.1253776E+000  0.1742185E+03  0.7818608E-02  0.1173519E+00
         21   -1    0    0  503  502  0.00000000000E+00  0.00000000000E+00  0.85917512569E+02  0.85917512569E+02  0.00000000000E+00 0.  1.
         21   -1    0    0  501  503 -0.00000000000E+00 -0.00000000000E+00 -0.11208379538E+04  0.11208379538E+04  0.00000000000E+00 0.  1.
          6    1    1    2  501    0  0.98251865117E+01  0.25914179274E+02 -0.10167771422E+04  0.10315948022E+04  0.17200000000E+03 0.  1.
         -6    1    1    2    0  502 -0.98251865117E+01 -0.25914179274E+02 -0.18143299020E+02  0.17516066418E+03  0.17200000000E+03 0.  1.
</event>
<event>
 4    1  0.1253776E+000  0.2379627E+03  0.7818608E-02  0.1121157E+00
         21   -1    0    0  501  502  0.00000000000E+00  0.00000000000E+00  0.64540527362E+02  0.64540527362E+02  0.00000000000E+00 0. -1.
         21   -1    0    0  502  503 -0.00000000000E+00 -0.00000000000E+00 -0.97569355568E+03  0.97569355568E+03  0.00000000000E+00 0.  1.
          6    1    1    2  501    0 -0.13808552742E+03 -0.89300891161E+02 -0.62068201149E+03  0.66473485047E+03  0.17200000000E+03 0.  1.
         -6    1    1    2    0  503  0.13808552742E+03  0.89300891161E+02 -0.29047101683E+03  0.37549923257E+03  0.17200000000E+03 0. -1.
</event>
<event>
 4    1  0.1253776E+000  0.2002148E+03  0.7818608E-02  0.1149558E+00
         21   -1    0    0  503  502  0.00000000000E+00  0.00000000000E+00  0.57975962458E+03  0.57975962458E+03  0.00000000000E+00 0.  1.
         21   -1    0    0  501  503 -0.00000000000E+00 -0.00000000000E+00 -0.72410297641E+02  0.72410297641E+02  0.00000000000E+00 0. -1.
          6    1    1    2  501    0  0.41995594132E+02 -0.93479041692E+02  0.18440133540E+03  0.27219444091E+03  0.17200000000E+03 0. -1.
         -6    1    1    2    0  502 -0.41995594132E+02  0.93479041692E+02  0.32294799153E+03  0.37997548131E+03  0.17200000000E+03 0.  1.
</event>
<event>
 4    1  0.1253776E+000  0.1727438E+03  0.7818608E-02  0.1175016E+00
         21   -1    0    0  503  502  0.00000000000E+00  0.00000000000E+00  0.39246323704E+02  0.39246323704E+02  0.00000000000E+00 0. -1.
         21   -1    0    0  501  503 -0.00000000000E+00 -0.00000000000E+00 -0.10436040114E+04  0.10436040114E+04  0.00000000000E+00 0. -1.
          6    1    1    2  501    0  0.90223366134E+01 -0.13228853008E+02 -0.78425676596E+03  0.80305608774E+03  0.17200000000E+03 0. -1.
         -6    1    1    2    0  502 -0.90223366134E+01  0.13228853008E+02 -0.22010092177E+03  0.27979424739E+03  0.17200000000E+03 0. -1.
</event>
<event>
 4    1  0.1253776E+000  0.1852848E+03  0.7818608E-02  0.1162784E+00
         21   -1    0    0  503  502  0.00000000000E+00  0.00000000000E+00  0.70797992641E+03  0.70797992641E+03  0.00000000000E+00 0.  1.
         21   -1    0    0  501  503 -0.00000000000E+00 -0.00000000000E+00 -0.10546328734E+03  0.10546328734E+03  0.00000000000E+00 0.  1.
          6    1    1    2  501    0 -0.90576645361E+01 -0.68296572828E+02  0.23214713612E+01  0.18529935881E+03  0.17200000000E+03 0.  1.
         -6    1    1    2    0  502  0.90576645361E+01  0.68296572828E+02  0.60019516771E+03  0.62814385494E+03  0.17200000000E+03 0.  1.
</event>
<event>
 4    1  0.1253776E+000  0.2091735E+03  0.7818608E-02  0.1142222E+00
         21   -1    0    0  503  502  0.00000000000E+00  0.00000000000E+00  0.20348425599E+03  0.20348425599E+03  0.00000000000E+00 0. -1.
         21   -1    0    0  501  503 -0.00000000000E+00 -0.00000000000E+00 -0.25303654848E+03  0.25303654848E+03  0.00000000000E+00 0.  1.
          6    1    1    2  501    0  0.97147692415E+02 -0.68788545380E+02 -0.11325008722E+03  0.23786365921E+03  0.17200000000E+03 0.  1.
         -6    1    1    2    0  502 -0.97147692415E+02  0.68788545380E+02  0.63697794729E+02  0.21865714525E+03  0.17200000000E+03 0.  1.
</event>
<event>
 4    1  0.1253776E+000  0.1728847E+03  0.7818608E-02  0.1174873E+00
         21   -1    0    0  501  502  0.00000000000E+00  0.00000000000E+00  0.54539372596E+03  0.54539372596E+03  0.00000000000E+00 0. -1.
         21   -1    0    0  502  503 -0.00000000000E+00 -0.00000000000E+00 -0.57195114470E+02  0.57195114470E+02  0.00000000000E+00 0. -1.
          6    1    1    2  501    0 -0.11214680867E+02 -0.13392065307E+02  0.30571886103E+03  0.35121665460E+03  0.17200000000E+03 0.  1.
         -6    1    1    2    0  503  0.11214680867E+02  0.13392065307E+02  0.18247975046E+03  0.25137218583E+03  0.17200000000E+03 0.  1.
</event>
<event>
 4    1  0.1253776E+000  0.2838735E+03  0.7818608E-02  0.1093592E+00
         21   -1    0    0  501  502  0.00000000000E+00  0.00000000000E+00  0.19682540935E+04  0.19682540935E+04  0.00000000000E+00 0. -1.
         21   -1    0    0  502  503 -0.00000000000E+00 -0.00000000000E+00 -0.66865737821E+02  0.66865737821E+02  0.00000000000E+00 0.  1.
          6    1    1    2  501    0  0.15332952515E+03  0.16580180362E+03  0.15842827146E+04  0.16095141817E+04  0.17200000000E+03 0. -1.
         -6    1    1    2    0  503 -0.15332952515E+03 -0.16580180362E+03  0.31710564106E+03  0.42560564958E+03  0.17200000000E+03 0.  1.
</event>
<event>
 4    1  0.1253776E+000  0.1874282E+03  0.7818608E-02  0.1160802E+00
         21   -1    0    0  501  502  0.00000000000E+00  0.00000000000E+00  0.40268632613E+03  0.40268632613E+03  0.00000000000E+00 0.  1.
         21   -1    0    0  502  503 -0.00000000000E+00 -0.00000000000E+00 -0.87288682475E+02  0.87288682475E+02  0.00000000000E+00 0.  1.
          6    1    1    2  501    0  0.71877770966E+02 -0.19465807299E+02  0.15176407571E+03  0.24116729938E+03  0.17200000000E+03 0.  1.
         -6    1    1    2    0  503 -0.71877770966E+02  0.19465807299E+02  0.16363356794E+03  0.24880770922E+03  0.17200000000E+03 0.  1.
</event>
<event>
 4    1  0.1253776E+000  0.2267395E+03  0.7818608E-02  0.1128956E+00
         21   -1    0    0  501  502  0.00000000000E+00  0.00000000000E+00  0.26531782943E+03  0.26531782943E+03  0.00000000000E+00 0.  1.
         21   -1    0    0  502  503 -0.00000000000E+00 -0.00000000000E+00 -0.37782199208E+03  0.37782199208E+03  0.00000000000E+00 0. -1.
          6    1    1    2  501    0 -0.13451294201E+03  0.61098989756E+02  0.16818842452E+03  0.28230863299E+03  0.17200000000E+03 0.  1.
         -6    1    1    2    0  503  0.13451294201E+03 -0.61098989756E+02 -0.28069258717E+03  0.36083118852E+03  0.17200000000E+03 0. -1.
</event>
<event>
 4    1  0.1253776E+000  0.1768347E+03  0.7818608E-02  0.1170902E+00
         21   -1    0    0  503  502  0.00000000000E+00  0.00000000000E+00  0.47026728688E+03  0.47026728688E+03  0.00000000000E+00 0.  1.
         21   -1    0    0  501  503 -0.00000000000E+00 -0.00000000000E+00 -0.68077922864E+02  0.68077922864E+02  0.00000000000E+00 0.  1.
          6    1    1    2  501    0 -0.24931540140E+02 -0.32633126358E+02  0.16005212354E+03  0.23851034543E+03  0.17200000000E+03 0. -1.
         -6    1    1    2    0  502  0.24931540140E+02  0.32633126358E+02  0.24213724048E+03  0.29983486431E+03  0.17200000000E+03 0. -1.
</event>
<event>
 4    1  0.1253776E+000  0.2066864E+03  0.7818608E-02  0.1144217E+00
         21   -1    0    0  501  502  0.00000000000E+00  0.00000000000E+00  0.10626345663E+04  0.10626345663E+04  0.00000000000E+00 0. -1.
         21   -1    0    0  502  503 -0.00000000000E+00 -0.00000000000E+00 -0.50776274314E+02  0.50776274314E+02  0.00000000000E+00 0. -1.
          6    1    1    2  501    0 -0.11460896501E+03 -0.21849312114E+00  0.75998853142E+03  0.78759242663E+03  0.17200000000E+03 0. -1.
         -6    1    1    2    0  503  0.11460896501E+03  0.21849312114E+00  0.25186976055E+03  0.32581841397E+03  0.17200000000E+03 0. -1.
</event>
<event>
 4    1  0.1253776E+000  0.2232280E+03  0.7818608E-02  0.1131499E+00
         21   -1    0    0  501  502  0.00000000000E+00  0.00000000000E+00  0.24313609199E+03  0.24313609199E+03  0.00000000000E+00 0.  1.
         21   -1    0    0  502  503 -0.00000000000E+00 -0.00000000000E+00 -0.24931811183E+03  0.24931811183E+03  0.00000000000E+00 0.  1.
          6    1    1    2  501    0 -0.78320885268E+02  0.11879645019E+03  0.10077993882E+03  0.24492315880E+03  0.17200000000E+03 0.  1.
         -6    1    1    2    0  503  0.78320885268E+02 -0.11879645019E+03 -0.10696195866E+03  0.24753104502E+03  0.17200000000E+03 0.  1.
</event>
<event>
 4    1  0.1253776E+000  0.4418119E+03  0.7818608E-02  0.1030192E+00
         21   -1    0    0  501  502  0.00000000000E+00  0.00000000000E+00  0.16917235319E+03  0.16917235319E+03  0.00000000000E+00 0. -1.
         21   -1    0    0  502  503 -0.00000000000E+00 -0.00000000000E+00 -0.15956468839E+04  0.15956468839E+04  0.00000000000E+00 0.  1.
          6    1    1    2  501    0 -0.29922289537E+03 -0.27582496339E+03 -0.24891629268E+03  0.50710656898E+03  0.17200000000E+03 0. -1.
         -6    1    1    2    0  503  0.29922289537E+03  0.27582496339E+03 -0.11775582380E+04  0.12577126681E+04  0.17200000000E+03 0.  1.
</event>
<event>
 4    1  0.1253776E+000  0.1817030E+03  0.7818608E-02  0.1166165E+00
         21   -1    0    0  503  502  0.00000000000E+00  0.00000000000E+00  0.10478773225E+03  0.10478773225E+03  0.00000000000E+00 0.  1.
         21   -1    0    0  501  503 -0.00000000000E+00 -0.00000000000E+00 -0.31836451520E+03  0.31836451520E+03  0.00000000000E+00 0.  1.
          6    1    1    2  501    0  0.58478801647E+02 -0.34951833990E+01 -0.12829517363E+03  0.22243119864E+03  0.17200000000E+03 0.  1.
         -6    1    1    2    0  502 -0.58478801647E+02  0.34951833990E+01 -0.85281609322E+02  0.20072104882E+03  0.17200000000E+03 0.  1.
</event>
<event>
 4    1  0.1253776E+000  0.2119105E+03  0.7818608E-02  0.1140062E+00
         21   -1    0    0  501  502  0.00000000000E+00  0.00000000000E+00  0.27931917122E+03  0.27931917122E+03  0.00000000000E+00 0. -1.
         21   -1    0    0  502  503 -0.00000000000E+00 -0.00000000000E+00 -0.16230956596E+03  0.16230956596E+03  0.00000000000E+00 0.  1.
          6    1    1    2  501    0 -0.51340724455E+02 -0.11263294209E+03  0.80012882615E+02  0.22651293786E+03  0.17200000000E+03 0.  1.
         -6    1    1    2    0  503  0.51340724455E+02  0.11263294209E+03  0.36996722645E+02  0.21511579932E+03  0.17200000000E+03 0.  1.
</event>
<event>
 4    1  0.1253776E+000  0.1849653E+03  0.7818608E-02  0.1163082E+00
         21   -1    0    0  503  502  0.00000000000E+00  0.00000000000E+00  0.62774828096E+03  0.62774828096E+03  0.00000000000E+00 0.  1.
         21   -1    0    0  501  503 -0.00000000000E+00 -0.00000000000E+00 -0.69574124399E+02  0.69574124399E+02  0.00000000000E+00 0.  1.
          6    1    1    2  501    0 -0.96801883018E-01  0.68030422825E+02  0.11679442502E+03  0.21875348115E+03  0.17200000000E+03 0.  1.
         -6    1    1    2    0  502  0.96801883018E-01 -0.68030422825E+02  0.44137973155E+03  0.47856892421E+03  0.17200000000E+03 0.  1.
</event>
<event>
 4    1  0.1253776E+000  0.2187358E+03  0.7818608E-02  0.1134829E+00
         21   -1    0    0  503  502  0.00000000000E+00  0.00000000000E+00  0.85311797179E+02  0.85311797179E+02  0.00000000000E+00 0. -1.
         21   -1    0    0  501  503 -0.00000000000E+00 -0.00000000000E+00 -0.57710623906E+03  0.57710623906E+03  0.00000000000E+00 0. -1.
          6    1    1    2  501    0  0.30309751550E+02  0.13169153339E+03 -0.30152130885E+03  0.37250562506E+03  0.17200000000E+03 0. -1.
         -6    1    1    2    0  502 -0.30309751550E+02 -0.13169153339E+03 -0.19027313303E+03  0.28991241118E+03  0.17200000000E+03 0. -1.
</event>
<event>
 4    1  0.1253776E+000  0.1865435E+03  0.7818608E-02  0.1161616E+00
         21   -1    0    0  501  502  0.00000000000E+00  0.00000000000E+00  0.25821466033E+03  0.25821466033E+03  0.00000000000E+00 0.  1.
         21   -1    0    0  502  503 -0.00000000000E+00 -0.00000000000E+00 -0.13595393369E+03  0.13595393369E+03  0.00000000000E+00 0.  1.
          6    1    1    2  501    0 -0.12751489472E+02 -0.71076637287E+02  0.79555062728E+02  0.20279915399E+03  0.17200000000E+03 0.  1.
         -6    1    1    2    0  503  0.12751489472E+02  0.71076637287E+02  0.42705663910E+02  0.19136944004E+03  0.17200000000E+03 0.  1.
</event>
<event>
 4    1  0.1253776E+000  0.2272143E+03  0.7818608E-02  0.1128616E+00
         21   -1    0    0  501  502  0.00000000000E+00  0.00000000000E+00  0.28489875060E+03  0.28489875060E+03  0.00000000000E+00 0.  1.
         21   -1    0    0  502  503 -0.00000000000E+00 -0.00000000000E+00 -0.58135998193E+03  0.58135998193E+03  0.00000000000E+00 0.  1.
          6    1    1    2  501    0 -0.77346494974E+01 -0.14826503081E+03  0.21111037910E+03  0.31015147320E+03  0.17200000000E+03 0.  1.
         -6    1    1    2    0  503  0.77346494974E+01  0.14826503081E+03 -0.50757161043E+03  0.55610725933E+03  0.17200000000E+03 0.  1.
</event>
<event>
 4    1  0.1253776E+000  0.2068181E+03  0.7818608E-02  0.1144111E+00
         21   -1    0    0  503  502  0.00000000000E+00  0.00000000000E+00  0.14367460038E+03  0.14367460038E+03  0.00000000000E+00 0. -1.
         21   -1    0    0  501  503 -0.00000000000E+00 -0.00000000000E+00 -0.37604039226E+03  0.37604039226E+03  0.00000000000E+00 0. -1.
          6    1    1    2  501    0 -0.38387887678E+02 -0.10824087559E+03 -0.23478062252E+03  0.31288281797E+03  0.17200000000E+03 0. -1.
         -6    1    1    2    0  502  0.38387887678E+02  0.10824087559E+03  0.24148306389E+01  0.20683217467E+03  0.17200000000E+03 0. -1.
</event>
<event>
 4    1  0.1253776E+000  0.1742548E+03  0.7818608E-02  0.1173482E+00
         21   -1    0    0  503  502  0.00000000000E+00  0.00000000000E+00  0.13164102210E+03  0.13164102210E+03  0.00000000000E+00 0.  1.
         21   -1    0    0  501  503 -0.00000000000E+00 -0.00000000000E+00 -0.25910906935E+03  0.25910906935E+03  0.00000000000E+00 0.  1.
          6    1    1    2  501    0  0.92884051966E+01 -0.26352926808E+02 -0.12846865896E+03  0.21649237298E+03  0.17200000000E+03 0.  1.
         -6    1    1    2    0  502 -0.92884051966E+01  0.26352926808E+02  0.10006117139E+01  0.17425771847E+03  0.17200000000E+03 0.  1.
</event>
<event>
 4    1  0.1253776E+000  0.1939935E+03  0.7818608E-02  0.1154908E+00
         21   -1    0    0  503  502  0.00000000000E+00  0.00000000000E+00  0.66935086927E+03  0.66935086927E+03  0.00000000000E+00 0.  1.
         21   -1    0    0  501  503 -0.00000000000E+00 -0.00000000000E+00 -0.75112909359E+02  0.75112909359E+02  0.00000000000E+00 0.  1.
          6    1    1    2  501    0 -0.87594248914E+02  0.19409289409E+02  0.11045452754E+03  0.22323457531E+03  0.17200000000E+03 0.  1.
         -6    1    1    2    0  502  0.87594248914E+02 -0.19409289409E+02  0.48378343237E+03  0.52122920332E+03  0.17200000000E+03 0.  1.
</event>
<event>
 4    1  0.1253776E+000  0.3445483E+03  0.7818608E-02  0.1064875E+00
         21   -1    0    0  503  502  0.00000000000E+00  0.00000000000E+00  0.90386844248E+03  0.90386844248E+03  0.00000000000E+00 0.  1.
         21   -1    0    0  501  503 -0.00000000000E+00 -0.00000000000E+00 -0.14628238015E+03  0.14628238015E+03  0.00000000000E+00 0.  1.
          6    1    1    2  501    0  0.16862343628E+03 -0.24636492062E+03  0.21097280321E+03  0.40400873886E+03  0.17200000000E+03 0. -1.
         -6    1    1    2    0  502 -0.16862343628E+03  0.24636492062E+03  0.54661325912E+03  0.64614208377E+03  0.17200000000E+03 0. -1.
</event>
<event>
 4    1  0.1253776E+000  0.1788259E+03  0.7818608E-02  0.1168944E+00
         21   -1    0    0  503  502  0.00000000000E+00  0.00000000000E+00  0.19813049056E+03  0.19813049056E+03  0.00000000000E+00 0. -1.
         21   -1    0    0  501  503 -0.00000000000E+00 -0.00000000000E+00 -0.19557005197E+03  0.19557005197E+03  0.00000000000E+00 0. -1.
          6    1    1    2  501    0 -0.48294671672E+02  0.78949271638E+01  0.83560055776E+02  0.19738537967E+03  0.17200000000E+03 0. -1.
         -6    1    1    2    0  502  0.48294671672E+02 -0.78949271638E+01 -0.80999617183E+02  0.19631516287E+03  0.17200000000E+03 0. -1.
</event>
<event>
 4    1  0.1253776E+000  0.3202903E+03  0.7818608E-02  0.1075516E+00
         21   -1    0    0  501  502  0.00000000000E+00  0.00000000000E+00  0.36773957987E+03  0.36773957987E+03  0.00000000000E+00 0.  1.
         21   -1    0    0  502  503 -0.00000000000E+00 -0.00000000000E+00 -0.32657538434E+03  0.32657538434E+03  0.00000000000E+00 0. -1.
          6    1    1    2  501    0  0.13118276749E+03 -0.23620536128E+03  0.15313610227E+03  0.35501627709E+03  0.17200000000E+03 0. -1.
         -6    1    1    2    0  503 -0.13118276749E+03  0.23620536128E+03 -0.11197190674E+03  0.33929868712E+03  0.17200000000E+03 0. -1.
</event>
<event>
 4    1  0.1253776E+000  0.1971735E+03  0.7818608E-02  0.1152146E+00
         21   -1    0    0  501  502  0.00000000000E+00  0.00000000000E+00  0.19613872091E+03  0.19613872091E+03  0.00000000000E+00 0. -1.
         21   -1    0    0  502  503 -0.00000000000E+00 -0.00000000000E+00 -0.31046312067E+03  0.31046312067E+03  0.00000000000E+00 0. -1.
          6    1    1    2  501    0  0.96234023429E+02  0.56913029421E+01  0.95146196935E+02  0.21892961651E+03  0.17200000000E+03 0. -1.
         -6    1    1    2    0  503 -0.96234023429E+02 -0.56913029421E+01 -0.20947059670E+03  0.28767222507E+03  0.17200000000E+03 0. -1.
</event>
<event>
 4    1  0.1253776E+000  0.1793857E+03  0.7818608E-02  0.1168399E+00
         21   -1    0    0  501  502  0.00000000000E+00  0.00000000000E+00  0.14003416773E+04  0.14003416773E+04  0.00000000000E+00 0.  1.
         21   -1    0    0  502  503 -0.00000000000E+00 -0.00000000000E+00 -0.29371985368E+02  0.29371985368E+02  0.00000000000E+00 0.  1.
          6    1    1    2  501    0  0.29156124127E+02  0.41774985872E+02  0.10189768402E+04  0.10346463308E+04  0.17200000000E+03 0.  1.
         -6    1    1    2    0  503 -0.29156124127E+02 -0.41774985872E+02  0.35199285170E+03  0.39506733181E+03  0.17200000000E+03 0.  1.
</event>
<event>
 4    1  0.1253776E+000  0.3465663E+03  0.7818608E-02  0.1064033E+00
         21   -1    0    0  503  502  0.00000000000E+00  0.00000000000E+00  0.45691931209E+03  0.45691931209E+03  0.00000000000E+00 0. -1.
         21   -1    0    0  501  503 -0.00000000000E+00 -0.00000000000E+00 -0.30324450710E+03  0.30324450710E+03  0.00000000000E+00 0. -1.
          6    1    1    2  501    0 -0.72601058124E+02  0.29198165337E+03  0.21553214668E+03  0.40812045501E+03  0.17200000000E+03 0. -1.
         -6    1    1    2    0  502  0.72601058124E+02 -0.29198165337E+03 -0.61857341686E+02  0.35204336418E+03  0.17200000000E+03 0. -1.
</event>
<event>
 4    1  0.1253776E+000  0.2875974E+03  0.7818608E-02  0.1091610E+00
         21   -1    0    0  501  502  0.00000000000E+00  0.00000000000E+00  0.97695752211E+02  0.97695752211E+02  0.00000000000E+00 0. -1.
         21   -1    0    0  502  503 -0.00000000000E+00 -0.00000000000E+00 -0.92056021228E+03  0.92056021228E+03  0.00000000000E+00 0.  1.
          6    1    1    2  501    0  0.21424224737E+03  0.85020636936E+02 -0.26715127766E+03  0.39253287049E+03  0.17200000000E+03 0. -1.
         -6    1    1    2    0  503 -0.21424224737E+03 -0.85020636936E+02 -0.55571318241E+03  0.62572309400E+03  0.17200000000E+03 0. -1.
</event>
<event>
 4    1  0.1253776E+000  0.2007404E+03  0.7818608E-02  0.1149116E+00
         21   -1    0    0  503  502  0.00000000000E+00  0.00000000000E+00  0.16922222285E+03  0.16922222285E+03  0.00000000000E+00 0.  1.
         21   -1    0    0  501  503 -0.00000000000E+00 -0.00000000000E+00 -0.23814361875E+03  0.23814361875E+03  0.00000000000E+00 0.  1.
          6    1    1    2  501    0 -0.95821075156E+02  0.39128291705E+02 -0.32859365135E+02  0.20341199457E+03  0.17200000000E+03 0.  1.
         -6    1    1    2    0  502  0.95821075156E+02 -0.39128291705E+02 -0.36062030763E+02  0.20395384703E+03  0.17200000000E+03 0.  1.
</event>
<event>
 4    1  0.1253776E+000  0.2323373E+03  0.7818608E-02  0.1125005E+00
         21   -1    0    0  501  502  0.00000000000E+00  0.00000000000E+00  0.51765189040E+03  0.51765189040E+03  0.00000000000E+00 0.  1.
         21   -1    0    0  502  503 -0.00000000000E+00 -0.00000000000E+00 -0.10628923444E+03  0.10628923444E+03  0.00000000000E+00 0. -1.
          6    1    1    2  501    0  0.11635004466E+02 -0.15576015211E+03  0.16278563571E+03  0.28368955128E+03  0.17200000000E+03 0. -1.
         -6    1    1    2    0  503 -0.11635004466E+02  0.15576015211E+03  0.24857702024E+03  0.34025157356E+03  0.17200000000E+03 0.  1.
</event>
<event>
 4    1  0.1253776E+000  0.2235533E+03  0.7818608E-02  0.1131261E+00
         21   -1    0    0  501  502  0.00000000000E+00  0.00000000000E+00  0.39361094743E+03  0.39361094743E+03  0.00000000000E+00 0. -1.
         21   -1    0    0  502  503 -0.00000000000E+00 -0.00000000000E+00 -0.21191299161E+03  0.21191299161E+03  0.00000000000E+00 0.  1.
          6    1    1    2  501    0 -0.18291508317E+01  0.14278910828E+03  0.28253519945E+03  0.36028074354E+03  0.17200000000E+03 0. -1.
         -6    1    1    2    0  503  0.18291508317E+01 -0.14278910828E+03 -0.10083724362E+03  0.24524319550E+03  0.17200000000E+03 0.  1.
</event>
<event>
 4    1  0.1253776E+000  0.1819896E+03  0.7818608E-02  0.1165891E+00
         21   -1    0    0  501  502  0.00000000000E+00  0.00000000000E+00  0.58813843686E+03  0.58813843686E+03  0.00000000000E+00 0. -1.
         21   -1    0    0  502  503 -0.00000000000E+00 -0.00000000000E+00 -0.69443889236E+02  0.69443889236E+02  0.00000000000E+00 0. -1.
          6    1    1    2  501    0  0.16870346857E+02 -0.57022957956E+02  0.40231543076E+03  0.44156305571E+03  0.17200000000E+03 0. -1.
         -6    1    1    2    0  503 -0.16870346857E+02  0.57022957956E+02  0.11637911686E+03  0.21601927039E+03  0.17200000000E+03 0. -1.
</event>
<event>
 4    1  0.1253776E+000  0.2338747E+03  0.7818608E-02  0.1123942E+00
         21   -1    0    0  503  502  0.00000000000E+00  0.00000000000E+00  0.64371246586E+03  0.64371246586E+03  0.00000000000E+00 0. -1.
         21   -1    0    0  501  503 -0.00000000000E+00 -0.00000000000E+00 -0.14545672791E+03  0.14545672791E+03  0.00000000000E+00 0.  1.
          6    1    1    2  501    0 -0.30113414475E+02 -0.15558452519E+03 -0.53189665743E+01  0.23393514831E+03  0.17200000000E+03 0.  1.
         -6    1    1    2    0  502  0.30113414475E+02  0.15558452519E+03  0.50357470452E+03  0.55523404547E+03  0.17200000000E+03 0. -1.
</event>
<event>
 4    1  0.1253776E+000  0.2323799E+03  0.7818608E-02  0.1124976E+00
         21   -1    0    0  503  502  0.00000000000E+00  0.00000000000E+00  0.48278727092E+03  0.48278727092E+03  0.00000000000E+00 0. -1.
         21   -1    0    0  501  503 -0.00000000000E+00 -0.00000000000E+00 -0.20665652442E+03  0.20665652442E+03  0.00000000000E+00 0.  1.
          6    1    1    2  501    0  0.29655529539E+02  0.15341755917E+03 -0.95420376784E+02  0.25120797400E+03  0.17200000000E+03 0.  1.
         -6    1    1    2    0  502 -0.29655529539E+02 -0.15341755917E+03  0.37155112328E+03  0.43823582134E+03  0.17200000000E+03 0. -1.
</event>
<event>
 4    1  0.1253776E+000  0.1767339E+03  0.7818608E-02  0.1171002E+00
         21   -1    0    0  501  502  0.00000000000E+00  0.00000000000E+00  0.24223216197E+03  0.24223216197E+03  0.00000000000E+00 0. -1.
         21   -1    0    0  502  503 -0.00000000000E+00 -0.00000000000E+00 -0.14432269166E+03  0.14432269166E+03  0.00000000000E+00 0. -1.
          6    1    1    2  501    0  0.37189944386E+02  0.16363845671E+02  0.11204252794E+03  0.20925676925E+03  0.17200000000E+03 0. -1.
         -6    1    1    2    0  503 -0.37189944386E+02 -0.16363845671E+02 -0.14133057633E+02  0.17729808439E+03  0.17200000000E+03 0. -1.
</event>
<event>
 4    1  0.1253776E+000  0.5764107E+03  0.7818608E-02  0.9955592E-01
         21   -1    0    0  503  502  0.00000000000E+00  0.00000000000E+00  0.14506508801E+04  0.14506508801E+04  0.00000000000E+00 0. -1.
         21   -1    0    0  501  503 -0.00000000000E+00 -0.00000000000E+00 -0.22993926267E+03  0.22993926267E+03  0.00000000000E+00 0.  1.
          6    1    1    2  501    0 -0.36328077478E+03 -0.41314926872E+03  0.55764868387E+03  0.80201078184E+03  0.17200000000E+03 0.  1.
         -6    1    1    2    0  502  0.36328077478E+03  0.41314926872E+03  0.66306293356E+03  0.87857936092E+03  0.17200000000E+03 0. -1.
</event>
<event>
 4    1  0.1253776E+000  0.2148990E+03  0.7818608E-02  0.1137744E+00
         21   -1    0    0  503  502  0.00000000000E+00  0.00000000000E+00  0.88875539572E+03  0.88875539572E+03  0.00000000000E+00 0. -1.
         21   -1    0    0  501  503 -0.00000000000E+00 -0.00000000000E+00 -0.62843689698E+02  0.62843689698E+02  0.00000000000E+00 0.  1.
          6    1    1    2  501    0  0.87430620657E+02 -0.94622838211E+02  0.61094409359E+03  0.64763746064E+03  0.17200000000E+03 0. -1.
         -6    1    1    2    0  502 -0.87430620657E+02  0.94622838211E+02  0.21496761243E+03  0.30396162477E+03  0.17200000000E+03 0. -1.
</event>
<event>
 4    1  0.1253776E+000  0.1962379E+03  0.7818608E-02  0.1152952E+00
         21   -1    0    0  503  502  0.00000000000E+00  0.00000000000E+00  0.29695429019E+03  0.29695429019E+03  0.00000000000E+00 0.  1.
         21   -1    0    0  501  503 -0.00000000000E+00 -0.00000000000E+00 -0.22692555424E+03  0.22692555424E+03  0.00000000000E+00 0.  1.
          6    1    1    2  501    0 -0.69920193334E+02  0.63533335490E+02 -0.13645743747E+03  0.23901872394E+03  0.17200000000E+03 0.  1.
         -6    1    1    2    0  502  0.69920193334E+02 -0.63533335490E+02  0.20648617342E+03  0.28486112049E+03  0.17200000000E+03 0.  1.
</event>
<event>
 4    1  0.1253776E+000  0.2029361E+03  0.7818608E-02  0.1147285E+00
         21   -1    0    0  501  502  0.00000000000E+00  0.00000000000E+00  0.29725722437E+03  0.29725722437E+03  0.00000000000E+00 0. -1.
         21   -1    0    0  502  503 -0.00000000000E+00 -0.00000000000E+00 -0.13924748602E+03  0.13924748602E+03  0.00000000000E+00 0. -1.
          6    1    1    2  501    0 -0.10674255633E+03  0.14320420652E+02  0.94523595715E+02  0.22386995762E+03  0.17200000000E+03 0. -1.
         -6    1    1    2    0  503  0.10674255633E+03 -0.14320420652E+02  0.63486142635E+02  0.21263475277E+03  0.17200000000E+03 0. -1.
</event>
<event>
 4    1  0.1253776E+000  0.2263807E+03  0.7818608E-02  0.1129213E+00
         21   -1    0    0  503  502  0.00000000000E+00  0.00000000000E+00  0.11583342743E+03  0.11583342743E+03  0.00000000000E+00 0. -1.
         21   -1    0    0  501  503 -0.00000000000E+00 -0.00000000000E+00 -0.50069479874E+03  0.50069479874E+03  0.00000000000E+00 0. -1.
          6    1    1    2  501    0  0.86974559064E+02  0.11874192653E+03 -0.29758773803E+03  0.37390731588E+03  0.17200000000E+03 0. -1.
         -6    1    1    2    0  502 -0.86974559064E+02 -0.11874192653E+03 -0.87273633280E+02  0.24262091028E+03  0.17200000000E+03 0. -1.
</event>
<event>
 4    1  0.1253776E+000  0.2054237E+03  0.7818608E-02  0.1145242E+00
         21   -1    0    0  503  502  0.00000000000E+00  0.00000000000E+00  0.19511229727E+03  0.19511229727E+03  0.00000000000E+00 0.  1.
         21   -1    0    0  501  503 -0.00000000000E+00 -0.00000000000E+00 -0.27294719034E+03  0.27294719034E+03  0.00000000000E+00 0. -1.
          6    1    1    2  501    0  0.98426191598E+02  0.54103421834E+02 -0.14555187120E+03  0.25176227409E+03  0.17200000000E+03 0. -1.
         -6    1    1    2    0  502 -0.98426191598E+02 -0.54103421834E+02  0.67716978130E+02  0.21629721351E+03  0.17200000000E+03 0.  1.
</event>
<event>
 4    1  0.1253776E+000  0.1803577E+03  0.7818608E-02  0.1167457E+00
         21   -1    0    0  503  502  0.00000000000E+00  0.00000000000E+00  0.57621761394E+03  0.57621761394E+03  0.00000000000E+00 0. -1.
         21   -1    0    0  501  503 -0.00000000000E+00 -0.00000000000E+00 -0.68226315194E+02  0.68226315194E+02  0.00000000000E+00 0. -1.
          6    1    1    2  501    0 -0.48266895776E+02 -0.24803418399E+02  0.38785185080E+03  0.42773585419E+03  0.17200000000E+03 0. -1.
         -6    1    1    2    0  502  0.48266895776E+02  0.24803418399E+02  0.12013944794E+03  0.21670807494E+03  0.17200000000E+03 0. -1.
</event>
<event>
 4    1  0.1253776E+000  0.1823953E+03  0.7818608E-02  0.1165505E+00
         21   -1    0    0  501  502  0.00000000000E+00  0.00000000000E+00  0.22459818361E+04  0.22459818361E+04  0.00000000000E+00 0.  1.
         21   -1    0    0  502  503 -0.00000000000E+00 -0.00000000000E+00 -0.26592532645E+02  0.26592532645E+02  0.00000000000E+00 0.  1.
          6    1    1    2  501    0 -0.29768066168E+02 -0.52895410777E+02  0.18659804885E+04  0.18748736612E+04  0.17200000000E+03 0.  1.
         -6    1    1    2    0  503  0.29768066168E+02  0.52895410777E+02  0.35340881498E+03  0.39770070751E+03  0.17200000000E+03 0.  1.
</event>
<event>
 4    1  0.1253776E+000  0.2495169E+03  0.7818608E-02  0.1113610E+00
         21   -1    0    0  501  502  0.00000000000E+00  0.00000000000E+00  0.21030848037E+03  0.21030848037E+03  0.00000000000E+00 0.  1.
         21   -1    0    0  502  503 -0.00000000000E+00 -0.00000000000E+00 -0.30923983152E+03  0.30923983152E+03  0.00000000000E+00 0. -1.
          6    1    1    2  501    0  0.17377603497E+03 -0.49765318608E+02  0.42143366086E+01  0.24955251531E+03  0.17200000000E+03 0.  1.
         -6    1    1    2    0  503 -0.17377603497E+03  0.49765318608E+02 -0.10314568775E+03  0.26999579657E+03  0.17200000000E+03 0. -1.
</event>
<event>
 4    1  0.1253776E+000  0.2035442E+03  0.7818608E-02  0.1146783E+00
         21   -1    0    0  503  502  0.00000000000E+00  0.00000000000E+00  0.16325537856E+04  0.16325537856E+04  0.00000000000E+00 0. -1.
         21   -1    0    0  501  503 -0.00000000000E+00 -0.00000000000E+00 -0.38750254364E+02  0.38750254364E+02  0.00000000000E+00 0.  1.
          6    1    1    2  501    0  0.10052799599E+03  0.41717676129E+02  0.30599666994E+03  0.36751082228E+03  0.17200000000E+03 0.  1.
         -6    1    1    2    0  502 -0.10052799599E+03 -0.41717676129E+02  0.12878068613E+04  0.13037932177E+04  0.17200000000E+03 0. -1.
</event>
<event>
 4    1  0.1253776E+000  0.1759854E+03  0.7818608E-02  0.1171746E+00
         21   -1    0    0  503  502  0.00000000000E+00  0.00000000000E+00  0.45026826941E+02  0.45026826941E+02  0.00000000000E+00 0. -1.
         21   -1    0    0  501  503 -0.00000000000E+00 -0.00000000000E+00 -0.69434926432E+03  0.69434926432E+03  0.00000000000E+00 0.  1.
          6    1    1    2  501    0 -0.10958697793E+02 -0.35591797259E+02 -0.36047880818E+03  0.40114316676E+03  0.17200000000E+03 0. -1.
         -6    1    1    2    0  502  0.10958697793E+02  0.35591797259E+02 -0.28884362920E+03  0.33823292450E+03  0.17200000000E+03 0. -1.
</event>
<event>
 4    1  0.1253776E+000  0.2061076E+03  0.7818608E-02  0.1144686E+00
         21   -1    0    0  503  502  0.00000000000E+00  0.00000000000E+00  0.34376126347E+03  0.34376126347E+03  0.00000000000E+00 0. -1.
         21   -1    0    0  501  503 -0.00000000000E+00 -0.00000000000E+00 -0.24675942243E+03  0.24675942243E+03  0.00000000000E+00 0. -1.
          6    1    1    2  501    0 -0.56735057798E+02 -0.98374102036E+02 -0.16011429264E+03  0.26099217889E+03  0.17200000000E+03 0.  1.
         -6    1    1    2    0  502  0.56735057798E+02  0.98374102036E+02  0.25711613368E+03  0.32952850701E+03  0.17200000000E+03 0.  1.
</event>
<event>
 4    1  0.1253776E+000  0.2156882E+03  0.7818608E-02  0.1137139E+00
         21   -1    0    0  503  502  0.00000000000E+00  0.00000000000E+00  0.54138415131E+03  0.54138415131E+03  0.00000000000E+00 0. -1.
         21   -1    0    0  501  503 -0.00000000000E+00 -0.00000000000E+00 -0.19255350796E+03  0.19255350796E+03  0.00000000000E+00 0.  1.
          6    1    1    2  501    0 -0.55734089612E+02 -0.11760568833E+03 -0.98657837851E+02  0.23718085007E+03  0.17200000000E+03 0.  1.
         -6    1    1    2    0  502  0.55734089612E+02  0.11760568833E+03  0.44748848120E+03  0.49675680920E+03  0.17200000000E+03 0. -1.
</event>
<event>
 4    1  0.1253776E+000  0.2446637E+03  0.7818608E-02  0.1116724E+00
         21   -1    0    0  503  502  0.00000000000E+00  0.00000000000E+00  0.55989670369E+03  0.55989670369E+03  0.00000000000E+00 0.  1.
         21   -1    0    0  501  503 -0.00000000000E+00 -0.00000000000E+00 -0.11647293852E+03  0.11647293852E+03  0.00000000000E+00 0. -1.
          6    1    1    2  501    0  0.10755197840E+03  0.13678045761E+03  0.31859892113E+03  0.40170336592E+03  0.17200000000E+03 0.  1.
         -6    1    1    2    0  502 -0.10755197840E+03 -0.13678045761E+03  0.12482484404E+03  0.27466627629E+03  0.17200000000E+03 0. -1.
</event>
<event>
 4    1  0.1253776E+000  0.1867876E+03  0.7818608E-02  0.1161391E+00
         21   -1    0    0  503  502  0.00000000000E+00  0.00000000000E+00  0.41532134068E+03  0.41532134068E+03  0.00000000000E+00 0. -1.
         21   -1    0    0  501  503 -0.00000000000E+00 -0.00000000000E+00 -0.90638916599E+02  0.90638916599E+02  0.00000000000E+00 0. -1.
          6    1    1    2  501    0 -0.47801413687E+02 -0.54960418890E+02  0.23077497586E+03  0.29689512000E+03  0.17200000000E+03 0. -1.
         -6    1    1    2    0  502  0.47801413687E+02  0.54960418890E+02  0.93907448219E+02  0.20906513728E+03  0.17200000000E+03 0. -1.
</event>
<event>
 4    1  0.1253776E+000  0.2461407E+03  0.7818608E-02  0.1115768E+00
         21   -1    0    0  501  502  0.00000000000E+00  0.00000000000E+00  0.66685206430E+03  0.66685206430E+03  0.00000000000E+00 0. -1.
         21   -1    0    0  502  503 -0.00000000000E+00 -0.00000000000E+00 -0.11525919404E+03  0.11525919404E+03  0.00000000000E+00 0. -1.
          6    1    1    2  501    0 -0.10098782957E+03  0.14423141435E+03  0.95845396320E+02  0.26414311008E+03  0.17200000000E+03 0.  1.
         -6    1    1    2    0  503  0.10098782957E+03 -0.14423141435E+03  0.45574747394E+03  0.51796814826E+03  0.17200000000E+03 0.  1.
</event>
<event>
 4    1  0.1253776E+000  0.1902522E+03  0.7818608E-02  0.1158234E+00
         21   -1    0    0  503  502  0.00000000000E+00  0.00000000000E+00  0.13164270098E+04  0.13164270098E+04  0.00000000000E+00 0. -1.
         21   -1    0    0  501  503 -0.00000000000E+00 -0.00000000000E+00 -0.40147401986E+02  0.40147401986E+02  0.00000000000E+00 0. -1.
          6    1    1    2  501    0  0.48895308151E+02 -0.64970255614E+02  0.10189091213E+04  0.10365190219E+04  0.17200000000E+03 0. -1.
         -6    1    1    2    0  502 -0.48895308151E+02  0.64970255614E+02  0.25737048652E+03  0.32005538990E+03  0.17200000000E+03 0. -1.
</event>
<event>
 4    1  0.1253776E+000  0.2196561E+03  0.7818608E-02  0.1134140E+00
         21   -1    0    0  501  502  0.00000000000E+00  0.00000000000E+00  0.24555187397E+04  0.24555187397E+04  0.00000000000E+00 0.  1.
         21   -1    0    0  502  503 -0.00000000000E+00 -0.00000000000E+00 -0.22606863717E+02  0.22606863717E+02  0.00000000000E+00 0. -1.
          6    1    1    2  501    0 -0.68250663210E+02  0.11834973397E+03  0.16646359964E+04  0.16790657560E+04  0.17200000000E+03 0.  1.
         -6    1    1    2    0  503  0.68250663210E+02 -0.11834973397E+03  0.76827587961E+03  0.79905984741E+03  0.17200000000E+03 0.  1.
</event>
<event>
 4    1  0.1253776E+000  0.2887356E+03  0.7818608E-02  0.1091011E+00
         21   -1    0    0  503  502  0.00000000000E+00  0.00000000000E+00  0.10449501244E+04  0.10449501244E+04  0.00000000000E+00 0. -1.
         21   -1    0    0  501  503 -0.00000000000E+00 -0.00000000000E+00 -0.13068274009E+03  0.13068274009E+03  0.00000000000E+00 0.  1.
          6    1    1    2  501    0  0.22863324805E+03 -0.38872809851E+02  0.90278673581E+02  0.30252024125E+03  0.17200000000E+03 0. -1.
         -6    1    1    2    0  502 -0.22863324805E+03  0.38872809851E+02  0.82398871070E+03  0.87311262321E+03  0.17200000000E+03 0. -1.
</event>
<event>
 4    1  0.1253776E+000  0.2091356E+03  0.7818608E-02  0.1142252E+00
         21   -1    0    0  503  502  0.00000000000E+00  0.00000000000E+00  0.27210300384E+03  0.27210300384E+03  0.00000000000E+00 0. -1.
         21   -1    0    0  501  503 -0.00000000000E+00 -0.00000000000E+00 -0.16133641523E+03  0.16133641523E+03  0.00000000000E+00 0. -1.
          6    1    1    2  501    0 -0.22228221183E+02  0.11687432489E+03  0.42201109244E+02  0.21335096732E+03  0.17200000000E+03 0. -1.
         -6    1    1    2    0  502  0.22228221183E+02 -0.11687432489E+03  0.68565479359E+02  0.22008845175E+03  0.17200000000E+03 0. -1.
</event>
<event>
 4    1  0.1253776E+000  0.2104632E+03  0.7818608E-02  0.1141200E+00
         21   -1    0    0  501  502  0.00000000000E+00  0.00000000000E+00  0.84879875473E+02  0.84879875473E+02  0.00000000000E+00 0.  1.
         21   -1    0    0  502  503 -0.00000000000E+00 -0.00000000000E+00 -0.15526524415E+04  0.15526524415E+04  0.00000000000E+00 0. -1.
          6    1    1    2  501    0 -0.10751122475E+03  0.56143574393E+02 -0.66757039726E+02  0.22079689025E+03  0.17200000000E+03 0.  1.
         -6    1    1    2    0  503  0.10751122475E+03 -0.56143574393E+02 -0.14010155263E+04  0.14167354267E+04  0.17200000000E+03 0. -1.
</event>
<event>
 4    1  0.1253776E+000  0.1906282E+03  0.7818608E-02  0.1157896E+00
         21   -1    0    0  503  502  0.00000000000E+00  0.00000000000E+00  0.99778054899E+02  0.99778054899E+02  0.00000000000E+00 0. -1.
         21   -1    0    0  501  503 -0.00000000000E+00 -0.00000000000E+00 -0.57586210603E+03  0.57586210603E+03  0.00000000000E+00 0. -1.
          6    1    1    2  501    0 -0.81674953589E+02 -0.91824714594E+01 -0.44285067759E+03  0.48213674250E+03  0.17200000000E+03 0. -1.
         -6    1    1    2    0  502  0.81674953589E+02  0.91824714594E+01 -0.33233373537E+02  0.19350341843E+03  0.17200000000E+03 0. -1.
</event>
<event>
 4    1  0.1253776E+000  0.1888379E+03  0.7818608E-02  0.1159514E+00
         21   -1    0    0  501  502  0.00000000000E+00  0.00000000000E+00  0.21288831043E+03  0.21288831043E+03  0.00000000000E+00 0. -1.
         21   -1    0    0  502  503 -0.00000000000E+00 -0.00000000000E+00 -0.16943768102E+03  0.16943768102E+03  0.00000000000E+00 0. -1.
          6    1    1    2  501    0  0.47681527310E+02 -0.61662261367E+02  0.42144033046E+02  0.19348354464E+03  0.17200000000E+03 0.  1.
         -6    1    1    2    0  503 -0.47681527310E+02  0.61662261367E+02  0.13065963565E+01  0.18884244681E+03  0.17200000000E+03 0.  1.
</event>
<event>
 4    1  0.1253776E+000  0.1720685E+03  0.7818608E-02  0.1175708E+00
         21   -1    0    0  503  502  0.00000000000E+00  0.00000000000E+00  0.10290527483E+03  0.10290527483E+03  0.00000000000E+00 0. -1.
         21   -1    0    0  501  503 -0.00000000000E+00 -0.00000000000E+00 -0.54390816901E+03  0.54390816901E+03  0.00000000000E+00 0. -1.
          6    1    1    2  501    0 -0.26445733150E+01  0.40723841444E+01 -0.44245826237E+03  0.47473876187E+03  0.17200000000E+03 0. -1.
         -6    1    1    2    0  502  0.26445733150E+01 -0.40723841444E+01  0.14553681885E+01  0.17207468198E+03  0.17200000000E+03 0. -1.
</event>
<event>
 4    1  0.1253776E+000  0.2051307E+03  0.7818608E-02  0.1145481E+00
         21   -1    0    0  503  502  0.00000000000E+00  0.00000000000E+00  0.31319411405E+03  0.31319411405E+03  0.00000000000E+00 0.  1.
         21   -1    0    0  501  503 -0.00000000000E+00 -0.00000000000E+00 -0.14749090292E+03  0.14749090292E+03  0.00000000000E+00 0.  1.
          6    1    1    2  501    0  0.25157512534E+02  0.10891144912E+03  0.14104782729E+02  0.20561505072E+03  0.17200000000E+03 0.  1.
         -6    1    1    2    0  502 -0.25157512534E+02 -0.10891144912E+03  0.15159842841E+03  0.25506996625E+03  0.17200000000E+03 0.  1.
</event>
<event>
 4    1  0.1253776E+000  0.1725351E+03  0.7818608E-02  0.1175230E+00
         21   -1    0    0  503  502  0.00000000000E+00  0.00000000000E+00  0.58443306435E+03  0.58443306435E+03  0.00000000000E+00 0.  1.
         21   -1    0    0  501  503 -0.00000000000E+00 -0.00000000000E+00 -0.10302164619E+03  0.10302164619E+03  0.00000000000E+00 0.  1.
          6    1    1    2  501    0  0.12537261563E+02  0.52120063700E+01 -0.36999565539E+01  0.17257473053E+03  0.17200000000E+03 0.  1.
         -6    1    1    2    0  502 -0.12537261563E+02 -0.52120063700E+01  0.48511137472E+03  0.51487998001E+03  0.17200000000E+03 0.  1.
</event>
<event>
 4    1  0.1253776E+000  0.2358920E+03  0.7818608E-02  0.1122560E+00
         21   -1    0    0  501  502  0.00000000000E+00  0.00000000000E+00  0.22485461698E+03  0.22485461698E+03  0.00000000000E+00 0.  1.
         21   -1    0    0  502  503 -0.00000000000E+00 -0.00000000000E+00 -0.71495217262E+03  0.71495217262E+03  0.00000000000E+00 0. -1.
          6    1    1    2  501    0 -0.14378508600E+03 -0.73395304131E+02  0.13492366314E+03  0.27175249125E+03  0.17200000000E+03 0.  1.
         -6    1    1    2    0  503  0.14378508600E+03  0.73395304131E+02 -0.62502121878E+03  0.66805429835E+03  0.17200000000E+03 0. -1.
</event>
<event>
 4    1  0.1253776E+000  0.1997549E+03  0.7818608E-02  0.1149946E+00
         21   -1    0    0  501  502  0.00000000000E+00  0.00000000000E+00  0.10126658286E+04  0.10126658286E+04  0.00000000000E+00 0.  1.
         21   -1    0    0  502  503 -0.00000000000E+00 -0.00000000000E+00 -0.46524306586E+02  0.46524306586E+02  0.00000000000E+00 0.  1.
          6    1    1    2  501    0  0.91467819511E+02 -0.44177374461E+02  0.69026892521E+03  0.71859111568E+03  0.17200000000E+03 0.  1.
         -6    1    1    2    0  503 -0.91467819511E+02  0.44177374461E+02  0.27587259679E+03  0.34059901949E+03  0.17200000000E+03 0.  1.
</event>
<event>
 4    1  0.1253776E+000  0.2119713E+03  0.7818608E-02  0.1140014E+00
         21   -1    0    0  503  502  0.00000000000E+00  0.00000000000E+00  0.33010610564E+03  0.33010610564E+03  0.00000000000E+00 0.  1.
         21   -1    0    0  501  503 -0.00000000000E+00 -0.00000000000E+00 -0.18481278901E+03  0.18481278901E+03  0.00000000000E+00 0.  1.
          6    1    1    2  501    0 -0.10328710935E+03  0.68407530011E+02 -0.59514920165E+02  0.22016776068E+03  0.17200000000E+03 0.  1.
         -6    1    1    2    0  502  0.10328710935E+03 -0.68407530011E+02  0.20480823679E+03  0.29475113397E+03  0.17200000000E+03 0.  1.
</event>
<event>
 4    1  0.1253776E+000  0.3433211E+03  0.7818608E-02  0.1065390E+00
         21   -1    0    0  503  502  0.00000000000E+00  0.00000000000E+00  0.62109156051E+03  0.62109156051E+03  0.00000000000E+00 0.  1.
         21   -1    0    0  501  503 -0.00000000000E+00 -0.00000000000E+00 -0.26511299656E+03  0.26511299656E+03  0.00000000000E+00 0. -1.
          6    1    1    2  501    0 -0.17092736412E+02  0.29663649968E+03 -0.58214859609E+02  0.34822168867E+03  0.17200000000E+03 0. -1.
         -6    1    1    2    0  502  0.17092736412E+02 -0.29663649968E+03  0.41419342356E+03  0.53798286841E+03  0.17200000000E+03 0.  1.
</event>
<event>
 4    1  0.1253776E+000  0.1731216E+03  0.7818608E-02  0.1174631E+00
         21   -1    0    0  503  502  0.00000000000E+00  0.00000000000E+00  0.44345574585E+02  0.44345574585E+02  0.00000000000E+00 0. -1.
         21   -1    0    0  501  503 -0.00000000000E+00 -0.00000000000E+00 -0.67748131971E+03  0.67748131971E+03  0.00000000000E+00 0. -1.
          6    1    1    2  501    0 -0.19560994598E+02  0.21089399409E+01 -0.33426296171E+03  0.37643433386E+03  0.17200000000E+03 0. -1.
         -6    1    1    2    0  502  0.19560994598E+02 -0.21089399409E+01 -0.29887278342E+03  0.34539256044E+03  0.17200000000E+03 0. -1.
</event>
<event>
 4    1  0.1253776E+000  0.1936930E+03  0.7818608E-02  0.1155172E+00
         21   -1    0    0  503  502  0.00000000000E+00  0.00000000000E+00  0.21788987706E+04  0.21788987706E+04  0.00000000000E+00 0. -1.
         21   -1    0    0  501  503 -0.00000000000E+00 -0.00000000000E+00 -0.20859529873E+02  0.20859529873E+02  0.00000000000E+00 0. -1.
          6    1    1    2  501    0 -0.59325147021E+02  0.66434189723E+02  0.61948777598E+03  0.64906246173E+03  0.17200000000E+03 0. -1.
         -6    1    1    2    0  502  0.59325147021E+02 -0.66434189723E+02  0.15385514648E+04  0.15506958388E+04  0.17200000000E+03 0. -1.
</event>
<event>
 4    1  0.1253776E+000  0.1743651E+03  0.7818608E-02  0.1173371E+00
         21   -1    0    0  503  502  0.00000000000E+00  0.00000000000E+00  0.15357282080E+03  0.15357282080E+03  0.00000000000E+00 0.  1.
         21   -1    0    0  501  503 -0.00000000000E+00 -0.00000000000E+00 -0.20313869554E+03  0.20313869554E+03  0.00000000000E+00 0.  1.
          6    1    1    2  501    0  0.28536596057E+01 -0.28478579505E+02 -0.53226392898E+02  0.18230804087E+03  0.17200000000E+03 0. -1.
         -6    1    1    2    0  502 -0.28536596057E+01  0.28478579505E+02  0.36605181618E+01  0.17440347547E+03  0.17200000000E+03 0. -1.
</event>
<event>
 4    1  0.1253776E+000  0.2243556E+03  0.7818608E-02  0.1130677E+00
         21   -1    0    0  503  502  0.00000000000E+00  0.00000000000E+00  0.68593378689E+02  0.68593378689E+02  0.00000000000E+00 0. -1.
         21   -1    0    0  501  503 -0.00000000000E+00 -0.00000000000E+00 -0.12822623672E+04  0.12822623672E+04  0.00000000000E+00 0. -1.
          6    1    1    2  501    0  0.56810086119E+02  0.13237846779E+03 -0.10485621366E+04  0.10722956677E+04  0.17200000000E+03 0. -1.
         -6    1    1    2    0  502 -0.56810086119E+02 -0.13237846779E+03 -0.16510685189E+03  0.27856007819E+03  0.17200000000E+03 0. -1.
</event>
<event>
 4    1  0.1253776E+000  0.1820342E+03  0.7818608E-02  0.1165849E+00
         21   -1    0    0  501  502  0.00000000000E+00  0.00000000000E+00  0.17780194602E+02  0.17780194602E+02  0.00000000000E+00 0. -1.
         21   -1    0    0  502  503 -0.00000000000E+00 -0.00000000000E+00 -0.20701769480E+04  0.20701769480E+04  0.00000000000E+00 0. -1.
          6    1    1    2  501    0 -0.17859912943E+02 -0.56863636717E+02 -0.69647241000E+03  0.71986822931E+03  0.17200000000E+03 0.  1.
         -6    1    1    2    0  503  0.17859912943E+02  0.56863636717E+02 -0.13559243434E+04  0.13680889133E+04  0.17200000000E+03 0.  1.
</event>
<event>
 4    1  0.1253776E+000  0.2571441E+03  0.7818608E-02  0.1108871E+00
         21   -1    0    0  501  502  0.00000000000E+00  0.00000000000E+00  0.10560086905E+03  0.10560086905E+03  0.00000000000E+00 0.  1.
         21   -1    0    0  502  503 -0.00000000000E+00 -0.00000000000E+00 -0.11223722554E+04  0.11223722554E+04  0.00000000000E+00 0.  1.
          6    1    1    2  501    0 -0.37541578546E+02  0.18742922522E+03 -0.10013778892E+03  0.27595409285E+03  0.17200000000E+03 0.  1.
         -6    1    1    2    0  503  0.37541578546E+02 -0.18742922522E+03 -0.91663359745E+03  0.95201903161E+03  0.17200000000E+03 0.  1.
</event>
<event>
 4    1  0.1253776E+000  0.3765088E+03  0.7818608E-02  0.1052232E+00
         21   -1    0    0  503  502  0.00000000000E+00  0.00000000000E+00  0.94905604684E+03  0.94905604684E+03  0.00000000000E+00 0. -1.
         21   -1    0    0  501  503 -0.00000000000E+00 -0.00000000000E+00 -0.16061458777E+03  0.16061458777E+03  0.00000000000E+00 0.  1.
          6    1    1    2  501    0 -0.16024479050E+03 -0.29410290035E+03  0.54103753895E+03  0.65915136913E+03  0.17200000000E+03 0. -1.
         -6    1    1    2    0  502  0.16024479050E+03  0.29410290035E+03  0.24740392012E+03  0.45051926548E+03  0.17200000000E+03 0.  1.
</event>
<event>
 4    1  0.1253776E+000  0.1967482E+03  0.7818608E-02  0.1152512E+00
         21   -1    0    0  501  502  0.00000000000E+00  0.00000000000E+00  0.50218855138E+03  0.50218855138E+03  0.00000000000E+00 0. -1.
         21   -1    0    0  502  503 -0.00000000000E+00 -0.00000000000E+00 -0.77143473862E+02  0.77143473862E+02  0.00000000000E+00 0.  1.
          6    1    1    2  501    0 -0.72882537565E+02  0.61757417999E+02  0.22068029222E+03  0.29565120384E+03  0.17200000000E+03 0.  1.
         -6    1    1    2    0  503  0.72882537565E+02 -0.61757417999E+02  0.20436478531E+03  0.28368082141E+03  0.17200000000E+03 0. -1.
</event>
<event>
 4    1  0.1253776E+000  0.1806318E+03  0.7818608E-02  0.1167193E+00
         21   -1    0    0  503  502  0.00000000000E+00  0.00000000000E+00  0.15685632048E+03  0.15685632048E+03  0.00000000000E+00 0.  1.
         21   -1    0    0  501  503 -0.00000000000E+00 -0.00000000000E+00 -0.27013001278E+03  0.27013001278E+03  0.00000000000E+00 0.  1.
          6    1    1    2  501    0  0.26509883874E+02 -0.48384681223E+02 -0.15901553928E+03  0.24065284759E+03  0.17200000000E+03 0.  1.
         -6    1    1    2    0  502 -0.26509883874E+02  0.48384681223E+02  0.45741846974E+02  0.18633348568E+03  0.17200000000E+03 0.  1.
</event>
<event>
 4    1  0.1253776E+000  0.1896681E+03  0.7818608E-02  0.1158761E+00
         21   -1    0    0  501  502  0.00000000000E+00  0.00000000000E+00  0.24845984009E+03  0.24845984009E+03  0.00000000000E+00 0. -1.
         21   -1    0    0  502  503 -0.00000000000E+00 -0.00000000000E+00 -0.20541376049E+03  0.20541376049E+03  0.00000000000E+00 0. -1.
          6    1    1    2  501    0 -0.77665505302E+02  0.18922483699E+02  0.14481050868E+03  0.23862957597E+03  0.17200000000E+03 0. -1.
         -6    1    1    2    0  503  0.77665505302E+02 -0.18922483699E+02 -0.10176442909E+03  0.21524402461E+03  0.17200000000E+03 0. -1.
</event>
<event>
 4    1  0.1253776E+000  0.1994685E+03  0.7818608E-02  0.1150188E+00
         21   -1    0    0  503  502  0.00000000000E+00  0.00000000000E+00  0.21841844406E+03  0.21841844406E+03  0.00000000000E+00 0.  1.
         21   -1    0    0  501  503 -0.00000000000E+00 -0.00000000000E+00 -0.24212526852E+03  0.24212526852E+03  0.00000000000E+00 0.  1.
          6    1    1    2  501    0  0.76761814528E+02 -0.65660613993E+02 -0.12644716349E+03  0.23617065346E+03  0.17200000000E+03 0. -1.
         -6    1    1    2    0  502 -0.76761814528E+02  0.65660613993E+02  0.10274033903E+03  0.22437305913E+03  0.17200000000E+03 0. -1.
</event>
<event>
 4    1  0.1253776E+000  0.1733126E+03  0.7818608E-02  0.1174437E+00
         21   -1    0    0  501  502  0.00000000000E+00  0.00000000000E+00  0.77956690607E+03  0.77956690607E+03  0.00000000000E+00 0.  1.
         21   -1    0    0  502  503 -0.00000000000E+00 -0.00000000000E+00 -0.45159585220E+02  0.45159585220E+02  0.00000000000E+00 0.  1.
          6    1    1    2  501    0 -0.11097715712E+02 -0.18168413928E+02  0.52519219253E+03  0.55304980757E+03  0.17200000000E+03 0.  1.
         -6    1    1    2    0  503  0.11097715712E+02  0.18168413928E+02  0.20921512831E+03  0.27167668371E+03  0.17200000000E+03 0.  1.
</event>
<event>
 4    1  0.1253776E+000  0.2139462E+03  0.7818608E-02  0.1138479E+00
         21   -1    0    0  501  502  0.00000000000E+00  0.00000000000E+00  0.40094266561E+03  0.40094266561E+03  0.00000000000E+00 0.  1.
         21   -1    0    0  502  503 -0.00000000000E+00 -0.00000000000E+00 -0.45189828139E+03  0.45189828139E+03  0.00000000000E+00 0. -1.
          6    1    1    2  501    0 -0.12341494838E+03  0.30947115906E+02  0.34316491810E+03  0.40439477554E+03  0.17200000000E+03 0.  1.
         -6    1    1    2    0  503  0.12341494838E+03 -0.30947115906E+02 -0.39412053388E+03  0.44844617146E+03  0.17200000000E+03 0. -1.
</event>
<event>
 4    1  0.1253776E+000  0.1866130E+03  0.7818608E-02  0.1161552E+00
         21   -1    0    0  503  502  0.00000000000E+00  0.00000000000E+00  0.74590864652E+02  0.74590864652E+02  0.00000000000E+00 0. -1.
         21   -1    0    0  501  503 -0.00000000000E+00 -0.00000000000E+00 -0.51556047782E+03  0.51556047782E+03  0.00000000000E+00 0. -1.
          6    1    1    2  501    0 -0.31875070108E+02 -0.64995344027E+02 -0.31116344259E+03  0.36283205873E+03  0.17200000000E+03 0.  1.
         -6    1    1    2    0  502  0.31875070108E+02  0.64995344027E+02 -0.12980617057E+03  0.22731928374E+03  0.17200000000E+03 0.  1.
</event>
<event>
 4    1  0.1253776E+000  0.1851704E+03  0.7818608E-02  0.1162891E+00
         21   -1    0    0  501  502  0.00000000000E+00  0.00000000000E+00  0.40339422272E+03  0.40339422272E+03  0.00000000000E+00 0. -1.
         21   -1    0    0  502  503 -0.00000000000E+00 -0.00000000000E+00 -0.10952333359E+03  0.10952333359E+03  0.00000000000E+00 0. -1.
          6    1    1    2  501    0 -0.58409775660E+02  0.35949655620E+02  0.26829204943E+03  0.32598880873E+03  0.17200000000E+03 0. -1.
         -6    1    1    2    0  503  0.58409775660E+02 -0.35949655620E+02  0.25578839703E+02  0.18692874758E+03  0.17200000000E+03 0. -1.
</event>
<event>
 4    1  0.1253776E+000  0.1726239E+03  0.7818608E-02  0.1175139E+00
         21   -1    0    0  503  502  0.00000000000E+00  0.00000000000E+00  0.15644307055E+02  0.15644307055E+02  0.00000000000E+00 0.  1.
         21   -1    0    0  501  503 -0.00000000000E+00 -0.00000000000E+00 -0.19877770675E+04  0.19877770675E+04  0.00000000000E+00 0.  1.
          6    1    1    2  501    0  0.13407701968E+02  0.59362450019E+01 -0.11907498506E+04  0.12031974951E+04  0.17200000000E+03 0. -1.
         -6    1    1    2    0  502 -0.13407701968E+02 -0.59362450019E+01 -0.78138290986E+03  0.80022387949E+03  0.17200000000E+03 0. -1.
</event>
<event>
 4    1  0.1253776E+000  0.2810669E+03  0.7818608E-02  0.1095108E+00
         21   -1    0    0  501  502  0.00000000000E+00  0.00000000000E+00  0.86526111976E+02  0.86526111976E+02  0.00000000000E+00 0.  1.
         21   -1    0    0  502  503 -0.00000000000E+00 -0.00000000000E+00 -0.92123591192E+03  0.92123591192E+03  0.00000000000E+00 0. -1.
          6    1    1    2  501    0  0.19827227930E+03 -0.10051225112E+03 -0.36972097295E+03  0.46442675117E+03  0.17200000000E+03 0. -1.
         -6    1    1    2    0  503 -0.19827227930E+03  0.10051225112E+03 -0.46498882700E+03  0.54333527273E+03  0.17200000000E+03 0.  1.
</event>
<event>
 4    1  0.1253776E+000  0.2106885E+03  0.7818608E-02  0.1141022E+00
         21   -1    0    0  501  502  0.00000000000E+00  0.00000000000E+00  0.95974504203E+02  0.95974504203E+02  0.00000000000E+00 0. -1.
         21   -1    0    0  502  503 -0.00000000000E+00 -0.00000000000E+00 -0.49541636853E+03  0.49541636853E+03  0.00000000000E+00 0. -1.
          6    1    1    2  501    0 -0.10520495421E+01 -0.12167394883E+03 -0.12351902851E+03  0.24422654859E+03  0.17200000000E+03 0. -1.
         -6    1    1    2    0  503  0.10520495421E+01  0.12167394883E+03 -0.27592283582E+03  0.34716432415E+03  0.17200000000E+03 0. -1.
</event>
<event>
 4    1  0.1253776E+000  0.2452351E+03  0.7818608E-02  0.1116354E+00
         21   -1    0    0  501  502  0.00000000000E+00  0.00000000000E+00  0.11952562798E+04  0.11952562798E+04  0.00000000000E+00 0.  1.
         21   -1    0    0  502  503 -0.00000000000E+00 -0.00000000000E+00 -0.58782959747E+02  0.58782959747E+02  0.00000000000E+00 0. -1.
          6    1    1    2  501    0  0.32282824065E+02  0.17179657606E+03  0.80620816747E+03  0.84268134759E+03  0.17200000000E+03 0.  1.
         -6    1    1    2    0  503 -0.32282824065E+02 -0.17179657606E+03  0.33026515263E+03  0.41135789200E+03  0.17200000000E+03 0. -1.
</event>
<event>
 4    1  0.1253776E+000  0.1903619E+03  0.7818608E-02  0.1158135E+00
         21   -1    0    0  501  502  0.00000000000E+00  0.00000000000E+00  0.51697054748E+03  0.51697054748E+03  0.00000000000E+00 0.  1.
         21   -1    0    0  502  503 -0.00000000000E+00 -0.00000000000E+00 -0.13467693583E+03  0.13467693583E+03  0.00000000000E+00 0.  1.
          6    1    1    2  501    0  0.34792431559E+02  0.73777704355E+02  0.41677203451E+03  0.45818838015E+03  0.17200000000E+03 0. -1.
         -6    1    1    2    0  503 -0.34792431559E+02 -0.73777704355E+02 -0.34478422856E+02  0.19345910316E+03  0.17200000000E+03 0. -1.
</event>
<event>
 4    1  0.1253776E+000  0.2084051E+03  0.7818608E-02  0.1142835E+00
         21   -1    0    0  503  502  0.00000000000E+00  0.00000000000E+00  0.20537628147E+03  0.20537628147E+03  0.00000000000E+00 0.  1.
         21   -1    0    0  501  503 -0.00000000000E+00 -0.00000000000E+00 -0.22379136157E+03  0.22379136157E+03  0.00000000000E+00 0.  1.
          6    1    1    2  501    0  0.82558469784E+02 -0.83861698546E+02 -0.59540597708E+02  0.21674355398E+03  0.17200000000E+03 0.  1.
         -6    1    1    2    0  502 -0.82558469784E+02  0.83861698546E+02  0.41125517604E+02  0.21242408906E+03  0.17200000000E+03 0.  1.
</event>
<event>
 4    1  0.1253776E+000  0.2170227E+03  0.7818608E-02  0.1136122E+00
         21   -1    0    0  501  502  0.00000000000E+00  0.00000000000E+00  0.37484730725E+03  0.37484730725E+03  0.00000000000E+00 0. -1.
         21   -1    0    0  502  503 -0.00000000000E+00 -0.00000000000E+00 -0.12577484772E+03  0.12577484772E+03  0.00000000000E+00 0.  1.
          6    1    1    2  501    0  0.10315301476E+03  0.82911484786E+02  0.11659071408E+03  0.24635797810E+03  0.17200000000E+03 0.  1.
         -6    1    1    2    0  503 -0.10315301476E+03 -0.82911484786E+02  0.13248174546E+03  0.25426417688E+03  0.17200000000E+03 0. -1.
</event>
<event>
 4    1  0.1253776E+000  0.2892544E+03  0.7818608E-02  0.1090739E+00
         21   -1    0    0  501  502  0.00000000000E+00  0.00000000000E+00  0.50427765237E+03  0.50427765237E+03  0.00000000000E+00 0. -1.
         21   -1    0    0  502  503 -0.00000000000E+00 -0.00000000000E+00 -0.24792114016E+03  0.24792114016E+03  0.00000000000E+00 0. -1.
          6    1    1    2  501    0  0.18480457264E+03 -0.14117853968E+03 -0.88125670144E+02  0.30238095818E+03  0.17200000000E+03 0. -1.
         -6    1    1    2    0  503 -0.18480457264E+03  0.14117853968E+03  0.34448218235E+03  0.44981783434E+03  0.17200000000E+03 0. -1.
</event>
<event>
 4    1  0.1253776E+000  0.3208849E+03  0.7818608E-02  0.1075243E+00
         21   -1    0    0  501  502  0.00000000000E+00  0.00000000000E+00  0.14942750129E+04  0.14942750129E+04  0.00000000000E+00 0. -1.
         21   -1    0    0  502  503 -0.00000000000E+00 -0.00000000000E+00 -0.14724056286E+03  0.14724056286E+03  0.00000000000E+00 0.  1.
          6    1    1    2  501    0  0.14457040265E+01 -0.27088936884E+03  0.12721674058E+04  0.13120125947E+04  0.17200000000E+03 0. -1.
         -6    1    1    2    0  503 -0.14457040265E+01  0.27088936884E+03  0.74867044190E+02  0.32950298104E+03  0.17200000000E+03 0.  1.
</event>
<event>
 4    1  0.1253776E+000  0.1883625E+03  0.7818608E-02  0.1159947E+00
         21   -1    0    0  503  502  0.00000000000E+00  0.00000000000E+00  0.36411156148E+03  0.36411156148E+03  0.00000000000E+00 0.  1.
         21   -1    0    0  501  503 -0.00000000000E+00 -0.00000000000E+00 -0.11123848888E+03  0.11123848888E+03  0.00000000000E+00 0.  1.
          6    1    1    2  501    0  0.12186734739E+02 -0.75814961982E+02  0.21013384566E+03  0.28219967763E+03  0.17200000000E+03 0.  1.
         -6    1    1    2    0  502 -0.12186734739E+02  0.75814961982E+02  0.42739226948E+02  0.19315037273E+03  0.17200000000E+03 0.  1.
</event>
<event>
 4    1  0.1253776E+000  0.1826311E+03  0.7818608E-02  0.1165281E+00
         21   -1    0    0  501  502  0.00000000000E+00  0.00000000000E+00  0.24452412830E+03  0.24452412830E+03  0.00000000000E+00 0.  1.
         21   -1    0    0  502  503 -0.00000000000E+00 -0.00000000000E+00 -0.41625020016E+03  0.41625020016E+03  0.00000000000E+00 0.  1.
          6    1    1    2  501    0  0.99752373245E+01  0.60585650478E+02  0.18503475545E+03  0.25998459018E+03  0.17200000000E+03 0.  1.
         -6    1    1    2    0  503 -0.99752373245E+01 -0.60585650478E+02 -0.35676082731E+03  0.40078973828E+03  0.17200000000E+03 0.  1.
</event>
<event>
 4    1  0.1253776E+000  0.1888664E+03  0.7818608E-02  0.1159488E+00
         21   -1    0    0  503  502  0.00000000000E+00  0.00000000000E+00  0.57811755247E+03  0.57811755247E+03  0.00000000000E+00 0. -1.
         21   -1    0    0  501  503 -0.00000000000E+00 -0.00000000000E+00 -0.21010549989E+03  0.21010549989E+03  0.00000000000E+00 0. -1.
          6    1    1    2  501    0 -0.99660744505E+00 -0.78009739179E+02 -0.14721946614E+03  0.23946624782E+03  0.17200000000E+03 0. -1.
         -6    1    1    2    0  502  0.99660744505E+00  0.78009739179E+02  0.51523151873E+03  0.54875680454E+03  0.17200000000E+03 0. -1.
</event>
<event>
 4    1  0.1253776E+000  0.1960021E+03  0.7818608E-02  0.1153157E+00
         21   -1    0    0  503  502  0.00000000000E+00  0.00000000000E+00  0.38450121999E+03  0.38450121999E+03  0.00000000000E+00 0.  1.
         21   -1    0    0  501  503 -0.00000000000E+00 -0.00000000000E+00 -0.14034234047E+03  0.14034234047E+03  0.00000000000E+00 0. -1.
          6    1    1    2  501    0 -0.73605311963E+02  0.58438740902E+02 -0.18768870521E+02  0.19689870210E+03  0.17200000000E+03 0. -1.
         -6    1    1    2    0  502  0.73605311963E+02 -0.58438740902E+02  0.26292775004E+03  0.32794485837E+03  0.17200000000E+03 0.  1.
</event>
<event>
 4    1  0.1253776E+000  0.2486092E+03  0.7818608E-02  0.1114187E+00
         21   -1    0    0  503  502  0.00000000000E+00  0.00000000000E+00  0.40840438330E+03  0.40840438330E+03  0.00000000000E+00 0. -1.
         21   -1    0    0  501  503 -0.00000000000E+00 -0.00000000000E+00 -0.17142597979E+03  0.17142597979E+03  0.00000000000E+00 0. -1.
          6    1    1    2  501    0  0.16020128455E+03  0.80981935290E+02  0.21773589481E+03  0.33047760182E+03  0.17200000000E+03 0. -1.
         -6    1    1    2    0  502 -0.16020128455E+03 -0.80981935290E+02  0.19242508693E+02  0.24935276128E+03  0.17200000000E+03 0. -1.
</event>
<event>
 4    1  0.1253776E+000  0.1977821E+03  0.7818608E-02  0.1151624E+00
         21   -1    0    0  501  502  0.00000000000E+00  0.00000000000E+00  0.21678573238E+03  0.21678573238E+03  0.00000000000E+00 0. -1.
         21   -1    0    0  502  503 -0.00000000000E+00 -0.00000000000E+00 -0.24348131402E+03  0.24348131402E+03  0.00000000000E+00 0.  1.
          6    1    1    2  501    0 -0.63638938215E+02 -0.74052901928E+02  0.10374898354E+03  0.22334188664E+03  0.17200000000E+03 0. -1.
         -6    1    1    2    0  503  0.63638938215E+02  0.74052901928E+02 -0.13044456519E+03  0.23692515976E+03  0.17200000000E+03 0. -1.
</event>
<event>
 4    1  0.1253776E+000  0.1923032E+03  0.7818608E-02  0.1156400E+00
         21   -1    0    0  503  502  0.00000000000E+00  0.00000000000E+00  0.19314017877E+03  0.19314017877E+03  0.00000000000E+00 0. -1.
         21   -1    0    0  501  503 -0.00000000000E+00 -0.00000000000E+00 -0.56592795567E+03  0.56592795567E+03  0.00000000000E+00 0. -1.
          6    1    1    2  501    0 -0.69052677123E+02  0.51266474739E+02 -0.49511888956E+03  0.53115274493E+03  0.17200000000E+03 0. -1.
         -6    1    1    2    0  502  0.69052677123E+02 -0.51266474739E+02  0.12233111266E+03  0.22791538951E+03  0.17200000000E+03 0. -1.
</event>
<event>
 4    1  0.1253776E+000  0.2711131E+03  0.7818608E-02  0.1100644E+00
         21   -1    0    0  503  502  0.00000000000E+00  0.00000000000E+00  0.68154250166E+02  0.68154250166E+02  0.00000000000E+00 0.  1.
         21   -1    0    0  501  503 -0.00000000000E+00 -0.00000000000E+00 -0.11002962434E+04  0.11002962434E+04  0.00000000000E+00 0.  1.
          6    1    1    2  501    0 -0.10032464465E+03  0.18399267036E+03 -0.59835428911E+03  0.65690957701E+03  0.17200000000E+03 0.  1.
         -6    1    1    2    0  502  0.10032464465E+03 -0.18399267036E+03 -0.43378770417E+03  0.51154091660E+03  0.17200000000E+03 0.  1.
</event>
<event>
 4    1  0.1253776E+000  0.2853957E+03  0.7818608E-02  0.1092778E+00
         21   -1    0    0  503  502  0.00000000000E+00  0.00000000000E+00  0.27299923204E+03  0.27299923204E+03  0.00000000000E+00 0.  1.
         21   -1    0    0  501  503 -0.00000000000E+00 -0.00000000000E+00 -0.49178585773E+03  0.49178585773E+03  0.00000000000E+00 0. -1.
          6    1    1    2  501    0  0.17797113641E+03 -0.14210201653E+03  0.13042601679E+03  0.31378600089E+03  0.17200000000E+03 0.  1.
         -6    1    1    2    0  502 -0.17797113641E+03  0.14210201653E+03 -0.34921264248E+03  0.45099908888E+03  0.17200000000E+03 0. -1.
</event>
<event>
 4    1  0.1253776E+000  0.1830488E+03  0.7818608E-02  0.1164885E+00
         21   -1    0    0  501  502  0.00000000000E+00  0.00000000000E+00  0.45113947048E+03  0.45113947048E+03  0.00000000000E+00 0.  1.
         21   -1    0    0  502  503 -0.00000000000E+00 -0.00000000000E+00 -0.37660435252E+03  0.37660435252E+03  0.00000000000E+00 0.  1.
          6    1    1    2  501    0  0.61972253039E+02  0.90730382312E+01  0.40808985349E+03  0.44726301959E+03  0.17200000000E+03 0.  1.
         -6    1    1    2    0  503 -0.61972253039E+02 -0.90730382312E+01 -0.33355473553E+03  0.38048080341E+03  0.17200000000E+03 0.  1.
</event>
<event>
 4    1  0.1253776E+000  0.2741474E+03  0.7818608E-02  0.1098929E+00
         21   -1    0    0  501  502  0.00000000000E+00  0.00000000000E+00  0.24520094758E+03  0.24520094758E+03  0.00000000000E+00 0.  1.
         21   -1    0    0  502  503 -0.00000000000E+00 -0.00000000000E+00 -0.46204656630E+03  0.46204656630E+03  0.00000000000E+00 0. -1.
          6    1    1    2  501    0  0.30352661148E+02  0.21130902512E+03  0.96746981082E+02  0.29071767487E+03  0.17200000000E+03 0.  1.
         -6    1    1    2    0  503 -0.30352661148E+02 -0.21130902512E+03 -0.31359259980E+03  0.41652983901E+03  0.17200000000E+03 0.  1.
</event>
<event>
 4    1  0.1253776E+000  0.1923275E+03  0.7818608E-02  0.1156379E+00
         21   -1    0    0  503  502  0.00000000000E+00  0.00000000000E+00  0.13564678506E+03  0.13564678506E+03  0.00000000000E+00 0. -1.
         21   -1    0    0  501  503 -0.00000000000E+00 -0.00000000000E+00 -0.12168928964E+04  0.12168928964E+04  0.00000000000E+00 0.  1.
          6    1    1    2  501    0 -0.78873701230E+02 -0.34421217891E+02 -0.11363207197E+04  0.11524819561E+04  0.17200000000E+03 0.  1.
         -6    1    1    2    0  502  0.78873701230E+02  0.34421217891E+02  0.55074608405E+02  0.20005772536E+03  0.17200000000E+03 0. -1.
</event>
<event>
 4    1  0.1253776E+000  0.2791491E+03  0.7818608E-02  0.1096155E+00
         21   -1    0    0  501  502  0.00000000000E+00  0.00000000000E+00  0.83016070346E+03  0.83016070346E+03  0.00000000000E+00 0. -1.
         21   -1    0    0  502  503 -0.00000000000E+00 -0.00000000000E+00 -0.94405065528E+02  0.94405065528E+02  0.00000000000E+00 0.  1.
          6    1    1    2  501    0  0.20780788215E+03  0.71805991444E+02  0.40279669224E+03  0.49007080261E+03  0.17200000000E+03 0.  1.
         -6    1    1    2    0  503 -0.20780788215E+03 -0.71805991444E+02  0.33295894570E+03  0.43449496639E+03  0.17200000000E+03 0. -1.
</event>
<event>
 4    1  0.1253776E+000  0.2568062E+03  0.7818608E-02  0.1109077E+00
         21   -1    0    0  501  502  0.00000000000E+00  0.00000000000E+00  0.16252382937E+03  0.16252382937E+03  0.00000000000E+00 0. -1.
         21   -1    0    0  502  503 -0.00000000000E+00 -0.00000000000E+00 -0.41091989757E+03  0.41091989757E+03  0.00000000000E+00 0.  1.
          6    1    1    2  501    0 -0.12793884341E+03 -0.14141096406E+03 -0.92140336729E+02  0.27283557331E+03  0.17200000000E+03 0.  1.
         -6    1    1    2    0  503  0.12793884341E+03  0.14141096406E+03 -0.15625573148E+03  0.30060815363E+03  0.17200000000E+03 0.  1.
</event>
<event>
 4    1  0.1253776E+000  0.2181617E+03  0.7818608E-02  0.1135261E+00
         21   -1    0    0  503  502  0.00000000000E+00  0.00000000000E+00  0.21007250889E+03  0.21007250889E+03  0.00000000000E+00 0. -1.
         21   -1    0    0  501  503 -0.00000000000E+00 -0.00000000000E+00 -0.48023431875E+03  0.48023431875E+03  0.00000000000E+00 0.  1.
          6    1    1    2  501    0 -0.24696286819E+02 -0.13191138905E+03 -0.38593535938E+03  0.44332902314E+03  0.17200000000E+03 0.  1.
         -6    1    1    2    0  502  0.24696286819E+02  0.13191138905E+03  0.11577354952E+03  0.24697780450E+03  0.17200000000E+03 0. -1.
</event>
<event>
 4    1  0.1253776E+000  0.1882365E+03  0.7818608E-02  0.1160062E+00
         21   -1    0    0  503  502  0.00000000000E+00  0.00000000000E+00  0.19074532844E+04  0.19074532844E+04  0.00000000000E+00 0.  1.
         21   -1    0    0  501  503 -0.00000000000E+00 -0.00000000000E+00 -0.45331577087E+02  0.45331577087E+02  0.00000000000E+00 0.  1.
          6    1    1    2  501    0  0.84172024739E+01  0.76013899426E+02  0.18094096051E+03  0.26109881921E+03  0.17200000000E+03 0.  1.
         -6    1    1    2    0  502 -0.84172024739E+01 -0.76013899426E+02  0.16811807468E+04  0.16916860423E+04  0.17200000000E+03 0.  1.
</event>
<event>
 4    1  0.1253776E+000  0.2041235E+03  0.7818608E-02  0.1146306E+00
         21   -1    0    0  503  502  0.00000000000E+00  0.00000000000E+00  0.15952402631E+03  0.15952402631E+03  0.00000000000E+00 0.  1.
         21   -1    0    0  501  503 -0.00000000000E+00 -0.00000000000E+00 -0.30701065098E+03  0.30701065098E+03  0.00000000000E+00 0. -1.
          6    1    1    2  501    0  0.10279420318E+03  0.38932461295E+02 -0.16385866777E+03  0.26175570243E+03  0.17200000000E+03 0.  1.
         -6    1    1    2    0  502 -0.10279420318E+03 -0.38932461295E+02  0.16372043100E+02  0.20477897486E+03  0.17200000000E+03 0.  1.
</event>
<event>
 4    1  0.1253776E+000  0.2055328E+03  0.7818608E-02  0.1145153E+00
         21   -1    0    0  503  502  0.00000000000E+00  0.00000000000E+00  0.24557322053E+03  0.24557322053E+03  0.00000000000E+00 0.  1.
         21   -1    0    0  501  503 -0.00000000000E+00 -0.00000000000E+00 -0.21693340833E+03  0.21693340833E+03  0.00000000000E+00 0. -1.
          6    1    1    2  501    0 -0.61453679554E+02  0.94250593870E+02 -0.90902528725E+02  0.22473762236E+03  0.17200000000E+03 0. -1.
         -6    1    1    2    0  502  0.61453679554E+02 -0.94250593870E+02  0.11954234093E+03  0.23776900650E+03  0.17200000000E+03 0.  1.
</event>
<event>
 4    1  0.1253776E+000  0.3554989E+03  0.7818608E-02  0.1060380E+00
         21   -1    0    0  503  502  0.00000000000E+00  0.00000000000E+00  0.12857231577E+03  0.12857231577E+03  0.00000000000E+00 0. -1.
         21   -1    0    0  501  503 -0.00000000000E+00 -0.00000000000E+00 -0.10307306119E+04  0.10307306119E+04  0.00000000000E+00 0. -1.
          6    1    1    2  501    0 -0.16961849181E+03  0.26081614785E+03 -0.57588748705E+03  0.67677610292E+03  0.17200000000E+03 0. -1.
         -6    1    1    2    0  502  0.16961849181E+03 -0.26081614785E+03 -0.32627080911E+03  0.48252682477E+03  0.17200000000E+03 0. -1.
</event>
<event>
 4    1  0.1253776E+000  0.3248364E+03  0.7818608E-02  0.1073445E+00
         21   -1    0    0  503  502  0.00000000000E+00  0.00000000000E+00  0.13818709778E+03  0.13818709778E+03  0.00000000000E+00 0. -1.
         21   -1    0    0  501  503 -0.00000000000E+00 -0.00000000000E+00 -0.99494025651E+03  0.99494025651E+03  0.00000000000E+00 0.  1.
          6    1    1    2  501    0  0.24005503041E+03  0.13530802781E+03 -0.15517541697E+03  0.35999734728E+03  0.17200000000E+03 0. -1.
         -6    1    1    2    0  502 -0.24005503041E+03 -0.13530802781E+03 -0.70157774176E+03  0.77313000701E+03  0.17200000000E+03 0. -1.
</event>
<event>
 4    1  0.1253776E+000  0.1750633E+03  0.7818608E-02  0.1172668E+00
         21   -1    0    0  503  502  0.00000000000E+00  0.00000000000E+00  0.71261595875E+02  0.71261595875E+02  0.00000000000E+00 0. -1.
         21   -1    0    0  501  503 -0.00000000000E+00 -0.00000000000E+00 -0.47489513593E+03  0.47489513593E+03  0.00000000000E+00 0. -1.
          6    1    1    2  501    0  0.12287039721E+02 -0.30202722720E+02 -0.28571823598E+03  0.33508519242E+03  0.17200000000E+03 0.  1.
         -6    1    1    2    0  502 -0.12287039721E+02  0.30202722720E+02 -0.11791530407E+03  0.21107153939E+03  0.17200000000E+03 0.  1.
</event>
<event>
 4    1  0.1253776E+000  0.2060106E+03  0.7818608E-02  0.1144765E+00
         21   -1    0    0  501  502  0.00000000000E+00  0.00000000000E+00  0.24884572399E+03  0.24884572399E+03  0.00000000000E+00 0.  1.
         21   -1    0    0  502  503 -0.00000000000E+00 -0.00000000000E+00 -0.28875742567E+03  0.28875742567E+03  0.00000000000E+00 0. -1.
          6    1    1    2  501    0  0.11528265820E+02 -0.11279833174E+03  0.15202877584E+03  0.25603342211E+03  0.17200000000E+03 0.  1.
         -6    1    1    2    0  503 -0.11528265820E+02  0.11279833174E+03 -0.19194047753E+03  0.28156972754E+03  0.17200000000E+03 0. -1.
</event>
<event>
 4    1  0.1253776E+000  0.2036840E+03  0.7818608E-02  0.1146668E+00
         21   -1    0    0  501  502  0.00000000000E+00  0.00000000000E+00  0.16710008762E+03  0.16710008762E+03  0.00000000000E+00 0.  1.
         21   -1    0    0  502  503 -0.00000000000E+00 -0.00000000000E+00 -0.29177179488E+03  0.29177179488E+03  0.00000000000E+00 0. -1.
          6    1    1    2  501    0 -0.17022174666E+02  0.10776554470E+03  0.26248432656E+02  0.20536832100E+03  0.17200000000E+03 0.  1.
         -6    1    1    2    0  503  0.17022174666E+02 -0.10776554470E+03 -0.15092013991E+03  0.25350356149E+03  0.17200000000E+03 0.  1.
</event>
<event>
 4    1  0.1253776E+000  0.1819447E+03  0.7818608E-02  0.1165934E+00
         21   -1    0    0  501  502  0.00000000000E+00  0.00000000000E+00  0.82359105913E+03  0.82359105913E+03  0.00000000000E+00 0. -1.
         21   -1    0    0  502  503 -0.00000000000E+00 -0.00000000000E+00 -0.43915142024E+02  0.43915142024E+02  0.00000000000E+00 0. -1.
          6    1    1    2  501    0  0.36009280253E+01  0.59219042180E+02  0.26358481324E+03  0.32028239947E+03  0.17200000000E+03 0. -1.
         -6    1    1    2    0  503 -0.36009280253E+01 -0.59219042180E+02  0.51609110386E+03  0.54722380168E+03  0.17200000000E+03 0. -1.
</event>
<event>
 4    1  0.1253776E+000  0.1733990E+03  0.7818608E-02  0.1174349E+00
         21   -1    0    0  503  502  0.00000000000E+00  0.00000000000E+00  0.14253913661E+03  0.14253913661E+03  0.00000000000E+00 0. -1.
         21   -1    0    0  501  503 -0.00000000000E+00 -0.00000000000E+00 -0.24251532110E+03  0.24251532110E+03  0.00000000000E+00 0. -1.
          6    1    1    2  501    0  0.21669742553E+02  0.36922174502E+01  0.19481736607E+02  0.17448996611E+03  0.17200000000E+03 0. -1.
         -6    1    1    2    0  502 -0.21669742553E+02 -0.36922174502E+01 -0.11945792109E+03  0.21056449160E+03  0.17200000000E+03 0. -1.
</event>
<event>
 4    1  0.1253776E+000  0.1869842E+03  0.7818608E-02  0.1161210E+00
         21   -1    0    0  503  502  0.00000000000E+00  0.00000000000E+00  0.36525636600E+03  0.36525636600E+03  0.00000000000E+00 0.  1.
         21   -1    0    0  501  503 -0.00000000000E+00 -0.00000000000E+00 -0.11352271790E+03  0.11352271790E+03  0.00000000000E+00 0.  1.
          6    1    1    2  501    0 -0.29545140714E+02 -0.67128063269E+02  0.22066103065E+03  0.28923067380E+03  0.17200000000E+03 0.  1.
         -6    1    1    2    0  502  0.29545140714E+02  0.67128063269E+02  0.31072617449E+02  0.18954841010E+03  0.17200000000E+03 0.  1.
</event>
<event>
 4    1  0.1253776E+000  0.2043946E+03  0.7818608E-02  0.1146083E+00
         21   -1    0    0  503  502  0.00000000000E+00  0.00000000000E+00  0.96312317801E+02  0.96312317801E+02  0.00000000000E+00 0. -1.
         21   -1    0    0  501  503 -0.00000000000E+00 -0.00000000000E+00 -0.98733421723E+03  0.98733421723E+03  0.00000000000E+00 0.  1.
          6    1    1    2  501    0  0.64469939904E+02  0.89648149252E+02 -0.85121607986E+03  0.87541189073E+03  0.17200000000E+03 0.  1.
         -6    1    1    2    0  502 -0.64469939904E+02 -0.89648149252E+02 -0.39805819565E+02  0.20823464430E+03  0.17200000000E+03 0. -1.
</event>
<event>
 4    1  0.1253776E+000  0.3639481E+03  0.7818608E-02  0.1057031E+00
         21   -1    0    0  503  502  0.00000000000E+00  0.00000000000E+00  0.18655318515E+04  0.18655318515E+04  0.00000000000E+00 0. -1.
         21   -1    0    0  501  503 -0.00000000000E+00 -0.00000000000E+00 -0.77909178866E+02  0.77909178866E+02  0.00000000000E+00 0.  1.
          6    1    1    2  501    0  0.31962070448E+03 -0.26773933077E+02  0.60449830951E+03  0.70560360290E+03  0.17200000000E+03 0.  1.
         -6    1    1    2    0  502 -0.31962070448E+03  0.26773933077E+02  0.11831243631E+04  0.12378374274E+04  0.17200000000E+03 0. -1.
</event>
<event>
 4    1  0.1253776E+000  0.2250474E+03  0.7818608E-02  0.1130175E+00
         21   -1    0    0  501  502  0.00000000000E+00  0.00000000000E+00  0.35403894676E+03  0.35403894676E+03  0.00000000000E+00 0.  1.
         21   -1    0    0  502  503 -0.00000000000E+00 -0.00000000000E+00 -0.14863631420E+03  0.14863631420E+03  0.00000000000E+00 0.  1.
          6    1    1    2  501    0  0.14125609605E+03 -0.33302396077E+02  0.15141388131E+03  0.27124250720E+03  0.17200000000E+03 0. -1.
         -6    1    1    2    0  503 -0.14125609605E+03  0.33302396077E+02  0.53988751244E+02  0.23143275377E+03  0.17200000000E+03 0. -1.
</event>
<event>
 4    1  0.1253776E+000  0.1957801E+03  0.7818608E-02  0.1153349E+00
         21   -1    0    0  503  502  0.00000000000E+00  0.00000000000E+00  0.16464563216E+04  0.16464563216E+04  0.00000000000E+00 0.  1.
         21   -1    0    0  501  503 -0.00000000000E+00 -0.00000000000E+00 -0.26196530641E+02  0.26196530641E+02  0.00000000000E+00 0.  1.
          6    1    1    2  501    0 -0.77366352376E+02 -0.52538411063E+02  0.53108627377E+03  0.56602338053E+03  0.17200000000E+03 0. -1.
         -6    1    1    2    0  502  0.77366352376E+02  0.52538411063E+02  0.10891735172E+04  0.11066294717E+04  0.17200000000E+03 0. -1.
</event>
<event>
 4    1  0.1253776E+000  0.2785926E+03  0.7818608E-02  0.1096460E+00
         21   -1    0    0  503  502  0.00000000000E+00  0.00000000000E+00  0.13843293126E+04  0.13843293126E+04  0.00000000000E+00 0. -1.
         21   -1    0    0  501  503 -0.00000000000E+00 -0.00000000000E+00 -0.28333884748E+03  0.28333884748E+03  0.00000000000E+00 0.  1.
          6    1    1    2  501    0 -0.10185800127E+03 -0.19404840593E+03 -0.19629793597E+03  0.34080304566E+03  0.17200000000E+03 0.  1.
         -6    1    1    2    0  502  0.10185800127E+03  0.19404840593E+03  0.12972884011E+04  0.13268651144E+04  0.17200000000E+03 0. -1.
</event>
<event>
 4    1  0.1253776E+000  0.1941094E+03  0.7818608E-02  0.1154806E+00
         21   -1    0    0  503  502  0.00000000000E+00  0.00000000000E+00  0.11425848842E+03  0.11425848842E+03  0.00000000000E+00 0. -1.
         21   -1    0    0  501  503 -0.00000000000E+00 -0.00000000000E+00 -0.41426593966E+03  0.41426593966E+03  0.00000000000E+00 0. -1.
          6    1    1    2  501    0 -0.51479448099E+02  0.73785667335E+02 -0.26935472177E+03  0.33200967519E+03  0.17200000000E+03 0. -1.
         -6    1    1    2    0  502  0.51479448099E+02 -0.73785667335E+02 -0.30652729464E+02  0.19651475289E+03  0.17200000000E+03 0. -1.
</event>
