<event>
 4    1  0.5739010E+000  0.1929388E+03  0.7818608E-02  0.1155837E+00
         21   -1    0    0  501  502  0.00000000000E+00  0.00000000000E+00  0.42052920277E+03  0.42052920277E+03  0.00000000000E+00 0. -1.
         21   -1    0    0  502  503 -0.00000000000E+00 -0.00000000000E+00 -0.18716002540E+03  0.18716002540E+03  0.00000000000E+00 0. -1.
          6    1    1    2  501    0 -0.58750404000E+02  0.64728409559E+02  0.33726700601E+03  0.38855425659E+03  0.17200000000E+03 0. -1.
         -6    1    1    2    0  503  0.58750404000E+02 -0.64728409559E+02 -0.10389782863E+03  0.21913497158E+03  0.17200000000E+03 0. -1.
</event>
<event>
 4    1  0.5739010E+000  0.1745963E+03  0.7818608E-02  0.1173138E+00
         21   -1    0    0  503  502  0.00000000000E+00  0.00000000000E+00  0.14997143750E+03  0.14997143750E+03  0.00000000000E+00 0.  1.
         21   -1    0    0  501  503 -0.00000000000E+00 -0.00000000000E+00 -0.22048740036E+03  0.22048740036E+03  0.00000000000E+00 0.  1.
          6    1    1    2  501    0 -0.25566469918E+02 -0.15691472199E+02 -0.87027179395E+02  0.19508356322E+03  0.17200000000E+03 0.  1.
         -6    1    1    2    0  502  0.25566469918E+02  0.15691472199E+02  0.16511216539E+02  0.17537527464E+03  0.17200000000E+03 0.  1.
</event>
<event>
 4    1  0.5739010E+000  0.2332203E+03  0.7818608E-02  0.1124393E+00
         21   -1    0    0  503  502  0.00000000000E+00  0.00000000000E+00  0.22661086296E+03  0.22661086296E+03  0.00000000000E+00 0. -1.
         21   -1    0    0  501  503 -0.00000000000E+00 -0.00000000000E+00 -0.51406845330E+03  0.51406845330E+03  0.00000000000E+00 0.  1.
          6    1    1    2  501    0 -0.87076602221E+02  0.13124545515E+03 -0.41412553267E+03  0.47528061286E+03  0.17200000000E+03 0.  1.
         -6    1    1    2    0  502  0.87076602221E+02 -0.13124545515E+03  0.12666794233E+03  0.26539870340E+03  0.17200000000E+03 0. -1.
</event>
<event>
 4    1  0.5739010E+000  0.2788340E+03  0.7818608E-02  0.1096327E+00
         21   -1    0    0  503  502  0.00000000000E+00  0.00000000000E+00  0.33507939901E+03  0.33507939901E+03  0.00000000000E+00 0. -1.
         21   -1    0    0  501  503 -0.00000000000E+00 -0.00000000000E+00 -0.51450160091E+03  0.51450160091E+03  0.00000000000E+00 0.  1.
          6    1    1    2  501    0  0.10326510663E+03  0.19365108753E+03 -0.40446341656E+03  0.49126274160E+03  0.17200000000E+03 0.  1.
         -6    1    1    2    0  502 -0.10326510663E+03 -0.19365108753E+03  0.22504121465E+03  0.35831825832E+03  0.17200000000E+03 0. -1.
</event>
<event>
 4    1  0.5739010E+000  0.3422572E+03  0.7818608E-02  0.1065839E+00
         21   -1    0    0  501  502  0.00000000000E+00  0.00000000000E+00  0.23745703982E+03  0.23745703982E+03  0.00000000000E+00 0.  1.
         21   -1    0    0  502  503 -0.00000000000E+00 -0.00000000000E+00 -0.58635037478E+03  0.58635037478E+03  0.00000000000E+00 0. -1.
          6    1    1    2  501    0 -0.11210102289E+03  0.27384178867E+03 -0.10367854325E+02  0.34241415998E+03  0.17200000000E+03 0.  1.
         -6    1    1    2    0  503  0.11210102289E+03 -0.27384178867E+03 -0.33852548064E+03  0.48139325462E+03  0.17200000000E+03 0.  1.
</event>
<event>
 4    1  0.5739010E+000  0.2260928E+03  0.7818608E-02  0.1129420E+00
         21   -1    0    0  501  502  0.00000000000E+00  0.00000000000E+00  0.24445020845E+03  0.24445020845E+03  0.00000000000E+00 0. -1.
         21   -1    0    0  502  503 -0.00000000000E+00 -0.00000000000E+00 -0.29813663932E+03  0.29813663932E+03  0.00000000000E+00 0. -1.
          6    1    1    2  501    0  0.10188364849E+03 -0.10561090463E+03  0.12140245627E+03  0.25662520802E+03  0.17200000000E+03 0. -1.
         -6    1    1    2    0  503 -0.10188364849E+03  0.10561090463E+03 -0.17508888713E+03  0.28596163974E+03  0.17200000000E+03 0. -1.
</event>
<event>
 4    1  0.5739010E+000  0.1797384E+03  0.7818608E-02  0.1168056E+00
         21   -1    0    0  503  502  0.00000000000E+00  0.00000000000E+00  0.68711925010E+02  0.68711925010E+02  0.00000000000E+00 0. -1.
         21   -1    0    0  501  503 -0.00000000000E+00 -0.00000000000E+00 -0.48658692346E+03  0.48658692346E+03  0.00000000000E+00 0. -1.
          6    1    1    2  501    0 -0.41303261971E+02  0.31873652428E+02 -0.25994555635E+03  0.31603414599E+03  0.17200000000E+03 0. -1.
         -6    1    1    2    0  502  0.41303261971E+02 -0.31873652428E+02 -0.15792944210E+03  0.23926470248E+03  0.17200000000E+03 0. -1.
</event>
<event>
 4    1  0.5739010E+000  0.2209866E+03  0.7818608E-02  0.1133150E+00
         21   -1    0    0  503  502  0.00000000000E+00  0.00000000000E+00  0.36582302516E+03  0.36582302516E+03  0.00000000000E+00 0. -1.
         21   -1    0    0  501  503 -0.00000000000E+00 -0.00000000000E+00 -0.24062389881E+03  0.24062389881E+03  0.00000000000E+00 0.  1.
          6    1    1    2  501    0 -0.61433857460E+02 -0.12440648672E+03 -0.13972529604E+03  0.26145410904E+03  0.17200000000E+03 0.  1.
         -6    1    1    2    0  502  0.61433857460E+02  0.12440648672E+03  0.26492442239E+03  0.34499281494E+03  0.17200000000E+03 0. -1.
</event>
<event>
 4    1  0.5739010E+000  0.3569216E+03  0.7818608E-02  0.1059809E+00
         21   -1    0    0  503  502  0.00000000000E+00  0.00000000000E+00  0.24405517729E+03  0.24405517729E+03  0.00000000000E+00 0.  1.
         21   -1    0    0  501  503 -0.00000000000E+00 -0.00000000000E+00 -0.54212152195E+03  0.54212152195E+03  0.00000000000E+00 0. -1.
          6    1    1    2  501    0  0.24544296856E+03  0.19382152275E+03 -0.22479297934E+03  0.42181147099E+03  0.17200000000E+03 0. -1.
         -6    1    1    2    0  502 -0.24544296856E+03 -0.19382152275E+03 -0.73273365313E+02  0.36436522825E+03  0.17200000000E+03 0.  1.
</event>
<event>
 4    1  0.5739010E+000  0.2002263E+03  0.7818608E-02  0.1149548E+00
         21   -1    0    0  503  502  0.00000000000E+00  0.00000000000E+00  0.61353265716E+03  0.61353265716E+03  0.00000000000E+00 0.  1.
         21   -1    0    0  501  503 -0.00000000000E+00 -0.00000000000E+00 -0.83732321636E+02  0.83732321636E+02  0.00000000000E+00 0. -1.
          6    1    1    2  501    0 -0.71128160360E+02  0.73806303117E+02  0.10152196504E+03  0.22449341853E+03  0.17200000000E+03 0. -1.
         -6    1    1    2    0  502  0.71128160360E+02 -0.73806303117E+02  0.42827837049E+03  0.47277156027E+03  0.17200000000E+03 0.  1.
</event>
<event>
 4    1  0.5739010E+000  0.1784142E+03  0.7818608E-02  0.1169347E+00
         21   -1    0    0  501  502  0.00000000000E+00  0.00000000000E+00  0.59182457789E+02  0.59182457789E+02  0.00000000000E+00 0. -1.
         21   -1    0    0  502  503 -0.00000000000E+00 -0.00000000000E+00 -0.89023378089E+03  0.89023378089E+03  0.00000000000E+00 0. -1.
          6    1    1    2  501    0 -0.37013118999E+02  0.29625167599E+02 -0.11686427606E+03  0.21328122410E+03  0.17200000000E+03 0. -1.
         -6    1    1    2    0  503  0.37013118999E+02 -0.29625167599E+02 -0.71418704704E+03  0.73613501458E+03  0.17200000000E+03 0. -1.
</event>
<event>
 4    1  0.5739010E+000  0.4089484E+03  0.7818608E-02  0.1040724E+00
         21   -1    0    0  501  502  0.00000000000E+00  0.00000000000E+00  0.26107813207E+03  0.26107813207E+03  0.00000000000E+00 0. -1.
         21   -1    0    0  502  503 -0.00000000000E+00 -0.00000000000E+00 -0.64632710528E+03  0.64632710528E+03  0.00000000000E+00 0.  1.
          6    1    1    2  501    0  0.21344444106E+03  0.30347363836E+03 -0.14980385855E+03  0.43552264537E+03  0.17200000000E+03 0.  1.
         -6    1    1    2    0  503 -0.21344444106E+03 -0.30347363836E+03 -0.23544511466E+03  0.47188259198E+03  0.17200000000E+03 0.  1.
</event>
<event>
 4    1  0.5739010E+000  0.1963256E+03  0.7818608E-02  0.1152877E+00
         21   -1    0    0  501  502  0.00000000000E+00  0.00000000000E+00  0.62236711299E+03  0.62236711299E+03  0.00000000000E+00 0. -1.
         21   -1    0    0  502  503 -0.00000000000E+00 -0.00000000000E+00 -0.18339488522E+03  0.18339488522E+03  0.00000000000E+00 0.  1.
          6    1    1    2  501    0 -0.27506904604E+02  0.90571000357E+02  0.54736012594E+03  0.58150394958E+03  0.17200000000E+03 0. -1.
         -6    1    1    2    0  503  0.27506904604E+02 -0.90571000357E+02 -0.10838789818E+03  0.22425804863E+03  0.17200000000E+03 0.  1.
</event>
<event>
 4    1  0.5739010E+000  0.1856846E+03  0.7818608E-02  0.1162412E+00
         21   -1    0    0  503  502  0.00000000000E+00  0.00000000000E+00  0.12262892324E+03  0.12262892324E+03  0.00000000000E+00 0. -1.
         21   -1    0    0  501  503 -0.00000000000E+00 -0.00000000000E+00 -0.97714422443E+03  0.97714422443E+03  0.00000000000E+00 0.  1.
          6    1    1    2  501    0 -0.14884008394E+01  0.69946768529E+02 -0.89133718463E+03  0.91047281259E+03  0.17200000000E+03 0.  1.
         -6    1    1    2    0  502  0.14884008394E+01 -0.69946768529E+02  0.36821883439E+02  0.18930033509E+03  0.17200000000E+03 0. -1.
</event>
<event>
 4    1  0.5739010E+000  0.1983868E+03  0.7818608E-02  0.1151107E+00
         21   -1    0    0  503  502  0.00000000000E+00  0.00000000000E+00  0.46703822507E+03  0.46703822507E+03  0.00000000000E+00 0.  1.
         21   -1    0    0  501  503 -0.00000000000E+00 -0.00000000000E+00 -0.85700669879E+02  0.85700669879E+02  0.00000000000E+00 0.  1.
          6    1    1    2  501    0 -0.98489619466E+02 -0.85510089587E+01  0.22637658603E+03  0.30100445777E+03  0.17200000000E+03 0.  1.
         -6    1    1    2    0  502  0.98489619466E+02  0.85510089587E+01  0.15496096916E+03  0.25173443718E+03  0.17200000000E+03 0.  1.
</event>
<event>
 4    1  0.5739010E+000  0.2057680E+03  0.7818608E-02  0.1144962E+00
         21   -1    0    0  503  502  0.00000000000E+00  0.00000000000E+00  0.92456702542E+02  0.92456702542E+02  0.00000000000E+00 0. -1.
         21   -1    0    0  501  503 -0.00000000000E+00 -0.00000000000E+00 -0.91760403380E+03  0.91760403380E+03  0.00000000000E+00 0. -1.
          6    1    1    2  501    0 -0.10811084387E+03 -0.32688220932E+02 -0.77001580048E+03  0.79703501011E+03  0.17200000000E+03 0. -1.
         -6    1    1    2    0  502  0.10811084387E+03  0.32688220932E+02 -0.55131530772E+02  0.21302572623E+03  0.17200000000E+03 0. -1.
</event>
<event>
 4    1  0.5739010E+000  0.2166590E+03  0.7818608E-02  0.1136399E+00
         21   -1    0    0  501  502  0.00000000000E+00  0.00000000000E+00  0.60076893596E+03  0.60076893596E+03  0.00000000000E+00 0. -1.
         21   -1    0    0  502  503 -0.00000000000E+00 -0.00000000000E+00 -0.25751888039E+03  0.25751888039E+03  0.00000000000E+00 0. -1.
          6    1    1    2  501    0  0.32358636988E+02  0.12771073265E+03  0.52979572909E+03  0.57238503403E+03  0.17200000000E+03 0. -1.
         -6    1    1    2    0  503 -0.32358636988E+02 -0.12771073265E+03 -0.18654567352E+03  0.28590278231E+03  0.17200000000E+03 0. -1.
</event>
<event>
 4    1  0.5739010E+000  0.3578267E+03  0.7818608E-02  0.1059448E+00
         21   -1    0    0  501  502  0.00000000000E+00  0.00000000000E+00  0.28616248876E+03  0.28616248876E+03  0.00000000000E+00 0.  1.
         21   -1    0    0  502  503 -0.00000000000E+00 -0.00000000000E+00 -0.45073672508E+03  0.45073672508E+03  0.00000000000E+00 0. -1.
          6    1    1    2  501    0  0.25576490706E+03 -0.18176974109E+03 -0.11380812488E+03  0.37548930178E+03  0.17200000000E+03 0.  1.
         -6    1    1    2    0  503 -0.25576490706E+03  0.18176974109E+03 -0.50766111446E+02  0.36140991206E+03  0.17200000000E+03 0.  1.
</event>
<event>
 4    1  0.5739010E+000  0.3230531E+03  0.7818608E-02  0.1074253E+00
         21   -1    0    0  503  502  0.00000000000E+00  0.00000000000E+00  0.47867563690E+03  0.47867563690E+03  0.00000000000E+00 0. -1.
         21   -1    0    0  501  503 -0.00000000000E+00 -0.00000000000E+00 -0.27096186041E+03  0.27096186041E+03  0.00000000000E+00 0. -1.
          6    1    1    2  501    0 -0.27190615881E+03  0.29092035965E+02 -0.61813879676E+02  0.32891375993E+03  0.17200000000E+03 0. -1.
         -6    1    1    2    0  502  0.27190615881E+03 -0.29092035965E+02  0.26952765617E+03  0.42072373738E+03  0.17200000000E+03 0. -1.
</event>
<event>
 4    1  0.5739010E+000  0.1730931E+03  0.7818608E-02  0.1174660E+00
         21   -1    0    0  503  502  0.00000000000E+00  0.00000000000E+00  0.61783445520E+02  0.61783445520E+02  0.00000000000E+00 0.  1.
         21   -1    0    0  501  503 -0.00000000000E+00 -0.00000000000E+00 -0.52943042585E+03  0.52943042585E+03  0.00000000000E+00 0.  1.
          6    1    1    2  501    0  0.58351997853E+01 -0.18524688448E+02 -0.14813007786E+03  0.22782390920E+03  0.17200000000E+03 0.  1.
         -6    1    1    2    0  502 -0.58351997853E+01  0.18524688448E+02 -0.31951690247E+03  0.36338996216E+03  0.17200000000E+03 0.  1.
</event>
<event>
 4    1  0.5739010E+000  0.1730239E+03  0.7818608E-02  0.1174731E+00
         21   -1    0    0  503  502  0.00000000000E+00  0.00000000000E+00  0.62221583821E+02  0.62221583821E+02  0.00000000000E+00 0. -1.
         21   -1    0    0  501  503 -0.00000000000E+00 -0.00000000000E+00 -0.70675927127E+03  0.70675927127E+03  0.00000000000E+00 0. -1.
          6    1    1    2  501    0 -0.78688257009E+01  0.17068997805E+02 -0.53950806531E+03  0.56657410957E+03  0.17200000000E+03 0. -1.
         -6    1    1    2    0  502  0.78688257009E+01 -0.17068997805E+02 -0.10502962213E+03  0.20240674551E+03  0.17200000000E+03 0. -1.
</event>
<event>
 4    1  0.5739010E+000  0.1765807E+03  0.7818608E-02  0.1171154E+00
         21   -1    0    0  503  502  0.00000000000E+00  0.00000000000E+00  0.44207920191E+02  0.44207920191E+02  0.00000000000E+00 0.  1.
         21   -1    0    0  501  503 -0.00000000000E+00 -0.00000000000E+00 -0.19024718894E+04  0.19024718894E+04  0.00000000000E+00 0.  1.
          6    1    1    2  501    0  0.12341952773E+02  0.38005506929E+02 -0.17012434165E+04  0.17103829701E+04  0.17200000000E+03 0.  1.
         -6    1    1    2    0  502 -0.12341952773E+02 -0.38005506929E+02 -0.15702055267E+03  0.23629683941E+03  0.17200000000E+03 0.  1.
</event>
<event>
 4    1  0.5739010E+000  0.1859489E+03  0.7818608E-02  0.1162167E+00
         21   -1    0    0  501  502  0.00000000000E+00  0.00000000000E+00  0.32876681391E+03  0.32876681391E+03  0.00000000000E+00 0.  1.
         21   -1    0    0  502  503 -0.00000000000E+00 -0.00000000000E+00 -0.14417787575E+03  0.14417787575E+03  0.00000000000E+00 0.  1.
          6    1    1    2  501    0 -0.16920795844E+02 -0.68605282272E+02  0.21529221942E+03  0.28447800940E+03  0.17200000000E+03 0.  1.
         -6    1    1    2    0  503  0.16920795844E+02  0.68605282272E+02 -0.30703281260E+02  0.18846668026E+03  0.17200000000E+03 0.  1.
</event>
<event>
 4    1  0.5739010E+000  0.1973392E+03  0.7818608E-02  0.1152004E+00
         21   -1    0    0  503  502  0.00000000000E+00  0.00000000000E+00  0.27270019110E+03  0.27270019110E+03  0.00000000000E+00 0. -1.
         21   -1    0    0  501  503 -0.00000000000E+00 -0.00000000000E+00 -0.17906460489E+03  0.17906460489E+03  0.00000000000E+00 0. -1.
          6    1    1    2  501    0 -0.74211751946E+02  0.62059554125E+02 -0.54828832726E+02  0.20481448504E+03  0.17200000000E+03 0. -1.
         -6    1    1    2    0  502  0.74211751946E+02 -0.62059554125E+02  0.14846441893E+03  0.24695031094E+03  0.17200000000E+03 0. -1.
</event>
<event>
 4    1  0.5739010E+000  0.2551884E+03  0.7818608E-02  0.1110069E+00
         21   -1    0    0  501  502  0.00000000000E+00  0.00000000000E+00  0.23579813624E+03  0.23579813624E+03  0.00000000000E+00 0. -1.
         21   -1    0    0  502  503 -0.00000000000E+00 -0.00000000000E+00 -0.40916141900E+03  0.40916141900E+03  0.00000000000E+00 0. -1.
          6    1    1    2  501    0  0.13503372035E+03  0.13154083060E+03  0.97167641814E+02  0.27306161642E+03  0.17200000000E+03 0. -1.
         -6    1    1    2    0  503 -0.13503372035E+03 -0.13154083060E+03 -0.27053092457E+03  0.37189793882E+03  0.17200000000E+03 0. -1.
</event>
<event>
 4    1  0.5739010E+000  0.1739897E+03  0.7818608E-02  0.1173750E+00
         21   -1    0    0  503  502  0.00000000000E+00  0.00000000000E+00  0.28650447847E+03  0.28650447847E+03  0.00000000000E+00 0. -1.
         21   -1    0    0  501  503 -0.00000000000E+00 -0.00000000000E+00 -0.19692196610E+03  0.19692196610E+03  0.00000000000E+00 0. -1.
          6    1    1    2  501    0 -0.25802361991E+02  0.47585746064E+01 -0.11975779806E+03  0.21122105982E+03  0.17200000000E+03 0. -1.
         -6    1    1    2    0  502  0.25802361991E+02 -0.47585746064E+01  0.20934031042E+03  0.27220538475E+03  0.17200000000E+03 0. -1.
</event>
<event>
 4    1  0.5739010E+000  0.1789011E+03  0.7818608E-02  0.1168871E+00
         21   -1    0    0  501  502  0.00000000000E+00  0.00000000000E+00  0.14710956157E+03  0.14710956157E+03  0.00000000000E+00 0.  1.
         21   -1    0    0  502  503 -0.00000000000E+00 -0.00000000000E+00 -0.28122250602E+03  0.28122250602E+03  0.00000000000E+00 0.  1.
          6    1    1    2  501    0 -0.48794289007E+02  0.63816034313E+01  0.34839486092E+02  0.18226189205E+03  0.17200000000E+03 0.  1.
         -6    1    1    2    0  503  0.48794289007E+02 -0.63816034313E+01 -0.16895243054E+03  0.24607017554E+03  0.17200000000E+03 0.  1.
</event>
<event>
 4    1  0.5739010E+000  0.1767232E+03  0.7818608E-02  0.1171013E+00
         21   -1    0    0  503  502  0.00000000000E+00  0.00000000000E+00  0.27298658512E+03  0.27298658512E+03  0.00000000000E+00 0. -1.
         21   -1    0    0  501  503 -0.00000000000E+00 -0.00000000000E+00 -0.11825275237E+03  0.11825275237E+03  0.00000000000E+00 0. -1.
          6    1    1    2  501    0 -0.18742285617E+02  0.35997643151E+02  0.42081496412E+02  0.18166440467E+03  0.17200000000E+03 0. -1.
         -6    1    1    2    0  502  0.18742285617E+02 -0.35997643151E+02  0.11265233634E+03  0.20957493282E+03  0.17200000000E+03 0. -1.
</event>
<event>
 4    1  0.5739010E+000  0.2530792E+03  0.7818608E-02  0.1111374E+00
         21   -1    0    0  501  502  0.00000000000E+00  0.00000000000E+00  0.15397988990E+04  0.15397988990E+04  0.00000000000E+00 0. -1.
         21   -1    0    0  502  503 -0.00000000000E+00 -0.00000000000E+00 -0.54386638101E+02  0.54386638101E+02  0.00000000000E+00 0.  1.
          6    1    1    2  501    0 -0.22515691327E+02 -0.18427724679E+03  0.11292630421E+04  0.11572744179E+04  0.17200000000E+03 0.  1.
         -6    1    1    2    0  503  0.22515691327E+02  0.18427724679E+03  0.35614921877E+03  0.43691111919E+03  0.17200000000E+03 0. -1.
</event>
<event>
 4    1  0.5739010E+000  0.2050674E+03  0.7818608E-02  0.1145533E+00
         21   -1    0    0  501  502  0.00000000000E+00  0.00000000000E+00  0.14101163937E+03  0.14101163937E+03  0.00000000000E+00 0.  1.
         21   -1    0    0  502  503 -0.00000000000E+00 -0.00000000000E+00 -0.49147877568E+03  0.49147877568E+03  0.00000000000E+00 0.  1.
          6    1    1    2  501    0 -0.44474399515E+02 -0.10242402286E+03 -0.37354141238E+03  0.42612890002E+03  0.17200000000E+03 0.  1.
         -6    1    1    2    0  503  0.44474399515E+02  0.10242402286E+03  0.23074276064E+02  0.20636151504E+03  0.17200000000E+03 0.  1.
</event>
<event>
 4    1  0.5739010E+000  0.1996154E+03  0.7818608E-02  0.1150064E+00
         21   -1    0    0  501  502  0.00000000000E+00  0.00000000000E+00  0.14747587685E+03  0.14747587685E+03  0.00000000000E+00 0. -1.
         21   -1    0    0  502  503 -0.00000000000E+00 -0.00000000000E+00 -0.27029554233E+03  0.27029554233E+03  0.00000000000E+00 0. -1.
          6    1    1    2  501    0 -0.61469690830E+02 -0.80522003239E+02 -0.57256901138E+02  0.20766479871E+03  0.17200000000E+03 0.  1.
         -6    1    1    2    0  503  0.61469690830E+02  0.80522003239E+02 -0.65562764338E+02  0.21010662047E+03  0.17200000000E+03 0.  1.
</event>
<event>
 4    1  0.5739010E+000  0.1803909E+03  0.7818608E-02  0.1167425E+00
         21   -1    0    0  503  502  0.00000000000E+00  0.00000000000E+00  0.20244396173E+03  0.20244396173E+03  0.00000000000E+00 0.  1.
         21   -1    0    0  501  503 -0.00000000000E+00 -0.00000000000E+00 -0.18303779738E+03  0.18303779738E+03  0.00000000000E+00 0. -1.
          6    1    1    2  501    0  0.24830286907E+02 -0.48376908419E+02 -0.57568737794E+02  0.18935423942E+03  0.17200000000E+03 0. -1.
         -6    1    1    2    0  502 -0.24830286907E+02  0.48376908419E+02  0.76974902145E+02  0.19612751968E+03  0.17200000000E+03 0.  1.
</event>
<event>
 4    1  0.5739010E+000  0.1877116E+03  0.7818608E-02  0.1160542E+00
         21   -1    0    0  501  502  0.00000000000E+00  0.00000000000E+00  0.23477120463E+02  0.23477120463E+02  0.00000000000E+00 0.  1.
         21   -1    0    0  502  503 -0.00000000000E+00 -0.00000000000E+00 -0.17080654189E+04  0.17080654189E+04  0.00000000000E+00 0.  1.
          6    1    1    2  501    0  0.72306260986E+02 -0.20577687592E+02 -0.54074234040E+03  0.57239664160E+03  0.17200000000E+03 0.  1.
         -6    1    1    2    0  503 -0.72306260986E+02  0.20577687592E+02 -0.11438459581E+04  0.11591458978E+04  0.17200000000E+03 0.  1.
</event>
<event>
 4    1  0.5739010E+000  0.1972726E+03  0.7818608E-02  0.1152061E+00
         21   -1    0    0  503  502  0.00000000000E+00  0.00000000000E+00  0.92207247317E+02  0.92207247317E+02  0.00000000000E+00 0.  1.
         21   -1    0    0  501  503 -0.00000000000E+00 -0.00000000000E+00 -0.42268295786E+03  0.42268295786E+03  0.00000000000E+00 0.  1.
          6    1    1    2  501    0  0.13867879299E+02  0.95604170002E+02 -0.17516550205E+03  0.26381703604E+03  0.17200000000E+03 0.  1.
         -6    1    1    2    0  502 -0.13867879299E+02 -0.95604170002E+02 -0.15531020850E+03  0.25107316914E+03  0.17200000000E+03 0.  1.
</event>
<event>
 4    1  0.5739010E+000  0.1836579E+03  0.7818608E-02  0.1164309E+00
         21   -1    0    0  501  502  0.00000000000E+00  0.00000000000E+00  0.18626918162E+03  0.18626918162E+03  0.00000000000E+00 0.  1.
         21   -1    0    0  502  503 -0.00000000000E+00 -0.00000000000E+00 -0.60869077192E+03  0.60869077192E+03  0.00000000000E+00 0.  1.
          6    1    1    2  501    0  0.34506378987E-01 -0.64391271693E+02  0.12193899377E+03  0.22045261455E+03  0.17200000000E+03 0. -1.
         -6    1    1    2    0  503 -0.34506378987E-01  0.64391271693E+02 -0.54436058407E+03  0.57450733899E+03  0.17200000000E+03 0. -1.
</event>
<event>
 4    1  0.5739010E+000  0.2016927E+03  0.7818608E-02  0.1148319E+00
         21   -1    0    0  503  502  0.00000000000E+00  0.00000000000E+00  0.59538368506E+02  0.59538368506E+02  0.00000000000E+00 0.  1.
         21   -1    0    0  501  503 -0.00000000000E+00 -0.00000000000E+00 -0.12393265708E+04  0.12393265708E+04  0.00000000000E+00 0.  1.
          6    1    1    2  501    0  0.10430585965E+03  0.14705478927E+02 -0.10249108404E+04  0.10445679462E+04  0.17200000000E+03 0.  1.
         -6    1    1    2    0  502 -0.10430585965E+03 -0.14705478927E+02 -0.15487736186E+03  0.25429699307E+03  0.17200000000E+03 0.  1.
</event>
<event>
 4    1  0.5739010E+000  0.2196551E+03  0.7818608E-02  0.1134140E+00
         21   -1    0    0  503  502  0.00000000000E+00  0.00000000000E+00  0.14771086594E+04  0.14771086594E+04  0.00000000000E+00 0. -1.
         21   -1    0    0  501  503 -0.00000000000E+00 -0.00000000000E+00 -0.51964860931E+02  0.51964860931E+02  0.00000000000E+00 0.  1.
          6    1    1    2  501    0 -0.31996674331E+02  0.13281781832E+03  0.24663060960E+03  0.33026507176E+03  0.17200000000E+03 0.  1.
         -6    1    1    2    0  502  0.31996674331E+02 -0.13281781832E+03  0.11785131889E+04  0.11988084486E+04  0.17200000000E+03 0. -1.
</event>
<event>
 4    1  0.5739010E+000  0.2088084E+03  0.7818608E-02  0.1142513E+00
         21   -1    0    0  503  502  0.00000000000E+00  0.00000000000E+00  0.64749222818E+03  0.64749222818E+03  0.00000000000E+00 0.  1.
         21   -1    0    0  501  503 -0.00000000000E+00 -0.00000000000E+00 -0.17349189288E+03  0.17349189288E+03  0.00000000000E+00 0. -1.
          6    1    1    2  501    0 -0.10776337629E+03  0.49030420143E+02 -0.84094304709E+02  0.22510615152E+03  0.17200000000E+03 0. -1.
         -6    1    1    2    0  502  0.10776337629E+03 -0.49030420143E+02  0.55809464001E+03  0.59587796954E+03  0.17200000000E+03 0.  1.
</event>
<event>
 4    1  0.5739010E+000  0.1914887E+03  0.7818608E-02  0.1157125E+00
         21   -1    0    0  501  502  0.00000000000E+00  0.00000000000E+00  0.51358903355E+03  0.51358903355E+03  0.00000000000E+00 0.  1.
         21   -1    0    0  502  503 -0.00000000000E+00 -0.00000000000E+00 -0.83198915160E+02  0.83198915160E+02  0.00000000000E+00 0.  1.
          6    1    1    2  501    0  0.58587550905E+02 -0.60427020424E+02  0.32758715568E+03  0.37944864012E+03  0.17200000000E+03 0. -1.
         -6    1    1    2    0  503 -0.58587550905E+02  0.60427020424E+02  0.10280296271E+03  0.21733930859E+03  0.17200000000E+03 0. -1.
</event>
<event>
 4    1  0.5739010E+000  0.2541632E+03  0.7818608E-02  0.1110702E+00
         21   -1    0    0  503  502  0.00000000000E+00  0.00000000000E+00  0.17582728644E+03  0.17582728644E+03  0.00000000000E+00 0. -1.
         21   -1    0    0  501  503 -0.00000000000E+00 -0.00000000000E+00 -0.73588310492E+03  0.73588310492E+03  0.00000000000E+00 0.  1.
          6    1    1    2  501    0 -0.18207174815E+03  0.43183743103E+02 -0.60260330778E+03  0.65401047674E+03  0.17200000000E+03 0.  1.
         -6    1    1    2    0  502  0.18207174815E+03 -0.43183743103E+02  0.42547489301E+02  0.25769991461E+03  0.17200000000E+03 0. -1.
</event>
<event>
 4    1  0.5739010E+000  0.2308933E+03  0.7818608E-02  0.1126013E+00
         21   -1    0    0  503  502  0.00000000000E+00  0.00000000000E+00  0.85090296349E+02  0.85090296349E+02  0.00000000000E+00 0. -1.
         21   -1    0    0  501  503 -0.00000000000E+00 -0.00000000000E+00 -0.13145920829E+04  0.13145920829E+04  0.00000000000E+00 0.  1.
          6    1    1    2  501    0  0.43847650941E+02  0.14766551879E+03 -0.11210619841E+04  0.11445923703E+04  0.17200000000E+03 0.  1.
         -6    1    1    2    0  502 -0.43847650941E+02 -0.14766551879E+03 -0.10843980251E+03  0.25509000901E+03  0.17200000000E+03 0. -1.
</event>
<event>
 4    1  0.5739010E+000  0.2138827E+03  0.7818608E-02  0.1138528E+00
         21   -1    0    0  503  502  0.00000000000E+00  0.00000000000E+00  0.56340695270E+02  0.56340695270E+02  0.00000000000E+00 0.  1.
         21   -1    0    0  501  503 -0.00000000000E+00 -0.00000000000E+00 -0.81605405570E+03  0.81605405570E+03  0.00000000000E+00 0. -1.
          6    1    1    2  501    0  0.11491447930E+03 -0.54373353144E+02 -0.41079216416E+03  0.46313713004E+03  0.17200000000E+03 0. -1.
         -6    1    1    2    0  502 -0.11491447930E+03  0.54373353144E+02 -0.34892119626E+03  0.40925762093E+03  0.17200000000E+03 0.  1.
</event>
<event>
 4    1  0.5739010E+000  0.1745787E+03  0.7818608E-02  0.1173155E+00
         21   -1    0    0  503  502  0.00000000000E+00  0.00000000000E+00  0.49571609412E+03  0.49571609412E+03  0.00000000000E+00 0. -1.
         21   -1    0    0  501  503 -0.00000000000E+00 -0.00000000000E+00 -0.21078141329E+03  0.21078141329E+03  0.00000000000E+00 0. -1.
          6    1    1    2  501    0 -0.13649778878E+02 -0.26597006098E+02 -0.15483151588E+03  0.23334634239E+03  0.17200000000E+03 0.  1.
         -6    1    1    2    0  502  0.13649778878E+02  0.26597006098E+02  0.43976619671E+03  0.47315116502E+03  0.17200000000E+03 0.  1.
</event>
<event>
 4    1  0.5739010E+000  0.1724436E+03  0.7818608E-02  0.1175323E+00
         21   -1    0    0  503  502  0.00000000000E+00  0.00000000000E+00  0.76005806792E+03  0.76005806792E+03  0.00000000000E+00 0.  1.
         21   -1    0    0  501  503 -0.00000000000E+00 -0.00000000000E+00 -0.52659599882E+02  0.52659599882E+02  0.00000000000E+00 0.  1.
          6    1    1    2  501    0 -0.15655847307E+00 -0.12360536046E+02  0.55971641696E+03  0.58567847389E+03  0.17200000000E+03 0.  1.
         -6    1    1    2    0  502  0.15655847307E+00  0.12360536046E+02  0.14768205107E+03  0.22703919391E+03  0.17200000000E+03 0.  1.
</event>
<event>
 4    1  0.5739010E+000  0.2306806E+03  0.7818608E-02  0.1126162E+00
         21   -1    0    0  503  502  0.00000000000E+00  0.00000000000E+00  0.63704767547E+02  0.63704767547E+02  0.00000000000E+00 0. -1.
         21   -1    0    0  501  503 -0.00000000000E+00 -0.00000000000E+00 -0.91189697112E+03  0.91189697112E+03  0.00000000000E+00 0.  1.
          6    1    1    2  501    0  0.74635313681E+02 -0.13438410318E+03 -0.56545863480E+03  0.61070204266E+03  0.17200000000E+03 0.  1.
         -6    1    1    2    0  502 -0.74635313681E+02  0.13438410318E+03 -0.28273356877E+03  0.36489969600E+03  0.17200000000E+03 0. -1.
</event>
<event>
 4    1  0.5739010E+000  0.3359541E+03  0.7818608E-02  0.1068532E+00
         21   -1    0    0  501  502  0.00000000000E+00  0.00000000000E+00  0.50342675685E+03  0.50342675685E+03  0.00000000000E+00 0.  1.
         21   -1    0    0  502  503 -0.00000000000E+00 -0.00000000000E+00 -0.27503865732E+03  0.27503865732E+03  0.00000000000E+00 0.  1.
          6    1    1    2  501    0 -0.18846683397E+03 -0.21854378611E+03  0.28154807961E+03  0.43833144433E+03  0.17200000000E+03 0.  1.
         -6    1    1    2    0  503  0.18846683397E+03  0.21854378611E+03 -0.53159980082E+02  0.34013396984E+03  0.17200000000E+03 0.  1.
</event>
<event>
 4    1  0.5739010E+000  0.2077771E+03  0.7818608E-02  0.1143338E+00
         21   -1    0    0  503  502  0.00000000000E+00  0.00000000000E+00  0.52398287674E+03  0.52398287674E+03  0.00000000000E+00 0. -1.
         21   -1    0    0  501  503 -0.00000000000E+00 -0.00000000000E+00 -0.89478036285E+02  0.89478036285E+02  0.00000000000E+00 0.  1.
          6    1    1    2  501    0  0.77540313352E+02 -0.87033481799E+02  0.30357800860E+03  0.36787353051E+03  0.17200000000E+03 0. -1.
         -6    1    1    2    0  502 -0.77540313352E+02  0.87033481799E+02  0.13092683186E+03  0.24558738251E+03  0.17200000000E+03 0. -1.
</event>
<event>
 4    1  0.5739010E+000  0.2118550E+03  0.7818608E-02  0.1140105E+00
         21   -1    0    0  503  502  0.00000000000E+00  0.00000000000E+00  0.54807909659E+02  0.54807909659E+02  0.00000000000E+00 0.  1.
         21   -1    0    0  501  503 -0.00000000000E+00 -0.00000000000E+00 -0.14051691831E+04  0.14051691831E+04  0.00000000000E+00 0.  1.
          6    1    1    2  501    0 -0.12366939498E+03  0.21045736334E+01 -0.20366304861E+03  0.29387273752E+03  0.17200000000E+03 0.  1.
         -6    1    1    2    0  502  0.12366939498E+03 -0.21045736334E+01 -0.11466982248E+04  0.11661043553E+04  0.17200000000E+03 0.  1.
</event>
<event>
 4    1  0.5739010E+000  0.2156415E+03  0.7818608E-02  0.1137175E+00
         21   -1    0    0  503  502  0.00000000000E+00  0.00000000000E+00  0.13290914708E+04  0.13290914708E+04  0.00000000000E+00 0.  1.
         21   -1    0    0  501  503 -0.00000000000E+00 -0.00000000000E+00 -0.27972074842E+03  0.27972074842E+03  0.00000000000E+00 0.  1.
          6    1    1    2  501    0 -0.74873755314E+02 -0.10635402966E+03 -0.22773359191E+03  0.31363011294E+03  0.17200000000E+03 0.  1.
         -6    1    1    2    0  502  0.74873755314E+02  0.10635402966E+03  0.12771043142E+04  0.12951821062E+04  0.17200000000E+03 0.  1.
</event>
<event>
 4    1  0.5739010E+000  0.2022421E+03  0.7818608E-02  0.1147861E+00
         21   -1    0    0  503  502  0.00000000000E+00  0.00000000000E+00  0.17480785242E+03  0.17480785242E+03  0.00000000000E+00 0. -1.
         21   -1    0    0  501  503 -0.00000000000E+00 -0.00000000000E+00 -0.41125471691E+03  0.41125471691E+03  0.00000000000E+00 0. -1.
          6    1    1    2  501    0  0.69802545107E+02 -0.80283642110E+02 -0.31061220339E+03  0.37065050841E+03  0.17200000000E+03 0.  1.
         -6    1    1    2    0  502 -0.69802545107E+02  0.80283642110E+02  0.74165338903E+02  0.21541206092E+03  0.17200000000E+03 0.  1.
</event>
<event>
 4    1  0.5739010E+000  0.1721216E+03  0.7818608E-02  0.1175653E+00
         21   -1    0    0  501  502  0.00000000000E+00  0.00000000000E+00  0.13010461793E+03  0.13010461793E+03  0.00000000000E+00 0. -1.
         21   -1    0    0  502  503 -0.00000000000E+00 -0.00000000000E+00 -0.48001180042E+03  0.48001180042E+03  0.00000000000E+00 0. -1.
          6    1    1    2  501    0  0.21398942484E+01  0.61059189568E+01  0.46212560732E+02  0.17821745752E+03  0.17200000000E+03 0.  1.
         -6    1    1    2    0  503 -0.21398942484E+01 -0.61059189568E+01 -0.39611974322E+03  0.43189896083E+03  0.17200000000E+03 0.  1.
</event>
<event>
 4    1  0.5739010E+000  0.1782585E+03  0.7818608E-02  0.1169499E+00
         21   -1    0    0  501  502  0.00000000000E+00  0.00000000000E+00  0.12529989038E+04  0.12529989038E+04  0.00000000000E+00 0.  1.
         21   -1    0    0  502  503 -0.00000000000E+00 -0.00000000000E+00 -0.31765438795E+02  0.31765438795E+02  0.00000000000E+00 0.  1.
          6    1    1    2  501    0  0.46816778271E+02 -0.54113393204E+00  0.89907905981E+03  0.91658019799E+03  0.17200000000E+03 0.  1.
         -6    1    1    2    0  503 -0.46816778271E+02  0.54113393204E+00  0.32215440519E+03  0.36818414461E+03  0.17200000000E+03 0.  1.
</event>
<event>
 4    1  0.5739010E+000  0.2213368E+03  0.7818608E-02  0.1132890E+00
         21   -1    0    0  503  502  0.00000000000E+00  0.00000000000E+00  0.50105019237E+03  0.50105019237E+03  0.00000000000E+00 0. -1.
         21   -1    0    0  501  503 -0.00000000000E+00 -0.00000000000E+00 -0.10109983492E+03  0.10109983492E+03  0.00000000000E+00 0.  1.
          6    1    1    2  501    0  0.65221030363E+01 -0.13915252986E+03  0.14537262307E+03  0.26480778677E+03  0.17200000000E+03 0.  1.
         -6    1    1    2    0  502 -0.65221030363E+01  0.13915252986E+03  0.25457773438E+03  0.33734224052E+03  0.17200000000E+03 0. -1.
</event>
<event>
 4    1  0.5739010E+000  0.1762663E+03  0.7818608E-02  0.1171466E+00
         21   -1    0    0  501  502  0.00000000000E+00  0.00000000000E+00  0.28864374139E+02  0.28864374139E+02  0.00000000000E+00 0.  1.
         21   -1    0    0  502  503 -0.00000000000E+00 -0.00000000000E+00 -0.10770318121E+04  0.10770318121E+04  0.00000000000E+00 0.  1.
          6    1    1    2  501    0 -0.21904532653E+02  0.31717747589E+02 -0.53739831887E+03  0.56556765925E+03  0.17200000000E+03 0.  1.
         -6    1    1    2    0  503  0.21904532653E+02 -0.31717747589E+02 -0.51076911909E+03  0.54032852699E+03  0.17200000000E+03 0.  1.
</event>
<event>
 4    1  0.5739010E+000  0.1833833E+03  0.7818608E-02  0.1164568E+00
         21   -1    0    0  501  502  0.00000000000E+00  0.00000000000E+00  0.12395090797E+04  0.12395090797E+04  0.00000000000E+00 0.  1.
         21   -1    0    0  502  503 -0.00000000000E+00 -0.00000000000E+00 -0.45133537536E+02  0.45133537536E+02  0.00000000000E+00 0.  1.
          6    1    1    2  501    0  0.34109668145E+01  0.63512104355E+02  0.10028518689E+04  0.10194808939E+04  0.17200000000E+03 0.  1.
         -6    1    1    2    0  503 -0.34109668145E+01 -0.63512104355E+02  0.19152367325E+03  0.26516172331E+03  0.17200000000E+03 0.  1.
</event>
<event>
 4    1  0.5739010E+000  0.1774007E+03  0.7818608E-02  0.1170343E+00
         21   -1    0    0  503  502  0.00000000000E+00  0.00000000000E+00  0.46318277438E+03  0.46318277438E+03  0.00000000000E+00 0.  1.
         21   -1    0    0  501  503 -0.00000000000E+00 -0.00000000000E+00 -0.70497431046E+02  0.70497431046E+02  0.00000000000E+00 0.  1.
          6    1    1    2  501    0  0.81564891666E+01  0.42667004564E+02  0.14556969235E+03  0.22948101648E+03  0.17200000000E+03 0.  1.
         -6    1    1    2    0  502 -0.81564891666E+01 -0.42667004564E+02  0.24711565098E+03  0.30419918894E+03  0.17200000000E+03 0.  1.
</event>
<event>
 4    1  0.5739010E+000  0.3140361E+03  0.7818608E-02  0.1078427E+00
         21   -1    0    0  501  502  0.00000000000E+00  0.00000000000E+00  0.84440841501E+03  0.84440841501E+03  0.00000000000E+00 0.  1.
         21   -1    0    0  502  503 -0.00000000000E+00 -0.00000000000E+00 -0.12170760487E+03  0.12170760487E+03  0.00000000000E+00 0.  1.
          6    1    1    2  501    0  0.25837313775E+03 -0.47728006791E+02  0.26425297863E+03  0.41042450909E+03  0.17200000000E+03 0.  1.
         -6    1    1    2    0  503 -0.25837313775E+03  0.47728006791E+02  0.45844783151E+03  0.55569151079E+03  0.17200000000E+03 0.  1.
</event>
<event>
 4    1  0.5739010E+000  0.2457796E+03  0.7818608E-02  0.1116001E+00
         21   -1    0    0  503  502  0.00000000000E+00  0.00000000000E+00  0.56654294058E+03  0.56654294058E+03  0.00000000000E+00 0.  1.
         21   -1    0    0  501  503 -0.00000000000E+00 -0.00000000000E+00 -0.10868736713E+03  0.10868736713E+03  0.00000000000E+00 0.  1.
          6    1    1    2  501    0  0.16699278352E+03  0.54194347047E+02  0.27543495038E+03  0.36915041499E+03  0.17200000000E+03 0.  1.
         -6    1    1    2    0  502 -0.16699278352E+03 -0.54194347047E+02  0.18242062307E+03  0.30607989271E+03  0.17200000000E+03 0.  1.
</event>
<event>
 4    1  0.5739010E+000  0.1910313E+03  0.7818608E-02  0.1157534E+00
         21   -1    0    0  501  502  0.00000000000E+00  0.00000000000E+00  0.20755396270E+03  0.20755396270E+03  0.00000000000E+00 0. -1.
         21   -1    0    0  502  503 -0.00000000000E+00 -0.00000000000E+00 -0.17627487308E+03  0.17627487308E+03  0.00000000000E+00 0. -1.
          6    1    1    2  501    0  0.35703054316E+02  0.75061634928E+02  0.25346089128E+02  0.19270542639E+03  0.17200000000E+03 0. -1.
         -6    1    1    2    0  503 -0.35703054316E+02 -0.75061634928E+02  0.59330004920E+01  0.19112340940E+03  0.17200000000E+03 0. -1.
</event>
<event>
 4    1  0.5739010E+000  0.2324717E+03  0.7818608E-02  0.1124912E+00
         21   -1    0    0  501  502  0.00000000000E+00  0.00000000000E+00  0.51135847158E+03  0.51135847158E+03  0.00000000000E+00 0.  1.
         21   -1    0    0  502  503 -0.00000000000E+00 -0.00000000000E+00 -0.15560549280E+03  0.15560549280E+03  0.00000000000E+00 0.  1.
          6    1    1    2  501    0 -0.30001195710E+02 -0.15348948260E+03  0.36676166463E+03  0.43423174878E+03  0.17200000000E+03 0.  1.
         -6    1    1    2    0  503  0.30001195710E+02  0.15348948260E+03 -0.11008685843E+02  0.23273221559E+03  0.17200000000E+03 0.  1.
</event>
<event>
 4    1  0.5739010E+000  0.1813273E+03  0.7818608E-02  0.1166525E+00
         21   -1    0    0  501  502  0.00000000000E+00  0.00000000000E+00  0.44833639855E+03  0.44833639855E+03  0.00000000000E+00 0.  1.
         21   -1    0    0  502  503 -0.00000000000E+00 -0.00000000000E+00 -0.24660867786E+03  0.24660867786E+03  0.00000000000E+00 0.  1.
          6    1    1    2  501    0 -0.41025378790E+02  0.40155979716E+02  0.39212347672E+03  0.43201898732E+03  0.17200000000E+03 0. -1.
         -6    1    1    2    0  503  0.41025378790E+02 -0.40155979716E+02 -0.19039575603E+03  0.26292608909E+03  0.17200000000E+03 0. -1.
</event>
<event>
 4    1  0.5739010E+000  0.1921540E+03  0.7818608E-02  0.1156533E+00
         21   -1    0    0  501  502  0.00000000000E+00  0.00000000000E+00  0.25362730554E+03  0.25362730554E+03  0.00000000000E+00 0.  1.
         21   -1    0    0  502  503 -0.00000000000E+00 -0.00000000000E+00 -0.23200617008E+03  0.23200617008E+03  0.00000000000E+00 0.  1.
          6    1    1    2  501    0 -0.84779380860E+02 -0.12313772016E+02  0.15901131870E+03  0.24941485897E+03  0.17200000000E+03 0.  1.
         -6    1    1    2    0  503  0.84779380860E+02  0.12313772016E+02 -0.13739018324E+03  0.23621861665E+03  0.17200000000E+03 0.  1.
</event>
<event>
 4    1  0.5739010E+000  0.1755283E+03  0.7818608E-02  0.1172202E+00
         21   -1    0    0  503  502  0.00000000000E+00  0.00000000000E+00  0.28370861142E+03  0.28370861142E+03  0.00000000000E+00 0.  1.
         21   -1    0    0  501  503 -0.00000000000E+00 -0.00000000000E+00 -0.15714114730E+03  0.15714114730E+03  0.00000000000E+00 0.  1.
          6    1    1    2  501    0  0.19652632211E+02  0.28982303189E+02 -0.59228492814E+02  0.18525175900E+03  0.17200000000E+03 0.  1.
         -6    1    1    2    0  502 -0.19652632211E+02 -0.28982303189E+02  0.18579595693E+03  0.25559799972E+03  0.17200000000E+03 0.  1.
</event>
<event>
 4    1  0.5739010E+000  0.2658030E+03  0.7818608E-02  0.1103706E+00
         21   -1    0    0  503  502  0.00000000000E+00  0.00000000000E+00  0.40027345334E+02  0.40027345334E+02  0.00000000000E+00 0.  1.
         21   -1    0    0  501  503 -0.00000000000E+00 -0.00000000000E+00 -0.24911530428E+04  0.24911530428E+04  0.00000000000E+00 0.  1.
          6    1    1    2  501    0  0.11517571541E+03 -0.16673861768E+03 -0.19088212112E+04  0.19272388613E+04  0.17200000000E+03 0.  1.
         -6    1    1    2    0  502 -0.11517571541E+03  0.16673861768E+03 -0.54230448621E+03  0.60394152681E+03  0.17200000000E+03 0.  1.
</event>
<event>
 4    1  0.5739010E+000  0.1928719E+03  0.7818608E-02  0.1155896E+00
         21   -1    0    0  503  502  0.00000000000E+00  0.00000000000E+00  0.12012570937E+03  0.12012570937E+03  0.00000000000E+00 0. -1.
         21   -1    0    0  501  503 -0.00000000000E+00 -0.00000000000E+00 -0.33768704383E+03  0.33768704383E+03  0.00000000000E+00 0. -1.
          6    1    1    2  501    0 -0.81452598509E+02 -0.31321534407E+02 -0.17471272427E+03  0.26023854507E+03  0.17200000000E+03 0. -1.
         -6    1    1    2    0  502  0.81452598509E+02  0.31321534407E+02 -0.42848610199E+02  0.19757420813E+03  0.17200000000E+03 0. -1.
</event>
<event>
 4    1  0.5739010E+000  0.1843728E+03  0.7818608E-02  0.1163637E+00
         21   -1    0    0  503  502  0.00000000000E+00  0.00000000000E+00  0.41188519237E+03  0.41188519237E+03  0.00000000000E+00 0.  1.
         21   -1    0    0  501  503 -0.00000000000E+00 -0.00000000000E+00 -0.10082246759E+03  0.10082246759E+03  0.00000000000E+00 0.  1.
          6    1    1    2  501    0  0.22972969616E+02  0.62302393109E+02  0.46341071981E+02  0.19010744455E+03  0.17200000000E+03 0.  1.
         -6    1    1    2    0  502 -0.22972969616E+02 -0.62302393109E+02  0.26472165280E+03  0.32260021541E+03  0.17200000000E+03 0.  1.
</event>
<event>
 4    1  0.5739010E+000  0.2788152E+03  0.7818608E-02  0.1096338E+00
         21   -1    0    0  501  502  0.00000000000E+00  0.00000000000E+00  0.15305659386E+04  0.15305659386E+04  0.00000000000E+00 0.  1.
         21   -1    0    0  502  503 -0.00000000000E+00 -0.00000000000E+00 -0.10361085927E+03  0.10361085927E+03  0.00000000000E+00 0.  1.
          6    1    1    2  501    0  0.21740400232E+03 -0.29822904336E+02  0.12968795176E+04  0.13265121141E+04  0.17200000000E+03 0.  1.
         -6    1    1    2    0  503 -0.21740400232E+03  0.29822904336E+02  0.13007556176E+03  0.30766468373E+03  0.17200000000E+03 0.  1.
</event>
<event>
 4    1  0.5739010E+000  0.2502142E+03  0.7818608E-02  0.1113170E+00
         21   -1    0    0  503  502  0.00000000000E+00  0.00000000000E+00  0.21896293528E+03  0.21896293528E+03  0.00000000000E+00 0.  1.
         21   -1    0    0  501  503 -0.00000000000E+00 -0.00000000000E+00 -0.28596355533E+03  0.28596355533E+03  0.00000000000E+00 0. -1.
          6    1    1    2  501    0  0.83980871667E+00 -0.18172071883E+03 -0.30594593147E+02  0.25207767466E+03  0.17200000000E+03 0. -1.
         -6    1    1    2    0  502 -0.83980871667E+00  0.18172071883E+03 -0.36406026911E+02  0.25284881595E+03  0.17200000000E+03 0. -1.
</event>
<event>
 4    1  0.5739010E+000  0.1821053E+03  0.7818608E-02  0.1165781E+00
         21   -1    0    0  503  502  0.00000000000E+00  0.00000000000E+00  0.45646405796E+02  0.45646405796E+02  0.00000000000E+00 0. -1.
         21   -1    0    0  501  503 -0.00000000000E+00 -0.00000000000E+00 -0.12220247700E+04  0.12220247700E+04  0.00000000000E+00 0. -1.
          6    1    1    2  501    0  0.45354598525E+02  0.39003885915E+02 -0.99180399991E+03  0.10083836160E+04  0.17200000000E+03 0. -1.
         -6    1    1    2    0  502 -0.45354598525E+02 -0.39003885915E+02 -0.18457436429E+03  0.25928755982E+03  0.17200000000E+03 0. -1.
</event>
<event>
 4    1  0.5739010E+000  0.2321279E+03  0.7818608E-02  0.1125151E+00
         21   -1    0    0  501  502  0.00000000000E+00  0.00000000000E+00  0.13349402553E+04  0.13349402553E+04  0.00000000000E+00 0. -1.
         21   -1    0    0  502  503 -0.00000000000E+00 -0.00000000000E+00 -0.40889982220E+02  0.40889982220E+02  0.00000000000E+00 0. -1.
          6    1    1    2  501    0  0.15847582695E+02 -0.15507487053E+03  0.72505549489E+03  0.76130731772E+03  0.17200000000E+03 0. -1.
         -6    1    1    2    0  503 -0.15847582695E+02  0.15507487053E+03  0.56899477820E+03  0.61452291981E+03  0.17200000000E+03 0. -1.
</event>
<event>
 4    1  0.5739010E+000  0.1797583E+03  0.7818608E-02  0.1168037E+00
         21   -1    0    0  503  502  0.00000000000E+00  0.00000000000E+00  0.10230660411E+03  0.10230660411E+03  0.00000000000E+00 0. -1.
         21   -1    0    0  501  503 -0.00000000000E+00 -0.00000000000E+00 -0.41371197646E+03  0.41371197646E+03  0.00000000000E+00 0. -1.
          6    1    1    2  501    0  0.45171251284E+02 -0.26241330556E+02 -0.28119119232E+03  0.33373872417E+03  0.17200000000E+03 0. -1.
         -6    1    1    2    0  502 -0.45171251284E+02  0.26241330556E+02 -0.30214180033E+02  0.18227985639E+03  0.17200000000E+03 0. -1.
</event>
<event>
 4    1  0.5739010E+000  0.1725887E+03  0.7818608E-02  0.1175175E+00
         21   -1    0    0  503  502  0.00000000000E+00  0.00000000000E+00  0.28205407507E+03  0.28205407507E+03  0.00000000000E+00 0.  1.
         21   -1    0    0  501  503 -0.00000000000E+00 -0.00000000000E+00 -0.12531176650E+03  0.12531176650E+03  0.00000000000E+00 0.  1.
          6    1    1    2  501    0 -0.10128933307E+02 -0.10013243852E+02  0.15914026222E+03  0.23476048092E+03  0.17200000000E+03 0.  1.
         -6    1    1    2    0  502  0.10128933307E+02  0.10013243852E+02 -0.23979536448E+01  0.17260536065E+03  0.17200000000E+03 0.  1.
</event>
<event>
 4    1  0.5739010E+000  0.2025066E+03  0.7818608E-02  0.1147641E+00
         21   -1    0    0  501  502  0.00000000000E+00  0.00000000000E+00  0.96462713298E+03  0.96462713298E+03  0.00000000000E+00 0. -1.
         21   -1    0    0  502  503 -0.00000000000E+00 -0.00000000000E+00 -0.45599978169E+02  0.45599978169E+02  0.00000000000E+00 0.  1.
          6    1    1    2  501    0 -0.39277499540E+02  0.99409291494E+02  0.59094304338E+03  0.62467800484E+03  0.17200000000E+03 0. -1.
         -6    1    1    2    0  503  0.39277499540E+02 -0.99409291494E+02  0.32808411142E+03  0.38554910631E+03  0.17200000000E+03 0.  1.
</event>
<event>
 4    1  0.5739010E+000  0.1935163E+03  0.7818608E-02  0.1155328E+00
         21   -1    0    0  501  502  0.00000000000E+00  0.00000000000E+00  0.38960412248E+03  0.38960412248E+03  0.00000000000E+00 0.  1.
         21   -1    0    0  502  503 -0.00000000000E+00 -0.00000000000E+00 -0.15143641894E+03  0.15143641894E+03  0.00000000000E+00 0.  1.
          6    1    1    2  501    0 -0.87358869155E+02 -0.15264140710E+02  0.28258225384E+03  0.34249276809E+03  0.17200000000E+03 0.  1.
         -6    1    1    2    0  503  0.87358869155E+02  0.15264140710E+02 -0.44414550298E+02  0.19854777332E+03  0.17200000000E+03 0.  1.
</event>
<event>
 4    1  0.5739010E+000  0.3604740E+03  0.7818608E-02  0.1058396E+00
         21   -1    0    0  501  502  0.00000000000E+00  0.00000000000E+00  0.12682249351E+03  0.12682249351E+03  0.00000000000E+00 0. -1.
         21   -1    0    0  502  503 -0.00000000000E+00 -0.00000000000E+00 -0.12479568030E+04  0.12479568030E+04  0.00000000000E+00 0.  1.
          6    1    1    2  501    0 -0.12137552223E+03  0.29261833813E+03 -0.26975733223E+03  0.45023385868E+03  0.17200000000E+03 0.  1.
         -6    1    1    2    0  503  0.12137552223E+03 -0.29261833813E+03 -0.85137697728E+03  0.92454543785E+03  0.17200000000E+03 0. -1.
</event>
<event>
 4    1  0.5739010E+000  0.2086220E+03  0.7818608E-02  0.1142662E+00
         21   -1    0    0  501  502  0.00000000000E+00  0.00000000000E+00  0.44506563780E+03  0.44506563780E+03  0.00000000000E+00 0. -1.
         21   -1    0    0  502  503 -0.00000000000E+00 -0.00000000000E+00 -0.10297692154E+03  0.10297692154E+03  0.00000000000E+00 0. -1.
          6    1    1    2  501    0 -0.11799467601E+03 -0.40465750920E+01  0.10954719200E+03  0.23563468677E+03  0.17200000000E+03 0. -1.
         -6    1    1    2    0  503  0.11799467601E+03  0.40465750920E+01  0.23254152427E+03  0.31240787257E+03  0.17200000000E+03 0. -1.
</event>
<event>
 4    1  0.5739010E+000  0.1732604E+03  0.7818608E-02  0.1174490E+00
         21   -1    0    0  501  502  0.00000000000E+00  0.00000000000E+00  0.80102291606E+03  0.80102291606E+03  0.00000000000E+00 0. -1.
         21   -1    0    0  502  503 -0.00000000000E+00 -0.00000000000E+00 -0.81463536338E+02  0.81463536338E+02  0.00000000000E+00 0. -1.
          6    1    1    2  501    0  0.20585414754E+02  0.33784879413E+01  0.35543861732E+02  0.17686870720E+03  0.17200000000E+03 0. -1.
         -6    1    1    2    0  503 -0.20585414754E+02 -0.33784879413E+01  0.68401551798E+03  0.70561774519E+03  0.17200000000E+03 0. -1.
</event>
<event>
 4    1  0.5739010E+000  0.2432855E+03  0.7818608E-02  0.1117623E+00
         21   -1    0    0  503  502  0.00000000000E+00  0.00000000000E+00  0.46944073448E+03  0.46944073448E+03  0.00000000000E+00 0. -1.
         21   -1    0    0  501  503 -0.00000000000E+00 -0.00000000000E+00 -0.18365769550E+03  0.18365769550E+03  0.00000000000E+00 0. -1.
          6    1    1    2  501    0  0.46271832018E+02  0.16571894996E+03 -0.39945895332E+02  0.24654315518E+03  0.17200000000E+03 0. -1.
         -6    1    1    2    0  502 -0.46271832018E+02 -0.16571894996E+03  0.32572893431E+03  0.40655527479E+03  0.17200000000E+03 0. -1.
</event>
<event>
 4    1  0.5739010E+000  0.1768733E+03  0.7818608E-02  0.1170864E+00
         21   -1    0    0  503  502  0.00000000000E+00  0.00000000000E+00  0.95351316081E+02  0.95351316081E+02  0.00000000000E+00 0.  1.
         21   -1    0    0  501  503 -0.00000000000E+00 -0.00000000000E+00 -0.33785100698E+03  0.33785100698E+03  0.00000000000E+00 0.  1.
          6    1    1    2  501    0  0.73040729935E+00 -0.41226493446E+02 -0.15805979475E+03  0.23720677893E+03  0.17200000000E+03 0. -1.
         -6    1    1    2    0  502 -0.73040729935E+00  0.41226493446E+02 -0.84439896159E+02  0.19599554413E+03  0.17200000000E+03 0. -1.
</event>
<event>
 4    1  0.5739010E+000  0.1977673E+03  0.7818608E-02  0.1151637E+00
         21   -1    0    0  503  502  0.00000000000E+00  0.00000000000E+00  0.34485190868E+02  0.34485190868E+02  0.00000000000E+00 0.  1.
         21   -1    0    0  501  503 -0.00000000000E+00 -0.00000000000E+00 -0.11425143900E+04  0.11425143900E+04  0.00000000000E+00 0. -1.
          6    1    1    2  501    0 -0.56599739858E+02 -0.79525995663E+02 -0.60432169503E+03  0.63585896677E+03  0.17200000000E+03 0. -1.
         -6    1    1    2    0  502  0.56599739858E+02  0.79525995663E+02 -0.50370750411E+03  0.54114061411E+03  0.17200000000E+03 0. -1.
</event>
<event>
 4    1  0.5739010E+000  0.1774107E+03  0.7818608E-02  0.1170333E+00
         21   -1    0    0  503  502  0.00000000000E+00  0.00000000000E+00  0.28953280693E+02  0.28953280693E+02  0.00000000000E+00 0.  1.
         21   -1    0    0  501  503 -0.00000000000E+00 -0.00000000000E+00 -0.11432910244E+04  0.11432910244E+04  0.00000000000E+00 0.  1.
          6    1    1    2  501    0 -0.18261928834E+02  0.39459400751E+02 -0.68713170118E+03  0.70966507391E+03  0.17200000000E+03 0.  1.
         -6    1    1    2    0  502  0.18261928834E+02 -0.39459400751E+02 -0.42720604249E+03  0.46257923115E+03  0.17200000000E+03 0.  1.
</event>
<event>
 4    1  0.5739010E+000  0.2177401E+03  0.7818608E-02  0.1135579E+00
         21   -1    0    0  503  502  0.00000000000E+00  0.00000000000E+00  0.14182348930E+03  0.14182348930E+03  0.00000000000E+00 0. -1.
         21   -1    0    0  501  503 -0.00000000000E+00 -0.00000000000E+00 -0.43171586505E+03  0.43171586505E+03  0.00000000000E+00 0.  1.
          6    1    1    2  501    0 -0.12193711160E+03  0.54388356287E+02 -0.28117289866E+03  0.35562473399E+03  0.17200000000E+03 0.  1.
         -6    1    1    2    0  502  0.12193711160E+03 -0.54388356287E+02 -0.87194770914E+01  0.21791462036E+03  0.17200000000E+03 0. -1.
</event>
<event>
 4    1  0.5739010E+000  0.2013332E+03  0.7818608E-02  0.1148619E+00
         21   -1    0    0  503  502  0.00000000000E+00  0.00000000000E+00  0.88593768299E+02  0.88593768299E+02  0.00000000000E+00 0. -1.
         21   -1    0    0  501  503 -0.00000000000E+00 -0.00000000000E+00 -0.64949311724E+03  0.64949311724E+03  0.00000000000E+00 0. -1.
          6    1    1    2  501    0 -0.10332824397E+03 -0.16563292782E+02 -0.48107667741E+03  0.52150727533E+03  0.17200000000E+03 0. -1.
         -6    1    1    2    0  502  0.10332824397E+03  0.16563292782E+02 -0.79822671532E+02  0.21657961021E+03  0.17200000000E+03 0. -1.
</event>
<event>
 4    1  0.5739010E+000  0.1809504E+03  0.7818608E-02  0.1166886E+00
         21   -1    0    0  501  502  0.00000000000E+00  0.00000000000E+00  0.13238249865E+03  0.13238249865E+03  0.00000000000E+00 0. -1.
         21   -1    0    0  502  503 -0.00000000000E+00 -0.00000000000E+00 -0.26750289017E+03  0.26750289017E+03  0.00000000000E+00 0. -1.
          6    1    1    2  501    0 -0.13029760039E+02  0.54674375625E+02 -0.12662731673E+02  0.18139296229E+03  0.17200000000E+03 0. -1.
         -6    1    1    2    0  503  0.13029760039E+02 -0.54674375625E+02 -0.12245765984E+03  0.21849242653E+03  0.17200000000E+03 0. -1.
</event>
<event>
 4    1  0.5739010E+000  0.1855009E+03  0.7818608E-02  0.1162583E+00
         21   -1    0    0  501  502  0.00000000000E+00  0.00000000000E+00  0.34510037534E+03  0.34510037534E+03  0.00000000000E+00 0. -1.
         21   -1    0    0  502  503 -0.00000000000E+00 -0.00000000000E+00 -0.18822382882E+03  0.18822382882E+03  0.00000000000E+00 0. -1.
          6    1    1    2  501    0 -0.44840205118E+02 -0.53065460995E+02  0.26130095759E+03  0.32045089731E+03  0.17200000000E+03 0. -1.
         -6    1    1    2    0  503  0.44840205118E+02  0.53065460995E+02 -0.10442441107E+03  0.21287330686E+03  0.17200000000E+03 0. -1.
</event>
<event>
 4    1  0.5739010E+000  0.2771307E+03  0.7818608E-02  0.1097266E+00
         21   -1    0    0  503  502  0.00000000000E+00  0.00000000000E+00  0.76533530136E+03  0.76533530136E+03  0.00000000000E+00 0. -1.
         21   -1    0    0  501  503 -0.00000000000E+00 -0.00000000000E+00 -0.10132865778E+03  0.10132865778E+03  0.00000000000E+00 0.  1.
          6    1    1    2  501    0  0.33327447561E+02 -0.21472476128E+03  0.37458837134E+03  0.46595910744E+03  0.17200000000E+03 0.  1.
         -6    1    1    2    0  502 -0.33327447561E+02  0.21472476128E+03  0.28941827224E+03  0.40070485170E+03  0.17200000000E+03 0. -1.
</event>
<event>
 4    1  0.5739010E+000  0.2589012E+03  0.7818608E-02  0.1107805E+00
         21   -1    0    0  503  502  0.00000000000E+00  0.00000000000E+00  0.47239923598E+03  0.47239923598E+03  0.00000000000E+00 0. -1.
         21   -1    0    0  501  503 -0.00000000000E+00 -0.00000000000E+00 -0.15095734325E+03  0.15095734325E+03  0.00000000000E+00 0.  1.
          6    1    1    2  501    0  0.19350456545E+03 -0.13549934220E+01  0.84343979820E+02  0.27229351771E+03  0.17200000000E+03 0.  1.
         -6    1    1    2    0  502 -0.19350456545E+03  0.13549934220E+01  0.23709791291E+03  0.35106306152E+03  0.17200000000E+03 0. -1.
</event>
<event>
 4    1  0.5739010E+000  0.1914023E+03  0.7818608E-02  0.1157203E+00
         21   -1    0    0  501  502  0.00000000000E+00  0.00000000000E+00  0.11229757159E+04  0.11229757159E+04  0.00000000000E+00 0. -1.
         21   -1    0    0  502  503 -0.00000000000E+00 -0.00000000000E+00 -0.10475528323E+03  0.10475528323E+03  0.00000000000E+00 0. -1.
          6    1    1    2  501    0  0.78466061672E+02  0.29898722974E+02  0.10184997825E+04  0.10363284534E+04  0.17200000000E+03 0. -1.
         -6    1    1    2    0  503 -0.78466061672E+02 -0.29898722974E+02 -0.27934980825E+00  0.19140254571E+03  0.17200000000E+03 0. -1.
</event>
<event>
 4    1  0.5739010E+000  0.2860933E+03  0.7818608E-02  0.1092407E+00
         21   -1    0    0  503  502  0.00000000000E+00  0.00000000000E+00  0.53601357385E+03  0.53601357385E+03  0.00000000000E+00 0. -1.
         21   -1    0    0  501  503 -0.00000000000E+00 -0.00000000000E+00 -0.15439783997E+03  0.15439783997E+03  0.00000000000E+00 0. -1.
          6    1    1    2  501    0  0.13540621202E+03  0.18420242508E+03  0.22700558317E+03  0.36521351351E+03  0.17200000000E+03 0. -1.
         -6    1    1    2    0  502 -0.13540621202E+03 -0.18420242508E+03  0.15461015070E+03  0.32519790030E+03  0.17200000000E+03 0. -1.
</event>
<event>
 4    1  0.5739010E+000  0.1722496E+03  0.7818608E-02  0.1175522E+00
         21   -1    0    0  503  502  0.00000000000E+00  0.00000000000E+00  0.10337460476E+03  0.10337460476E+03  0.00000000000E+00 0.  1.
         21   -1    0    0  501  503 -0.00000000000E+00 -0.00000000000E+00 -0.72380234229E+03  0.72380234229E+03  0.00000000000E+00 0.  1.
          6    1    1    2  501    0 -0.25139992219E+01 -0.89216530824E+01 -0.63150161305E+03  0.65457177098E+03  0.17200000000E+03 0.  1.
         -6    1    1    2    0  502  0.25139992219E+01  0.89216530824E+01  0.11073875526E+02  0.17260517607E+03  0.17200000000E+03 0.  1.
</event>
<event>
 4    1  0.5739010E+000  0.2180942E+03  0.7818608E-02  0.1135312E+00
         21   -1    0    0  503  502  0.00000000000E+00  0.00000000000E+00  0.50319797341E+03  0.50319797341E+03  0.00000000000E+00 0. -1.
         21   -1    0    0  501  503 -0.00000000000E+00 -0.00000000000E+00 -0.90137157136E+03  0.90137157136E+03  0.00000000000E+00 0. -1.
          6    1    1    2  501    0 -0.10972483410E+03  0.77081458284E+02 -0.86352813195E+03  0.89064354548E+03  0.17200000000E+03 0. -1.
         -6    1    1    2    0  502  0.10972483410E+03 -0.77081458284E+02  0.46535453400E+03  0.51392599929E+03  0.17200000000E+03 0. -1.
</event>
<event>
 4    1  0.5739010E+000  0.1998057E+03  0.7818608E-02  0.1149903E+00
         21   -1    0    0  501  502  0.00000000000E+00  0.00000000000E+00  0.13271180748E+03  0.13271180748E+03  0.00000000000E+00 0.  1.
         21   -1    0    0  502  503 -0.00000000000E+00 -0.00000000000E+00 -0.37184830363E+03  0.37184830363E+03  0.00000000000E+00 0. -1.
          6    1    1    2  501    0  0.17636266937E+02  0.10013632236E+03 -0.93085566872E+01  0.20002242423E+03  0.17200000000E+03 0.  1.
         -6    1    1    2    0  503 -0.17636266937E+02 -0.10013632236E+03 -0.22982793947E+03  0.30453768688E+03  0.17200000000E+03 0. -1.
</event>
<event>
 4    1  0.5739010E+000  0.1728018E+03  0.7818608E-02  0.1174957E+00
         21   -1    0    0  501  502  0.00000000000E+00  0.00000000000E+00  0.53696138795E+02  0.53696138795E+02  0.00000000000E+00 0.  1.
         21   -1    0    0  502  503 -0.00000000000E+00 -0.00000000000E+00 -0.59352158978E+03  0.59352158978E+03  0.00000000000E+00 0.  1.
          6    1    1    2  501    0  0.12088828139E+02 -0.11415327939E+02 -0.35116965001E+03  0.39138289764E+03  0.17200000000E+03 0.  1.
         -6    1    1    2    0  503 -0.12088828139E+02  0.11415327939E+02 -0.18865580098E+03  0.25583483094E+03  0.17200000000E+03 0.  1.
</event>
<event>
 4    1  0.5739010E+000  0.2875307E+03  0.7818608E-02  0.1091645E+00
         21   -1    0    0  501  502  0.00000000000E+00  0.00000000000E+00  0.39539445384E+03  0.39539445384E+03  0.00000000000E+00 0. -1.
         21   -1    0    0  502  503 -0.00000000000E+00 -0.00000000000E+00 -0.26655270067E+03  0.26655270067E+03  0.00000000000E+00 0. -1.
          6    1    1    2  501    0  0.20012621817E+03 -0.11419014194E+03  0.21808996903E+03  0.36088381276E+03  0.17200000000E+03 0. -1.
         -6    1    1    2    0  503 -0.20012621817E+03  0.11419014194E+03 -0.89248215863E+02  0.30106334176E+03  0.17200000000E+03 0. -1.
</event>
<event>
 4    1  0.5739010E+000  0.2182906E+03  0.7818608E-02  0.1135164E+00
         21   -1    0    0  503  502  0.00000000000E+00  0.00000000000E+00  0.81677221256E+02  0.81677221256E+02  0.00000000000E+00 0.  1.
         21   -1    0    0  501  503 -0.00000000000E+00 -0.00000000000E+00 -0.67342950580E+03  0.67342950580E+03  0.00000000000E+00 0. -1.
          6    1    1    2  501    0 -0.36121055881E+02 -0.12946836237E+03 -0.43391963717E+03  0.48573350621E+03  0.17200000000E+03 0. -1.
         -6    1    1    2    0  502  0.36121055881E+02  0.12946836237E+03 -0.15783264737E+03  0.26937322085E+03  0.17200000000E+03 0. -1.
</event>
<event>
 4    1  0.5739010E+000  0.1948052E+03  0.7818608E-02  0.1154197E+00
         21   -1    0    0  503  502  0.00000000000E+00  0.00000000000E+00  0.14313838517E+03  0.14313838517E+03  0.00000000000E+00 0. -1.
         21   -1    0    0  501  503 -0.00000000000E+00 -0.00000000000E+00 -0.40819359372E+03  0.40819359372E+03  0.00000000000E+00 0.  1.
          6    1    1    2  501    0  0.34251355458E+02 -0.84805178022E+02 -0.29573034734E+03  0.35412640668E+03  0.17200000000E+03 0.  1.
         -6    1    1    2    0  502 -0.34251355458E+02  0.84805178022E+02  0.30675138800E+02  0.19720557221E+03  0.17200000000E+03 0. -1.
</event>
<event>
 4    1  0.5739010E+000  0.2174191E+03  0.7818608E-02  0.1135822E+00
         21   -1    0    0  503  502  0.00000000000E+00  0.00000000000E+00  0.58028221088E+03  0.58028221088E+03  0.00000000000E+00 0. -1.
         21   -1    0    0  501  503 -0.00000000000E+00 -0.00000000000E+00 -0.93996320910E+02  0.93996320910E+02  0.00000000000E+00 0. -1.
          6    1    1    2  501    0 -0.39672960337E+02  0.12693748266E+03  0.36625505265E+03  0.42592702647E+03  0.17200000000E+03 0. -1.
         -6    1    1    2    0  502  0.39672960337E+02 -0.12693748266E+03  0.12003083732E+03  0.24835150532E+03  0.17200000000E+03 0. -1.
</event>
<event>
 4    1  0.5739010E+000  0.2409997E+03  0.7818608E-02  0.1119129E+00
         21   -1    0    0  501  502  0.00000000000E+00  0.00000000000E+00  0.12133755944E+03  0.12133755944E+03  0.00000000000E+00 0.  1.
         21   -1    0    0  502  503 -0.00000000000E+00 -0.00000000000E+00 -0.67374402480E+03  0.67374402480E+03  0.00000000000E+00 0.  1.
          6    1    1    2  501    0  0.14774228781E+03 -0.81664309267E+02 -0.62292693173E+02  0.24892011297E+03  0.17200000000E+03 0.  1.
         -6    1    1    2    0  503 -0.14774228781E+03  0.81664309267E+02 -0.49011377219E+03  0.54616147128E+03  0.17200000000E+03 0.  1.
</event>
<event>
 4    1  0.5739010E+000  0.2498242E+03  0.7818608E-02  0.1113416E+00
         21   -1    0    0  501  502  0.00000000000E+00  0.00000000000E+00  0.27000024315E+03  0.27000024315E+03  0.00000000000E+00 0.  1.
         21   -1    0    0  502  503 -0.00000000000E+00 -0.00000000000E+00 -0.31852755997E+03  0.31852755997E+03  0.00000000000E+00 0. -1.
          6    1    1    2  501    0 -0.80477981402E+02  0.16233124225E+03  0.12985275047E+03  0.28155616581E+03  0.17200000000E+03 0.  1.
         -6    1    1    2    0  503  0.80477981402E+02 -0.16233124225E+03 -0.17838006729E+03  0.30697163730E+03  0.17200000000E+03 0. -1.
</event>
<event>
 4    1  0.5739010E+000  0.2315088E+03  0.7818608E-02  0.1125582E+00
         21   -1    0    0  501  502  0.00000000000E+00  0.00000000000E+00  0.24594778540E+03  0.24594778540E+03  0.00000000000E+00 0. -1.
         21   -1    0    0  502  503 -0.00000000000E+00 -0.00000000000E+00 -0.22219686414E+03  0.22219686414E+03  0.00000000000E+00 0.  1.
          6    1    1    2  501    0 -0.50210821803E+02 -0.14659877397E+03  0.44359542574E+02  0.23572037709E+03  0.17200000000E+03 0. -1.
         -6    1    1    2    0  503  0.50210821803E+02  0.14659877397E+03 -0.20608621315E+02  0.23242427246E+03  0.17200000000E+03 0.  1.
</event>
<event>
 4    1  0.5739010E+000  0.2131067E+03  0.7818608E-02  0.1139129E+00
         21   -1    0    0  501  502  0.00000000000E+00  0.00000000000E+00  0.64373939989E+03  0.64373939989E+03  0.00000000000E+00 0. -1.
         21   -1    0    0  502  503 -0.00000000000E+00 -0.00000000000E+00 -0.72765238781E+02  0.72765238781E+02  0.00000000000E+00 0.  1.
          6    1    1    2  501    0 -0.80787707290E+02 -0.96456358621E+02  0.34802450936E+03  0.40808766446E+03  0.17200000000E+03 0. -1.
         -6    1    1    2    0  503  0.80787707290E+02  0.96456358621E+02  0.22294965175E+03  0.30841697421E+03  0.17200000000E+03 0.  1.
</event>
<event>
 4    1  0.5739010E+000  0.1782067E+03  0.7818608E-02  0.1169550E+00
         21   -1    0    0  501  502  0.00000000000E+00  0.00000000000E+00  0.65975281228E+03  0.65975281228E+03  0.00000000000E+00 0. -1.
         21   -1    0    0  502  503 -0.00000000000E+00 -0.00000000000E+00 -0.52288610699E+02  0.52288610699E+02  0.00000000000E+00 0. -1.
          6    1    1    2  501    0  0.45712455653E+02  0.91644278311E+01  0.40406695436E+03  0.44161942772E+03  0.17200000000E+03 0. -1.
         -6    1    1    2    0  503 -0.45712455653E+02 -0.91644278311E+01  0.20339724722E+03  0.27042199525E+03  0.17200000000E+03 0. -1.
</event>
<event>
 4    1  0.5739010E+000  0.1784271E+03  0.7818608E-02  0.1169334E+00
         21   -1    0    0  501  502  0.00000000000E+00  0.00000000000E+00  0.14275346823E+03  0.14275346823E+03  0.00000000000E+00 0.  1.
         21   -1    0    0  502  503 -0.00000000000E+00 -0.00000000000E+00 -0.84535936206E+03  0.84535936206E+03  0.00000000000E+00 0.  1.
          6    1    1    2  501    0  0.45573437070E+02  0.13240423915E+02  0.72604492333E+02  0.19263348437E+03  0.17200000000E+03 0.  1.
         -6    1    1    2    0  503 -0.45573437070E+02 -0.13240423915E+02 -0.77521038616E+03  0.79547934593E+03  0.17200000000E+03 0.  1.
</event>
<event>
 4    1  0.5739010E+000  0.1884945E+03  0.7818608E-02  0.1159826E+00
         21   -1    0    0  501  502  0.00000000000E+00  0.00000000000E+00  0.23302194110E+04  0.23302194110E+04  0.00000000000E+00 0. -1.
         21   -1    0    0  502  503 -0.00000000000E+00 -0.00000000000E+00 -0.15977179340E+02  0.15977179340E+02  0.00000000000E+00 0. -1.
          6    1    1    2  501    0 -0.34446881611E+02 -0.68989681102E+02  0.14078082665E+04  0.14203711765E+04  0.17200000000E+03 0. -1.
         -6    1    1    2    0  503  0.34446881611E+02  0.68989681102E+02  0.90643396517E+03  0.92582541387E+03  0.17200000000E+03 0. -1.
</event>
<event>
 4    1  0.5739010E+000  0.1788106E+03  0.7818608E-02  0.1168959E+00
         21   -1    0    0  503  502  0.00000000000E+00  0.00000000000E+00  0.20377900427E+03  0.20377900427E+03  0.00000000000E+00 0. -1.
         21   -1    0    0  501  503 -0.00000000000E+00 -0.00000000000E+00 -0.17209993077E+03  0.17209993077E+03  0.00000000000E+00 0. -1.
          6    1    1    2  501    0 -0.29629266490E+02 -0.38876017985E+02  0.71689969739E+02  0.19264654154E+03  0.17200000000E+03 0.  1.
         -6    1    1    2    0  502  0.29629266490E+02  0.38876017985E+02 -0.40010896242E+02  0.18323239349E+03  0.17200000000E+03 0.  1.
</event>
<event>
 4    1  0.5739010E+000  0.1923799E+03  0.7818608E-02  0.1156332E+00
         21   -1    0    0  501  502  0.00000000000E+00  0.00000000000E+00  0.13488919127E+03  0.13488919127E+03  0.00000000000E+00 0.  1.
         21   -1    0    0  502  503 -0.00000000000E+00 -0.00000000000E+00 -0.29163903968E+03  0.29163903968E+03  0.00000000000E+00 0.  1.
          6    1    1    2  501    0  0.86019284162E+02  0.51665923187E+01 -0.26484665437E+02  0.19419435735E+03  0.17200000000E+03 0.  1.
         -6    1    1    2    0  503 -0.86019284162E+02 -0.51665923187E+01 -0.13026518297E+03  0.23233387359E+03  0.17200000000E+03 0.  1.
</event>
<event>
 4    1  0.5739010E+000  0.2118070E+03  0.7818608E-02  0.1140143E+00
         21   -1    0    0  503  502  0.00000000000E+00  0.00000000000E+00  0.15019083499E+03  0.15019083499E+03  0.00000000000E+00 0. -1.
         21   -1    0    0  501  503 -0.00000000000E+00 -0.00000000000E+00 -0.30396969269E+03  0.30396969269E+03  0.00000000000E+00 0. -1.
          6    1    1    2  501    0  0.53092536285E+02  0.11162164592E+03 -0.10678453759E+03  0.23720275444E+03  0.17200000000E+03 0. -1.
         -6    1    1    2    0  502 -0.53092536285E+02 -0.11162164592E+03 -0.46994320115E+02  0.21695777324E+03  0.17200000000E+03 0. -1.
</event>
<event>
 4    1  0.5739010E+000  0.2628577E+03  0.7818608E-02  0.1105438E+00
         21   -1    0    0  503  502  0.00000000000E+00  0.00000000000E+00  0.22468801756E+03  0.22468801756E+03  0.00000000000E+00 0. -1.
         21   -1    0    0  501  503 -0.00000000000E+00 -0.00000000000E+00 -0.36020014002E+03  0.36020014002E+03  0.00000000000E+00 0.  1.
          6    1    1    2  501    0 -0.83109032112E+02  0.18056322306E+03 -0.17960417515E+03  0.31835805074E+03  0.17200000000E+03 0. -1.
         -6    1    1    2    0  502  0.83109032112E+02 -0.18056322306E+03  0.44092052685E+02  0.26653010684E+03  0.17200000000E+03 0.  1.
</event>
<event>
 4    1  0.5739010E+000  0.2089915E+03  0.7818608E-02  0.1142367E+00
         21   -1    0    0  501  502  0.00000000000E+00  0.00000000000E+00  0.67464148692E+03  0.67464148692E+03  0.00000000000E+00 0. -1.
         21   -1    0    0  502  503 -0.00000000000E+00 -0.00000000000E+00 -0.69387282982E+02  0.69387282982E+02  0.00000000000E+00 0.  1.
          6    1    1    2  501    0 -0.98728290375E+02  0.65925444821E+02  0.39888573867E+03  0.45031907811E+03  0.17200000000E+03 0. -1.
         -6    1    1    2    0  503  0.98728290375E+02 -0.65925444821E+02  0.20636846527E+03  0.29370969179E+03  0.17200000000E+03 0.  1.
</event>
<event>
 4    1  0.5739010E+000  0.2492904E+03  0.7818608E-02  0.1113754E+00
         21   -1    0    0  503  502  0.00000000000E+00  0.00000000000E+00  0.95343769184E+03  0.95343769184E+03  0.00000000000E+00 0. -1.
         21   -1    0    0  501  503 -0.00000000000E+00 -0.00000000000E+00 -0.12211988005E+03  0.12211988005E+03  0.00000000000E+00 0.  1.
          6    1    1    2  501    0 -0.17913166611E+03 -0.21761728882E+02  0.48447532114E+02  0.25395450383E+03  0.17200000000E+03 0.  1.
         -6    1    1    2    0  502  0.17913166611E+03  0.21761728882E+02  0.78287027967E+03  0.82160306806E+03  0.17200000000E+03 0. -1.
</event>
<event>
 4    1  0.5739010E+000  0.1926860E+03  0.7818608E-02  0.1156061E+00
         21   -1    0    0  501  502  0.00000000000E+00  0.00000000000E+00  0.18968354119E+04  0.18968354119E+04  0.00000000000E+00 0.  1.
         21   -1    0    0  502  503 -0.00000000000E+00 -0.00000000000E+00 -0.20152970334E+02  0.20152970334E+02  0.00000000000E+00 0. -1.
          6    1    1    2  501    0  0.53002934086E+01 -0.86693701896E+02  0.11008584372E+04  0.11175943762E+04  0.17200000000E+03 0.  1.
         -6    1    1    2    0  503 -0.53002934086E+01  0.86693701896E+02  0.77582400435E+03  0.79939400597E+03  0.17200000000E+03 0. -1.
</event>
<event>
 4    1  0.5739010E+000  0.1773706E+03  0.7818608E-02  0.1170372E+00
         21   -1    0    0  501  502  0.00000000000E+00  0.00000000000E+00  0.22480166828E+03  0.22480166828E+03  0.00000000000E+00 0.  1.
         21   -1    0    0  502  503 -0.00000000000E+00 -0.00000000000E+00 -0.41623403756E+03  0.41623403756E+03  0.00000000000E+00 0. -1.
          6    1    1    2  501    0 -0.18926853888E+02  0.38962852875E+02  0.16541795091E+03  0.24253541635E+03  0.17200000000E+03 0.  1.
         -6    1    1    2    0  503  0.18926853888E+02 -0.38962852875E+02 -0.35685032019E+03  0.39850028949E+03  0.17200000000E+03 0. -1.
</event>
<event>
 4    1  0.5739010E+000  0.1800324E+03  0.7818608E-02  0.1167772E+00
         21   -1    0    0  503  502  0.00000000000E+00  0.00000000000E+00  0.69714030411E+03  0.69714030411E+03  0.00000000000E+00 0. -1.
         21   -1    0    0  501  503 -0.00000000000E+00 -0.00000000000E+00 -0.20049058999E+03  0.20049058999E+03  0.00000000000E+00 0. -1.
          6    1    1    2  501    0  0.37604975037E+02  0.37596990159E+02 -0.14502475347E+03  0.23117925282E+03  0.17200000000E+03 0. -1.
         -6    1    1    2    0  502 -0.37604975037E+02 -0.37596990159E+02  0.64167446758E+03  0.66645164128E+03  0.17200000000E+03 0. -1.
</event>
<event>
 4    1  0.5739010E+000  0.1986715E+03  0.7818608E-02  0.1150865E+00
         21   -1    0    0  501  502  0.00000000000E+00  0.00000000000E+00  0.12902871026E+03  0.12902871026E+03  0.00000000000E+00 0.  1.
         21   -1    0    0  502  503 -0.00000000000E+00 -0.00000000000E+00 -0.31669122138E+03  0.31669122138E+03  0.00000000000E+00 0.  1.
          6    1    1    2  501    0  0.18561805828E+02  0.97682334316E+02 -0.13496250354E+03  0.24017755189E+03  0.17200000000E+03 0.  1.
         -6    1    1    2    0  503 -0.18561805828E+02 -0.97682334316E+02 -0.52700007576E+02  0.20554237975E+03  0.17200000000E+03 0.  1.
</event>
<event>
 4    1  0.5739010E+000  0.1972826E+03  0.7818608E-02  0.1152052E+00
         21   -1    0    0  501  502  0.00000000000E+00  0.00000000000E+00  0.72607237271E+02  0.72607237271E+02  0.00000000000E+00 0. -1.
         21   -1    0    0  502  503 -0.00000000000E+00 -0.00000000000E+00 -0.62232053456E+03  0.62232053456E+03  0.00000000000E+00 0. -1.
          6    1    1    2  501    0  0.96561600055E+02  0.35064804869E+01 -0.14547963285E+03  0.24512193208E+03  0.17200000000E+03 0.  1.
         -6    1    1    2    0  503 -0.96561600055E+02 -0.35064804869E+01 -0.40423366444E+03  0.44980583976E+03  0.17200000000E+03 0.  1.
</event>
<event>
 4    1  0.5739010E+000  0.1790233E+03  0.7818608E-02  0.1168752E+00
         21   -1    0    0  503  502  0.00000000000E+00  0.00000000000E+00  0.33809330073E+02  0.33809330073E+02  0.00000000000E+00 0. -1.
         21   -1    0    0  501  503 -0.00000000000E+00 -0.00000000000E+00 -0.10115794360E+04  0.10115794360E+04  0.00000000000E+00 0. -1.
          6    1    1    2  501    0 -0.68859143612E+00  0.49647286224E+02 -0.61998418349E+03  0.64531365627E+03  0.17200000000E+03 0. -1.
         -6    1    1    2    0  502  0.68859143612E+00 -0.49647286224E+02 -0.35778592239E+03  0.40007510976E+03  0.17200000000E+03 0. -1.
</event>
<event>
 4    1  0.5739010E+000  0.2385659E+03  0.7818608E-02  0.1120752E+00
         21   -1    0    0  501  502  0.00000000000E+00  0.00000000000E+00  0.12878955076E+03  0.12878955076E+03  0.00000000000E+00 0. -1.
         21   -1    0    0  502  503 -0.00000000000E+00 -0.00000000000E+00 -0.50413983846E+03  0.50413983846E+03  0.00000000000E+00 0. -1.
          6    1    1    2  501    0  0.10463276276E+03 -0.12799090399E+03 -0.76491457390E+02  0.25052870015E+03  0.17200000000E+03 0. -1.
         -6    1    1    2    0  503 -0.10463276276E+03  0.12799090399E+03 -0.29885883030E+03  0.38240068907E+03  0.17200000000E+03 0. -1.
</event>
<event>
 4    1  0.5739010E+000  0.1819871E+03  0.7818608E-02  0.1165894E+00
         21   -1    0    0  501  502  0.00000000000E+00  0.00000000000E+00  0.14128100079E+03  0.14128100079E+03  0.00000000000E+00 0. -1.
         21   -1    0    0  502  503 -0.00000000000E+00 -0.00000000000E+00 -0.25566381006E+03  0.25566381006E+03  0.00000000000E+00 0. -1.
          6    1    1    2  501    0  0.42921178883E+02 -0.41147153150E+02  0.17750141805E-01  0.18198713175E+03  0.17200000000E+03 0. -1.
         -6    1    1    2    0  503 -0.42921178883E+02  0.41147153150E+02 -0.11440055941E+03  0.21495767909E+03  0.17200000000E+03 0. -1.
</event>
<event>
 4    1  0.5739010E+000  0.2123046E+03  0.7818608E-02  0.1139754E+00
         21   -1    0    0  501  502  0.00000000000E+00  0.00000000000E+00  0.46608995875E+02  0.46608995875E+02  0.00000000000E+00 0. -1.
         21   -1    0    0  502  503 -0.00000000000E+00 -0.00000000000E+00 -0.11081972964E+04  0.11081972964E+04  0.00000000000E+00 0. -1.
          6    1    1    2  501    0  0.10824684181E+03 -0.61415548414E+02 -0.32472818807E+03  0.38797119026E+03  0.17200000000E+03 0. -1.
         -6    1    1    2    0  503 -0.10824684181E+03  0.61415548414E+02 -0.73686011246E+03  0.76683510202E+03  0.17200000000E+03 0. -1.
</event>
<event>
 4    1  0.5739010E+000  0.2213145E+03  0.7818608E-02  0.1132907E+00
         21   -1    0    0  503  502  0.00000000000E+00  0.00000000000E+00  0.10588749294E+03  0.10588749294E+03  0.00000000000E+00 0.  1.
         21   -1    0    0  501  503 -0.00000000000E+00 -0.00000000000E+00 -0.12268593657E+04  0.12268593657E+04  0.00000000000E+00 0.  1.
          6    1    1    2  501    0  0.41894490878E+02 -0.13281933881E+03 -0.10864424846E+04  0.11087548861E+04  0.17200000000E+03 0.  1.
         -6    1    1    2    0  502 -0.41894490878E+02  0.13281933881E+03 -0.34529388215E+02  0.22399197258E+03  0.17200000000E+03 0.  1.
</event>
<event>
 4    1  0.5739010E+000  0.2671623E+03  0.7818608E-02  0.1102915E+00
         21   -1    0    0  503  502  0.00000000000E+00  0.00000000000E+00  0.13094034822E+04  0.13094034822E+04  0.00000000000E+00 0.  1.
         21   -1    0    0  501  503 -0.00000000000E+00 -0.00000000000E+00 -0.65071059599E+02  0.65071059599E+02  0.00000000000E+00 0. -1.
          6    1    1    2  501    0 -0.73962170533E+02 -0.19058140886E+03  0.34530312031E+03  0.43658896111E+03  0.17200000000E+03 0. -1.
         -6    1    1    2    0  502  0.73962170533E+02  0.19058140886E+03  0.89902930234E+03  0.93788558073E+03  0.17200000000E+03 0.  1.
</event>
<event>
 4    1  0.5739010E+000  0.1933740E+03  0.7818608E-02  0.1155453E+00
         21   -1    0    0  501  502  0.00000000000E+00  0.00000000000E+00  0.11106844478E+04  0.11106844478E+04  0.00000000000E+00 0.  1.
         21   -1    0    0  502  503 -0.00000000000E+00 -0.00000000000E+00 -0.34826178373E+02  0.34826178373E+02  0.00000000000E+00 0. -1.
          6    1    1    2  501    0 -0.86346058461E+02 -0.18811037343E+02  0.64241974015E+03  0.67089240529E+03  0.17200000000E+03 0. -1.
         -6    1    1    2    0  503  0.86346058461E+02  0.18811037343E+02  0.43343852931E+03  0.47461822092E+03  0.17200000000E+03 0. -1.
</event>
<event>
 4    1  0.5739010E+000  0.1806608E+03  0.7818608E-02  0.1167165E+00
         21   -1    0    0  501  502  0.00000000000E+00  0.00000000000E+00  0.49828940189E+03  0.49828940189E+03  0.00000000000E+00 0.  1.
         21   -1    0    0  502  503 -0.00000000000E+00 -0.00000000000E+00 -0.65527927028E+02  0.65527927028E+02  0.00000000000E+00 0.  1.
          6    1    1    2  501    0  0.44336730555E+02  0.32993496315E+02  0.22212462048E+03  0.28631741739E+03  0.17200000000E+03 0.  1.
         -6    1    1    2    0  503 -0.44336730555E+02 -0.32993496315E+02  0.21063685437E+03  0.27749991152E+03  0.17200000000E+03 0.  1.
</event>
<event>
 4    1  0.5739010E+000  0.2048934E+03  0.7818608E-02  0.1145675E+00
         21   -1    0    0  503  502  0.00000000000E+00  0.00000000000E+00  0.12013736119E+03  0.12013736119E+03  0.00000000000E+00 0.  1.
         21   -1    0    0  501  503 -0.00000000000E+00 -0.00000000000E+00 -0.35255194729E+03  0.35255194729E+03  0.00000000000E+00 0.  1.
          6    1    1    2  501    0  0.36466059635E+02 -0.10520234680E+03 -0.94017400057E+02  0.22543420058E+03  0.17200000000E+03 0.  1.
         -6    1    1    2    0  502 -0.36466059635E+02  0.10520234680E+03 -0.13839718605E+03  0.24725510790E+03  0.17200000000E+03 0.  1.
</event>
<event>
 4    1  0.5739010E+000  0.2582235E+03  0.7818608E-02  0.1108215E+00
         21   -1    0    0  503  502  0.00000000000E+00  0.00000000000E+00  0.25123711737E+04  0.25123711737E+04  0.00000000000E+00 0.  1.
         21   -1    0    0  501  503 -0.00000000000E+00 -0.00000000000E+00 -0.26641497318E+02  0.26641497318E+02  0.00000000000E+00 0.  1.
          6    1    1    2  501    0  0.15972103107E+03  0.10763153136E+03  0.13210653576E+04  0.13460657612E+04  0.17200000000E+03 0.  1.
         -6    1    1    2    0  502 -0.15972103107E+03 -0.10763153136E+03  0.11646643188E+04  0.11929469099E+04  0.17200000000E+03 0.  1.
</event>
<event>
 4    1  0.5739010E+000  0.2780575E+03  0.7818608E-02  0.1096755E+00
         21   -1    0    0  503  502  0.00000000000E+00  0.00000000000E+00  0.86320047665E+03  0.86320047665E+03  0.00000000000E+00 0.  1.
         21   -1    0    0  501  503 -0.00000000000E+00 -0.00000000000E+00 -0.13316832712E+03  0.13316832712E+03  0.00000000000E+00 0. -1.
          6    1    1    2  501    0 -0.21077976617E+03  0.57479435922E+02  0.79960463918E+02  0.28932623657E+03  0.17200000000E+03 0. -1.
         -6    1    1    2    0  502  0.21077976617E+03 -0.57479435922E+02  0.65007168561E+03  0.70704256719E+03  0.17200000000E+03 0.  1.
</event>
<event>
 4    1  0.5739010E+000  0.1734907E+03  0.7818608E-02  0.1174256E+00
         21   -1    0    0  501  502  0.00000000000E+00  0.00000000000E+00  0.17541644139E+03  0.17541644139E+03  0.00000000000E+00 0.  1.
         21   -1    0    0  502  503 -0.00000000000E+00 -0.00000000000E+00 -0.21934416323E+03  0.21934416323E+03  0.00000000000E+00 0.  1.
          6    1    1    2  501    0  0.21824344278E+02  0.62226634551E+01  0.70137088907E+02  0.18713159750E+03  0.17200000000E+03 0.  1.
         -6    1    1    2    0  503 -0.21824344278E+02 -0.62226634551E+01 -0.11406481075E+03  0.20762900711E+03  0.17200000000E+03 0.  1.
</event>
<event>
 4    1  0.5739010E+000  0.1864029E+03  0.7818608E-02  0.1161746E+00
         21   -1    0    0  501  502  0.00000000000E+00  0.00000000000E+00  0.41564946833E+02  0.41564946833E+02  0.00000000000E+00 0. -1.
         21   -1    0    0  502  503 -0.00000000000E+00 -0.00000000000E+00 -0.97685281012E+03  0.97685281012E+03  0.00000000000E+00 0. -1.
          6    1    1    2  501    0  0.70956409990E+02  0.11279532774E+02 -0.27424779053E+03  0.33159899063E+03  0.17200000000E+03 0. -1.
         -6    1    1    2    0  503 -0.70956409990E+02 -0.11279532774E+02 -0.66104007276E+03  0.68681876632E+03  0.17200000000E+03 0. -1.
</event>
<event>
 4    1  0.5739010E+000  0.2035730E+03  0.7818608E-02  0.1146759E+00
         21   -1    0    0  503  502  0.00000000000E+00  0.00000000000E+00  0.11607534058E+03  0.11607534058E+03  0.00000000000E+00 0.  1.
         21   -1    0    0  501  503 -0.00000000000E+00 -0.00000000000E+00 -0.47290159228E+03  0.47290159228E+03  0.00000000000E+00 0.  1.
          6    1    1    2  501    0  0.34122314950E+02 -0.10340998439E+03 -0.32418649665E+03  0.38280392090E+03  0.17200000000E+03 0.  1.
         -6    1    1    2    0  502 -0.34122314950E+02  0.10340998439E+03 -0.32639755052E+02  0.20617301195E+03  0.17200000000E+03 0.  1.
</event>
<event>
 4    1  0.5739010E+000  0.2391226E+03  0.7818608E-02  0.1120379E+00
         21   -1    0    0  503  502  0.00000000000E+00  0.00000000000E+00  0.66721268421E+03  0.66721268421E+03  0.00000000000E+00 0. -1.
         21   -1    0    0  501  503 -0.00000000000E+00 -0.00000000000E+00 -0.10198649450E+03  0.10198649450E+03  0.00000000000E+00 0.  1.
          6    1    1    2  501    0  0.42830485073E+02  0.16050288838E+03  0.43630863725E+03  0.49753879705E+03  0.17200000000E+03 0. -1.
         -6    1    1    2    0  502 -0.42830485073E+02 -0.16050288838E+03  0.12891755246E+03  0.27166038166E+03  0.17200000000E+03 0.  1.
</event>
<event>
 4    1  0.5739010E+000  0.2036142E+03  0.7818608E-02  0.1146725E+00
         21   -1    0    0  503  502  0.00000000000E+00  0.00000000000E+00  0.18008657858E+03  0.18008657858E+03  0.00000000000E+00 0.  1.
         21   -1    0    0  501  503 -0.00000000000E+00 -0.00000000000E+00 -0.28800962792E+03  0.28800962792E+03  0.00000000000E+00 0. -1.
          6    1    1    2  501    0  0.90684462183E+02 -0.60424050287E+02 -0.15880542057E+03  0.25822064042E+03  0.17200000000E+03 0. -1.
         -6    1    1    2    0  502 -0.90684462183E+02  0.60424050287E+02  0.50882371241E+02  0.20987556608E+03  0.17200000000E+03 0.  1.
</event>
<event>
 4    1  0.5739010E+000  0.2193853E+03  0.7818608E-02  0.1134342E+00
         21   -1    0    0  503  502  0.00000000000E+00  0.00000000000E+00  0.49911816609E+03  0.49911816609E+03  0.00000000000E+00 0. -1.
         21   -1    0    0  501  503 -0.00000000000E+00 -0.00000000000E+00 -0.26312745345E+03  0.26312745345E+03  0.00000000000E+00 0.  1.
          6    1    1    2  501    0  0.13330898642E+03  0.27832456977E+02 -0.18535634130E+03  0.28720533558E+03  0.17200000000E+03 0.  1.
         -6    1    1    2    0  502 -0.13330898642E+03 -0.27832456977E+02  0.42134705394E+03  0.47504028396E+03  0.17200000000E+03 0. -1.
</event>
<event>
 4    1  0.5739010E+000  0.2188107E+03  0.7818608E-02  0.1134773E+00
         21   -1    0    0  503  502  0.00000000000E+00  0.00000000000E+00  0.28800427861E+02  0.28800427861E+02  0.00000000000E+00 0. -1.
         21   -1    0    0  501  503 -0.00000000000E+00 -0.00000000000E+00 -0.20942570828E+04  0.20942570828E+04  0.00000000000E+00 0.  1.
          6    1    1    2  501    0  0.13376361271E+03 -0.20035339553E+02 -0.15147668738E+04  0.15304890725E+04  0.17200000000E+03 0.  1.
         -6    1    1    2    0  502 -0.13376361271E+03  0.20035339553E+02 -0.55068978111E+03  0.59256843818E+03  0.17200000000E+03 0. -1.
</event>
<event>
 4    1  0.5739010E+000  0.1761036E+03  0.7818608E-02  0.1171628E+00
         21   -1    0    0  501  502  0.00000000000E+00  0.00000000000E+00  0.10152559145E+04  0.10152559145E+04  0.00000000000E+00 0.  1.
         21   -1    0    0  502  503 -0.00000000000E+00 -0.00000000000E+00 -0.45668609469E+02  0.45668609469E+02  0.00000000000E+00 0.  1.
          6    1    1    2  501    0 -0.29714470896E+02 -0.23356856494E+02  0.79004114322E+03  0.80943035556E+03  0.17200000000E+03 0.  1.
         -6    1    1    2    0  503  0.29714470896E+02  0.23356856494E+02  0.17954616184E+03  0.25149416844E+03  0.17200000000E+03 0.  1.
</event>
<event>
 4    1  0.5739010E+000  0.1895313E+03  0.7818608E-02  0.1158885E+00
         21   -1    0    0  503  502  0.00000000000E+00  0.00000000000E+00  0.12788553810E+04  0.12788553810E+04  0.00000000000E+00 0.  1.
         21   -1    0    0  501  503 -0.00000000000E+00 -0.00000000000E+00 -0.28102512310E+02  0.28102512310E+02  0.00000000000E+00 0.  1.
          6    1    1    2  501    0 -0.19374472292E+02 -0.77218736460E+02  0.63956627163E+03  0.66705855758E+03  0.17200000000E+03 0.  1.
         -6    1    1    2    0  502  0.19374472292E+02  0.77218736460E+02  0.61118659704E+03  0.63989933571E+03  0.17200000000E+03 0.  1.
</event>
<event>
 4    1  0.5739010E+000  0.1901483E+03  0.7818608E-02  0.1158328E+00
         21   -1    0    0  501  502  0.00000000000E+00  0.00000000000E+00  0.15204990305E+03  0.15204990305E+03  0.00000000000E+00 0. -1.
         21   -1    0    0  502  503 -0.00000000000E+00 -0.00000000000E+00 -0.27267270654E+03  0.27267270654E+03  0.00000000000E+00 0.  1.
          6    1    1    2  501    0  0.80137516058E+02  0.12262048608E+02  0.15641070548E+02  0.19079051969E+03  0.17200000000E+03 0.  1.
         -6    1    1    2    0  503 -0.80137516058E+02 -0.12262048608E+02 -0.13626387404E+03  0.23393208990E+03  0.17200000000E+03 0. -1.
</event>
<event>
 4    1  0.5739010E+000  0.2768418E+03  0.7818608E-02  0.1097427E+00
         21   -1    0    0  501  502  0.00000000000E+00  0.00000000000E+00  0.36151361865E+03  0.36151361865E+03  0.00000000000E+00 0. -1.
         21   -1    0    0  502  503 -0.00000000000E+00 -0.00000000000E+00 -0.26471182110E+03  0.26471182110E+03  0.00000000000E+00 0.  1.
          6    1    1    2  501    0 -0.11830575478E+03 -0.18182713209E+03  0.18812222281E+03  0.33471081293E+03  0.17200000000E+03 0. -1.
         -6    1    1    2    0  503  0.11830575478E+03  0.18182713209E+03 -0.91320425260E+02  0.29151462682E+03  0.17200000000E+03 0.  1.
</event>
<event>
 4    1  0.5739010E+000  0.1811564E+03  0.7818608E-02  0.1166689E+00
         21   -1    0    0  501  502  0.00000000000E+00  0.00000000000E+00  0.21228691795E+03  0.21228691795E+03  0.00000000000E+00 0. -1.
         21   -1    0    0  502  503 -0.00000000000E+00 -0.00000000000E+00 -0.23272288520E+03  0.23272288520E+03  0.00000000000E+00 0. -1.
          6    1    1    2  501    0 -0.55724525257E+02 -0.11331714169E+02  0.11870620402E+03  0.21658437925E+03  0.17200000000E+03 0. -1.
         -6    1    1    2    0  503  0.55724525257E+02  0.11331714169E+02 -0.13914217126E+03  0.22842542390E+03  0.17200000000E+03 0. -1.
</event>
<event>
 4    1  0.5739010E+000  0.1845411E+03  0.7818608E-02  0.1163479E+00
         21   -1    0    0  501  502  0.00000000000E+00  0.00000000000E+00  0.10644709684E+04  0.10644709684E+04  0.00000000000E+00 0.  1.
         21   -1    0    0  502  503 -0.00000000000E+00 -0.00000000000E+00 -0.84292049961E+02  0.84292049961E+02  0.00000000000E+00 0.  1.
          6    1    1    2  501    0  0.57389411795E+02  0.34320071665E+02  0.94252306181E+03  0.96041924905E+03  0.17200000000E+03 0.  1.
         -6    1    1    2    0  503 -0.57389411795E+02 -0.34320071665E+02  0.37655856648E+02  0.18834376933E+03  0.17200000000E+03 0.  1.
</event>
<event>
 4    1  0.5739010E+000  0.1797756E+03  0.7818608E-02  0.1168020E+00
         21   -1    0    0  501  502  0.00000000000E+00  0.00000000000E+00  0.21163463899E+03  0.21163463899E+03  0.00000000000E+00 0.  1.
         21   -1    0    0  502  503 -0.00000000000E+00 -0.00000000000E+00 -0.20408156684E+03  0.20408156684E+03  0.00000000000E+00 0.  1.
          6    1    1    2  501    0  0.12228737561E+02 -0.50850018445E+02  0.10806005464E+03  0.20975281120E+03  0.17200000000E+03 0.  1.
         -6    1    1    2    0  503 -0.12228737561E+02  0.50850018445E+02 -0.10050698249E+03  0.20596339463E+03  0.17200000000E+03 0.  1.
</event>
<event>
 4    1  0.5739010E+000  0.1735753E+03  0.7818608E-02  0.1174170E+00
         21   -1    0    0  503  502  0.00000000000E+00  0.00000000000E+00  0.49654765860E+02  0.49654765860E+02  0.00000000000E+00 0.  1.
         21   -1    0    0  501  503 -0.00000000000E+00 -0.00000000000E+00 -0.21329543961E+04  0.21329543961E+04  0.00000000000E+00 0.  1.
          6    1    1    2  501    0  0.23020606924E+02  0.38017283158E+01 -0.19647747383E+04  0.19724269756E+04  0.17200000000E+03 0.  1.
         -6    1    1    2    0  502 -0.23020606924E+02 -0.38017283158E+01 -0.11852489190E+03  0.21018218640E+03  0.17200000000E+03 0.  1.
</event>
<event>
 4    1  0.5739010E+000  0.1820328E+03  0.7818608E-02  0.1165850E+00
         21   -1    0    0  501  502  0.00000000000E+00  0.00000000000E+00  0.74146234886E+02  0.74146234886E+02  0.00000000000E+00 0.  1.
         21   -1    0    0  502  503 -0.00000000000E+00 -0.00000000000E+00 -0.65175048364E+03  0.65175048364E+03  0.00000000000E+00 0.  1.
          6    1    1    2  501    0  0.33118240506E+02  0.49549264923E+02 -0.85321658754E+02  0.20103664582E+03  0.17200000000E+03 0.  1.
         -6    1    1    2    0  503 -0.33118240506E+02 -0.49549264923E+02 -0.49228259000E+03  0.52486007271E+03  0.17200000000E+03 0.  1.
</event>
<event>
 4    1  0.5739010E+000  0.2712277E+03  0.7818608E-02  0.1100579E+00
         21   -1    0    0  503  502  0.00000000000E+00  0.00000000000E+00  0.94473042630E+02  0.94473042630E+02  0.00000000000E+00 0.  1.
         21   -1    0    0  501  503 -0.00000000000E+00 -0.00000000000E+00 -0.87514154447E+03  0.87514154447E+03  0.00000000000E+00 0. -1.
          6    1    1    2  501    0  0.20776756491E+03  0.28514564963E+02 -0.55128870036E+03  0.61439699917E+03  0.17200000000E+03 0. -1.
         -6    1    1    2    0  502 -0.20776756491E+03 -0.28514564963E+02 -0.22937980147E+03  0.35521758792E+03  0.17200000000E+03 0.  1.
</event>
<event>
 4    1  0.5739010E+000  0.1945325E+03  0.7818608E-02  0.1154436E+00
         21   -1    0    0  503  502  0.00000000000E+00  0.00000000000E+00  0.72928724853E+02  0.72928724853E+02  0.00000000000E+00 0. -1.
         21   -1    0    0  501  503 -0.00000000000E+00 -0.00000000000E+00 -0.52607362926E+03  0.52607362926E+03  0.00000000000E+00 0. -1.
          6    1    1    2  501    0 -0.66027373970E+02  0.62444136540E+02 -0.26154075744E+03  0.32595467799E+03  0.17200000000E+03 0. -1.
         -6    1    1    2    0  502  0.66027373970E+02 -0.62444136540E+02 -0.19160414697E+03  0.27304767612E+03  0.17200000000E+03 0. -1.
</event>
<event>
 4    1  0.5739010E+000  0.1829329E+03  0.7818608E-02  0.1164994E+00
         21   -1    0    0  503  502  0.00000000000E+00  0.00000000000E+00  0.48401427924E+03  0.48401427924E+03  0.00000000000E+00 0.  1.
         21   -1    0    0  501  503 -0.00000000000E+00 -0.00000000000E+00 -0.10673418894E+03  0.10673418894E+03  0.00000000000E+00 0.  1.
          6    1    1    2  501    0  0.15385028345E+02 -0.60363465475E+02  0.13338891658E+02  0.18341857347E+03  0.17200000000E+03 0.  1.
         -6    1    1    2    0  502 -0.15385028345E+02  0.60363465475E+02  0.36394119864E+03  0.40732989471E+03  0.17200000000E+03 0.  1.
</event>
<event>
 4    1  0.5739010E+000  0.2027682E+03  0.7818608E-02  0.1147424E+00
         21   -1    0    0  501  502  0.00000000000E+00  0.00000000000E+00  0.23757540808E+02  0.23757540808E+02  0.00000000000E+00 0.  1.
         21   -1    0    0  502  503 -0.00000000000E+00 -0.00000000000E+00 -0.17953929532E+04  0.17953929532E+04  0.00000000000E+00 0. -1.
          6    1    1    2  501    0  0.58830550118E+02  0.89832644280E+02 -0.10586016439E+04  0.10778461755E+04  0.17200000000E+03 0. -1.
         -6    1    1    2    0  503 -0.58830550118E+02 -0.89832644280E+02 -0.71303376848E+03  0.74130431848E+03  0.17200000000E+03 0.  1.
</event>
<event>
 4    1  0.5739010E+000  0.1976666E+03  0.7818608E-02  0.1151723E+00
         21   -1    0    0  503  502  0.00000000000E+00  0.00000000000E+00  0.52255379108E+03  0.52255379108E+03  0.00000000000E+00 0. -1.
         21   -1    0    0  501  503 -0.00000000000E+00 -0.00000000000E+00 -0.86199639632E+02  0.86199639632E+02  0.00000000000E+00 0. -1.
          6    1    1    2  501    0 -0.61724887877E+02  0.75353449267E+02  0.10734960027E+03  0.22493563697E+03  0.17200000000E+03 0. -1.
         -6    1    1    2    0  502  0.61724887877E+02 -0.75353449267E+02  0.32900455118E+03  0.38381779375E+03  0.17200000000E+03 0. -1.
</event>
<event>
 4    1  0.5739010E+000  0.2341820E+03  0.7818608E-02  0.1123730E+00
         21   -1    0    0  501  502  0.00000000000E+00  0.00000000000E+00  0.35685105297E+02  0.35685105297E+02  0.00000000000E+00 0. -1.
         21   -1    0    0  502  503 -0.00000000000E+00 -0.00000000000E+00 -0.18078644798E+04  0.18078644798E+04  0.00000000000E+00 0. -1.
          6    1    1    2  501    0 -0.11349047758E+03  0.11125259327E+03 -0.12430090888E+04  0.12648766038E+04  0.17200000000E+03 0. -1.
         -6    1    1    2    0  503  0.11349047758E+03 -0.11125259327E+03 -0.52917028573E+03  0.57867298132E+03  0.17200000000E+03 0. -1.
</event>
<event>
 4    1  0.5739010E+000  0.1944598E+03  0.7818608E-02  0.1154499E+00
         21   -1    0    0  503  502  0.00000000000E+00  0.00000000000E+00  0.36216988003E+03  0.36216988003E+03  0.00000000000E+00 0. -1.
         21   -1    0    0  501  503 -0.00000000000E+00 -0.00000000000E+00 -0.11426824754E+03  0.11426824754E+03  0.00000000000E+00 0. -1.
          6    1    1    2  501    0  0.69983102012E+02  0.57731912166E+02  0.53984959964E+02  0.20181423179E+03  0.17200000000E+03 0. -1.
         -6    1    1    2    0  502 -0.69983102012E+02 -0.57731912166E+02  0.19391667253E+03  0.27462389578E+03  0.17200000000E+03 0. -1.
</event>
<event>
 4    1  0.5739010E+000  0.1911580E+03  0.7818608E-02  0.1157421E+00
         21   -1    0    0  503  502  0.00000000000E+00  0.00000000000E+00  0.52988773016E+02  0.52988773016E+02  0.00000000000E+00 0.  1.
         21   -1    0    0  501  503 -0.00000000000E+00 -0.00000000000E+00 -0.74232265404E+03  0.74232265404E+03  0.00000000000E+00 0.  1.
          6    1    1    2  501    0  0.14166059483E+02  0.82199081640E+02 -0.23869630716E+03  0.30580597331E+03  0.17200000000E+03 0.  1.
         -6    1    1    2    0  502 -0.14166059483E+02 -0.82199081640E+02 -0.45063757387E+03  0.48950545374E+03  0.17200000000E+03 0.  1.
</event>
<event>
 4    1  0.5739010E+000  0.1747338E+03  0.7818608E-02  0.1172999E+00
         21   -1    0    0  503  502  0.00000000000E+00  0.00000000000E+00  0.63156900527E+03  0.63156900527E+03  0.00000000000E+00 0. -1.
         21   -1    0    0  501  503 -0.00000000000E+00 -0.00000000000E+00 -0.52198324346E+02  0.52198324346E+02  0.00000000000E+00 0. -1.
          6    1    1    2  501    0 -0.11297163150E+02  0.28640688259E+02  0.19677098799E+03  0.26315534696E+03  0.17200000000E+03 0.  1.
         -6    1    1    2    0  502  0.11297163150E+02 -0.28640688259E+02  0.38259969293E+03  0.42061198265E+03  0.17200000000E+03 0.  1.
</event>
<event>
 4    1  0.5739010E+000  0.1802790E+03  0.7818608E-02  0.1167533E+00
         21   -1    0    0  503  502  0.00000000000E+00  0.00000000000E+00  0.10773212280E+04  0.10773212280E+04  0.00000000000E+00 0.  1.
         21   -1    0    0  501  503 -0.00000000000E+00 -0.00000000000E+00 -0.34918703676E+02  0.34918703676E+02  0.00000000000E+00 0.  1.
          6    1    1    2  501    0  0.46631166469E+02  0.27240703832E+02  0.31607424512E+03  0.36387284875E+03  0.17200000000E+03 0.  1.
         -6    1    1    2    0  502 -0.46631166469E+02 -0.27240703832E+02  0.72632827920E+03  0.74836708292E+03  0.17200000000E+03 0.  1.
</event>
<event>
 4    1  0.5739010E+000  0.2084920E+03  0.7818608E-02  0.1142766E+00
         21   -1    0    0  501  502  0.00000000000E+00  0.00000000000E+00  0.26410747532E+03  0.26410747532E+03  0.00000000000E+00 0. -1.
         21   -1    0    0  502  503 -0.00000000000E+00 -0.00000000000E+00 -0.16855645571E+03  0.16855645571E+03  0.00000000000E+00 0. -1.
          6    1    1    2  501    0 -0.65840137206E+02  0.97724154003E+02  0.80969244512E+02  0.22366258628E+03  0.17200000000E+03 0. -1.
         -6    1    1    2    0  503  0.65840137206E+02 -0.97724154003E+02  0.14581775098E+02  0.20900134475E+03  0.17200000000E+03 0. -1.
</event>
<event>
 4    1  0.5739010E+000  0.1769399E+03  0.7818608E-02  0.1170798E+00
         21   -1    0    0  503  502  0.00000000000E+00  0.00000000000E+00  0.48050041350E+02  0.48050041350E+02  0.00000000000E+00 0. -1.
         21   -1    0    0  501  503 -0.00000000000E+00 -0.00000000000E+00 -0.70341712312E+03  0.70341712312E+03  0.00000000000E+00 0. -1.
          6    1    1    2  501    0  0.20803109956E+02 -0.35930072448E+02 -0.22567052886E+03  0.28676632836E+03  0.17200000000E+03 0. -1.
         -6    1    1    2    0  502 -0.20803109956E+02  0.35930072448E+02 -0.42969655291E+03  0.46470083610E+03  0.17200000000E+03 0. -1.
</event>
<event>
 4    1  0.5739010E+000  0.2028763E+03  0.7818608E-02  0.1147335E+00
         21   -1    0    0  503  502  0.00000000000E+00  0.00000000000E+00  0.96098553557E+03  0.96098553557E+03  0.00000000000E+00 0.  1.
         21   -1    0    0  501  503 -0.00000000000E+00 -0.00000000000E+00 -0.48508409862E+02  0.48508409862E+02  0.00000000000E+00 0.  1.
          6    1    1    2  501    0  0.10582718535E+03  0.19375623664E+02  0.28354083196E+03  0.34864625530E+03  0.17200000000E+03 0. -1.
         -6    1    1    2    0  502 -0.10582718535E+03 -0.19375623664E+02  0.62893629375E+03  0.66084769012E+03  0.17200000000E+03 0. -1.
</event>
<event>
 4    1  0.5739010E+000  0.1945480E+03  0.7818608E-02  0.1154422E+00
         21   -1    0    0  503  502  0.00000000000E+00  0.00000000000E+00  0.99740245823E+02  0.99740245823E+02  0.00000000000E+00 0.  1.
         21   -1    0    0  501  503 -0.00000000000E+00 -0.00000000000E+00 -0.92526912495E+03  0.92526912495E+03  0.00000000000E+00 0.  1.
          6    1    1    2  501    0 -0.76960722777E+02 -0.48393969401E+02 -0.80638541726E+03  0.82952177204E+03  0.17200000000E+03 0.  1.
         -6    1    1    2    0  502  0.76960722777E+02  0.48393969401E+02 -0.19143461868E+02  0.19548759873E+03  0.17200000000E+03 0.  1.
</event>
<event>
 4    1  0.5739010E+000  0.2447570E+03  0.7818608E-02  0.1116664E+00
         21   -1    0    0  501  502  0.00000000000E+00  0.00000000000E+00  0.48078759322E+03  0.48078759322E+03  0.00000000000E+00 0. -1.
         21   -1    0    0  502  503 -0.00000000000E+00 -0.00000000000E+00 -0.13710223453E+03  0.13710223453E+03  0.00000000000E+00 0.  1.
          6    1    1    2  501    0 -0.11067195920E+03 -0.13443850285E+03  0.78547827322E+02  0.25705204683E+03  0.17200000000E+03 0.  1.
         -6    1    1    2    0  503  0.11067195920E+03  0.13443850285E+03  0.26513753137E+03  0.36083778092E+03  0.17200000000E+03 0. -1.
</event>
<event>
 4    1  0.5739010E+000  0.1786741E+03  0.7818608E-02  0.1169092E+00
         21   -1    0    0  503  502  0.00000000000E+00  0.00000000000E+00  0.50443034138E+03  0.50443034138E+03  0.00000000000E+00 0.  1.
         21   -1    0    0  501  503 -0.00000000000E+00 -0.00000000000E+00 -0.12736899527E+03  0.12736899527E+03  0.00000000000E+00 0.  1.
          6    1    1    2  501    0 -0.44408299198E+02 -0.19192206307E+02 -0.35538233175E+02  0.18217410309E+03  0.17200000000E+03 0.  1.
         -6    1    1    2    0  502  0.44408299198E+02  0.19192206307E+02  0.41259957929E+03  0.44962523356E+03  0.17200000000E+03 0.  1.
</event>
<event>
 4    1  0.5739010E+000  0.2628237E+03  0.7818608E-02  0.1105458E+00
         21   -1    0    0  501  502  0.00000000000E+00  0.00000000000E+00  0.67633589937E+03  0.67633589937E+03  0.00000000000E+00 0. -1.
         21   -1    0    0  502  503 -0.00000000000E+00 -0.00000000000E+00 -0.29904534238E+03  0.29904534238E+03  0.00000000000E+00 0.  1.
          6    1    1    2  501    0  0.19789189422E+03  0.18196137561E+02  0.58438733816E+03  0.64076896166E+03  0.17200000000E+03 0. -1.
         -6    1    1    2    0  503 -0.19789189422E+03 -0.18196137561E+02 -0.20709678116E+03  0.33461228009E+03  0.17200000000E+03 0.  1.
</event>
<event>
 4    1  0.5739010E+000  0.2490883E+03  0.7818608E-02  0.1113882E+00
         21   -1    0    0  501  502  0.00000000000E+00  0.00000000000E+00  0.20744022374E+04  0.20744022374E+04  0.00000000000E+00 0. -1.
         21   -1    0    0  502  503 -0.00000000000E+00 -0.00000000000E+00 -0.30465546802E+02  0.30465546802E+02  0.00000000000E+00 0.  1.
          6    1    1    2  501    0  0.14235294679E+03 -0.11043839614E+03  0.11641096810E+04  0.11904605622E+04  0.17200000000E+03 0. -1.
         -6    1    1    2    0  503 -0.14235294679E+03  0.11043839614E+03  0.87982700964E+03  0.91440722203E+03  0.17200000000E+03 0. -1.
</event>
<event>
 4    1  0.5739010E+000  0.2028624E+03  0.7818608E-02  0.1147346E+00
         21   -1    0    0  503  502  0.00000000000E+00  0.00000000000E+00  0.27244462926E+04  0.27244462926E+04  0.00000000000E+00 0.  1.
         21   -1    0    0  501  503 -0.00000000000E+00 -0.00000000000E+00 -0.24163147115E+02  0.24163147115E+02  0.00000000000E+00 0. -1.
          6    1    1    2  501    0  0.70718107247E+02 -0.81043857467E+02  0.50870286397E+03  0.54766026087E+03  0.17200000000E+03 0. -1.
         -6    1    1    2    0  502 -0.70718107247E+02  0.81043857467E+02  0.21915802815E+04  0.22009491788E+04  0.17200000000E+03 0.  1.
</event>
<event>
 4    1  0.5739010E+000  0.1878153E+03  0.7818608E-02  0.1160447E+00
         21   -1    0    0  503  502  0.00000000000E+00  0.00000000000E+00  0.30590014226E+03  0.30590014226E+03  0.00000000000E+00 0. -1.
         21   -1    0    0  501  503 -0.00000000000E+00 -0.00000000000E+00 -0.11543310392E+03  0.11543310392E+03  0.00000000000E+00 0. -1.
          6    1    1    2  501    0  0.23758087563E+02  0.71597035358E+02  0.88467785019E+02  0.20760811926E+03  0.17200000000E+03 0. -1.
         -6    1    1    2    0  502 -0.23758087563E+02 -0.71597035358E+02  0.10199925332E+03  0.21372512691E+03  0.17200000000E+03 0. -1.
</event>
<event>
 4    1  0.5739010E+000  0.1753691E+03  0.7818608E-02  0.1172362E+00
         21   -1    0    0  503  502  0.00000000000E+00  0.00000000000E+00  0.17533173230E+03  0.17533173230E+03  0.00000000000E+00 0.  1.
         21   -1    0    0  501  503 -0.00000000000E+00 -0.00000000000E+00 -0.39197604054E+03  0.39197604054E+03  0.00000000000E+00 0.  1.
          6    1    1    2  501    0  0.90830812028E+01 -0.32981918501E+02 -0.31916446020E+03  0.36417064952E+03  0.17200000000E+03 0.  1.
         -6    1    1    2    0  502 -0.90830812028E+01  0.32981918501E+02  0.10252015197E+03  0.20313712332E+03  0.17200000000E+03 0.  1.
</event>
<event>
 4    1  0.5739010E+000  0.1764582E+03  0.7818608E-02  0.1171276E+00
         21   -1    0    0  503  502  0.00000000000E+00  0.00000000000E+00  0.46245345372E+02  0.46245345372E+02  0.00000000000E+00 0. -1.
         21   -1    0    0  501  503 -0.00000000000E+00 -0.00000000000E+00 -0.10509640321E+04  0.10509640321E+04  0.00000000000E+00 0. -1.
          6    1    1    2  501    0  0.28635203854E+02 -0.27083321502E+02 -0.83122029332E+03  0.84974387743E+03  0.17200000000E+03 0. -1.
         -6    1    1    2    0  502 -0.28635203854E+02  0.27083321502E+02 -0.17349839346E+03  0.24746550009E+03  0.17200000000E+03 0. -1.
</event>
<event>
 4    1  0.5739010E+000  0.1904807E+03  0.7818608E-02  0.1158028E+00
         21   -1    0    0  501  502  0.00000000000E+00  0.00000000000E+00  0.75726691928E+03  0.75726691928E+03  0.00000000000E+00 0.  1.
         21   -1    0    0  502  503 -0.00000000000E+00 -0.00000000000E+00 -0.48155041449E+02  0.48155041449E+02  0.00000000000E+00 0.  1.
          6    1    1    2  501    0 -0.81440322691E+02 -0.81469282122E+01  0.32600275480E+03  0.37757210535E+03  0.17200000000E+03 0.  1.
         -6    1    1    2    0  503  0.81440322691E+02  0.81469282122E+01  0.38310912303E+03  0.42784985538E+03  0.17200000000E+03 0.  1.
</event>
<event>
 4    1  0.5739010E+000  0.2392789E+03  0.7818608E-02  0.1120274E+00
         21   -1    0    0  503  502  0.00000000000E+00  0.00000000000E+00  0.17499339098E+03  0.17499339098E+03  0.00000000000E+00 0. -1.
         21   -1    0    0  501  503 -0.00000000000E+00 -0.00000000000E+00 -0.13550520857E+04  0.13550520857E+04  0.00000000000E+00 0.  1.
          6    1    1    2  501    0  0.13501697243E+03 -0.97163765180E+02 -0.12563232421E+04  0.12789067475E+04  0.17200000000E+03 0.  1.
         -6    1    1    2    0  502 -0.13501697243E+03  0.97163765180E+02  0.76264547388E+02  0.25113872918E+03  0.17200000000E+03 0. -1.
</event>
<event>
 4    1  0.5739010E+000  0.2153371E+03  0.7818608E-02  0.1137408E+00
         21   -1    0    0  501  502  0.00000000000E+00  0.00000000000E+00  0.52556854677E+03  0.52556854677E+03  0.00000000000E+00 0.  1.
         21   -1    0    0  502  503 -0.00000000000E+00 -0.00000000000E+00 -0.10234418146E+03  0.10234418146E+03  0.00000000000E+00 0.  1.
          6    1    1    2  501    0  0.12678468924E+03  0.26677925005E+02  0.32820995666E+03  0.39254534103E+03  0.17200000000E+03 0.  1.
         -6    1    1    2    0  503 -0.12678468924E+03 -0.26677925005E+02  0.95014408642E+02  0.23536738720E+03  0.17200000000E+03 0.  1.
</event>
<event>
 4    1  0.5739010E+000  0.2767346E+03  0.7818608E-02  0.1097486E+00
         21   -1    0    0  503  502  0.00000000000E+00  0.00000000000E+00  0.27030724906E+04  0.27030724906E+04  0.00000000000E+00 0.  1.
         21   -1    0    0  501  503 -0.00000000000E+00 -0.00000000000E+00 -0.40657542002E+02  0.40657542002E+02  0.00000000000E+00 0. -1.
          6    1    1    2  501    0  0.15400566494E+03 -0.15257889875E+03  0.57584942937E+03  0.63889328568E+03  0.17200000000E+03 0. -1.
         -6    1    1    2    0  502 -0.15400566494E+03  0.15257889875E+03  0.20865655192E+04  0.21048367469E+04  0.17200000000E+03 0.  1.
</event>
<event>
 4    1  0.5739010E+000  0.2341046E+03  0.7818608E-02  0.1123784E+00
         21   -1    0    0  501  502  0.00000000000E+00  0.00000000000E+00  0.27107214135E+03  0.27107214135E+03  0.00000000000E+00 0. -1.
         21   -1    0    0  502  503 -0.00000000000E+00 -0.00000000000E+00 -0.30300315827E+03  0.30300315827E+03  0.00000000000E+00 0.  1.
          6    1    1    2  501    0  0.15048480605E+03 -0.50747453704E+02  0.14961091317E+03  0.27782801559E+03  0.17200000000E+03 0. -1.
         -6    1    1    2    0  503 -0.15048480605E+03  0.50747453704E+02 -0.18154193010E+03  0.29624728403E+03  0.17200000000E+03 0.  1.
</event>
<event>
 4    1  0.5739010E+000  0.3169164E+03  0.7818608E-02  0.1077077E+00
         21   -1    0    0  503  502  0.00000000000E+00  0.00000000000E+00  0.46828660927E+03  0.46828660927E+03  0.00000000000E+00 0. -1.
         21   -1    0    0  501  503 -0.00000000000E+00 -0.00000000000E+00 -0.42043495173E+03  0.42043495173E+03  0.00000000000E+00 0. -1.
          6    1    1    2  501    0  0.17746985673E+03 -0.19838453312E+03 -0.28708624517E+03  0.42761487953E+03  0.17200000000E+03 0. -1.
         -6    1    1    2    0  502 -0.17746985673E+03  0.19838453312E+03  0.33493790271E+03  0.46110668147E+03  0.17200000000E+03 0. -1.
</event>
<event>
 4    1  0.5739010E+000  0.1966128E+03  0.7818608E-02  0.1152629E+00
         21   -1    0    0  501  502  0.00000000000E+00  0.00000000000E+00  0.41926279820E+03  0.41926279820E+03  0.00000000000E+00 0. -1.
         21   -1    0    0  502  503 -0.00000000000E+00 -0.00000000000E+00 -0.95103615336E+02  0.95103615336E+02  0.00000000000E+00 0.  1.
          6    1    1    2  501    0 -0.83048243960E+02  0.46643183833E+02  0.20700710633E+03  0.28549700435E+03  0.17200000000E+03 0. -1.
         -6    1    1    2    0  503  0.83048243960E+02 -0.46643183833E+02  0.11715207653E+03  0.22886940918E+03  0.17200000000E+03 0. -1.
</event>
<event>
 4    1  0.5739010E+000  0.2399307E+03  0.7818608E-02  0.1119839E+00
         21   -1    0    0  503  502  0.00000000000E+00  0.00000000000E+00  0.20936133332E+03  0.20936133332E+03  0.00000000000E+00 0. -1.
         21   -1    0    0  501  503 -0.00000000000E+00 -0.00000000000E+00 -0.34136794503E+03  0.34136794503E+03  0.00000000000E+00 0.  1.
          6    1    1    2  501    0  0.16625304190E+03 -0.18511525702E+02 -0.18745259510E+03  0.30447532894E+03  0.17200000000E+03 0.  1.
         -6    1    1    2    0  502 -0.16625304190E+03  0.18511525702E+02  0.55445983392E+02  0.24625394941E+03  0.17200000000E+03 0. -1.
</event>
<event>
 4    1  0.5739010E+000  0.1776470E+03  0.7818608E-02  0.1170100E+00
         21   -1    0    0  503  502  0.00000000000E+00  0.00000000000E+00  0.31953210844E+02  0.31953210844E+02  0.00000000000E+00 0.  1.
         21   -1    0    0  501  503 -0.00000000000E+00 -0.00000000000E+00 -0.14353034691E+04  0.14353034691E+04  0.00000000000E+00 0.  1.
          6    1    1    2  501    0 -0.10405548852E+02  0.43199201624E+02 -0.11113858882E+04  0.11254941310E+04  0.17200000000E+03 0.  1.
         -6    1    1    2    0  502  0.10405548852E+02 -0.43199201624E+02 -0.29196437008E+03  0.34176254895E+03  0.17200000000E+03 0.  1.
</event>
<event>
 4    1  0.5739010E+000  0.1735902E+03  0.7818608E-02  0.1174155E+00
         21   -1    0    0  503  502  0.00000000000E+00  0.00000000000E+00  0.13379815712E+03  0.13379815712E+03  0.00000000000E+00 0. -1.
         21   -1    0    0  501  503 -0.00000000000E+00 -0.00000000000E+00 -0.33109724988E+03  0.33109724988E+03  0.00000000000E+00 0. -1.
          6    1    1    2  501    0 -0.35707492798E+01  0.23168826371E+02 -0.23009818672E+03  0.28823379451E+03  0.17200000000E+03 0. -1.
         -6    1    1    2    0  502  0.35707492798E+01 -0.23168826371E+02  0.32799093955E+02  0.17666161250E+03  0.17200000000E+03 0. -1.
</event>
<event>
 4    1  0.5739010E+000  0.2070692E+03  0.7818608E-02  0.1143908E+00
         21   -1    0    0  501  502  0.00000000000E+00  0.00000000000E+00  0.60259163706E+02  0.60259163706E+02  0.00000000000E+00 0.  1.
         21   -1    0    0  502  503 -0.00000000000E+00 -0.00000000000E+00 -0.71283148738E+03  0.71283148738E+03  0.00000000000E+00 0. -1.
          6    1    1    2  501    0  0.63339172234E+02  0.96342211713E+02 -0.30992481970E+03  0.37273457898E+03  0.17200000000E+03 0.  1.
         -6    1    1    2    0  503 -0.63339172234E+02 -0.96342211713E+02 -0.34264750397E+03  0.40035607211E+03  0.17200000000E+03 0. -1.
</event>
<event>
 4    1  0.5739010E+000  0.1729787E+03  0.7818608E-02  0.1174777E+00
         21   -1    0    0  503  502  0.00000000000E+00  0.00000000000E+00  0.19571472917E+03  0.19571472917E+03  0.00000000000E+00 0. -1.
         21   -1    0    0  501  503 -0.00000000000E+00 -0.00000000000E+00 -0.15379764428E+03  0.15379764428E+03  0.00000000000E+00 0.  1.
          6    1    1    2  501    0 -0.12013440628E+02 -0.13902953671E+02  0.74878558878E+01  0.17314064474E+03  0.17200000000E+03 0.  1.
         -6    1    1    2    0  502  0.12013440628E+02  0.13902953671E+02  0.34429229008E+02  0.17637172871E+03  0.17200000000E+03 0. -1.
</event>
<event>
 4    1  0.5739010E+000  0.1810790E+03  0.7818608E-02  0.1166763E+00
         21   -1    0    0  501  502  0.00000000000E+00  0.00000000000E+00  0.30083285727E+03  0.30083285727E+03  0.00000000000E+00 0. -1.
         21   -1    0    0  502  503 -0.00000000000E+00 -0.00000000000E+00 -0.28905575667E+03  0.28905575667E+03  0.00000000000E+00 0.  1.
          6    1    1    2  501    0  0.13731092234E+02  0.54927800518E+02  0.23867485341E+03  0.29959187542E+03  0.17200000000E+03 0. -1.
         -6    1    1    2    0  503 -0.13731092234E+02 -0.54927800518E+02 -0.22689775282E+03  0.29029673852E+03  0.17200000000E+03 0.  1.
</event>
<event>
 4    1  0.5739010E+000  0.1980783E+03  0.7818608E-02  0.1151371E+00
         21   -1    0    0  503  502  0.00000000000E+00  0.00000000000E+00  0.18753401587E+04  0.18753401587E+04  0.00000000000E+00 0.  1.
         21   -1    0    0  501  503 -0.00000000000E+00 -0.00000000000E+00 -0.21347380630E+02  0.21347380630E+02  0.00000000000E+00 0.  1.
          6    1    1    2  501    0 -0.89597814244E+02 -0.40289610503E+02  0.10609370552E+04  0.10792694085E+04  0.17200000000E+03 0.  1.
         -6    1    1    2    0  502  0.89597814244E+02  0.40289610503E+02  0.79305572290E+03  0.81741813086E+03  0.17200000000E+03 0.  1.
</event>
<event>
 4    1  0.5739010E+000  0.1809567E+03  0.7818608E-02  0.1166880E+00
         21   -1    0    0  503  502  0.00000000000E+00  0.00000000000E+00  0.42890122698E+03  0.42890122698E+03  0.00000000000E+00 0.  1.
         21   -1    0    0  501  503 -0.00000000000E+00 -0.00000000000E+00 -0.91825118192E+02  0.91825118192E+02  0.00000000000E+00 0.  1.
          6    1    1    2  501    0  0.41834698872E+02  0.37565735308E+02  0.61642969075E+02  0.19116794223E+03  0.17200000000E+03 0.  1.
         -6    1    1    2    0  502 -0.41834698872E+02 -0.37565735308E+02  0.27543313971E+03  0.32955840294E+03  0.17200000000E+03 0.  1.
</event>
<event>
 4    1  0.5739010E+000  0.1795410E+03  0.7818608E-02  0.1168248E+00
         21   -1    0    0  503  502  0.00000000000E+00  0.00000000000E+00  0.34161026919E+02  0.34161026919E+02  0.00000000000E+00 0.  1.
         21   -1    0    0  501  503 -0.00000000000E+00 -0.00000000000E+00 -0.14174661198E+04  0.14174661198E+04  0.00000000000E+00 0.  1.
          6    1    1    2  501    0 -0.34257791755E+02 -0.38436742628E+02 -0.11113033511E+04  0.11257131596E+04  0.17200000000E+03 0.  1.
         -6    1    1    2    0  502  0.34257791755E+02  0.38436742628E+02 -0.27200174176E+03  0.32591398712E+03  0.17200000000E+03 0.  1.
</event>
<event>
 4    1  0.5739010E+000  0.1774625E+03  0.7818608E-02  0.1170282E+00
         21   -1    0    0  503  502  0.00000000000E+00  0.00000000000E+00  0.34368739694E+03  0.34368739694E+03  0.00000000000E+00 0.  1.
         21   -1    0    0  501  503 -0.00000000000E+00 -0.00000000000E+00 -0.17765908440E+03  0.17765908440E+03  0.00000000000E+00 0.  1.
          6    1    1    2  501    0 -0.36584613720E+02  0.23885076876E+02 -0.98378255295E+02  0.20290690470E+03  0.17200000000E+03 0.  1.
         -6    1    1    2    0  502  0.36584613720E+02 -0.23885076876E+02  0.26440656784E+03  0.31843957665E+03  0.17200000000E+03 0.  1.
</event>
<event>
 4    1  0.5739010E+000  0.1726829E+03  0.7818608E-02  0.1175079E+00
         21   -1    0    0  503  502  0.00000000000E+00  0.00000000000E+00  0.50757833582E+03  0.50757833582E+03  0.00000000000E+00 0.  1.
         21   -1    0    0  501  503 -0.00000000000E+00 -0.00000000000E+00 -0.80274761579E+02  0.80274761579E+02  0.00000000000E+00 0.  1.
          6    1    1    2  501    0 -0.98594710775E+01 -0.11754303027E+02  0.61444495223E+02  0.18328883982E+03  0.17200000000E+03 0.  1.
         -6    1    1    2    0  502  0.98594710775E+01  0.11754303027E+02  0.36585907902E+03  0.40456425758E+03  0.17200000000E+03 0.  1.
</event>
<event>
 4    1  0.5739010E+000  0.1773362E+03  0.7818608E-02  0.1170406E+00
         21   -1    0    0  503  502  0.00000000000E+00  0.00000000000E+00  0.20613410673E+03  0.20613410673E+03  0.00000000000E+00 0.  1.
         21   -1    0    0  501  503 -0.00000000000E+00 -0.00000000000E+00 -0.15914482271E+03  0.15914482271E+03  0.00000000000E+00 0. -1.
          6    1    1    2  501    0  0.40170028465E+02  0.15827222911E+02  0.60641352131E+02  0.18741799743E+03  0.17200000000E+03 0.  1.
         -6    1    1    2    0  502 -0.40170028465E+02 -0.15827222911E+02 -0.13652068118E+02  0.17786093201E+03  0.17200000000E+03 0. -1.
</event>
<event>
 4    1  0.5739010E+000  0.2333533E+03  0.7818608E-02  0.1124302E+00
         21   -1    0    0  503  502  0.00000000000E+00  0.00000000000E+00  0.12271786326E+04  0.12271786326E+04  0.00000000000E+00 0.  1.
         21   -1    0    0  501  503 -0.00000000000E+00 -0.00000000000E+00 -0.62395877776E+02  0.62395877776E+02  0.00000000000E+00 0.  1.
          6    1    1    2  501    0 -0.15097229044E+03  0.45575775891E+02  0.23585507722E+03  0.33178517339E+03  0.17200000000E+03 0.  1.
         -6    1    1    2    0  502  0.15097229044E+03 -0.45575775891E+02  0.92892767755E+03  0.95778933694E+03  0.17200000000E+03 0.  1.
</event>
<event>
 4    1  0.5739010E+000  0.1793132E+03  0.7818608E-02  0.1168469E+00
         21   -1    0    0  503  502  0.00000000000E+00  0.00000000000E+00  0.13948259730E+04  0.13948259730E+04  0.00000000000E+00 0.  1.
         21   -1    0    0  501  503 -0.00000000000E+00 -0.00000000000E+00 -0.39403335264E+02  0.39403335264E+02  0.00000000000E+00 0.  1.
          6    1    1    2  501    0  0.43972270882E+02  0.25212688225E+02  0.21575441731E+03  0.28054092186E+03  0.17200000000E+03 0.  1.
         -6    1    1    2    0  502 -0.43972270882E+02 -0.25212688225E+02  0.11396682205E+04  0.11536883864E+04  0.17200000000E+03 0.  1.
</event>
<event>
 4    1  0.5739010E+000  0.1819500E+03  0.7818608E-02  0.1165929E+00
         21   -1    0    0  503  502  0.00000000000E+00  0.00000000000E+00  0.33149222789E+03  0.33149222789E+03  0.00000000000E+00 0.  1.
         21   -1    0    0  501  503 -0.00000000000E+00 -0.00000000000E+00 -0.12314673839E+03  0.12314673839E+03  0.00000000000E+00 0.  1.
          6    1    1    2  501    0  0.59340327867E+02  0.72743675324E+00  0.53412382854E+01  0.18202838378E+03  0.17200000000E+03 0.  1.
         -6    1    1    2    0  502 -0.59340327867E+02 -0.72743675324E+00  0.20300425122E+03  0.27261058249E+03  0.17200000000E+03 0.  1.
</event>
<event>
 4    1  0.5739010E+000  0.2114627E+03  0.7818608E-02  0.1140413E+00
         21   -1    0    0  503  502  0.00000000000E+00  0.00000000000E+00  0.58502719438E+03  0.58502719438E+03  0.00000000000E+00 0. -1.
         21   -1    0    0  501  503 -0.00000000000E+00 -0.00000000000E+00 -0.91997492154E+02  0.91997492154E+02  0.00000000000E+00 0.  1.
          6    1    1    2  501    0  0.10279705404E+02 -0.12258378831E+03  0.38574342658E+03  0.43990277181E+03  0.17200000000E+03 0. -1.
         -6    1    1    2    0  502 -0.10279705404E+02  0.12258378831E+03  0.10728627565E+03  0.23712191472E+03  0.17200000000E+03 0.  1.
</event>
<event>
 4    1  0.5739010E+000  0.2064145E+03  0.7818608E-02  0.1144437E+00
         21   -1    0    0  503  502  0.00000000000E+00  0.00000000000E+00  0.75306293231E+03  0.75306293231E+03  0.00000000000E+00 0. -1.
         21   -1    0    0  501  503 -0.00000000000E+00 -0.00000000000E+00 -0.92728943608E+02  0.92728943608E+02  0.00000000000E+00 0. -1.
          6    1    1    2  501    0  0.24344823387E+02 -0.11149121409E+03  0.66118103819E+02  0.21674539187E+03  0.17200000000E+03 0. -1.
         -6    1    1    2    0  502 -0.24344823387E+02  0.11149121409E+03  0.59421588488E+03  0.62904648404E+03  0.17200000000E+03 0. -1.
</event>
<event>
 4    1  0.5739010E+000  0.2477499E+03  0.7818608E-02  0.1114735E+00
         21   -1    0    0  501  502  0.00000000000E+00  0.00000000000E+00  0.91089451792E+03  0.91089451792E+03  0.00000000000E+00 0.  1.
         21   -1    0    0  502  503 -0.00000000000E+00 -0.00000000000E+00 -0.68119740218E+02  0.68119740218E+02  0.00000000000E+00 0. -1.
          6    1    1    2  501    0  0.88257378445E+02  0.15494086574E+03  0.47224792068E+03  0.53328991676E+03  0.17200000000E+03 0.  1.
         -6    1    1    2    0  503 -0.88257378445E+02 -0.15494086574E+03  0.37052685701E+03  0.44572434137E+03  0.17200000000E+03 0. -1.
</event>
<event>
 4    1  0.5739010E+000  0.2006275E+03  0.7818608E-02  0.1149211E+00
         21   -1    0    0  501  502  0.00000000000E+00  0.00000000000E+00  0.22343294821E+03  0.22343294821E+03  0.00000000000E+00 0.  1.
         21   -1    0    0  502  503 -0.00000000000E+00 -0.00000000000E+00 -0.32529487781E+03  0.32529487781E+03  0.00000000000E+00 0.  1.
          6    1    1    2  501    0  0.43526958983E+02  0.93663120865E+02  0.13233832485E+03  0.24034310598E+03  0.17200000000E+03 0.  1.
         -6    1    1    2    0  503 -0.43526958983E+02 -0.93663120865E+02 -0.23420025445E+03  0.30838472004E+03  0.17200000000E+03 0.  1.
</event>
<event>
 4    1  0.5739010E+000  0.1898938E+03  0.7818608E-02  0.1158557E+00
         21   -1    0    0  501  502  0.00000000000E+00  0.00000000000E+00  0.92663335464E+03  0.92663335464E+03  0.00000000000E+00 0. -1.
         21   -1    0    0  502  503 -0.00000000000E+00 -0.00000000000E+00 -0.38936901825E+02  0.38936901825E+02  0.00000000000E+00 0. -1.
          6    1    1    2  501    0  0.59149930126E+02  0.54561343620E+02  0.45537786232E+03  0.49338489229E+03  0.17200000000E+03 0.  1.
         -6    1    1    2    0  503 -0.59149930126E+02 -0.54561343620E+02  0.43231859050E+03  0.47218536418E+03  0.17200000000E+03 0.  1.
</event>
<event>
 4    1  0.5739010E+000  0.2187911E+03  0.7818608E-02  0.1134788E+00
         21   -1    0    0  501  502  0.00000000000E+00  0.00000000000E+00  0.81670233109E+02  0.81670233109E+02  0.00000000000E+00 0.  1.
         21   -1    0    0  502  503 -0.00000000000E+00 -0.00000000000E+00 -0.59307773418E+03  0.59307773418E+03  0.00000000000E+00 0.  1.
          6    1    1    2  501    0 -0.10189569415E+03  0.88897709902E+02 -0.29221406157E+03  0.36504601503E+03  0.17200000000E+03 0.  1.
         -6    1    1    2    0  503  0.10189569415E+03 -0.88897709902E+02 -0.21919343951E+03  0.30970195226E+03  0.17200000000E+03 0.  1.
</event>
<event>
 4    1  0.5739010E+000  0.1875626E+03  0.7818608E-02  0.1160678E+00
         21   -1    0    0  501  502  0.00000000000E+00  0.00000000000E+00  0.12214262599E+04  0.12214262599E+04  0.00000000000E+00 0.  1.
         21   -1    0    0  502  503 -0.00000000000E+00 -0.00000000000E+00 -0.19063350219E+03  0.19063350219E+03  0.00000000000E+00 0.  1.
          6    1    1    2  501    0 -0.60080066140E+02  0.44565746855E+02  0.11659075822E+04  0.11808980525E+04  0.17200000000E+03 0.  1.
         -6    1    1    2    0  503  0.60080066140E+02 -0.44565746855E+02 -0.13511482456E+03  0.23116170954E+03  0.17200000000E+03 0.  1.
</event>
<event>
 4    1  0.5739010E+000  0.1960320E+03  0.7818608E-02  0.1153131E+00
         21   -1    0    0  503  502  0.00000000000E+00  0.00000000000E+00  0.22281010820E+03  0.22281010820E+03  0.00000000000E+00 0.  1.
         21   -1    0    0  501  503 -0.00000000000E+00 -0.00000000000E+00 -0.17536326055E+03  0.17536326055E+03  0.00000000000E+00 0.  1.
          6    1    1    2  501    0 -0.81175128300E+02  0.47488551894E+02  0.49285529354E+02  0.20213269755E+03  0.17200000000E+03 0.  1.
         -6    1    1    2    0  502  0.81175128300E+02 -0.47488551894E+02 -0.18386817073E+01  0.19604067120E+03  0.17200000000E+03 0.  1.
</event>
<event>
 4    1  0.5739010E+000  0.2259145E+03  0.7818608E-02  0.1129549E+00
         21   -1    0    0  503  502  0.00000000000E+00  0.00000000000E+00  0.51930894054E+02  0.51930894054E+02  0.00000000000E+00 0. -1.
         21   -1    0    0  501  503 -0.00000000000E+00 -0.00000000000E+00 -0.10085245612E+04  0.10085245612E+04  0.00000000000E+00 0. -1.
          6    1    1    2  501    0  0.40195733597E+02 -0.14084626487E+03 -0.56298923266E+03  0.60662529078E+03  0.17200000000E+03 0. -1.
         -6    1    1    2    0  502 -0.40195733597E+02  0.14084626487E+03 -0.39360443444E+03  0.45383016442E+03  0.17200000000E+03 0. -1.
</event>
<event>
 4    1  0.5739010E+000  0.1923576E+03  0.7818608E-02  0.1156352E+00
         21   -1    0    0  503  502  0.00000000000E+00  0.00000000000E+00  0.19563298463E+03  0.19563298463E+03  0.00000000000E+00 0.  1.
         21   -1    0    0  501  503 -0.00000000000E+00 -0.00000000000E+00 -0.19375938960E+03  0.19375938960E+03  0.00000000000E+00 0.  1.
          6    1    1    2  501    0  0.82330869060E+02  0.25279762987E+02 -0.29134953468E+02  0.19455149429E+03  0.17200000000E+03 0.  1.
         -6    1    1    2    0  502 -0.82330869060E+02 -0.25279762987E+02  0.31008548502E+02  0.19484087994E+03  0.17200000000E+03 0.  1.
</event>
<event>
 4    1  0.5739010E+000  0.2009864E+03  0.7818608E-02  0.1148909E+00
         21   -1    0    0  503  502  0.00000000000E+00  0.00000000000E+00  0.19143486154E+03  0.19143486154E+03  0.00000000000E+00 0. -1.
         21   -1    0    0  501  503 -0.00000000000E+00 -0.00000000000E+00 -0.21516365842E+03  0.21516365842E+03  0.00000000000E+00 0.  1.
          6    1    1    2  501    0 -0.83787594302E+02 -0.61572495420E+02 -0.40095701178E+02  0.20494681848E+03  0.17200000000E+03 0.  1.
         -6    1    1    2    0  502  0.83787594302E+02  0.61572495420E+02  0.16366904300E+02  0.20165170147E+03  0.17200000000E+03 0. -1.
</event>
<event>
 4    1  0.5739010E+000  0.1826111E+03  0.7818608E-02  0.1165300E+00
         21   -1    0    0  503  502  0.00000000000E+00  0.00000000000E+00  0.47720711877E+02  0.47720711877E+02  0.00000000000E+00 0.  1.
         21   -1    0    0  501  503 -0.00000000000E+00 -0.00000000000E+00 -0.76661259415E+03  0.76661259415E+03  0.00000000000E+00 0.  1.
          6    1    1    2  501    0  0.64293778942E+00 -0.61338411235E+02 -0.23833941492E+03  0.30025404371E+03  0.17200000000E+03 0.  1.
         -6    1    1    2    0  502 -0.64293778942E+00  0.61338411235E+02 -0.48055246736E+03  0.51407926232E+03  0.17200000000E+03 0.  1.
</event>
<event>
 4    1  0.5739010E+000  0.1791099E+03  0.7818608E-02  0.1168667E+00
         21   -1    0    0  501  502  0.00000000000E+00  0.00000000000E+00  0.41393694131E+02  0.41393694131E+02  0.00000000000E+00 0.  1.
         21   -1    0    0  502  503 -0.00000000000E+00 -0.00000000000E+00 -0.90756319154E+03  0.90756319154E+03  0.00000000000E+00 0.  1.
          6    1    1    2  501    0  0.29610458699E+02  0.40244086250E+02 -0.25175063217E+03  0.30896398907E+03  0.17200000000E+03 0.  1.
         -6    1    1    2    0  503 -0.29610458699E+02 -0.40244086250E+02 -0.61441886524E+03  0.63999289660E+03  0.17200000000E+03 0.  1.
</event>
<event>
 4    1  0.5739010E+000  0.1972862E+03  0.7818608E-02  0.1152049E+00
         21   -1    0    0  501  502  0.00000000000E+00  0.00000000000E+00  0.83536440399E+02  0.83536440399E+02  0.00000000000E+00 0.  1.
         21   -1    0    0  502  503 -0.00000000000E+00 -0.00000000000E+00 -0.58965871065E+03  0.58965871065E+03  0.00000000000E+00 0.  1.
          6    1    1    2  501    0  0.40243477204E+02 -0.87853798283E+02 -0.98872521404E+02  0.22067533351E+03  0.17200000000E+03 0.  1.
         -6    1    1    2    0  503 -0.40243477204E+02  0.87853798283E+02 -0.40724974884E+03  0.45251981754E+03  0.17200000000E+03 0.  1.
</event>
<event>
 4    1  0.5739010E+000  0.2402277E+03  0.7818608E-02  0.1119641E+00
         21   -1    0    0  503  502  0.00000000000E+00  0.00000000000E+00  0.40387684956E+03  0.40387684956E+03  0.00000000000E+00 0. -1.
         21   -1    0    0  501  503 -0.00000000000E+00 -0.00000000000E+00 -0.20067076073E+03  0.20067076073E+03  0.00000000000E+00 0. -1.
          6    1    1    2  501    0 -0.94431348997E+02  0.13859325698E+03 -0.60598731662E+02  0.24775305615E+03  0.17200000000E+03 0. -1.
         -6    1    1    2    0  502  0.94431348997E+02 -0.13859325698E+03  0.26380482049E+03  0.35679455414E+03  0.17200000000E+03 0. -1.
</event>
<event>
 4    1  0.5739010E+000  0.1787919E+03  0.7818608E-02  0.1168977E+00
         21   -1    0    0  503  502  0.00000000000E+00  0.00000000000E+00  0.11343771522E+03  0.11343771522E+03  0.00000000000E+00 0. -1.
         21   -1    0    0  501  503 -0.00000000000E+00 -0.00000000000E+00 -0.30487851263E+03  0.30487851263E+03  0.00000000000E+00 0. -1.
          6    1    1    2  501    0  0.29470905846E+01  0.48722122316E+02 -0.15326880018E+03  0.23549491641E+03  0.17200000000E+03 0. -1.
         -6    1    1    2    0  502 -0.29470905846E+01 -0.48722122316E+02 -0.38171997225E+02  0.18282131144E+03  0.17200000000E+03 0. -1.
</event>
<event>
 4    1  0.5739010E+000  0.2230922E+03  0.7818608E-02  0.1131599E+00
         21   -1    0    0  501  502  0.00000000000E+00  0.00000000000E+00  0.11426407075E+04  0.11426407075E+04  0.00000000000E+00 0. -1.
         21   -1    0    0  502  503 -0.00000000000E+00 -0.00000000000E+00 -0.44729884879E+02  0.44729884879E+02  0.00000000000E+00 0. -1.
          6    1    1    2  501    0 -0.13253979156E+03  0.51179251157E+02  0.64508722653E+03  0.68257427576E+03  0.17200000000E+03 0. -1.
         -6    1    1    2    0  503  0.13253979156E+03 -0.51179251157E+02  0.45282359607E+03  0.50479631660E+03  0.17200000000E+03 0. -1.
</event>
<event>
 4    1  0.5739010E+000  0.2320991E+03  0.7818608E-02  0.1125171E+00
         21   -1    0    0  503  502  0.00000000000E+00  0.00000000000E+00  0.11938028454E+04  0.11938028454E+04  0.00000000000E+00 0.  1.
         21   -1    0    0  501  503 -0.00000000000E+00 -0.00000000000E+00 -0.49854154870E+02  0.49854154870E+02  0.00000000000E+00 0.  1.
          6    1    1    2  501    0 -0.81363275822E+02  0.13291361966E+03  0.38044963836E+03  0.44565899550E+03  0.17200000000E+03 0. -1.
         -6    1    1    2    0  502  0.81363275822E+02 -0.13291361966E+03  0.76349905215E+03  0.79799800474E+03  0.17200000000E+03 0. -1.
</event>
<event>
 4    1  0.5739010E+000  0.2230264E+03  0.7818608E-02  0.1131647E+00
         21   -1    0    0  503  502  0.00000000000E+00  0.00000000000E+00  0.20262158644E+03  0.20262158644E+03  0.00000000000E+00 0. -1.
         21   -1    0    0  501  503 -0.00000000000E+00 -0.00000000000E+00 -0.59990219453E+03  0.59990219453E+03  0.00000000000E+00 0. -1.
          6    1    1    2  501    0  0.12449053229E+03  0.68255987193E+02 -0.50706165809E+03  0.55394250381E+03  0.17200000000E+03 0. -1.
         -6    1    1    2    0  502 -0.12449053229E+03 -0.68255987193E+02  0.10978104999E+03  0.24858127716E+03  0.17200000000E+03 0. -1.
</event>
<event>
 4    1  0.5739010E+000  0.1833763E+03  0.7818608E-02  0.1164575E+00
         21   -1    0    0  503  502  0.00000000000E+00  0.00000000000E+00  0.11859588500E+03  0.11859588500E+03  0.00000000000E+00 0. -1.
         21   -1    0    0  501  503 -0.00000000000E+00 -0.00000000000E+00 -0.28373500843E+03  0.28373500843E+03  0.00000000000E+00 0. -1.
          6    1    1    2  501    0  0.58831286304E+02  0.24119240251E+02 -0.87822710301E+02  0.20332163299E+03  0.17200000000E+03 0. -1.
         -6    1    1    2    0  502 -0.58831286304E+02 -0.24119240251E+02 -0.77316413127E+02  0.19900926043E+03  0.17200000000E+03 0. -1.
</event>
<event>
 4    1  0.5739010E+000  0.1826230E+03  0.7818608E-02  0.1165288E+00
         21   -1    0    0  501  502  0.00000000000E+00  0.00000000000E+00  0.20309261876E+03  0.20309261876E+03  0.00000000000E+00 0. -1.
         21   -1    0    0  502  503 -0.00000000000E+00 -0.00000000000E+00 -0.19812032216E+03  0.19812032216E+03  0.00000000000E+00 0. -1.
          6    1    1    2  501    0 -0.73814108906E+00  0.61372780985E+02 -0.80499812469E+02  0.19957801208E+03  0.17200000000E+03 0. -1.
         -6    1    1    2    0  503  0.73814108906E+00 -0.61372780985E+02  0.85472109066E+02  0.20163492883E+03  0.17200000000E+03 0. -1.
</event>
<event>
 4    1  0.5739010E+000  0.1927178E+03  0.7818608E-02  0.1156033E+00
         21   -1    0    0  503  502  0.00000000000E+00  0.00000000000E+00  0.39180695244E+03  0.39180695244E+03  0.00000000000E+00 0. -1.
         21   -1    0    0  501  503 -0.00000000000E+00 -0.00000000000E+00 -0.16216326904E+03  0.16216326904E+03  0.00000000000E+00 0. -1.
          6    1    1    2  501    0 -0.53212040103E+01 -0.86763162742E+02  0.29335445733E+03  0.35099430089E+03  0.17200000000E+03 0. -1.
         -6    1    1    2    0  502  0.53212040103E+01  0.86763162742E+02 -0.63710773937E+02  0.20297592058E+03  0.17200000000E+03 0. -1.
</event>
<event>
 4    1  0.5739010E+000  0.1757275E+03  0.7818608E-02  0.1172003E+00
         21   -1    0    0  501  502  0.00000000000E+00  0.00000000000E+00  0.10746549723E+04  0.10746549723E+04  0.00000000000E+00 0. -1.
         21   -1    0    0  502  503 -0.00000000000E+00 -0.00000000000E+00 -0.66958906586E+02  0.66958906586E+02  0.00000000000E+00 0. -1.
          6    1    1    2  501    0 -0.24017099879E+02  0.26820224968E+02  0.93512170558E+03  0.95148975286E+03  0.17200000000E+03 0. -1.
         -6    1    1    2    0  503  0.24017099879E+02 -0.26820224968E+02  0.72574360159E+02  0.19012412605E+03  0.17200000000E+03 0. -1.
</event>
<event>
 4    1  0.5739010E+000  0.3542537E+03  0.7818608E-02  0.1060883E+00
         21   -1    0    0  501  502  0.00000000000E+00  0.00000000000E+00  0.14435382215E+04  0.14435382215E+04  0.00000000000E+00 0. -1.
         21   -1    0    0  502  503 -0.00000000000E+00 -0.00000000000E+00 -0.93291174777E+02  0.93291174777E+02  0.00000000000E+00 0.  1.
          6    1    1    2  501    0  0.26167624407E+03  0.16564180150E+03  0.87567867527E+03  0.94462098507E+03  0.17200000000E+03 0. -1.
         -6    1    1    2    0  503 -0.26167624407E+03 -0.16564180150E+03  0.47456837145E+03  0.59220841120E+03  0.17200000000E+03 0.  1.
</event>
<event>
 4    1  0.5739010E+000  0.2011681E+03  0.7818608E-02  0.1148757E+00
         21   -1    0    0  501  502  0.00000000000E+00  0.00000000000E+00  0.92662561875E+02  0.92662561875E+02  0.00000000000E+00 0.  1.
         21   -1    0    0  502  503 -0.00000000000E+00 -0.00000000000E+00 -0.56605509751E+03  0.56605509751E+03  0.00000000000E+00 0. -1.
          6    1    1    2  501    0 -0.10367905935E+03  0.11630406646E+02 -0.39412343440E+03  0.44249507935E+03  0.17200000000E+03 0. -1.
         -6    1    1    2    0  503  0.10367905935E+03 -0.11630406646E+02 -0.79269101238E+02  0.21622258004E+03  0.17200000000E+03 0.  1.
</event>
<event>
 4    1  0.5739010E+000  0.2451089E+03  0.7818608E-02  0.1116435E+00
         21   -1    0    0  501  502  0.00000000000E+00  0.00000000000E+00  0.18494107186E+03  0.18494107186E+03  0.00000000000E+00 0. -1.
         21   -1    0    0  502  503 -0.00000000000E+00 -0.00000000000E+00 -0.42655887567E+03  0.42655887567E+03  0.00000000000E+00 0. -1.
          6    1    1    2  501    0  0.12972716846E+03 -0.11689834676E+03  0.28488904032E+02  0.24675894992E+03  0.17200000000E+03 0. -1.
         -6    1    1    2    0  503 -0.12972716846E+03  0.11689834676E+03 -0.27010670785E+03  0.36474099761E+03  0.17200000000E+03 0. -1.
</event>
<event>
 4    1  0.5739010E+000  0.2497098E+03  0.7818608E-02  0.1113488E+00
         21   -1    0    0  501  502  0.00000000000E+00  0.00000000000E+00  0.29892352440E+03  0.29892352440E+03  0.00000000000E+00 0.  1.
         21   -1    0    0  502  503 -0.00000000000E+00 -0.00000000000E+00 -0.21104066217E+03  0.21104066217E+03  0.00000000000E+00 0.  1.
          6    1    1    2  501    0  0.14320406775E+03 -0.11074096716E+03  0.71371277351E+02  0.25970911817E+03  0.17200000000E+03 0.  1.
         -6    1    1    2    0  503 -0.14320406775E+03  0.11074096716E+03  0.16511584882E+02  0.25025506841E+03  0.17200000000E+03 0.  1.
</event>
<event>
 4    1  0.5739010E+000  0.2117910E+03  0.7818608E-02  0.1140155E+00
         21   -1    0    0  503  502  0.00000000000E+00  0.00000000000E+00  0.43812870336E+03  0.43812870336E+03  0.00000000000E+00 0. -1.
         21   -1    0    0  501  503 -0.00000000000E+00 -0.00000000000E+00 -0.15543261138E+03  0.15543261138E+03  0.00000000000E+00 0. -1.
          6    1    1    2  501    0 -0.68833700784E+02  0.10263220698E+03 -0.32040129468E+02  0.21420088275E+03  0.17200000000E+03 0. -1.
         -6    1    1    2    0  502  0.68833700784E+02 -0.10263220698E+03  0.31473622144E+03  0.37936043199E+03  0.17200000000E+03 0. -1.
</event>
<event>
 4    1  0.5739010E+000  0.2022679E+03  0.7818608E-02  0.1147840E+00
         21   -1    0    0  503  502  0.00000000000E+00  0.00000000000E+00  0.46303886058E+03  0.46303886058E+03  0.00000000000E+00 0.  1.
         21   -1    0    0  501  503 -0.00000000000E+00 -0.00000000000E+00 -0.10766548072E+03  0.10766548072E+03  0.00000000000E+00 0.  1.
          6    1    1    2  501    0 -0.91880607787E+02  0.53723901638E+02  0.56842099860E+02  0.21010313660E+03  0.17200000000E+03 0. -1.
         -6    1    1    2    0  502  0.91880607787E+02 -0.53723901638E+02  0.29853128000E+03  0.36060120470E+03  0.17200000000E+03 0. -1.
</event>
<event>
 4    1  0.5739010E+000  0.2325434E+03  0.7818608E-02  0.1124862E+00
         21   -1    0    0  501  502  0.00000000000E+00  0.00000000000E+00  0.32956087998E+03  0.32956087998E+03  0.00000000000E+00 0.  1.
         21   -1    0    0  502  503 -0.00000000000E+00 -0.00000000000E+00 -0.72154902392E+03  0.72154902392E+03  0.00000000000E+00 0. -1.
          6    1    1    2  501    0  0.10750783367E+03 -0.11372999634E+03  0.26595393982E+03  0.35328167865E+03  0.17200000000E+03 0. -1.
         -6    1    1    2    0  503 -0.10750783367E+03  0.11372999634E+03 -0.65794208376E+03  0.69782822525E+03  0.17200000000E+03 0.  1.
</event>
<event>
 4    1  0.5739010E+000  0.1809465E+03  0.7818608E-02  0.1166890E+00
         21   -1    0    0  501  502  0.00000000000E+00  0.00000000000E+00  0.38811671907E+02  0.38811671907E+02  0.00000000000E+00 0.  1.
         21   -1    0    0  502  503 -0.00000000000E+00 -0.00000000000E+00 -0.19527751998E+04  0.19527751998E+04  0.00000000000E+00 0.  1.
          6    1    1    2  501    0 -0.56156009548E+02  0.20304387639E+01 -0.20649551960E+03  0.27455786222E+03  0.17200000000E+03 0. -1.
         -6    1    1    2    0  503  0.56156009548E+02 -0.20304387639E+01 -0.17074680083E+04  0.17170290095E+04  0.17200000000E+03 0. -1.
</event>
<event>
 4    1  0.5739010E+000  0.1827067E+03  0.7818608E-02  0.1165209E+00
         21   -1    0    0  503  502  0.00000000000E+00  0.00000000000E+00  0.56854968941E+03  0.56854968941E+03  0.00000000000E+00 0.  1.
         21   -1    0    0  501  503 -0.00000000000E+00 -0.00000000000E+00 -0.88375329880E+02  0.88375329880E+02  0.00000000000E+00 0.  1.
          6    1    1    2  501    0  0.57796467306E+02  0.21384460799E+02  0.49796781228E+02  0.18937118634E+03  0.17200000000E+03 0.  1.
         -6    1    1    2    0  502 -0.57796467306E+02 -0.21384460799E+02  0.43037757830E+03  0.46755383294E+03  0.17200000000E+03 0.  1.
</event>
<event>
 4    1  0.5739010E+000  0.1805530E+03  0.7818608E-02  0.1167269E+00
         21   -1    0    0  503  502  0.00000000000E+00  0.00000000000E+00  0.22959514812E+04  0.22959514812E+04  0.00000000000E+00 0. -1.
         21   -1    0    0  501  503 -0.00000000000E+00 -0.00000000000E+00 -0.32658408884E+02  0.32658408884E+02  0.00000000000E+00 0. -1.
          6    1    1    2  501    0 -0.16059527951E+02 -0.52511837326E+02  0.25629541116E+03  0.31350715985E+03  0.17200000000E+03 0. -1.
         -6    1    1    2    0  502  0.16059527951E+02  0.52511837326E+02  0.20069976611E+04  0.20151027302E+04  0.17200000000E+03 0. -1.
</event>
<event>
 4    1  0.5739010E+000  0.1785754E+03  0.7818608E-02  0.1169189E+00
         21   -1    0    0  501  502  0.00000000000E+00  0.00000000000E+00  0.13136044795E+03  0.13136044795E+03  0.00000000000E+00 0. -1.
         21   -1    0    0  502  503 -0.00000000000E+00 -0.00000000000E+00 -0.34402509928E+03  0.34402509928E+03  0.00000000000E+00 0.  1.
          6    1    1    2  501    0  0.47902797055E+02  0.32387800804E+01 -0.23529056384E+03  0.29538249287E+03  0.17200000000E+03 0.  1.
         -6    1    1    2    0  503 -0.47902797055E+02 -0.32387800804E+01  0.22625912514E+02  0.18000305436E+03  0.17200000000E+03 0. -1.
</event>
<event>
 4    1  0.5739010E+000  0.3278153E+03  0.7818608E-02  0.1072108E+00
         21   -1    0    0  501  502  0.00000000000E+00  0.00000000000E+00  0.15825326843E+04  0.15825326843E+04  0.00000000000E+00 0.  1.
         21   -1    0    0  502  503 -0.00000000000E+00 -0.00000000000E+00 -0.10979898819E+03  0.10979898819E+03  0.00000000000E+00 0. -1.
          6    1    1    2  501    0 -0.21934389594E+03  0.17253146022E+03  0.12590385672E+04  0.13010153585E+04  0.17200000000E+03 0.  1.
         -6    1    1    2    0  503  0.21934389594E+03 -0.17253146022E+03  0.21369512895E+03  0.39131631398E+03  0.17200000000E+03 0. -1.
</event>
<event>
 4    1  0.5739010E+000  0.1789929E+03  0.7818608E-02  0.1168781E+00
         21   -1    0    0  503  502  0.00000000000E+00  0.00000000000E+00  0.64781136319E+03  0.64781136319E+03  0.00000000000E+00 0. -1.
         21   -1    0    0  501  503 -0.00000000000E+00 -0.00000000000E+00 -0.49590811114E+02  0.49590811114E+02  0.00000000000E+00 0. -1.
          6    1    1    2  501    0  0.44101712247E+02  0.22572148460E+02  0.31725949823E+03  0.36426920282E+03  0.17200000000E+03 0. -1.
         -6    1    1    2    0  502 -0.44101712247E+02 -0.22572148460E+02  0.28096105385E+03  0.33313297149E+03  0.17200000000E+03 0. -1.
</event>
<event>
 4    1  0.5739010E+000  0.1975297E+03  0.7818608E-02  0.1151840E+00
         21   -1    0    0  501  502  0.00000000000E+00  0.00000000000E+00  0.14678093284E+03  0.14678093284E+03  0.00000000000E+00 0.  1.
         21   -1    0    0  502  503 -0.00000000000E+00 -0.00000000000E+00 -0.81427768176E+03  0.81427768176E+03  0.00000000000E+00 0.  1.
          6    1    1    2  501    0 -0.46974963053E+00  0.97127510767E+02  0.60621178963E+02  0.20662260610E+03  0.17200000000E+03 0.  1.
         -6    1    1    2    0  503  0.46974963053E+00 -0.97127510767E+02 -0.72811792789E+03  0.75443600850E+03  0.17200000000E+03 0.  1.
</event>
<event>
 4    1  0.5739010E+000  0.3027827E+03  0.7818608E-02  0.1083858E+00
         21   -1    0    0  503  502  0.00000000000E+00  0.00000000000E+00  0.36504773525E+03  0.36504773525E+03  0.00000000000E+00 0. -1.
         21   -1    0    0  501  503 -0.00000000000E+00 -0.00000000000E+00 -0.27747407233E+03  0.27747407233E+03  0.00000000000E+00 0. -1.
          6    1    1    2  501    0  0.15305241289E+03 -0.19664256441E+03  0.14276116886E+03  0.33475078874E+03  0.17200000000E+03 0. -1.
         -6    1    1    2    0  502 -0.15305241289E+03  0.19664256441E+03 -0.55187505943E+02  0.30777101884E+03  0.17200000000E+03 0. -1.
</event>
<event>
 4    1  0.5739010E+000  0.1896772E+03  0.7818608E-02  0.1158753E+00
         21   -1    0    0  503  502  0.00000000000E+00  0.00000000000E+00  0.14011768165E+03  0.14011768165E+03  0.00000000000E+00 0. -1.
         21   -1    0    0  501  503 -0.00000000000E+00 -0.00000000000E+00 -0.26486139972E+03  0.26486139972E+03  0.00000000000E+00 0. -1.
          6    1    1    2  501    0  0.82770623776E+01 -0.79529538610E+02 -0.97772594850E+02  0.21339385553E+03  0.17200000000E+03 0. -1.
         -6    1    1    2    0  502 -0.82770623776E+01  0.79529538610E+02 -0.26971123220E+02  0.19158522584E+03  0.17200000000E+03 0. -1.
</event>
<event>
 4    1  0.5739010E+000  0.1873928E+03  0.7818608E-02  0.1160834E+00
         21   -1    0    0  501  502  0.00000000000E+00  0.00000000000E+00  0.11584643371E+04  0.11584643371E+04  0.00000000000E+00 0. -1.
         21   -1    0    0  502  503 -0.00000000000E+00 -0.00000000000E+00 -0.30991901439E+02  0.30991901439E+02  0.00000000000E+00 0. -1.
          6    1    1    2  501    0  0.11595222231E+02  0.73468366160E+02  0.47568607585E+03  0.51126636185E+03  0.17200000000E+03 0. -1.
         -6    1    1    2    0  503 -0.11595222231E+02 -0.73468366160E+02  0.65178635986E+03  0.67818987673E+03  0.17200000000E+03 0. -1.
</event>
<event>
 4    1  0.5739010E+000  0.1910513E+03  0.7818608E-02  0.1157517E+00
         21   -1    0    0  501  502  0.00000000000E+00  0.00000000000E+00  0.30283149693E+03  0.30283149693E+03  0.00000000000E+00 0. -1.
         21   -1    0    0  502  503 -0.00000000000E+00 -0.00000000000E+00 -0.14070749804E+03  0.14070749804E+03  0.00000000000E+00 0. -1.
          6    1    1    2  501    0 -0.26464495967E+02  0.78842982930E+02  0.16504009148E+03  0.25246547744E+03  0.17200000000E+03 0.  1.
         -6    1    1    2    0  503  0.26464495967E+02 -0.78842982930E+02 -0.29160925818E+01  0.19107351753E+03  0.17200000000E+03 0.  1.
</event>
<event>
 4    1  0.5739010E+000  0.2293860E+03  0.7818608E-02  0.1127073E+00
         21   -1    0    0  503  502  0.00000000000E+00  0.00000000000E+00  0.19199188906E+04  0.19199188906E+04  0.00000000000E+00 0. -1.
         21   -1    0    0  501  503 -0.00000000000E+00 -0.00000000000E+00 -0.33425300034E+02  0.33425300034E+02  0.00000000000E+00 0. -1.
          6    1    1    2  501    0 -0.56914512685E+02  0.14069356778E+03  0.52879692809E+03  0.57640622214E+03  0.17200000000E+03 0. -1.
         -6    1    1    2    0  502  0.56914512685E+02 -0.14069356778E+03  0.13576966625E+04  0.13769379685E+04  0.17200000000E+03 0. -1.
</event>
<event>
 4    1  0.5739010E+000  0.2225022E+03  0.7818608E-02  0.1132031E+00
         21   -1    0    0  501  502  0.00000000000E+00  0.00000000000E+00  0.28439570689E+03  0.28439570689E+03  0.00000000000E+00 0. -1.
         21   -1    0    0  502  503 -0.00000000000E+00 -0.00000000000E+00 -0.86651595394E+03  0.86651595394E+03  0.00000000000E+00 0.  1.
          6    1    1    2  501    0 -0.34650219617E+02  0.13683058314E+03  0.22335521934E+03  0.31526940893E+03  0.17200000000E+03 0. -1.
         -6    1    1    2    0  503  0.34650219617E+02 -0.13683058314E+03 -0.80547546638E+03  0.83564225189E+03  0.17200000000E+03 0.  1.
</event>
<event>
 4    1  0.5739010E+000  0.1844928E+03  0.7818608E-02  0.1163524E+00
         21   -1    0    0  501  502  0.00000000000E+00  0.00000000000E+00  0.79534891083E+02  0.79534891083E+02  0.00000000000E+00 0. -1.
         21   -1    0    0  502  503 -0.00000000000E+00 -0.00000000000E+00 -0.43711246265E+03  0.43711246265E+03  0.00000000000E+00 0. -1.
          6    1    1    2  501    0  0.67670119833E+01 -0.66391267089E+02 -0.14140493076E+03  0.23244988113E+03  0.17200000000E+03 0. -1.
         -6    1    1    2    0  503 -0.67670119833E+01  0.66391267089E+02 -0.21617264081E+03  0.28419747260E+03  0.17200000000E+03 0. -1.
</event>
<event>
 4    1  0.5739010E+000  0.1894360E+03  0.7818608E-02  0.1158971E+00
         21   -1    0    0  503  502  0.00000000000E+00  0.00000000000E+00  0.12374714618E+04  0.12374714618E+04  0.00000000000E+00 0.  1.
         21   -1    0    0  501  503 -0.00000000000E+00 -0.00000000000E+00 -0.39801472537E+02  0.39801472537E+02  0.00000000000E+00 0.  1.
          6    1    1    2  501    0  0.52492627085E+02 -0.59552553349E+02  0.26613190495E+03  0.32666829253E+03  0.17200000000E+03 0.  1.
         -6    1    1    2    0  502 -0.52492627085E+02  0.59552553349E+02  0.93153808431E+03  0.95060464181E+03  0.17200000000E+03 0.  1.
</event>
<event>
 4    1  0.5739010E+000  0.2026627E+03  0.7818608E-02  0.1147512E+00
         21   -1    0    0  503  502  0.00000000000E+00  0.00000000000E+00  0.21655134616E+02  0.21655134616E+02  0.00000000000E+00 0. -1.
         21   -1    0    0  501  503 -0.00000000000E+00 -0.00000000000E+00 -0.22320875346E+04  0.22320875346E+04  0.00000000000E+00 0.  1.
          6    1    1    2  501    0 -0.10521809612E+02 -0.10666524584E+03 -0.15420592029E+04  0.15553195069E+04  0.17200000000E+03 0.  1.
         -6    1    1    2    0  502  0.10521809612E+02  0.10666524584E+03 -0.66837319710E+03  0.69842316238E+03  0.17200000000E+03 0. -1.
</event>
<event>
 4    1  0.5739010E+000  0.1797348E+03  0.7818608E-02  0.1168060E+00
         21   -1    0    0  503  502  0.00000000000E+00  0.00000000000E+00  0.17932809109E+03  0.17932809109E+03  0.00000000000E+00 0.  1.
         21   -1    0    0  501  503 -0.00000000000E+00 -0.00000000000E+00 -0.25799672265E+03  0.25799672265E+03  0.00000000000E+00 0.  1.
          6    1    1    2  501    0  0.14128323259E+00 -0.52159326196E+02  0.80783670851E+02  0.19705485720E+03  0.17200000000E+03 0.  1.
         -6    1    1    2    0  502 -0.14128323259E+00  0.52159326196E+02 -0.15945230241E+03  0.24026995654E+03  0.17200000000E+03 0.  1.
</event>
<event>
 4    1  0.5739010E+000  0.2194578E+03  0.7818608E-02  0.1134288E+00
         21   -1    0    0  501  502  0.00000000000E+00  0.00000000000E+00  0.22881371706E+03  0.22881371706E+03  0.00000000000E+00 0.  1.
         21   -1    0    0  502  503 -0.00000000000E+00 -0.00000000000E+00 -0.35093320661E+03  0.35093320661E+03  0.00000000000E+00 0.  1.
          6    1    1    2  501    0  0.13620293770E+03 -0.51480024969E+01  0.12232157239E+03  0.25124551586E+03  0.17200000000E+03 0.  1.
         -6    1    1    2    0  503 -0.13620293770E+03  0.51480024969E+01 -0.24444106194E+03  0.32850140780E+03  0.17200000000E+03 0.  1.
</event>
<event>
 4    1  0.5739010E+000  0.2042212E+03  0.7818608E-02  0.1146226E+00
         21   -1    0    0  501  502  0.00000000000E+00  0.00000000000E+00  0.61233952872E+02  0.61233952872E+02  0.00000000000E+00 0. -1.
         21   -1    0    0  502  503 -0.00000000000E+00 -0.00000000000E+00 -0.71076824928E+03  0.71076824928E+03  0.00000000000E+00 0.  1.
          6    1    1    2  501    0  0.97597004755E+01  0.10966797976E+03 -0.24590188368E+03  0.31964676431E+03  0.17200000000E+03 0. -1.
         -6    1    1    2    0  503 -0.97597004755E+01 -0.10966797976E+03 -0.40363241273E+03  0.45235543784E+03  0.17200000000E+03 0.  1.
</event>
<event>
 4    1  0.5739010E+000  0.1948159E+03  0.7818608E-02  0.1154188E+00
         21   -1    0    0  503  502  0.00000000000E+00  0.00000000000E+00  0.28164690848E+03  0.28164690848E+03  0.00000000000E+00 0. -1.
         21   -1    0    0  501  503 -0.00000000000E+00 -0.00000000000E+00 -0.18372145559E+03  0.18372145559E+03  0.00000000000E+00 0. -1.
          6    1    1    2  501    0  0.90172290916E+02  0.15433250199E+02 -0.71163507214E+02  0.20740653804E+03  0.17200000000E+03 0. -1.
         -6    1    1    2    0  502 -0.90172290916E+02 -0.15433250199E+02  0.16908896010E+03  0.25796182603E+03  0.17200000000E+03 0. -1.
</event>
<event>
 4    1  0.5739010E+000  0.1935642E+03  0.7818608E-02  0.1155285E+00
         21   -1    0    0  501  502  0.00000000000E+00  0.00000000000E+00  0.14117208661E+03  0.14117208661E+03  0.00000000000E+00 0.  1.
         21   -1    0    0  502  503 -0.00000000000E+00 -0.00000000000E+00 -0.26554328810E+03  0.26554328810E+03  0.00000000000E+00 0.  1.
          6    1    1    2  501    0  0.85324666466E+02 -0.24552048512E+02 -0.66905966167E+02  0.20480114771E+03  0.17200000000E+03 0.  1.
         -6    1    1    2    0  503 -0.85324666466E+02  0.24552048512E+02 -0.57465235330E+02  0.20191422700E+03  0.17200000000E+03 0.  1.
</event>
<event>
 4    1  0.5739010E+000  0.2114605E+03  0.7818608E-02  0.1140415E+00
         21   -1    0    0  503  502  0.00000000000E+00  0.00000000000E+00  0.30865271528E+03  0.30865271528E+03  0.00000000000E+00 0.  1.
         21   -1    0    0  501  503 -0.00000000000E+00 -0.00000000000E+00 -0.26059671960E+03  0.26059671960E+03  0.00000000000E+00 0.  1.
          6    1    1    2  501    0 -0.12297630544E+03 -0.28921364248E+01 -0.16564206022E+03  0.26861278500E+03  0.17200000000E+03 0.  1.
         -6    1    1    2    0  502  0.12297630544E+03  0.28921364248E+01  0.21369805590E+03  0.30063664987E+03  0.17200000000E+03 0.  1.
</event>
<event>
 4    1  0.5739010E+000  0.1816513E+03  0.7818608E-02  0.1166214E+00
         21   -1    0    0  501  502  0.00000000000E+00  0.00000000000E+00  0.16475759635E+03  0.16475759635E+03  0.00000000000E+00 0.  1.
         21   -1    0    0  502  503 -0.00000000000E+00 -0.00000000000E+00 -0.20934643432E+03  0.20934643432E+03  0.00000000000E+00 0.  1.
          6    1    1    2  501    0  0.41973680395E+02  0.40637316921E+02  0.16638429874E+02  0.18241167375E+03  0.17200000000E+03 0. -1.
         -6    1    1    2    0  503 -0.41973680395E+02 -0.40637316921E+02 -0.61227267841E+02  0.19169235692E+03  0.17200000000E+03 0. -1.
</event>
<event>
 4    1  0.5739010E+000  0.3483507E+03  0.7818608E-02  0.1063294E+00
         21   -1    0    0  503  502  0.00000000000E+00  0.00000000000E+00  0.14854891552E+04  0.14854891552E+04  0.00000000000E+00 0. -1.
         21   -1    0    0  501  503 -0.00000000000E+00 -0.00000000000E+00 -0.14189158962E+03  0.14189158962E+03  0.00000000000E+00 0.  1.
          6    1    1    2  501    0  0.28820454188E+03 -0.93286409691E+02  0.14178370843E+03  0.37609949770E+03  0.17200000000E+03 0.  1.
         -6    1    1    2    0  502 -0.28820454188E+03  0.93286409691E+02  0.12018138571E+04  0.12512812471E+04  0.17200000000E+03 0. -1.
</event>
<event>
 4    1  0.5739010E+000  0.2194626E+03  0.7818608E-02  0.1134284E+00
         21   -1    0    0  501  502  0.00000000000E+00  0.00000000000E+00  0.37701827770E+03  0.37701827770E+03  0.00000000000E+00 0. -1.
         21   -1    0    0  502  503 -0.00000000000E+00 -0.00000000000E+00 -0.17958296894E+03  0.17958296894E+03  0.00000000000E+00 0. -1.
          6    1    1    2  501    0 -0.84454842377E+02  0.10699155989E+03  0.24823364962E+03  0.33133632323E+03  0.17200000000E+03 0.  1.
         -6    1    1    2    0  503  0.84454842377E+02 -0.10699155989E+03 -0.50798340857E+02  0.22526492342E+03  0.17200000000E+03 0.  1.
</event>
<event>
 4    1  0.5739010E+000  0.2002592E+03  0.7818608E-02  0.1149521E+00
         21   -1    0    0  503  502  0.00000000000E+00  0.00000000000E+00  0.15742398606E+03  0.15742398606E+03  0.00000000000E+00 0. -1.
         21   -1    0    0  501  503 -0.00000000000E+00 -0.00000000000E+00 -0.25579412381E+03  0.25579412381E+03  0.00000000000E+00 0. -1.
          6    1    1    2  501    0  0.17204614737E+02 -0.10111246276E+03 -0.35983615279E+02  0.20346633496E+03  0.17200000000E+03 0.  1.
         -6    1    1    2    0  502 -0.17204614737E+02  0.10111246276E+03 -0.62386522463E+02  0.20975177491E+03  0.17200000000E+03 0.  1.
</event>
<event>
 4    1  0.5739010E+000  0.2449927E+03  0.7818608E-02  0.1116511E+00
         21   -1    0    0  503  502  0.00000000000E+00  0.00000000000E+00  0.82553691305E+03  0.82553691305E+03  0.00000000000E+00 0.  1.
         21   -1    0    0  501  503 -0.00000000000E+00 -0.00000000000E+00 -0.10842343123E+03  0.10842343123E+03  0.00000000000E+00 0. -1.
          6    1    1    2  501    0 -0.17557711679E+02  0.17357749608E+03  0.90530407618E+02  0.26118417848E+03  0.17200000000E+03 0. -1.
         -6    1    1    2    0  502  0.17557711679E+02 -0.17357749608E+03  0.62658307420E+03  0.67277616579E+03  0.17200000000E+03 0.  1.
</event>
<event>
 4    1  0.5739010E+000  0.1855962E+03  0.7818608E-02  0.1162494E+00
         21   -1    0    0  503  502  0.00000000000E+00  0.00000000000E+00  0.39815105278E+03  0.39815105278E+03  0.00000000000E+00 0. -1.
         21   -1    0    0  501  503 -0.00000000000E+00 -0.00000000000E+00 -0.16002771882E+03  0.16002771882E+03  0.00000000000E+00 0. -1.
          6    1    1    2  501    0 -0.68591884835E+02 -0.12534358140E+02 -0.70097572880E+02  0.19839260703E+03  0.17200000000E+03 0. -1.
         -6    1    1    2    0  502  0.68591884835E+02  0.12534358140E+02  0.30822090685E+03  0.35978616457E+03  0.17200000000E+03 0. -1.
</event>
<event>
 4    1  0.5739010E+000  0.2285174E+03  0.7818608E-02  0.1127688E+00
         21   -1    0    0  503  502  0.00000000000E+00  0.00000000000E+00  0.88074872348E+02  0.88074872348E+02  0.00000000000E+00 0.  1.
         21   -1    0    0  501  503 -0.00000000000E+00 -0.00000000000E+00 -0.73054696248E+03  0.73054696248E+03  0.00000000000E+00 0. -1.
          6    1    1    2  501    0  0.11778308324E+03 -0.93612740019E+02 -0.49890096512E+03  0.54874618248E+03  0.17200000000E+03 0.  1.
         -6    1    1    2    0  502 -0.11778308324E+03  0.93612740019E+02 -0.14357112502E+03  0.26987565235E+03  0.17200000000E+03 0. -1.
</event>
<event>
 4    1  0.5739010E+000  0.1963851E+03  0.7818608E-02  0.1152825E+00
         21   -1    0    0  501  502  0.00000000000E+00  0.00000000000E+00  0.11270196873E+03  0.11270196873E+03  0.00000000000E+00 0. -1.
         21   -1    0    0  502  503 -0.00000000000E+00 -0.00000000000E+00 -0.43268891200E+03  0.43268891200E+03  0.00000000000E+00 0. -1.
          6    1    1    2  501    0  0.91617240163E+02 -0.24277684882E+02 -0.35290501892E+02  0.19953081016E+03  0.17200000000E+03 0.  1.
         -6    1    1    2    0  503 -0.91617240163E+02  0.24277684882E+02 -0.28469644138E+03  0.34586007057E+03  0.17200000000E+03 0.  1.
</event>
<event>
 4    1  0.5739010E+000  0.2158891E+03  0.7818608E-02  0.1136986E+00
         21   -1    0    0  503  502  0.00000000000E+00  0.00000000000E+00  0.55394018159E+03  0.55394018159E+03  0.00000000000E+00 0. -1.
         21   -1    0    0  501  503 -0.00000000000E+00 -0.00000000000E+00 -0.11732047244E+03  0.11732047244E+03  0.00000000000E+00 0. -1.
          6    1    1    2  501    0  0.41912012530E+02  0.12356167320E+03  0.39817107080E+02  0.21953019358E+03  0.17200000000E+03 0. -1.
         -6    1    1    2    0  502 -0.41912012530E+02 -0.12356167320E+03  0.39680260207E+03  0.45173046044E+03  0.17200000000E+03 0. -1.
</event>
<event>
 4    1  0.5739010E+000  0.1922703E+03  0.7818608E-02  0.1156429E+00
         21   -1    0    0  501  502  0.00000000000E+00  0.00000000000E+00  0.37675143144E+03  0.37675143144E+03  0.00000000000E+00 0. -1.
         21   -1    0    0  502  503 -0.00000000000E+00 -0.00000000000E+00 -0.98473026609E+02  0.98473026609E+02  0.00000000000E+00 0.  1.
          6    1    1    2  501    0 -0.38894372688E+02 -0.76623050942E+02  0.12496650558E+03  0.22931308658E+03  0.17200000000E+03 0. -1.
         -6    1    1    2    0  503  0.38894372688E+02  0.76623050942E+02  0.15331189925E+03  0.24591137146E+03  0.17200000000E+03 0.  1.
</event>
<event>
 4    1  0.5739010E+000  0.2126020E+03  0.7818608E-02  0.1139522E+00
         21   -1    0    0  501  502  0.00000000000E+00  0.00000000000E+00  0.23990353501E+03  0.23990353501E+03  0.00000000000E+00 0. -1.
         21   -1    0    0  502  503 -0.00000000000E+00 -0.00000000000E+00 -0.34477732164E+03  0.34477732164E+03  0.00000000000E+00 0.  1.
          6    1    1    2  501    0  0.10399381339E+02 -0.12452891455E+03  0.14444064170E+03  0.25702664583E+03  0.17200000000E+03 0. -1.
         -6    1    1    2    0  503 -0.10399381339E+02  0.12452891455E+03 -0.24931442834E+03  0.32765421082E+03  0.17200000000E+03 0.  1.
</event>
<event>
 4    1  0.5739010E+000  0.1823689E+03  0.7818608E-02  0.1165530E+00
         21   -1    0    0  503  502  0.00000000000E+00  0.00000000000E+00  0.27298599476E+03  0.27298599476E+03  0.00000000000E+00 0.  1.
         21   -1    0    0  501  503 -0.00000000000E+00 -0.00000000000E+00 -0.20541674244E+03  0.20541674244E+03  0.00000000000E+00 0.  1.
          6    1    1    2  501    0 -0.54032619058E+02 -0.27475233325E+02 -0.11879951959E+03  0.21765049557E+03  0.17200000000E+03 0.  1.
         -6    1    1    2    0  502  0.54032619058E+02  0.27475233325E+02  0.18636877191E+03  0.26075224163E+03  0.17200000000E+03 0.  1.
</event>
<event>
 4    1  0.5739010E+000  0.2142152E+03  0.7818608E-02  0.1138271E+00
         21   -1    0    0  501  502  0.00000000000E+00  0.00000000000E+00  0.97047509767E+02  0.97047509767E+02  0.00000000000E+00 0. -1.
         21   -1    0    0  502  503 -0.00000000000E+00 -0.00000000000E+00 -0.17069473628E+04  0.17069473628E+04  0.00000000000E+00 0. -1.
          6    1    1    2  501    0  0.12109810370E+03 -0.40489703335E+02 -0.37992411277E+02  0.21755824533E+03  0.17200000000E+03 0. -1.
         -6    1    1    2    0  503 -0.12109810370E+03  0.40489703335E+02 -0.15719074417E+04  0.15864366272E+04  0.17200000000E+03 0. -1.
</event>
<event>
 4    1  0.5739010E+000  0.2033696E+03  0.7818608E-02  0.1146927E+00
         21   -1    0    0  501  502  0.00000000000E+00  0.00000000000E+00  0.39039686618E+03  0.39039686618E+03  0.00000000000E+00 0. -1.
         21   -1    0    0  502  503 -0.00000000000E+00 -0.00000000000E+00 -0.33724769029E+03  0.33724769029E+03  0.00000000000E+00 0. -1.
          6    1    1    2  501    0  0.74063997354E+02 -0.79307862085E+02  0.32788106357E+03  0.38583053863E+03  0.17200000000E+03 0. -1.
         -6    1    1    2    0  503 -0.74063997354E+02  0.79307862085E+02 -0.27473188767E+03  0.34181401784E+03  0.17200000000E+03 0. -1.
</event>
<event>
 4    1  0.5739010E+000  0.2371819E+03  0.7818608E-02  0.1121685E+00
         21   -1    0    0  503  502  0.00000000000E+00  0.00000000000E+00  0.56810635575E+03  0.56810635575E+03  0.00000000000E+00 0.  1.
         21   -1    0    0  501  503 -0.00000000000E+00 -0.00000000000E+00 -0.99416221073E+02  0.99416221073E+02  0.00000000000E+00 0.  1.
          6    1    1    2  501    0  0.13894227758E+03  0.85827148870E+02  0.21333847212E+03  0.31901184879E+03  0.17200000000E+03 0.  1.
         -6    1    1    2    0  502 -0.13894227758E+03 -0.85827148870E+02  0.25535166256E+03  0.34851072804E+03  0.17200000000E+03 0.  1.
</event>
<event>
 4    1  0.5739010E+000  0.1905183E+03  0.7818608E-02  0.1157995E+00
         21   -1    0    0  503  502  0.00000000000E+00  0.00000000000E+00  0.17945712432E+03  0.17945712432E+03  0.00000000000E+00 0. -1.
         21   -1    0    0  501  503 -0.00000000000E+00 -0.00000000000E+00 -0.21055124817E+03  0.21055124817E+03  0.00000000000E+00 0.  1.
          6    1    1    2  501    0 -0.81789236064E+02  0.48745655210E+01 -0.54240701303E+02  0.19808910672E+03  0.17200000000E+03 0. -1.
         -6    1    1    2    0  502  0.81789236064E+02 -0.48745655210E+01  0.23146577457E+02  0.19191926577E+03  0.17200000000E+03 0.  1.
</event>
<event>
 4    1  0.5739010E+000  0.1999110E+03  0.7818608E-02  0.1149814E+00
         21   -1    0    0  503  502  0.00000000000E+00  0.00000000000E+00  0.11091727760E+04  0.11091727760E+04  0.00000000000E+00 0. -1.
         21   -1    0    0  501  503 -0.00000000000E+00 -0.00000000000E+00 -0.51955623407E+02  0.51955623407E+02  0.00000000000E+00 0. -1.
          6    1    1    2  501    0  0.86308213402E+02  0.54141443450E+02  0.85002719043E+03  0.87321854542E+03  0.17200000000E+03 0. -1.
         -6    1    1    2    0  502 -0.86308213402E+02 -0.54141443450E+02  0.20718996216E+03  0.28790985398E+03  0.17200000000E+03 0. -1.
</event>
<event>
 4    1  0.5739010E+000  0.2013066E+03  0.7818608E-02  0.1148641E+00
         21   -1    0    0  501  502  0.00000000000E+00  0.00000000000E+00  0.10346552832E+03  0.10346552832E+03  0.00000000000E+00 0. -1.
         21   -1    0    0  502  503 -0.00000000000E+00 -0.00000000000E+00 -0.42635825765E+03  0.42635825765E+03  0.00000000000E+00 0. -1.
          6    1    1    2  501    0  0.10150099494E+03  0.25256361591E+02 -0.85883950358E+02  0.21886157430E+03  0.17200000000E+03 0. -1.
         -6    1    1    2    0  503 -0.10150099494E+03 -0.25256361591E+02 -0.23700877898E+03  0.31096221167E+03  0.17200000000E+03 0. -1.
</event>
<event>
 4    1  0.5739010E+000  0.2519821E+03  0.7818608E-02  0.1112059E+00
         21   -1    0    0  503  502  0.00000000000E+00  0.00000000000E+00  0.64824282452E+03  0.64824282452E+03  0.00000000000E+00 0. -1.
         21   -1    0    0  501  503 -0.00000000000E+00 -0.00000000000E+00 -0.10017247969E+03  0.10017247969E+03  0.00000000000E+00 0.  1.
          6    1    1    2  501    0  0.99923032890E+02 -0.15468153224E+03  0.21828875123E+03  0.33338411454E+03  0.17200000000E+03 0.  1.
         -6    1    1    2    0  502 -0.99923032890E+02  0.15468153224E+03  0.32978159361E+03  0.41503118967E+03  0.17200000000E+03 0.  1.
</event>
<event>
 4    1  0.5739010E+000  0.2079222E+03  0.7818608E-02  0.1143222E+00
         21   -1    0    0  501  502  0.00000000000E+00  0.00000000000E+00  0.66097235185E+02  0.66097235185E+02  0.00000000000E+00 0. -1.
         21   -1    0    0  502  503 -0.00000000000E+00 -0.00000000000E+00 -0.92309660755E+03  0.92309660755E+03  0.00000000000E+00 0. -1.
          6    1    1    2  501    0 -0.55797068991E+02 -0.10263681341E+03 -0.16148653225E+03  0.26326702884E+03  0.17200000000E+03 0. -1.
         -6    1    1    2    0  503  0.55797068991E+02  0.10263681341E+03 -0.69551284011E+03  0.72592681390E+03  0.17200000000E+03 0. -1.
</event>
<event>
 4    1  0.5739010E+000  0.5066060E+03  0.7818608E-02  0.1012069E+00
         21   -1    0    0  503  502  0.00000000000E+00  0.00000000000E+00  0.30243952050E+03  0.30243952050E+03  0.00000000000E+00 0.  1.
         21   -1    0    0  501  503 -0.00000000000E+00 -0.00000000000E+00 -0.98795286974E+03  0.98795286974E+03  0.00000000000E+00 0.  1.
          6    1    1    2  501    0  0.32035158640E+03 -0.35276121277E+03 -0.58507404823E+03  0.77392587116E+03  0.17200000000E+03 0.  1.
         -6    1    1    2    0  502 -0.32035158640E+03  0.35276121277E+03 -0.10043930101E+03  0.51646651908E+03  0.17200000000E+03 0.  1.
</event>
<event>
 4    1  0.5739010E+000  0.1866224E+03  0.7818608E-02  0.1161543E+00
         21   -1    0    0  503  502  0.00000000000E+00  0.00000000000E+00  0.15022760128E+03  0.15022760128E+03  0.00000000000E+00 0. -1.
         21   -1    0    0  501  503 -0.00000000000E+00 -0.00000000000E+00 -0.40838697661E+03  0.40838697661E+03  0.00000000000E+00 0. -1.
          6    1    1    2  501    0  0.98055445694E+01 -0.71747903969E+02 -0.31272653758E+03  0.36417824995E+03  0.17200000000E+03 0. -1.
         -6    1    1    2    0  502 -0.98055445694E+01  0.71747903969E+02  0.54567162252E+02  0.19443632794E+03  0.17200000000E+03 0. -1.
</event>
<event>
 4    1  0.5739010E+000  0.2035795E+03  0.7818608E-02  0.1146754E+00
         21   -1    0    0  503  502  0.00000000000E+00  0.00000000000E+00  0.54219198017E+03  0.54219198017E+03  0.00000000000E+00 0.  1.
         21   -1    0    0  501  503 -0.00000000000E+00 -0.00000000000E+00 -0.92582164650E+02  0.92582164650E+02  0.00000000000E+00 0.  1.
          6    1    1    2  501    0 -0.41539173047E+01  0.10882724996E+03  0.35733655438E+03  0.41125908921E+03  0.17200000000E+03 0.  1.
         -6    1    1    2    0  502  0.41539173047E+01 -0.10882724996E+03  0.92273261136E+02  0.22351505561E+03  0.17200000000E+03 0.  1.
</event>
<event>
 4    1  0.5739010E+000  0.1928222E+03  0.7818608E-02  0.1155940E+00
         21   -1    0    0  503  502  0.00000000000E+00  0.00000000000E+00  0.24520113169E+03  0.24520113169E+03  0.00000000000E+00 0. -1.
         21   -1    0    0  501  503 -0.00000000000E+00 -0.00000000000E+00 -0.15458191981E+03  0.15458191981E+03  0.00000000000E+00 0.  1.
          6    1    1    2  501    0 -0.50551627149E+02 -0.70999612541E+02  0.17697602007E+02  0.19363268605E+03  0.17200000000E+03 0.  1.
         -6    1    1    2    0  502  0.50551627149E+02  0.70999612541E+02  0.72921609876E+02  0.20615036545E+03  0.17200000000E+03 0. -1.
</event>
<event>
 4    1  0.5739010E+000  0.1758602E+03  0.7818608E-02  0.1171871E+00
         21   -1    0    0  501  502  0.00000000000E+00  0.00000000000E+00  0.10814411180E+03  0.10814411180E+03  0.00000000000E+00 0. -1.
         21   -1    0    0  502  503 -0.00000000000E+00 -0.00000000000E+00 -0.42701713748E+03  0.42701713748E+03  0.00000000000E+00 0. -1.
          6    1    1    2  501    0 -0.22589083371E+02 -0.28853812020E+02 -0.56556738068E+01  0.17595111765E+03  0.17200000000E+03 0. -1.
         -6    1    1    2    0  503  0.22589083371E+02  0.28853812020E+02 -0.31321735187E+03  0.35921013164E+03  0.17200000000E+03 0. -1.
</event>
<event>
 4    1  0.5739010E+000  0.1774101E+03  0.7818608E-02  0.1170333E+00
         21   -1    0    0  501  502  0.00000000000E+00  0.00000000000E+00  0.14849519189E+04  0.14849519189E+04  0.00000000000E+00 0. -1.
         21   -1    0    0  502  503 -0.00000000000E+00 -0.00000000000E+00 -0.33080979150E+02  0.33080979150E+02  0.00000000000E+00 0. -1.
          6    1    1    2  501    0  0.24703609265E+02  0.35777981373E+02  0.11808920394E+04  0.11941441877E+04  0.17200000000E+03 0. -1.
         -6    1    1    2    0  503 -0.24703609265E+02 -0.35777981373E+02  0.27097890030E+03  0.32388871031E+03  0.17200000000E+03 0. -1.
</event>
<event>
 4    1  0.5739010E+000  0.2885456E+03  0.7818608E-02  0.1091111E+00
         21   -1    0    0  501  502  0.00000000000E+00  0.00000000000E+00  0.14450431940E+03  0.14450431940E+03  0.00000000000E+00 0.  1.
         21   -1    0    0  502  503 -0.00000000000E+00 -0.00000000000E+00 -0.61905194468E+03  0.61905194468E+03  0.00000000000E+00 0. -1.
          6    1    1    2  501    0 -0.53938004129E+02  0.22531141670E+03 -0.13678848746E+03  0.31932684366E+03  0.17200000000E+03 0.  1.
         -6    1    1    2    0  503  0.53938004129E+02 -0.22531141670E+03 -0.33775913781E+03  0.44422942041E+03  0.17200000000E+03 0.  1.
</event>
<event>
 4    1  0.5739010E+000  0.1787320E+03  0.7818608E-02  0.1169036E+00
         21   -1    0    0  503  502  0.00000000000E+00  0.00000000000E+00  0.60923950012E+03  0.60923950012E+03  0.00000000000E+00 0. -1.
         21   -1    0    0  501  503 -0.00000000000E+00 -0.00000000000E+00 -0.53957448940E+02  0.53957448940E+02  0.00000000000E+00 0.  1.
          6    1    1    2  501    0 -0.33692128048E+02 -0.35013921721E+02  0.22193046443E+03  0.28495309307E+03  0.17200000000E+03 0.  1.
         -6    1    1    2    0  502  0.33692128048E+02  0.35013921721E+02  0.33335158674E+03  0.37824385598E+03  0.17200000000E+03 0. -1.
</event>
<event>
 4    1  0.5739010E+000  0.3374063E+03  0.7818608E-02  0.1067906E+00
         21   -1    0    0  501  502  0.00000000000E+00  0.00000000000E+00  0.62055283249E+03  0.62055283249E+03  0.00000000000E+00 0. -1.
         21   -1    0    0  502  503 -0.00000000000E+00 -0.00000000000E+00 -0.39675852904E+03  0.39675852904E+03  0.00000000000E+00 0.  1.
          6    1    1    2  501    0  0.10853580779E+03 -0.26921921191E+03  0.48485575300E+03  0.59070136859E+03  0.17200000000E+03 0. -1.
         -6    1    1    2    0  503 -0.10853580779E+03  0.26921921191E+03 -0.26106144955E+03  0.42660999294E+03  0.17200000000E+03 0.  1.
</event>
<event>
 4    1  0.5739010E+000  0.2338270E+03  0.7818608E-02  0.1123975E+00
         21   -1    0    0  501  502  0.00000000000E+00  0.00000000000E+00  0.88102018068E+02  0.88102018068E+02  0.00000000000E+00 0.  1.
         21   -1    0    0  502  503 -0.00000000000E+00 -0.00000000000E+00 -0.92565202438E+03  0.92565202438E+03  0.00000000000E+00 0.  1.
          6    1    1    2  501    0 -0.90607594943E+02  0.12992809902E+03 -0.70976247281E+03  0.74728696963E+03  0.17200000000E+03 0.  1.
         -6    1    1    2    0  503  0.90607594943E+02 -0.12992809902E+03 -0.12778753350E+03  0.26646707281E+03  0.17200000000E+03 0.  1.
</event>
<event>
 4    1  0.5739010E+000  0.1760217E+03  0.7818608E-02  0.1171710E+00
         21   -1    0    0  503  502  0.00000000000E+00  0.00000000000E+00  0.18544664448E+03  0.18544664448E+03  0.00000000000E+00 0.  1.
         21   -1    0    0  501  503 -0.00000000000E+00 -0.00000000000E+00 -0.22489886465E+03  0.22489886465E+03  0.00000000000E+00 0.  1.
          6    1    1    2  501    0 -0.23784450577E+02  0.28878180877E+02 -0.12376041049E+03  0.21517501859E+03  0.17200000000E+03 0.  1.
         -6    1    1    2    0  502  0.23784450577E+02 -0.28878180877E+02  0.84308190322E+02  0.19517049053E+03  0.17200000000E+03 0.  1.
</event>
<event>
 4    1  0.5739010E+000  0.1742897E+03  0.7818608E-02  0.1173447E+00
         21   -1    0    0  501  502  0.00000000000E+00  0.00000000000E+00  0.30352840693E+03  0.30352840693E+03  0.00000000000E+00 0. -1.
         21   -1    0    0  502  503 -0.00000000000E+00 -0.00000000000E+00 -0.17433242736E+03  0.17433242736E+03  0.00000000000E+00 0. -1.
          6    1    1    2  501    0 -0.16186585973E+02 -0.23040790431E+02  0.22053169083E+03  0.28108915000E+03  0.17200000000E+03 0. -1.
         -6    1    1    2    0  503  0.16186585973E+02  0.23040790431E+02 -0.91335711257E+02  0.19677168429E+03  0.17200000000E+03 0. -1.
</event>
<event>
 4    1  0.5739010E+000  0.1920182E+03  0.7818608E-02  0.1156654E+00
         21   -1    0    0  501  502  0.00000000000E+00  0.00000000000E+00  0.50729203600E+03  0.50729203600E+03  0.00000000000E+00 0. -1.
         21   -1    0    0  502  503 -0.00000000000E+00 -0.00000000000E+00 -0.14641108777E+03  0.14641108777E+03  0.00000000000E+00 0. -1.
          6    1    1    2  501    0 -0.13754858717E+02 -0.84248441846E+02  0.41238441537E+03  0.45489768314E+03  0.17200000000E+03 0. -1.
         -6    1    1    2    0  503  0.13754858717E+02  0.84248441846E+02 -0.51503467140E+02  0.19880544062E+03  0.17200000000E+03 0. -1.
</event>
<event>
 4    1  0.5739010E+000  0.1970483E+03  0.7818608E-02  0.1152254E+00
         21   -1    0    0  503  502  0.00000000000E+00  0.00000000000E+00  0.76449969131E+02  0.76449969131E+02  0.00000000000E+00 0.  1.
         21   -1    0    0  501  503 -0.00000000000E+00 -0.00000000000E+00 -0.71766893244E+03  0.71766893244E+03  0.00000000000E+00 0. -1.
          6    1    1    2  501    0  0.93242169554E+02  0.23450567274E+02 -0.53528194674E+03  0.57039880241E+03  0.17200000000E+03 0. -1.
         -6    1    1    2    0  502 -0.93242169554E+02 -0.23450567274E+02 -0.10593701657E+03  0.22372009916E+03  0.17200000000E+03 0.  1.
</event>
<event>
 4    1  0.5739010E+000  0.2270867E+03  0.7818608E-02  0.1128707E+00
         21   -1    0    0  501  502  0.00000000000E+00  0.00000000000E+00  0.23650197861E+02  0.23650197861E+02  0.00000000000E+00 0.  1.
         21   -1    0    0  502  503 -0.00000000000E+00 -0.00000000000E+00 -0.21977325421E+04  0.21977325421E+04  0.00000000000E+00 0. -1.
          6    1    1    2  501    0  0.12086177546E+03  0.85888287375E+02 -0.11854998969E+04  0.12070535913E+04  0.17200000000E+03 0.  1.
         -6    1    1    2    0  503 -0.12086177546E+03 -0.85888287375E+02 -0.98858244731E+03  0.10143291486E+04  0.17200000000E+03 0. -1.
</event>
<event>
 4    1  0.5739010E+000  0.2095048E+03  0.7818608E-02  0.1141959E+00
         21   -1    0    0  503  502  0.00000000000E+00  0.00000000000E+00  0.12853870744E+04  0.12853870744E+04  0.00000000000E+00 0. -1.
         21   -1    0    0  501  503 -0.00000000000E+00 -0.00000000000E+00 -0.41597341893E+02  0.41597341893E+02  0.00000000000E+00 0.  1.
          6    1    1    2  501    0  0.47433765919E+02  0.10981020262E+03  0.34110063348E+03  0.40030224195E+03  0.17200000000E+03 0. -1.
         -6    1    1    2    0  502 -0.47433765919E+02 -0.10981020262E+03  0.90268909903E+03  0.92668217435E+03  0.17200000000E+03 0. -1.
</event>
<event>
 4    1  0.5739010E+000  0.2177238E+03  0.7818608E-02  0.1135591E+00
         21   -1    0    0  501  502  0.00000000000E+00  0.00000000000E+00  0.38834497413E+03  0.38834497413E+03  0.00000000000E+00 0.  1.
         21   -1    0    0  502  503 -0.00000000000E+00 -0.00000000000E+00 -0.17898530948E+03  0.17898530948E+03  0.00000000000E+00 0. -1.
          6    1    1    2  501    0 -0.13046405334E+03  0.28263121182E+02  0.26464577316E+03  0.34269674420E+03  0.17200000000E+03 0.  1.
         -6    1    1    2    0  503  0.13046405334E+03 -0.28263121182E+02 -0.55286108515E+02  0.22463353941E+03  0.17200000000E+03 0. -1.
</event>
<event>
 4    1  0.5739010E+000  0.1941219E+03  0.7818608E-02  0.1154795E+00
         21   -1    0    0  503  502  0.00000000000E+00  0.00000000000E+00  0.28777232373E+03  0.28777232373E+03  0.00000000000E+00 0. -1.
         21   -1    0    0  501  503 -0.00000000000E+00 -0.00000000000E+00 -0.14065186028E+03  0.14065186028E+03  0.00000000000E+00 0. -1.
          6    1    1    2  501    0 -0.89488132358E+02  0.95496664656E+01  0.17295685267E+02  0.19489089946E+03  0.17200000000E+03 0. -1.
         -6    1    1    2    0  502  0.89488132358E+02 -0.95496664656E+01  0.12982477818E+03  0.23353328455E+03  0.17200000000E+03 0. -1.
</event>
<event>
 4    1  0.5739010E+000  0.2807842E+03  0.7818608E-02  0.1095261E+00
         21   -1    0    0  503  502  0.00000000000E+00  0.00000000000E+00  0.80226696885E+03  0.80226696885E+03  0.00000000000E+00 0. -1.
         21   -1    0    0  501  503 -0.00000000000E+00 -0.00000000000E+00 -0.25349868066E+03  0.25349868066E+03  0.00000000000E+00 0.  1.
          6    1    1    2  501    0  0.15927366066E+03  0.15455632559E+03 -0.13869564977E+03  0.31317126309E+03  0.17200000000E+03 0.  1.
         -6    1    1    2    0  502 -0.15927366066E+03 -0.15455632559E+03  0.68746393795E+03  0.74259438642E+03  0.17200000000E+03 0. -1.
</event>
<event>
 4    1  0.5739010E+000  0.2124406E+03  0.7818608E-02  0.1139648E+00
         21   -1    0    0  503  502  0.00000000000E+00  0.00000000000E+00  0.49977053069E+03  0.49977053069E+03  0.00000000000E+00 0.  1.
         21   -1    0    0  501  503 -0.00000000000E+00 -0.00000000000E+00 -0.90493510719E+02  0.90493510719E+02  0.00000000000E+00 0. -1.
          6    1    1    2  501    0  0.11804373232E+03  0.40158179772E+02  0.21816409487E+03  0.30451038477E+03  0.17200000000E+03 0.  1.
         -6    1    1    2    0  502 -0.11804373232E+03 -0.40158179772E+02  0.19111292510E+03  0.28575365664E+03  0.17200000000E+03 0. -1.
</event>
<event>
 4    1  0.5739010E+000  0.1943707E+03  0.7818608E-02  0.1154577E+00
         21   -1    0    0  503  502  0.00000000000E+00  0.00000000000E+00  0.99537572034E+02  0.99537572034E+02  0.00000000000E+00 0.  1.
         21   -1    0    0  501  503 -0.00000000000E+00 -0.00000000000E+00 -0.57662911048E+03  0.57662911048E+03  0.00000000000E+00 0.  1.
          6    1    1    2  501    0 -0.24054150364E+02  0.87277578103E+02 -0.43619281938E+03  0.47753968785E+03  0.17200000000E+03 0.  1.
         -6    1    1    2    0  502  0.24054150364E+02 -0.87277578103E+02 -0.40898719064E+02  0.19862699467E+03  0.17200000000E+03 0.  1.
</event>
<event>
 4    1  0.5739010E+000  0.1728451E+03  0.7818608E-02  0.1174913E+00
         21   -1    0    0  503  502  0.00000000000E+00  0.00000000000E+00  0.18599828271E+03  0.18599828271E+03  0.00000000000E+00 0.  1.
         21   -1    0    0  501  503 -0.00000000000E+00 -0.00000000000E+00 -0.26465799291E+03  0.26465799291E+03  0.00000000000E+00 0.  1.
          6    1    1    2  501    0 -0.57247855105E+01  0.16082914766E+02 -0.18060460137E+03  0.24998691036E+03  0.17200000000E+03 0.  1.
         -6    1    1    2    0  502  0.57247855105E+01 -0.16082914766E+02  0.10194489117E+03  0.20066936525E+03  0.17200000000E+03 0.  1.
</event>
<event>
 4    1  0.5739010E+000  0.1747881E+03  0.7818608E-02  0.1172945E+00
         21   -1    0    0  501  502  0.00000000000E+00  0.00000000000E+00  0.45898610368E+03  0.45898610368E+03  0.00000000000E+00 0. -1.
         21   -1    0    0  502  503 -0.00000000000E+00 -0.00000000000E+00 -0.37656688972E+03  0.37656688972E+03  0.00000000000E+00 0. -1.
          6    1    1    2  501    0 -0.28943601974E+02  0.11363756634E+02  0.42026917508E+03  0.45516705349E+03  0.17200000000E+03 0. -1.
         -6    1    1    2    0  503  0.28943601974E+02 -0.11363756634E+02 -0.33784996111E+03  0.38038593992E+03  0.17200000000E+03 0. -1.
</event>
<event>
 4    1  0.5739010E+000  0.3901828E+03  0.7818608E-02  0.1047233E+00
         21   -1    0    0  501  502  0.00000000000E+00  0.00000000000E+00  0.45720566981E+03  0.45720566981E+03  0.00000000000E+00 0.  1.
         21   -1    0    0  502  503 -0.00000000000E+00 -0.00000000000E+00 -0.52276348656E+03  0.52276348656E+03  0.00000000000E+00 0. -1.
          6    1    1    2  501    0 -0.24019611735E+03 -0.25488116439E+03  0.26244627153E+03  0.47023465226E+03  0.17200000000E+03 0.  1.
         -6    1    1    2    0  503  0.24019611735E+03  0.25488116439E+03 -0.32800408828E+03  0.50973450411E+03  0.17200000000E+03 0. -1.
</event>
<event>
 4    1  0.5739010E+000  0.2946487E+03  0.7818608E-02  0.1087947E+00
         21   -1    0    0  503  502  0.00000000000E+00  0.00000000000E+00  0.16734876207E+04  0.16734876207E+04  0.00000000000E+00 0. -1.
         21   -1    0    0  501  503 -0.00000000000E+00 -0.00000000000E+00 -0.56552950734E+02  0.56552950734E+02  0.00000000000E+00 0.  1.
          6    1    1    2  501    0 -0.20918392005E+03 -0.11608592652E+03  0.10571633046E+04  0.10974571096E+04  0.17200000000E+03 0. -1.
         -6    1    1    2    0  502  0.20918392005E+03  0.11608592652E+03  0.55977136534E+03  0.63258346184E+03  0.17200000000E+03 0.  1.
</event>
<event>
 4    1  0.5739010E+000  0.1899479E+03  0.7818608E-02  0.1158508E+00
         21   -1    0    0  503  502  0.00000000000E+00  0.00000000000E+00  0.26381131143E+03  0.26381131143E+03  0.00000000000E+00 0.  1.
         21   -1    0    0  501  503 -0.00000000000E+00 -0.00000000000E+00 -0.13735014366E+03  0.13735014366E+03  0.00000000000E+00 0.  1.
          6    1    1    2  501    0  0.21890923495E+02  0.77569286518E+02  0.50140823387E+02  0.19645434307E+03  0.17200000000E+03 0.  1.
         -6    1    1    2    0  502 -0.21890923495E+02 -0.77569286518E+02  0.76320344391E+02  0.20470711202E+03  0.17200000000E+03 0.  1.
</event>
<event>
 4    1  0.5739010E+000  0.1854518E+03  0.7818608E-02  0.1162629E+00
         21   -1    0    0  503  502  0.00000000000E+00  0.00000000000E+00  0.23376157864E+03  0.23376157864E+03  0.00000000000E+00 0.  1.
         21   -1    0    0  501  503 -0.00000000000E+00 -0.00000000000E+00 -0.14831486944E+03  0.14831486944E+03  0.00000000000E+00 0.  1.
          6    1    1    2  501    0 -0.69315750164E+02 -0.19269306431E+01  0.59827856328E+02  0.19486343596E+03  0.17200000000E+03 0.  1.
         -6    1    1    2    0  502  0.69315750164E+02  0.19269306431E+01  0.25618852867E+02  0.18721301211E+03  0.17200000000E+03 0.  1.
</event>
<event>
 4    1  0.5739010E+000  0.1767530E+03  0.7818608E-02  0.1170983E+00
         21   -1    0    0  501  502  0.00000000000E+00  0.00000000000E+00  0.81957238813E+02  0.81957238813E+02  0.00000000000E+00 0. -1.
         21   -1    0    0  502  503 -0.00000000000E+00 -0.00000000000E+00 -0.49504454102E+03  0.49504454102E+03  0.00000000000E+00 0. -1.
          6    1    1    2  501    0 -0.31775676421E+02 -0.25454445558E+02 -0.68189489787E+02  0.18945033367E+03  0.17200000000E+03 0. -1.
         -6    1    1    2    0  503  0.31775676421E+02  0.25454445558E+02 -0.34489781242E+03  0.38755144616E+03  0.17200000000E+03 0. -1.
</event>
<event>
 4    1  0.5739010E+000  0.1882529E+03  0.7818608E-02  0.1160047E+00
         21   -1    0    0  503  502  0.00000000000E+00  0.00000000000E+00  0.79924374235E+03  0.79924374235E+03  0.00000000000E+00 0.  1.
         21   -1    0    0  501  503 -0.00000000000E+00 -0.00000000000E+00 -0.74382719443E+02  0.74382719443E+02  0.00000000000E+00 0.  1.
          6    1    1    2  501    0 -0.72362815683E+02  0.24875350404E+02  0.84828175862E+02  0.20648239531E+03  0.17200000000E+03 0.  1.
         -6    1    1    2    0  502  0.72362815683E+02 -0.24875350404E+02  0.64003284704E+03  0.66714406648E+03  0.17200000000E+03 0.  1.
</event>
<event>
 4    1  0.5739010E+000  0.1777253E+03  0.7818608E-02  0.1170023E+00
         21   -1    0    0  503  502  0.00000000000E+00  0.00000000000E+00  0.48513413490E+02  0.48513413490E+02  0.00000000000E+00 0.  1.
         21   -1    0    0  501  503 -0.00000000000E+00 -0.00000000000E+00 -0.65815012063E+03  0.65815012063E+03  0.00000000000E+00 0.  1.
          6    1    1    2  501    0 -0.74236459573E+01 -0.44126809302E+02 -0.34143042821E+03  0.38491690418E+03  0.17200000000E+03 0. -1.
         -6    1    1    2    0  502  0.74236459573E+01  0.44126809302E+02 -0.26820627893E+03  0.32174662994E+03  0.17200000000E+03 0. -1.
</event>
<event>
 4    1  0.5739010E+000  0.1852385E+03  0.7818608E-02  0.1162827E+00
         21   -1    0    0  503  502  0.00000000000E+00  0.00000000000E+00  0.19777337624E+02  0.19777337624E+02  0.00000000000E+00 0.  1.
         21   -1    0    0  501  503 -0.00000000000E+00 -0.00000000000E+00 -0.17977859315E+04  0.17977859315E+04  0.00000000000E+00 0.  1.
          6    1    1    2  501    0 -0.19414949094E+02  0.65972452759E+02 -0.10588628686E+04  0.10749436633E+04  0.17200000000E+03 0.  1.
         -6    1    1    2    0  502  0.19414949094E+02 -0.65972452759E+02 -0.71914572530E+03  0.74261960585E+03  0.17200000000E+03 0.  1.
</event>
<event>
 4    1  0.5739010E+000  0.1821653E+03  0.7818608E-02  0.1165724E+00
         21   -1    0    0  501  502  0.00000000000E+00  0.00000000000E+00  0.21036963518E+02  0.21036963518E+02  0.00000000000E+00 0. -1.
         21   -1    0    0  502  503 -0.00000000000E+00 -0.00000000000E+00 -0.16456791946E+04  0.16456791946E+04  0.00000000000E+00 0.  1.
          6    1    1    2  501    0 -0.40374772295E+02 -0.44385441246E+02 -0.64260223135E+03  0.66792351162E+03  0.17200000000E+03 0.  1.
         -6    1    1    2    0  503  0.40374772295E+02  0.44385441246E+02 -0.98203999971E+03  0.99879264648E+03  0.17200000000E+03 0.  1.
</event>
<event>
 4    1  0.5739010E+000  0.1990963E+03  0.7818608E-02  0.1150504E+00
         21   -1    0    0  501  502  0.00000000000E+00  0.00000000000E+00  0.57520194956E+03  0.57520194956E+03  0.00000000000E+00 0.  1.
         21   -1    0    0  502  503 -0.00000000000E+00 -0.00000000000E+00 -0.69371736507E+02  0.69371736507E+02  0.00000000000E+00 0.  1.
          6    1    1    2  501    0  0.36918871858E+02  0.93232664181E+02  0.27910114921E+03  0.34283638118E+03  0.17200000000E+03 0.  1.
         -6    1    1    2    0  503 -0.36918871858E+02 -0.93232664181E+02  0.22672906384E+03  0.30173730488E+03  0.17200000000E+03 0.  1.
</event>
<event>
 4    1  0.5739010E+000  0.1909817E+03  0.7818608E-02  0.1157579E+00
         21   -1    0    0  501  502  0.00000000000E+00  0.00000000000E+00  0.12063289890E+03  0.12063289890E+03  0.00000000000E+00 0.  1.
         21   -1    0    0  502  503 -0.00000000000E+00 -0.00000000000E+00 -0.31606371464E+03  0.31606371464E+03  0.00000000000E+00 0.  1.
          6    1    1    2  501    0  0.56050184622E+02 -0.61224135682E+02 -0.52242441927E+02  0.19799820889E+03  0.17200000000E+03 0.  1.
         -6    1    1    2    0  503 -0.56050184622E+02  0.61224135682E+02 -0.14318837381E+03  0.23869840465E+03  0.17200000000E+03 0.  1.
</event>
<event>
 4    1  0.5739010E+000  0.1841412E+03  0.7818608E-02  0.1163854E+00
         21   -1    0    0  501  502  0.00000000000E+00  0.00000000000E+00  0.13940013482E+03  0.13940013482E+03  0.00000000000E+00 0.  1.
         21   -1    0    0  502  503 -0.00000000000E+00 -0.00000000000E+00 -0.29936061021E+03  0.29936061021E+03  0.00000000000E+00 0.  1.
          6    1    1    2  501    0  0.56395878166E+02 -0.33815639451E+02  0.15004363317E+02  0.18475151816E+03  0.17200000000E+03 0.  1.
         -6    1    1    2    0  503 -0.56395878166E+02  0.33815639451E+02 -0.17496483871E+03  0.25400922686E+03  0.17200000000E+03 0.  1.
</event>
<event>
 4    1  0.5739010E+000  0.1987772E+03  0.7818608E-02  0.1150775E+00
         21   -1    0    0  501  502  0.00000000000E+00  0.00000000000E+00  0.13254016657E+04  0.13254016657E+04  0.00000000000E+00 0.  1.
         21   -1    0    0  502  503 -0.00000000000E+00 -0.00000000000E+00 -0.30928614540E+02  0.30928614540E+02  0.00000000000E+00 0.  1.
          6    1    1    2  501    0 -0.31466987056E+02  0.94542101933E+02  0.77611469519E+03  0.80116565104E+03  0.17200000000E+03 0.  1.
         -6    1    1    2    0  503  0.31466987056E+02 -0.94542101933E+02  0.51835835596E+03  0.55516462919E+03  0.17200000000E+03 0.  1.
</event>
<event>
 4    1  0.5739010E+000  0.2292248E+03  0.7818608E-02  0.1127187E+00
         21   -1    0    0  503  502  0.00000000000E+00  0.00000000000E+00  0.86420501372E+03  0.86420501372E+03  0.00000000000E+00 0.  1.
         21   -1    0    0  501  503 -0.00000000000E+00 -0.00000000000E+00 -0.10549781231E+03  0.10549781231E+03  0.00000000000E+00 0.  1.
          6    1    1    2  501    0 -0.99100882240E+02 -0.11462562208E+03  0.63760073995E+02  0.23792722655E+03  0.17200000000E+03 0.  1.
         -6    1    1    2    0  502  0.99100882240E+02  0.11462562208E+03  0.69494712741E+03  0.73177559948E+03  0.17200000000E+03 0.  1.
</event>
<event>
 4    1  0.5739010E+000  0.1854375E+03  0.7818608E-02  0.1162642E+00
         21   -1    0    0  501  502  0.00000000000E+00  0.00000000000E+00  0.95107374978E+03  0.95107374978E+03  0.00000000000E+00 0. -1.
         21   -1    0    0  502  503 -0.00000000000E+00 -0.00000000000E+00 -0.36968859199E+02  0.36968859199E+02  0.00000000000E+00 0. -1.
          6    1    1    2  501    0  0.27702782278E+02 -0.63526662409E+02  0.38380054632E+03  0.42625102972E+03  0.17200000000E+03 0.  1.
         -6    1    1    2    0  503 -0.27702782278E+02  0.63526662409E+02  0.53030434426E+03  0.56179157926E+03  0.17200000000E+03 0.  1.
</event>
<event>
 4    1  0.5739010E+000  0.2189452E+03  0.7818608E-02  0.1134672E+00
         21   -1    0    0  503  502  0.00000000000E+00  0.00000000000E+00  0.33890140491E+03  0.33890140491E+03  0.00000000000E+00 0. -1.
         21   -1    0    0  501  503 -0.00000000000E+00 -0.00000000000E+00 -0.41472105759E+03  0.41472105759E+03  0.00000000000E+00 0. -1.
          6    1    1    2  501    0  0.34464969303E+02  0.13101588153E+03 -0.34378486731E+03  0.40758438429E+03  0.17200000000E+03 0. -1.
         -6    1    1    2    0  502 -0.34464969303E+02 -0.13101588153E+03  0.26796521464E+03  0.34603807822E+03  0.17200000000E+03 0. -1.
</event>
<event>
 4    1  0.5739010E+000  0.2217105E+03  0.7818608E-02  0.1132614E+00
         21   -1    0    0  503  502  0.00000000000E+00  0.00000000000E+00  0.89049603383E+02  0.89049603383E+02  0.00000000000E+00 0. -1.
         21   -1    0    0  501  503 -0.00000000000E+00 -0.00000000000E+00 -0.72826509050E+03  0.72826509050E+03  0.00000000000E+00 0. -1.
          6    1    1    2  501    0  0.12842013635E+03  0.55495905755E+02 -0.11856162148E+03  0.25142073316E+03  0.17200000000E+03 0. -1.
         -6    1    1    2    0  502 -0.12842013635E+03 -0.55495905755E+02 -0.52065386564E+03  0.56589396072E+03  0.17200000000E+03 0. -1.
</event>
<event>
 4    1  0.5739010E+000  0.1909525E+03  0.7818608E-02  0.1157605E+00
         21   -1    0    0  503  502  0.00000000000E+00  0.00000000000E+00  0.25674008232E+03  0.25674008232E+03  0.00000000000E+00 0.  1.
         21   -1    0    0  501  503 -0.00000000000E+00 -0.00000000000E+00 -0.16561042083E+03  0.16561042083E+03  0.00000000000E+00 0.  1.
          6    1    1    2  501    0  0.57123782836E+02 -0.60131013465E+02 -0.34132564582E+02  0.19397911566E+03  0.17200000000E+03 0. -1.
         -6    1    1    2    0  502 -0.57123782836E+02  0.60131013465E+02  0.12526222608E+03  0.22837138750E+03  0.17200000000E+03 0. -1.
</event>
<event>
 4    1  0.5739010E+000  0.1974924E+03  0.7818608E-02  0.1151872E+00
         21   -1    0    0  503  502  0.00000000000E+00  0.00000000000E+00  0.34455886147E+03  0.34455886147E+03  0.00000000000E+00 0.  1.
         21   -1    0    0  501  503 -0.00000000000E+00 -0.00000000000E+00 -0.12258077484E+03  0.12258077484E+03  0.00000000000E+00 0.  1.
          6    1    1    2  501    0 -0.96962788289E+02 -0.41786005277E+01  0.46367104081E+02  0.20286239513E+03  0.17200000000E+03 0.  1.
         -6    1    1    2    0  502  0.96962788289E+02  0.41786005277E+01  0.17561098255E+03  0.26427724118E+03  0.17200000000E+03 0.  1.
</event>
<event>
 4    1  0.5739010E+000  0.2641735E+03  0.7818608E-02  0.1104661E+00
         21   -1    0    0  503  502  0.00000000000E+00  0.00000000000E+00  0.53459584206E+03  0.53459584206E+03  0.00000000000E+00 0.  1.
         21   -1    0    0  501  503 -0.00000000000E+00 -0.00000000000E+00 -0.13172766004E+03  0.13172766004E+03  0.00000000000E+00 0. -1.
          6    1    1    2  501    0  0.18248717004E+03 -0.83078549556E+02  0.16983614128E+03  0.31405720420E+03  0.17200000000E+03 0.  1.
         -6    1    1    2    0  502 -0.18248717004E+03  0.83078549556E+02  0.23303204074E+03  0.35226629790E+03  0.17200000000E+03 0.  1.
</event>
<event>
 4    1  0.5739010E+000  0.2363941E+03  0.7818608E-02  0.1122219E+00
         21   -1    0    0  503  502  0.00000000000E+00  0.00000000000E+00  0.22541586083E+03  0.22541586083E+03  0.00000000000E+00 0. -1.
         21   -1    0    0  501  503 -0.00000000000E+00 -0.00000000000E+00 -0.47399281515E+03  0.47399281515E+03  0.00000000000E+00 0.  1.
          6    1    1    2  501    0  0.12404085544E+03 -0.10446072224E+03 -0.36580773763E+03  0.43554273869E+03  0.17200000000E+03 0.  1.
         -6    1    1    2    0  502 -0.12404085544E+03  0.10446072224E+03  0.11723078331E+03  0.26386593729E+03  0.17200000000E+03 0. -1.
</event>
<event>
 4    1  0.5739010E+000  0.1938513E+03  0.7818608E-02  0.1155033E+00
         21   -1    0    0  501  502  0.00000000000E+00  0.00000000000E+00  0.62746624738E+03  0.62746624738E+03  0.00000000000E+00 0. -1.
         21   -1    0    0  502  503 -0.00000000000E+00 -0.00000000000E+00 -0.62841693000E+02  0.62841693000E+02  0.00000000000E+00 0. -1.
          6    1    1    2  501    0 -0.59110198732E+02  0.67084351117E+02  0.35712890352E+03  0.40634883965E+03  0.17200000000E+03 0. -1.
         -6    1    1    2    0  503  0.59110198732E+02 -0.67084351117E+02  0.20749565086E+03  0.28395910072E+03  0.17200000000E+03 0. -1.
</event>
<event>
 4    1  0.5739010E+000  0.1872011E+03  0.7818608E-02  0.1161010E+00
         21   -1    0    0  501  502  0.00000000000E+00  0.00000000000E+00  0.85538878924E+02  0.85538878924E+02  0.00000000000E+00 0. -1.
         21   -1    0    0  502  503 -0.00000000000E+00 -0.00000000000E+00 -0.47719098623E+03  0.47719098623E+03  0.00000000000E+00 0. -1.
          6    1    1    2  501    0 -0.67949122904E+02  0.29037209873E+02 -0.90001682033E+02  0.20771265159E+03  0.17200000000E+03 0.  1.
         -6    1    1    2    0  503  0.67949122904E+02 -0.29037209873E+02 -0.30165042527E+03  0.35501721356E+03  0.17200000000E+03 0.  1.
</event>
<event>
 4    1  0.5739010E+000  0.1884678E+03  0.7818608E-02  0.1159851E+00
         21   -1    0    0  503  502  0.00000000000E+00  0.00000000000E+00  0.65975836433E+03  0.65975836433E+03  0.00000000000E+00 0.  1.
         21   -1    0    0  501  503 -0.00000000000E+00 -0.00000000000E+00 -0.13471101788E+03  0.13471101788E+03  0.00000000000E+00 0.  1.
          6    1    1    2  501    0 -0.69939759711E+02  0.32319171826E+02 -0.45261234952E+02  0.19382641266E+03  0.17200000000E+03 0.  1.
         -6    1    1    2    0  502  0.69939759711E+02 -0.32319171826E+02  0.57030858140E+03  0.60064296955E+03  0.17200000000E+03 0.  1.
</event>
<event>
 4    1  0.5739010E+000  0.1737734E+03  0.7818608E-02  0.1173969E+00
         21   -1    0    0  503  502  0.00000000000E+00  0.00000000000E+00  0.12248599394E+03  0.12248599394E+03  0.00000000000E+00 0. -1.
         21   -1    0    0  501  503 -0.00000000000E+00 -0.00000000000E+00 -0.25342957883E+03  0.25342957883E+03  0.00000000000E+00 0. -1.
          6    1    1    2  501    0 -0.24396881792E+02 -0.42421941891E+01 -0.34472284378E+02  0.17715965241E+03  0.17200000000E+03 0. -1.
         -6    1    1    2    0  502  0.24396881792E+02  0.42421941891E+01 -0.96471300511E+02  0.19875592035E+03  0.17200000000E+03 0. -1.
</event>
<event>
 4    1  0.5739010E+000  0.2137807E+03  0.7818608E-02  0.1138607E+00
         21   -1    0    0  501  502  0.00000000000E+00  0.00000000000E+00  0.30163188388E+03  0.30163188388E+03  0.00000000000E+00 0. -1.
         21   -1    0    0  502  503 -0.00000000000E+00 -0.00000000000E+00 -0.17259101266E+03  0.17259101266E+03  0.00000000000E+00 0. -1.
          6    1    1    2  501    0 -0.33354041187E+02 -0.12249766489E+03  0.14737634369E+03  0.25965738319E+03  0.17200000000E+03 0. -1.
         -6    1    1    2    0  503  0.33354041187E+02  0.12249766489E+03 -0.18335472467E+02  0.21456551335E+03  0.17200000000E+03 0. -1.
</event>
<event>
 4    1  0.5739010E+000  0.1784921E+03  0.7818608E-02  0.1169270E+00
         21   -1    0    0  501  502  0.00000000000E+00  0.00000000000E+00  0.13678987427E+03  0.13678987427E+03  0.00000000000E+00 0. -1.
         21   -1    0    0  502  503 -0.00000000000E+00 -0.00000000000E+00 -0.37481432814E+03  0.37481432814E+03  0.00000000000E+00 0. -1.
          6    1    1    2  501    0 -0.45630634757E+02 -0.13902868202E+02  0.38384981275E+02  0.18257286589E+03  0.17200000000E+03 0. -1.
         -6    1    1    2    0  503  0.45630634757E+02  0.13902868202E+02 -0.27640943515E+03  0.32903133652E+03  0.17200000000E+03 0. -1.
</event>
<event>
 4    1  0.5739010E+000  0.2819895E+03  0.7818608E-02  0.1094607E+00
         21   -1    0    0  501  502  0.00000000000E+00  0.00000000000E+00  0.13350425451E+04  0.13350425451E+04  0.00000000000E+00 0. -1.
         21   -1    0    0  502  503 -0.00000000000E+00 -0.00000000000E+00 -0.71305849754E+02  0.71305849754E+02  0.00000000000E+00 0.  1.
          6    1    1    2  501    0  0.10226457188E+03 -0.19868576817E+03  0.91723407165E+03  0.95960221932E+03  0.17200000000E+03 0. -1.
         -6    1    1    2    0  503 -0.10226457188E+03  0.19868576817E+03  0.34650262374E+03  0.44674617558E+03  0.17200000000E+03 0.  1.
</event>
<event>
 4    1  0.5739010E+000  0.1803767E+03  0.7818608E-02  0.1167439E+00
         21   -1    0    0  501  502  0.00000000000E+00  0.00000000000E+00  0.14765205488E+04  0.14765205488E+04  0.00000000000E+00 0. -1.
         21   -1    0    0  502  503 -0.00000000000E+00 -0.00000000000E+00 -0.31633724465E+02  0.31633724465E+02  0.00000000000E+00 0. -1.
          6    1    1    2  501    0  0.45912674099E+02  0.29048105869E+02  0.11378158070E+04  0.11520245556E+04  0.17200000000E+03 0. -1.
         -6    1    1    2    0  503 -0.45912674099E+02 -0.29048105869E+02  0.30707101730E+03  0.35612971761E+03  0.17200000000E+03 0. -1.
</event>
<event>
 4    1  0.5739010E+000  0.2546290E+03  0.7818608E-02  0.1110414E+00
         21   -1    0    0  501  502  0.00000000000E+00  0.00000000000E+00  0.39048048713E+03  0.39048048713E+03  0.00000000000E+00 0. -1.
         21   -1    0    0  502  503 -0.00000000000E+00 -0.00000000000E+00 -0.21187993760E+03  0.21187993760E+03  0.00000000000E+00 0.  1.
          6    1    1    2  501    0  0.52077119692E+02 -0.18038821156E+03  0.22938694576E+03  0.34271606929E+03  0.17200000000E+03 0. -1.
         -6    1    1    2    0  503 -0.52077119692E+02  0.18038821156E+03 -0.50786396233E+02  0.25964435543E+03  0.17200000000E+03 0.  1.
</event>
<event>
 4    1  0.5739010E+000  0.2653976E+03  0.7818608E-02  0.1103943E+00
         21   -1    0    0  501  502  0.00000000000E+00  0.00000000000E+00  0.11966814058E+04  0.11966814058E+04  0.00000000000E+00 0. -1.
         21   -1    0    0  502  503 -0.00000000000E+00 -0.00000000000E+00 -0.76975573672E+02  0.76975573672E+02  0.00000000000E+00 0. -1.
          6    1    1    2  501    0 -0.20193434596E+03 -0.86248350171E+01  0.86879713490E+03  0.90842959522E+03  0.17200000000E+03 0. -1.
         -6    1    1    2    0  503  0.20193434596E+03  0.86248350171E+01  0.25090869719E+03  0.36522738421E+03  0.17200000000E+03 0. -1.
</event>
<event>
 4    1  0.5739010E+000  0.2033491E+03  0.7818608E-02  0.1146944E+00
         21   -1    0    0  501  502  0.00000000000E+00  0.00000000000E+00  0.97087656657E+02  0.97087656657E+02  0.00000000000E+00 0.  1.
         21   -1    0    0  502  503 -0.00000000000E+00 -0.00000000000E+00 -0.67246221891E+03  0.67246221891E+03  0.00000000000E+00 0.  1.
          6    1    1    2  501    0  0.61768358272E+01  0.10829911149E+03 -0.54703843462E+02  0.21057863457E+03  0.17200000000E+03 0.  1.
         -6    1    1    2    0  503 -0.61768358272E+01 -0.10829911149E+03 -0.52067071879E+03  0.55897124099E+03  0.17200000000E+03 0.  1.
</event>
<event>
 4    1  0.5739010E+000  0.1734720E+03  0.7818608E-02  0.1174275E+00
         21   -1    0    0  501  502  0.00000000000E+00  0.00000000000E+00  0.69485181513E+03  0.69485181513E+03  0.00000000000E+00 0. -1.
         21   -1    0    0  502  503 -0.00000000000E+00 -0.00000000000E+00 -0.72455697649E+02  0.72455697649E+02  0.00000000000E+00 0. -1.
          6    1    1    2  501    0  0.15821464718E+01 -0.22495058943E+02  0.55453413868E+03  0.58103411416E+03  0.17200000000E+03 0. -1.
         -6    1    1    2    0  503 -0.15821464718E+01  0.22495058943E+02  0.67861978803E+02  0.18627339861E+03  0.17200000000E+03 0. -1.
</event>
<event>
 4    1  0.5739010E+000  0.1859596E+03  0.7818608E-02  0.1162157E+00
         21   -1    0    0  501  502  0.00000000000E+00  0.00000000000E+00  0.59588296300E+02  0.59588296300E+02  0.00000000000E+00 0. -1.
         21   -1    0    0  502  503 -0.00000000000E+00 -0.00000000000E+00 -0.16169785624E+04  0.16169785624E+04  0.00000000000E+00 0. -1.
          6    1    1    2  501    0  0.49269514898E+02  0.50690112897E+02 -0.10749167483E+03  0.21479160319E+03  0.17200000000E+03 0. -1.
         -6    1    1    2    0  503 -0.49269514898E+02 -0.50690112897E+02 -0.14498985913E+04  0.14617752555E+04  0.17200000000E+03 0. -1.
</event>
<event>
 4    1  0.5739010E+000  0.2629380E+03  0.7818608E-02  0.1105391E+00
         21   -1    0    0  503  502  0.00000000000E+00  0.00000000000E+00  0.71445340844E+03  0.71445340844E+03  0.00000000000E+00 0. -1.
         21   -1    0    0  501  503 -0.00000000000E+00 -0.00000000000E+00 -0.12537834623E+03  0.12537834623E+03  0.00000000000E+00 0.  1.
          6    1    1    2  501    0  0.11652842325E+03  0.16116307837E+03  0.93946906233E+02  0.27921753607E+03  0.17200000000E+03 0.  1.
         -6    1    1    2    0  502 -0.11652842325E+03 -0.16116307837E+03  0.49512815598E+03  0.56061421860E+03  0.17200000000E+03 0. -1.
</event>
<event>
 4    1  0.5739010E+000  0.2166940E+03  0.7818608E-02  0.1136372E+00
         21   -1    0    0  501  502  0.00000000000E+00  0.00000000000E+00  0.99948426011E+03  0.99948426011E+03  0.00000000000E+00 0.  1.
         21   -1    0    0  502  503 -0.00000000000E+00 -0.00000000000E+00 -0.46986415267E+02  0.46986415267E+02  0.00000000000E+00 0.  1.
          6    1    1    2  501    0 -0.12758486135E+03  0.33081533031E+02  0.48211258335E+03  0.52857244319E+03  0.17200000000E+03 0.  1.
         -6    1    1    2    0  503  0.12758486135E+03 -0.33081533031E+02  0.47038526149E+03  0.51789823219E+03  0.17200000000E+03 0.  1.
</event>
<event>
 4    1  0.5739010E+000  0.1778322E+03  0.7818608E-02  0.1169918E+00
         21   -1    0    0  501  502  0.00000000000E+00  0.00000000000E+00  0.33553336922E+02  0.33553336922E+02  0.00000000000E+00 0.  1.
         21   -1    0    0  502  503 -0.00000000000E+00 -0.00000000000E+00 -0.14995251173E+04  0.14995251173E+04  0.00000000000E+00 0.  1.
          6    1    1    2  501    0  0.18092418984E+02 -0.41387785078E+02 -0.26579772742E+03  0.31980105735E+03  0.17200000000E+03 0.  1.
         -6    1    1    2    0  503 -0.18092418984E+02  0.41387785078E+02 -0.12001740530E+04  0.12132773969E+04  0.17200000000E+03 0.  1.
</event>
<event>
 4    1  0.5739010E+000  0.1998367E+03  0.7818608E-02  0.1149877E+00
         21   -1    0    0  501  502  0.00000000000E+00  0.00000000000E+00  0.45730851656E+03  0.45730851656E+03  0.00000000000E+00 0.  1.
         21   -1    0    0  502  503 -0.00000000000E+00 -0.00000000000E+00 -0.97997185301E+02  0.97997185301E+02  0.00000000000E+00 0. -1.
          6    1    1    2  501    0  0.15730091425E+02  0.10051494102E+03  0.27128026643E+03  0.33693867706E+03  0.17200000000E+03 0.  1.
         -6    1    1    2    0  503 -0.15730091425E+02 -0.10051494102E+03  0.88031064823E+02  0.21836702480E+03  0.17200000000E+03 0. -1.
</event>
<event>
 4    1  0.5739010E+000  0.1787779E+03  0.7818608E-02  0.1168991E+00
         21   -1    0    0  501  502  0.00000000000E+00  0.00000000000E+00  0.99467836539E+03  0.99467836539E+03  0.00000000000E+00 0. -1.
         21   -1    0    0  502  503 -0.00000000000E+00 -0.00000000000E+00 -0.12500110124E+03  0.12500110124E+03  0.00000000000E+00 0. -1.
          6    1    1    2  501    0  0.48298347714E+02 -0.66932418847E+01  0.91738737292E+03  0.93464491754E+03  0.17200000000E+03 0. -1.
         -6    1    1    2    0  503 -0.48298347714E+02  0.66932418847E+01 -0.47710108779E+02  0.18503454909E+03  0.17200000000E+03 0. -1.
</event>
<event>
 4    1  0.5739010E+000  0.2325383E+03  0.7818608E-02  0.1124866E+00
         21   -1    0    0  501  502  0.00000000000E+00  0.00000000000E+00  0.18742789976E+03  0.18742789976E+03  0.00000000000E+00 0.  1.
         21   -1    0    0  502  503 -0.00000000000E+00 -0.00000000000E+00 -0.41531780645E+03  0.41531780645E+03  0.00000000000E+00 0. -1.
          6    1    1    2  501    0 -0.14225133936E+03  0.65227587590E+02  0.52585484742E+02  0.23840997240E+03  0.17200000000E+03 0.  1.
         -6    1    1    2    0  503  0.14225133936E+03 -0.65227587590E+02 -0.28047539143E+03  0.36433573381E+03  0.17200000000E+03 0. -1.
</event>
<event>
 4    1  0.5739010E+000  0.2066773E+03  0.7818608E-02  0.1144225E+00
         21   -1    0    0  503  502  0.00000000000E+00  0.00000000000E+00  0.92081909680E+03  0.92081909680E+03  0.00000000000E+00 0.  1.
         21   -1    0    0  501  503 -0.00000000000E+00 -0.00000000000E+00 -0.80414276553E+02  0.80414276553E+02  0.00000000000E+00 0. -1.
          6    1    1    2  501    0 -0.98575419739E+02 -0.58432809261E+02  0.94559114211E+02  0.22728161530E+03  0.17200000000E+03 0. -1.
         -6    1    1    2    0  502  0.98575419739E+02  0.58432809261E+02  0.74584570603E+03  0.77395175805E+03  0.17200000000E+03 0. -1.
</event>
<event>
 4    1  0.5739010E+000  0.1725330E+03  0.7818608E-02  0.1175232E+00
         21   -1    0    0  501  502  0.00000000000E+00  0.00000000000E+00  0.39613947783E+03  0.39613947783E+03  0.00000000000E+00 0. -1.
         21   -1    0    0  502  503 -0.00000000000E+00 -0.00000000000E+00 -0.79289703970E+02  0.79289703970E+02  0.00000000000E+00 0. -1.
          6    1    1    2  501    0 -0.12229452914E+02 -0.58362938468E+01  0.21277883869E+03  0.27393878155E+03  0.17200000000E+03 0.  1.
         -6    1    1    2    0  503  0.12229452914E+02  0.58362938468E+01  0.10407093517E+03  0.20149040025E+03  0.17200000000E+03 0.  1.
</event>
<event>
 4    1  0.5739010E+000  0.2487209E+03  0.7818608E-02  0.1114116E+00
         21   -1    0    0  503  502  0.00000000000E+00  0.00000000000E+00  0.51711848608E+02  0.51711848608E+02  0.00000000000E+00 0. -1.
         21   -1    0    0  501  503 -0.00000000000E+00 -0.00000000000E+00 -0.20729204943E+04  0.20729204943E+04  0.00000000000E+00 0.  1.
          6    1    1    2  501    0 -0.15230698898E+03 -0.95292427080E+02 -0.17014359355E+04  0.17195192084E+04  0.17200000000E+03 0.  1.
         -6    1    1    2    0  502  0.15230698898E+03  0.95292427080E+02 -0.31977271024E+03  0.40511313453E+03  0.17200000000E+03 0. -1.
</event>
<event>
 4    1  0.5739010E+000  0.1886250E+03  0.7818608E-02  0.1159707E+00
         21   -1    0    0  503  502  0.00000000000E+00  0.00000000000E+00  0.32391631901E+03  0.32391631901E+03  0.00000000000E+00 0. -1.
         21   -1    0    0  501  503 -0.00000000000E+00 -0.00000000000E+00 -0.14032346271E+03  0.14032346271E+03  0.00000000000E+00 0. -1.
          6    1    1    2  501    0 -0.77429710554E+02 -0.15810715937E+00 -0.16389356314E+02  0.18933567037E+03  0.17200000000E+03 0. -1.
         -6    1    1    2    0  502  0.77429710554E+02  0.15810715937E+00  0.19998221261E+03  0.27490411135E+03  0.17200000000E+03 0. -1.
</event>
<event>
 4    1  0.5739010E+000  0.1969022E+03  0.7818608E-02  0.1152379E+00
         21   -1    0    0  503  502  0.00000000000E+00  0.00000000000E+00  0.47694520015E+02  0.47694520015E+02  0.00000000000E+00 0.  1.
         21   -1    0    0  501  503 -0.00000000000E+00 -0.00000000000E+00 -0.84912982753E+03  0.84912982753E+03  0.00000000000E+00 0.  1.
          6    1    1    2  501    0  0.63045025004E+02 -0.72192830735E+02 -0.49335223742E+03  0.53119385365E+03  0.17200000000E+03 0. -1.
         -6    1    1    2    0  502 -0.63045025004E+02  0.72192830735E+02 -0.30808307010E+03  0.36563049390E+03  0.17200000000E+03 0. -1.
</event>
<event>
 4    1  0.5739010E+000  0.1745950E+03  0.7818608E-02  0.1173139E+00
         21   -1    0    0  503  502  0.00000000000E+00  0.00000000000E+00  0.75134325481E+03  0.75134325481E+03  0.00000000000E+00 0.  1.
         21   -1    0    0  501  503 -0.00000000000E+00 -0.00000000000E+00 -0.11654313459E+03  0.11654313459E+03  0.00000000000E+00 0.  1.
          6    1    1    2  501    0 -0.27728964030E+02  0.11425070035E+02 -0.32959611258E+02  0.17767882160E+03  0.17200000000E+03 0.  1.
         -6    1    1    2    0  502  0.27728964030E+02 -0.11425070035E+02  0.66775973148E+03  0.69020756780E+03  0.17200000000E+03 0.  1.
</event>
<event>
 4    1  0.5739010E+000  0.1764564E+03  0.7818608E-02  0.1171277E+00
         21   -1    0    0  501  502  0.00000000000E+00  0.00000000000E+00  0.71952430694E+03  0.71952430694E+03  0.00000000000E+00 0.  1.
         21   -1    0    0  502  503 -0.00000000000E+00 -0.00000000000E+00 -0.72727604455E+02  0.72727604455E+02  0.00000000000E+00 0.  1.
          6    1    1    2  501    0  0.35172705569E+02  0.17768918697E+02  0.57548581930E+03  0.60193087801E+03  0.17200000000E+03 0.  1.
         -6    1    1    2    0  503 -0.35172705569E+02 -0.17768918697E+02  0.71310883190E+02  0.19032103339E+03  0.17200000000E+03 0.  1.
</event>
<event>
 4    1  0.5739010E+000  0.1938640E+03  0.7818608E-02  0.1155022E+00
         21   -1    0    0  503  502  0.00000000000E+00  0.00000000000E+00  0.33168461825E+03  0.33168461825E+03  0.00000000000E+00 0.  1.
         21   -1    0    0  501  503 -0.00000000000E+00 -0.00000000000E+00 -0.12190256167E+03  0.12190256167E+03  0.00000000000E+00 0. -1.
          6    1    1    2  501    0  0.87849675861E+02 -0.16783056047E+02  0.44679216691E+02  0.19894589446E+03  0.17200000000E+03 0. -1.
         -6    1    1    2    0  502 -0.87849675861E+02  0.16783056047E+02  0.16510283989E+03  0.25464128546E+03  0.17200000000E+03 0.  1.
</event>
<event>
 4    1  0.5739010E+000  0.2461289E+03  0.7818608E-02  0.1115776E+00
         21   -1    0    0  503  502  0.00000000000E+00  0.00000000000E+00  0.18518374346E+03  0.18518374346E+03  0.00000000000E+00 0.  1.
         21   -1    0    0  501  503 -0.00000000000E+00 -0.00000000000E+00 -0.41991322182E+03  0.41991322182E+03  0.00000000000E+00 0. -1.
          6    1    1    2  501    0 -0.13406608145E+03 -0.11411269980E+03 -0.25958012593E+03  0.35771673742E+03  0.17200000000E+03 0. -1.
         -6    1    1    2    0  502  0.13406608145E+03  0.11411269980E+03  0.24850647568E+02  0.24738022786E+03  0.17200000000E+03 0.  1.
</event>
<event>
 4    1  0.5739010E+000  0.1989643E+03  0.7818608E-02  0.1150616E+00
         21   -1    0    0  503  502  0.00000000000E+00  0.00000000000E+00  0.75800709238E+03  0.75800709238E+03  0.00000000000E+00 0. -1.
         21   -1    0    0  501  503 -0.00000000000E+00 -0.00000000000E+00 -0.56752918429E+02  0.56752918429E+02  0.00000000000E+00 0.  1.
          6    1    1    2  501    0 -0.88889251261E+02  0.45842257635E+02  0.23555717202E+03  0.30834070906E+03  0.17200000000E+03 0.  1.
         -6    1    1    2    0  502  0.88889251261E+02 -0.45842257635E+02  0.46569700194E+03  0.50641930175E+03  0.17200000000E+03 0.  1.
</event>
<event>
 4    1  0.5739010E+000  0.2982152E+03  0.7818608E-02  0.1086136E+00
         21   -1    0    0  503  502  0.00000000000E+00  0.00000000000E+00  0.73708843623E+03  0.73708843623E+03  0.00000000000E+00 0.  1.
         21   -1    0    0  501  503 -0.00000000000E+00 -0.00000000000E+00 -0.21736760905E+03  0.21736760905E+03  0.00000000000E+00 0. -1.
          6    1    1    2  501    0 -0.53206532324E+02 -0.23773384878E+03 -0.58466519540E+02  0.30389250047E+03  0.17200000000E+03 0. -1.
         -6    1    1    2    0  502  0.53206532324E+02  0.23773384878E+03  0.57818734671E+03  0.65056354481E+03  0.17200000000E+03 0.  1.
</event>
<event>
 4    1  0.5739010E+000  0.1890568E+03  0.7818608E-02  0.1159315E+00
         21   -1    0    0  503  502  0.00000000000E+00  0.00000000000E+00  0.39128711559E+02  0.39128711559E+02  0.00000000000E+00 0. -1.
         21   -1    0    0  501  503 -0.00000000000E+00 -0.00000000000E+00 -0.91713378048E+03  0.91713378048E+03  0.00000000000E+00 0. -1.
          6    1    1    2  501    0  0.22905796899E+01 -0.78442609772E+02 -0.40873881938E+03  0.45034421530E+03  0.17200000000E+03 0. -1.
         -6    1    1    2    0  502 -0.22905796899E+01  0.78442609772E+02 -0.46926624953E+03  0.50591827674E+03  0.17200000000E+03 0. -1.
</event>
<event>
 4    1  0.5739010E+000  0.2065626E+03  0.7818608E-02  0.1144317E+00
         21   -1    0    0  501  502  0.00000000000E+00  0.00000000000E+00  0.14603431387E+03  0.14603431387E+03  0.00000000000E+00 0. -1.
         21   -1    0    0  502  503 -0.00000000000E+00 -0.00000000000E+00 -0.29955914532E+03  0.29955914532E+03  0.00000000000E+00 0. -1.
          6    1    1    2  501    0 -0.11043325491E+03  0.29809203259E+02 -0.41790972364E+02  0.21074766371E+03  0.17200000000E+03 0.  1.
         -6    1    1    2    0  503  0.11043325491E+03 -0.29809203259E+02 -0.11173385908E+03  0.23484579548E+03  0.17200000000E+03 0.  1.
</event>
<event>
 4    1  0.5739010E+000  0.1790671E+03  0.7818608E-02  0.1168709E+00
         21   -1    0    0  503  502  0.00000000000E+00  0.00000000000E+00  0.26838539771E+03  0.26838539771E+03  0.00000000000E+00 0.  1.
         21   -1    0    0  501  503 -0.00000000000E+00 -0.00000000000E+00 -0.17567332466E+03  0.17567332466E+03  0.00000000000E+00 0.  1.
          6    1    1    2  501    0 -0.45806457506E+02 -0.19565510068E+02 -0.79224857262E+02  0.19581015996E+03  0.17200000000E+03 0.  1.
         -6    1    1    2    0  502  0.45806457506E+02  0.19565510068E+02  0.17193693032E+03  0.24824856241E+03  0.17200000000E+03 0.  1.
</event>
<event>
 4    1  0.5739010E+000  0.2840298E+03  0.7818608E-02  0.1093508E+00
         21   -1    0    0  501  502  0.00000000000E+00  0.00000000000E+00  0.68902775958E+03  0.68902775958E+03  0.00000000000E+00 0. -1.
         21   -1    0    0  502  503 -0.00000000000E+00 -0.00000000000E+00 -0.11839303267E+03  0.11839303267E+03  0.00000000000E+00 0. -1.
          6    1    1    2  501    0  0.10185151419E+03  0.20178013310E+03  0.32779539233E+03  0.43373122125E+03  0.17200000000E+03 0. -1.
         -6    1    1    2    0  503 -0.10185151419E+03 -0.20178013310E+03  0.24283933457E+03  0.37368957099E+03  0.17200000000E+03 0. -1.
</event>
<event>
 4    1  0.5739010E+000  0.3769870E+03  0.7818608E-02  0.1052053E+00
         21   -1    0    0  503  502  0.00000000000E+00  0.00000000000E+00  0.18800032387E+04  0.18800032387E+04  0.00000000000E+00 0.  1.
         21   -1    0    0  501  503 -0.00000000000E+00 -0.00000000000E+00 -0.10470759021E+03  0.10470759021E+03  0.00000000000E+00 0. -1.
          6    1    1    2  501    0 -0.33441567496E+03  0.26482486931E+02  0.36438809566E+03  0.52430701887E+03  0.17200000000E+03 0. -1.
         -6    1    1    2    0  502  0.33441567496E+03 -0.26482486931E+02  0.14109075529E+04  0.14604038101E+04  0.17200000000E+03 0.  1.
</event>
<event>
 4    1  0.5739010E+000  0.2024638E+03  0.7818608E-02  0.1147677E+00
         21   -1    0    0  503  502  0.00000000000E+00  0.00000000000E+00  0.89020162269E+03  0.89020162269E+03  0.00000000000E+00 0. -1.
         21   -1    0    0  501  503 -0.00000000000E+00 -0.00000000000E+00 -0.47831442014E+02  0.47831442014E+02  0.00000000000E+00 0. -1.
          6    1    1    2  501    0  0.48736586548E+02  0.95038684284E+02  0.51176154821E+03  0.55035578366E+03  0.17200000000E+03 0. -1.
         -6    1    1    2    0  502 -0.48736586548E+02 -0.95038684284E+02  0.33060863247E+03  0.38767728105E+03  0.17200000000E+03 0. -1.
</event>
<event>
 4    1  0.5739010E+000  0.1937250E+03  0.7818608E-02  0.1155144E+00
         21   -1    0    0  503  502  0.00000000000E+00  0.00000000000E+00  0.11030767963E+04  0.11030767963E+04  0.00000000000E+00 0. -1.
         21   -1    0    0  501  503 -0.00000000000E+00 -0.00000000000E+00 -0.35611539414E+02  0.35611539414E+02  0.00000000000E+00 0. -1.
          6    1    1    2  501    0 -0.76094901080E+02 -0.46421234374E+02  0.41346328769E+03  0.45659747616E+03  0.17200000000E+03 0. -1.
         -6    1    1    2    0  502  0.76094901080E+02  0.46421234374E+02  0.65400196921E+03  0.68209085956E+03  0.17200000000E+03 0. -1.
</event>
<event>
 4    1  0.5739010E+000  0.1963650E+03  0.7818608E-02  0.1152843E+00
         21   -1    0    0  501  502  0.00000000000E+00  0.00000000000E+00  0.86743458985E+02  0.86743458985E+02  0.00000000000E+00 0.  1.
         21   -1    0    0  502  503 -0.00000000000E+00 -0.00000000000E+00 -0.44524060673E+03  0.44524060673E+03  0.00000000000E+00 0.  1.
          6    1    1    2  501    0  0.59416518599E+02  0.73789620753E+02 -0.16855010488E+03  0.25878247365E+03  0.17200000000E+03 0.  1.
         -6    1    1    2    0  503 -0.59416518599E+02 -0.73789620753E+02 -0.18994704286E+03  0.27320159206E+03  0.17200000000E+03 0.  1.
</event>
<event>
 4    1  0.5739010E+000  0.2271927E+03  0.7818608E-02  0.1128631E+00
         21   -1    0    0  501  502  0.00000000000E+00  0.00000000000E+00  0.97326750045E+03  0.97326750045E+03  0.00000000000E+00 0. -1.
         21   -1    0    0  502  503 -0.00000000000E+00 -0.00000000000E+00 -0.86746711757E+02  0.86746711757E+02  0.00000000000E+00 0.  1.
          6    1    1    2  501    0 -0.13758752915E+03  0.55697151252E+02  0.77366834456E+03  0.80633690739E+03  0.17200000000E+03 0. -1.
         -6    1    1    2    0  503  0.13758752915E+03 -0.55697151252E+02  0.11285244413E+03  0.25367730482E+03  0.17200000000E+03 0.  1.
</event>
<event>
 4    1  0.5739010E+000  0.1798244E+03  0.7818608E-02  0.1167973E+00
         21   -1    0    0  503  502  0.00000000000E+00  0.00000000000E+00  0.38802863922E+03  0.38802863922E+03  0.00000000000E+00 0. -1.
         21   -1    0    0  501  503 -0.00000000000E+00 -0.00000000000E+00 -0.14737058914E+03  0.14737058914E+03  0.00000000000E+00 0. -1.
          6    1    1    2  501    0 -0.17880313781E+02  0.49326576397E+02 -0.56132125506E+02  0.18838161342E+03  0.17200000000E+03 0. -1.
         -6    1    1    2    0  502  0.17880313781E+02 -0.49326576397E+02  0.29679017558E+03  0.34701761495E+03  0.17200000000E+03 0. -1.
</event>
<event>
 4    1  0.5739010E+000  0.1816835E+03  0.7818608E-02  0.1166184E+00
         21   -1    0    0  503  502  0.00000000000E+00  0.00000000000E+00  0.40955609828E+02  0.40955609828E+02  0.00000000000E+00 0.  1.
         21   -1    0    0  501  503 -0.00000000000E+00 -0.00000000000E+00 -0.90314719214E+03  0.90314719214E+03  0.00000000000E+00 0.  1.
          6    1    1    2  501    0 -0.14647146414E+02 -0.56660018132E+02 -0.58594088518E+03  0.61346199351E+03  0.17200000000E+03 0. -1.
         -6    1    1    2    0  502  0.14647146414E+02  0.56660018132E+02 -0.27625069713E+03  0.33064080846E+03  0.17200000000E+03 0. -1.
</event>
<event>
 4    1  0.5739010E+000  0.1782727E+03  0.7818608E-02  0.1169485E+00
         21   -1    0    0  501  502  0.00000000000E+00  0.00000000000E+00  0.19043590019E+04  0.19043590019E+04  0.00000000000E+00 0.  1.
         21   -1    0    0  502  503 -0.00000000000E+00 -0.00000000000E+00 -0.18404090377E+02  0.18404090377E+02  0.00000000000E+00 0.  1.
          6    1    1    2  501    0  0.91148768524E+01  0.45979049387E+02  0.12364910391E+04  0.12492762880E+04  0.17200000000E+03 0. -1.
         -6    1    1    2    0  503 -0.91148768524E+01 -0.45979049387E+02  0.64946387241E+03  0.67348680427E+03  0.17200000000E+03 0. -1.
</event>
<event>
 4    1  0.5739010E+000  0.1791561E+03  0.7818608E-02  0.1168622E+00
         21   -1    0    0  501  502  0.00000000000E+00  0.00000000000E+00  0.34969741652E+03  0.34969741652E+03  0.00000000000E+00 0. -1.
         21   -1    0    0  502  503 -0.00000000000E+00 -0.00000000000E+00 -0.13182498247E+03  0.13182498247E+03  0.00000000000E+00 0.  1.
          6    1    1    2  501    0  0.27744569889E+02  0.41750807749E+02  0.24162552053E+03  0.30079857592E+03  0.17200000000E+03 0. -1.
         -6    1    1    2    0  503 -0.27744569889E+02 -0.41750807749E+02 -0.23753086480E+02  0.18072382307E+03  0.17200000000E+03 0.  1.
</event>
<event>
 4    1  0.5739010E+000  0.3147095E+03  0.7818608E-02  0.1078110E+00
         21   -1    0    0  503  502  0.00000000000E+00  0.00000000000E+00  0.35024650169E+03  0.35024650169E+03  0.00000000000E+00 0.  1.
         21   -1    0    0  501  503 -0.00000000000E+00 -0.00000000000E+00 -0.40847143359E+03  0.40847143359E+03  0.00000000000E+00 0. -1.
          6    1    1    2  501    0  0.98053073268E+02  0.24462967970E+03  0.18132613696E+03  0.36320965476E+03  0.17200000000E+03 0.  1.
         -6    1    1    2    0  502 -0.98053073268E+02 -0.24462967970E+03 -0.23955106886E+03  0.39550828052E+03  0.17200000000E+03 0. -1.
</event>
<event>
 4    1  0.5739010E+000  0.2813891E+03  0.7818608E-02  0.1094933E+00
         21   -1    0    0  503  502  0.00000000000E+00  0.00000000000E+00  0.12972819148E+03  0.12972819148E+03  0.00000000000E+00 0.  1.
         21   -1    0    0  501  503 -0.00000000000E+00 -0.00000000000E+00 -0.61841047149E+03  0.61841047149E+03  0.00000000000E+00 0. -1.
          6    1    1    2  501    0 -0.11330571598E+03 -0.19172286842E+03 -0.20163958666E+03  0.34617678498E+03  0.17200000000E+03 0.  1.
         -6    1    1    2    0  502  0.11330571598E+03  0.19172286842E+03 -0.28704269336E+03  0.40196187799E+03  0.17200000000E+03 0. -1.
</event>
<event>
 4    1  0.5739010E+000  0.1853528E+03  0.7818608E-02  0.1162721E+00
         21   -1    0    0  503  502  0.00000000000E+00  0.00000000000E+00  0.25724413289E+03  0.25724413289E+03  0.00000000000E+00 0. -1.
         21   -1    0    0  501  503 -0.00000000000E+00 -0.00000000000E+00 -0.32075987545E+03  0.32075987545E+03  0.00000000000E+00 0.  1.
          6    1    1    2  501    0 -0.59928095438E+02 -0.34355497275E+02 -0.25254408621E+03  0.31326377431E+03  0.17200000000E+03 0.  1.
         -6    1    1    2    0  502  0.59928095438E+02  0.34355497275E+02  0.18902834364E+03  0.26474023403E+03  0.17200000000E+03 0. -1.
</event>
<event>
 4    1  0.5739010E+000  0.2041168E+03  0.7818608E-02  0.1146311E+00
         21   -1    0    0  503  502  0.00000000000E+00  0.00000000000E+00  0.74622633754E+02  0.74622633754E+02  0.00000000000E+00 0.  1.
         21   -1    0    0  501  503 -0.00000000000E+00 -0.00000000000E+00 -0.75229007234E+03  0.75229007234E+03  0.00000000000E+00 0.  1.
          6    1    1    2  501    0 -0.10930897696E+03 -0.11455669261E+02 -0.54877542840E+03  0.58550675113E+03  0.17200000000E+03 0.  1.
         -6    1    1    2    0  502  0.10930897696E+03  0.11455669261E+02 -0.12889201019E+03  0.24140595497E+03  0.17200000000E+03 0.  1.
</event>
<event>
 4    1  0.5739010E+000  0.1769826E+03  0.7818608E-02  0.1170756E+00
         21   -1    0    0  503  502  0.00000000000E+00  0.00000000000E+00  0.39313688567E+03  0.39313688567E+03  0.00000000000E+00 0. -1.
         21   -1    0    0  501  503 -0.00000000000E+00 -0.00000000000E+00 -0.17448471683E+03  0.17448471683E+03  0.00000000000E+00 0. -1.
          6    1    1    2  501    0 -0.37382893281E+02  0.18475571524E+02 -0.99882118936E+02  0.20322220631E+03  0.17200000000E+03 0. -1.
         -6    1    1    2    0  502  0.37382893281E+02 -0.18475571524E+02  0.31853428778E+03  0.36439939619E+03  0.17200000000E+03 0. -1.
</event>
<event>
 4    1  0.5739010E+000  0.2056598E+03  0.7818608E-02  0.1145050E+00
         21   -1    0    0  501  502  0.00000000000E+00  0.00000000000E+00  0.84899138970E+03  0.84899138970E+03  0.00000000000E+00 0. -1.
         21   -1    0    0  502  503 -0.00000000000E+00 -0.00000000000E+00 -0.52670879165E+02  0.52670879165E+02  0.00000000000E+00 0. -1.
          6    1    1    2  501    0 -0.20250658125E+02  0.11091384375E+03  0.50306329975E+03  0.54347829161E+03  0.17200000000E+03 0. -1.
         -6    1    1    2    0  503  0.20250658125E+02 -0.11091384375E+03  0.29325721078E+03  0.35818397726E+03  0.17200000000E+03 0. -1.
</event>
<event>
 4    1  0.5739010E+000  0.1848829E+03  0.7818608E-02  0.1163159E+00
         21   -1    0    0  501  502  0.00000000000E+00  0.00000000000E+00  0.16525756920E+04  0.16525756920E+04  0.00000000000E+00 0.  1.
         21   -1    0    0  502  503 -0.00000000000E+00 -0.00000000000E+00 -0.22993588830E+02  0.22993588830E+02  0.00000000000E+00 0. -1.
          6    1    1    2  501    0 -0.41566481331E+02 -0.53571579807E+02  0.10803170837E+04  0.10960231238E+04  0.17200000000E+03 0.  1.
         -6    1    1    2    0  503  0.41566481331E+02  0.53571579807E+02  0.54926501945E+03  0.57954615703E+03  0.17200000000E+03 0.  1.
</event>
<event>
 4    1  0.5739010E+000  0.3107027E+03  0.7818608E-02  0.1080010E+00
         21   -1    0    0  503  502  0.00000000000E+00  0.00000000000E+00  0.22969096663E+03  0.22969096663E+03  0.00000000000E+00 0.  1.
         21   -1    0    0  501  503 -0.00000000000E+00 -0.00000000000E+00 -0.63227394213E+03  0.63227394213E+03  0.00000000000E+00 0. -1.
          6    1    1    2  501    0 -0.21516697594E+03 -0.14371972373E+03 -0.45084359373E+03  0.54753642119E+03  0.17200000000E+03 0. -1.
         -6    1    1    2    0  502  0.21516697594E+03  0.14371972373E+03  0.48260618231E+02  0.31442848757E+03  0.17200000000E+03 0. -1.
</event>
<event>
 4    1  0.5739010E+000  0.2339783E+03  0.7818608E-02  0.1123871E+00
         21   -1    0    0  503  502  0.00000000000E+00  0.00000000000E+00  0.10089177668E+03  0.10089177668E+03  0.00000000000E+00 0. -1.
         21   -1    0    0  501  503 -0.00000000000E+00 -0.00000000000E+00 -0.61675540717E+03  0.61675540717E+03  0.00000000000E+00 0. -1.
          6    1    1    2  501    0 -0.11727200803E+03  0.10681350331E+03 -0.38233706980E+03  0.44824935393E+03  0.17200000000E+03 0. -1.
         -6    1    1    2    0  502  0.11727200803E+03 -0.10681350331E+03 -0.13352656069E+03  0.26939782992E+03  0.17200000000E+03 0. -1.
</event>
<event>
 4    1  0.5739010E+000  0.1943938E+03  0.7818608E-02  0.1154557E+00
         21   -1    0    0  503  502  0.00000000000E+00  0.00000000000E+00  0.12046891650E+04  0.12046891650E+04  0.00000000000E+00 0. -1.
         21   -1    0    0  501  503 -0.00000000000E+00 -0.00000000000E+00 -0.32533926660E+02  0.32533926660E+02  0.00000000000E+00 0. -1.
          6    1    1    2  501    0  0.43725712003E+02  0.79328413690E+02  0.46898016394E+03  0.50767246259E+03  0.17200000000E+03 0. -1.
         -6    1    1    2    0  502 -0.43725712003E+02 -0.79328413690E+02  0.70317507438E+03  0.72955062904E+03  0.17200000000E+03 0. -1.
</event>
<event>
 4    1  0.5739010E+000  0.2056892E+03  0.7818608E-02  0.1145026E+00
         21   -1    0    0  501  502  0.00000000000E+00  0.00000000000E+00  0.38618635892E+03  0.38618635892E+03  0.00000000000E+00 0. -1.
         21   -1    0    0  502  503 -0.00000000000E+00 -0.00000000000E+00 -0.15686546313E+03  0.15686546313E+03  0.00000000000E+00 0. -1.
          6    1    1    2  501    0  0.66727435038E+02 -0.90947791233E+02  0.26377955188E+03  0.33449619326E+03  0.17200000000E+03 0.  1.
         -6    1    1    2    0  503 -0.66727435038E+02  0.90947791233E+02 -0.34458656087E+02  0.20855562878E+03  0.17200000000E+03 0.  1.
</event>
<event>
 4    1  0.5739010E+000  0.2815153E+03  0.7818608E-02  0.1094864E+00
         21   -1    0    0  503  502  0.00000000000E+00  0.00000000000E+00  0.10353874392E+04  0.10353874392E+04  0.00000000000E+00 0. -1.
         21   -1    0    0  501  503 -0.00000000000E+00 -0.00000000000E+00 -0.77424445064E+02  0.77424445064E+02  0.00000000000E+00 0.  1.
          6    1    1    2  501    0  0.16600483860E+03  0.14869179802E+03  0.41958765301E+03  0.50527681106E+03  0.17200000000E+03 0. -1.
         -6    1    1    2    0  502 -0.16600483860E+03 -0.14869179802E+03  0.53837534109E+03  0.60753507317E+03  0.17200000000E+03 0.  1.
</event>
<event>
 4    1  0.5739010E+000  0.1860215E+03  0.7818608E-02  0.1162099E+00
         21   -1    0    0  501  502  0.00000000000E+00  0.00000000000E+00  0.14090303477E+03  0.14090303477E+03  0.00000000000E+00 0.  1.
         21   -1    0    0  502  503 -0.00000000000E+00 -0.00000000000E+00 -0.25127741016E+03  0.25127741016E+03  0.00000000000E+00 0. -1.
          6    1    1    2  501    0 -0.68282438118E+02 -0.18908015625E+02 -0.25679359900E+02  0.18778560630E+03  0.17200000000E+03 0.  1.
         -6    1    1    2    0  503  0.68282438118E+02  0.18908015625E+02 -0.84695015484E+02  0.20439483863E+03  0.17200000000E+03 0. -1.
</event>
<event>
 4    1  0.5739010E+000  0.2005184E+03  0.7818608E-02  0.1149302E+00
         21   -1    0    0  503  502  0.00000000000E+00  0.00000000000E+00  0.13162402403E+04  0.13162402403E+04  0.00000000000E+00 0.  1.
         21   -1    0    0  501  503 -0.00000000000E+00 -0.00000000000E+00 -0.31960170044E+02  0.31960170044E+02  0.00000000000E+00 0. -1.
          6    1    1    2  501    0  0.79102812978E+02 -0.66078577473E+02  0.50040884603E+03  0.53908871868E+03  0.17200000000E+03 0. -1.
         -6    1    1    2    0  502 -0.79102812978E+02  0.66078577473E+02  0.78387122427E+03  0.80911169171E+03  0.17200000000E+03 0.  1.
</event>
<event>
 4    1  0.5739010E+000  0.1737741E+03  0.7818608E-02  0.1173968E+00
         21   -1    0    0  501  502  0.00000000000E+00  0.00000000000E+00  0.16625918567E+02  0.16625918567E+02  0.00000000000E+00 0.  1.
         21   -1    0    0  502  503 -0.00000000000E+00 -0.00000000000E+00 -0.19732290286E+04  0.19732290286E+04  0.00000000000E+00 0.  1.
          6    1    1    2  501    0  0.20911995327E+02  0.13271017870E+02 -0.69771103323E+03  0.71902581133E+03  0.17200000000E+03 0.  1.
         -6    1    1    2    0  503 -0.20911995327E+02 -0.13271017870E+02 -0.12588920768E+04  0.12708291359E+04  0.17200000000E+03 0.  1.
</event>
<event>
 4    1  0.5739010E+000  0.2237274E+03  0.7818608E-02  0.1131134E+00
         21   -1    0    0  503  502  0.00000000000E+00  0.00000000000E+00  0.84241026851E+02  0.84241026851E+02  0.00000000000E+00 0. -1.
         21   -1    0    0  501  503 -0.00000000000E+00 -0.00000000000E+00 -0.65685315399E+03  0.65685315399E+03  0.00000000000E+00 0. -1.
          6    1    1    2  501    0 -0.55352371789E+01 -0.14296613453E+03 -0.40076919416E+03  0.45898790993E+03  0.17200000000E+03 0. -1.
         -6    1    1    2    0  502  0.55352371789E+01  0.14296613453E+03 -0.17184293297E+03  0.28210627091E+03  0.17200000000E+03 0. -1.
</event>
<event>
 4    1  0.5739010E+000  0.2119021E+03  0.7818608E-02  0.1140069E+00
         21   -1    0    0  503  502  0.00000000000E+00  0.00000000000E+00  0.30764449388E+02  0.30764449388E+02  0.00000000000E+00 0. -1.
         21   -1    0    0  501  503 -0.00000000000E+00 -0.00000000000E+00 -0.15779406877E+04  0.15779406877E+04  0.00000000000E+00 0. -1.
          6    1    1    2  501    0 -0.84207559513E+02 -0.90706111983E+02 -0.55327294909E+03  0.59246389597E+03  0.17200000000E+03 0. -1.
         -6    1    1    2    0  502  0.84207559513E+02  0.90706111983E+02 -0.99390328924E+03  0.10162412411E+04  0.17200000000E+03 0. -1.
</event>
<event>
 4    1  0.5739010E+000  0.2010929E+03  0.7818608E-02  0.1148820E+00
         21   -1    0    0  501  502  0.00000000000E+00  0.00000000000E+00  0.10111804475E+04  0.10111804475E+04  0.00000000000E+00 0.  1.
         21   -1    0    0  502  503 -0.00000000000E+00 -0.00000000000E+00 -0.60041627484E+02  0.60041627484E+02  0.00000000000E+00 0. -1.
          6    1    1    2  501    0 -0.51675760554E+02  0.90465384026E+02  0.78508645349E+03  0.81043143410E+03  0.17200000000E+03 0.  1.
         -6    1    1    2    0  503  0.51675760554E+02 -0.90465384026E+02  0.16605236651E+03  0.26079064086E+03  0.17200000000E+03 0. -1.
</event>
<event>
 4    1  0.5739010E+000  0.2294269E+03  0.7818608E-02  0.1127044E+00
         21   -1    0    0  503  502  0.00000000000E+00  0.00000000000E+00  0.10832951413E+03  0.10832951413E+03  0.00000000000E+00 0.  1.
         21   -1    0    0  501  503 -0.00000000000E+00 -0.00000000000E+00 -0.55790233672E+03  0.55790233672E+03  0.00000000000E+00 0. -1.
          6    1    1    2  501    0  0.14979990503E+03 -0.24752381273E+02 -0.34446234725E+03  0.41387316970E+03  0.17200000000E+03 0. -1.
         -6    1    1    2    0  502 -0.14979990503E+03  0.24752381273E+02 -0.10511047535E+03  0.25235868115E+03  0.17200000000E+03 0.  1.
</event>
<event>
 4    1  0.5739010E+000  0.1927893E+03  0.7818608E-02  0.1155969E+00
         21   -1    0    0  503  502  0.00000000000E+00  0.00000000000E+00  0.15690919274E+04  0.15690919274E+04  0.00000000000E+00 0. -1.
         21   -1    0    0  501  503 -0.00000000000E+00 -0.00000000000E+00 -0.27985906103E+02  0.27985906103E+02  0.00000000000E+00 0. -1.
          6    1    1    2  501    0 -0.78782835625E+02 -0.37107514427E+02  0.45759552449E+03  0.49654946063E+03  0.17200000000E+03 0. -1.
         -6    1    1    2    0  502  0.78782835625E+02  0.37107514427E+02  0.10835104968E+04  0.11005283729E+04  0.17200000000E+03 0. -1.
</event>
<event>
 4    1  0.5739010E+000  0.1872280E+03  0.7818608E-02  0.1160985E+00
         21   -1    0    0  503  502  0.00000000000E+00  0.00000000000E+00  0.10273853375E+04  0.10273853375E+04  0.00000000000E+00 0.  1.
         21   -1    0    0  501  503 -0.00000000000E+00 -0.00000000000E+00 -0.63746062493E+02  0.63746062493E+02  0.00000000000E+00 0. -1.
          6    1    1    2  501    0  0.62522698302E+02  0.39512637695E+02  0.10989263505E+03  0.21709612521E+03  0.17200000000E+03 0. -1.
         -6    1    1    2    0  502 -0.62522698302E+02 -0.39512637695E+02  0.85374663997E+03  0.87403527480E+03  0.17200000000E+03 0.  1.
</event>
<event>
 4    1  0.5739010E+000  0.3111661E+03  0.7818608E-02  0.1079788E+00
         21   -1    0    0  501  502  0.00000000000E+00  0.00000000000E+00  0.11698086294E+04  0.11698086294E+04  0.00000000000E+00 0. -1.
         21   -1    0    0  502  503 -0.00000000000E+00 -0.00000000000E+00 -0.87444674042E+02  0.87444674042E+02  0.00000000000E+00 0.  1.
          6    1    1    2  501    0  0.24243920992E+03 -0.91997670574E+02  0.39582686966E+03  0.50349106511E+03  0.17200000000E+03 0. -1.
         -6    1    1    2    0  503 -0.24243920992E+03  0.91997670574E+02  0.68653708566E+03  0.75376223830E+03  0.17200000000E+03 0.  1.
</event>
<event>
 4    1  0.5739010E+000  0.1899542E+03  0.7818608E-02  0.1158503E+00
         21   -1    0    0  503  502  0.00000000000E+00  0.00000000000E+00  0.18308805075E+03  0.18308805075E+03  0.00000000000E+00 0.  1.
         21   -1    0    0  501  503 -0.00000000000E+00 -0.00000000000E+00 -0.22910240085E+03  0.22910240085E+03  0.00000000000E+00 0.  1.
          6    1    1    2  501    0  0.43777932578E+02  0.67691029753E+02  0.54046835229E+02  0.19749340062E+03  0.17200000000E+03 0.  1.
         -6    1    1    2    0  502 -0.43777932578E+02 -0.67691029753E+02 -0.10006118533E+03  0.21469705098E+03  0.17200000000E+03 0.  1.
</event>
<event>
 4    1  0.5739010E+000  0.1777031E+03  0.7818608E-02  0.1170045E+00
         21   -1    0    0  503  502  0.00000000000E+00  0.00000000000E+00  0.19365369794E+03  0.19365369794E+03  0.00000000000E+00 0. -1.
         21   -1    0    0  501  503 -0.00000000000E+00 -0.00000000000E+00 -0.23112442510E+03  0.23112442510E+03  0.00000000000E+00 0. -1.
          6    1    1    2  501    0  0.15816396571E+01  0.44630744358E+02 -0.13398750446E+03  0.22255573746E+03  0.17200000000E+03 0. -1.
         -6    1    1    2    0  502 -0.15816396571E+01 -0.44630744358E+02  0.96516777307E+02  0.20222238558E+03  0.17200000000E+03 0. -1.
</event>
<event>
 4    1  0.5739010E+000  0.2598202E+03  0.7818608E-02  0.1107251E+00
         21   -1    0    0  501  502  0.00000000000E+00  0.00000000000E+00  0.23120301459E+03  0.23120301459E+03  0.00000000000E+00 0. -1.
         21   -1    0    0  502  503 -0.00000000000E+00 -0.00000000000E+00 -0.45407964347E+03  0.45407964347E+03  0.00000000000E+00 0. -1.
          6    1    1    2  501    0 -0.14175435773E+03 -0.13352245990E+03  0.93284103495E+02  0.27605881475E+03  0.17200000000E+03 0. -1.
         -6    1    1    2    0  503  0.14175435773E+03  0.13352245990E+03 -0.31616073238E+03  0.40922384331E+03  0.17200000000E+03 0. -1.
</event>
<event>
 4    1  0.5739010E+000  0.2386967E+03  0.7818608E-02  0.1120664E+00
         21   -1    0    0  503  502  0.00000000000E+00  0.00000000000E+00  0.19337130824E+03  0.19337130824E+03  0.00000000000E+00 0. -1.
         21   -1    0    0  501  503 -0.00000000000E+00 -0.00000000000E+00 -0.92463635882E+03  0.92463635882E+03  0.00000000000E+00 0.  1.
          6    1    1    2  501    0 -0.13689317295E+03 -0.93018194782E+02 -0.82705227357E+03  0.86080868291E+03  0.17200000000E+03 0.  1.
         -6    1    1    2    0  502  0.13689317295E+03  0.93018194782E+02  0.95787222992E+02  0.25719898415E+03  0.17200000000E+03 0. -1.
</event>
<event>
 4    1  0.5739010E+000  0.2338491E+03  0.7818608E-02  0.1123960E+00
         21   -1    0    0  503  502  0.00000000000E+00  0.00000000000E+00  0.42640579313E+02  0.42640579313E+02  0.00000000000E+00 0.  1.
         21   -1    0    0  501  503 -0.00000000000E+00 -0.00000000000E+00 -0.13030913141E+04  0.13030913141E+04  0.00000000000E+00 0. -1.
          6    1    1    2  501    0 -0.91272568643E+02  0.12950185328E+03 -0.71486284881E+03  0.75213981706E+03  0.17200000000E+03 0. -1.
         -6    1    1    2    0  502  0.91272568643E+02 -0.12950185328E+03 -0.54558788598E+03  0.59359207636E+03  0.17200000000E+03 0. -1.
</event>
<event>
 4    1  0.5739010E+000  0.2165402E+03  0.7818608E-02  0.1136489E+00
         21   -1    0    0  501  502  0.00000000000E+00  0.00000000000E+00  0.25514764826E+03  0.25514764826E+03  0.00000000000E+00 0. -1.
         21   -1    0    0  502  503 -0.00000000000E+00 -0.00000000000E+00 -0.20484127444E+03  0.20484127444E+03  0.00000000000E+00 0. -1.
          6    1    1    2  501    0  0.21719158437E+01 -0.13153299785E+03  0.98910833207E+02  0.23806091588E+03  0.17200000000E+03 0.  1.
         -6    1    1    2    0  503 -0.21719158437E+01  0.13153299785E+03 -0.48604459379E+02  0.22192800683E+03  0.17200000000E+03 0.  1.
</event>
<event>
 4    1  0.5739010E+000  0.2404721E+03  0.7818608E-02  0.1119479E+00
         21   -1    0    0  501  502  0.00000000000E+00  0.00000000000E+00  0.64640272485E+03  0.64640272485E+03  0.00000000000E+00 0. -1.
         21   -1    0    0  502  503 -0.00000000000E+00 -0.00000000000E+00 -0.23974659122E+03  0.23974659122E+03  0.00000000000E+00 0. -1.
          6    1    1    2  501    0 -0.15875439345E+03 -0.55134875088E+02  0.55412973316E+03  0.60405841858E+03  0.17200000000E+03 0. -1.
         -6    1    1    2    0  503  0.15875439345E+03  0.55134875088E+02 -0.14747359952E+03  0.28209089749E+03  0.17200000000E+03 0. -1.
</event>
<event>
 4    1  0.5739010E+000  0.2331898E+03  0.7818608E-02  0.1124415E+00
         21   -1    0    0  503  502  0.00000000000E+00  0.00000000000E+00  0.65367842247E+02  0.65367842247E+02  0.00000000000E+00 0. -1.
         21   -1    0    0  501  503 -0.00000000000E+00 -0.00000000000E+00 -0.89360202355E+03  0.89360202355E+03  0.00000000000E+00 0.  1.
          6    1    1    2  501    0 -0.59805555873E+02 -0.14565975678E+03 -0.54014372234E+03  0.58833044290E+03  0.17200000000E+03 0.  1.
         -6    1    1    2    0  502  0.59805555873E+02  0.14565975678E+03 -0.28809045896E+03  0.37063942290E+03  0.17200000000E+03 0. -1.
</event>
<event>
 4    1  0.5739010E+000  0.1795877E+03  0.7818608E-02  0.1168203E+00
         21   -1    0    0  503  502  0.00000000000E+00  0.00000000000E+00  0.71473929978E+03  0.71473929978E+03  0.00000000000E+00 0.  1.
         21   -1    0    0  501  503 -0.00000000000E+00 -0.00000000000E+00 -0.57523820850E+02  0.57523820850E+02  0.00000000000E+00 0.  1.
          6    1    1    2  501    0 -0.86632733961E+01  0.50918303118E+02  0.14933126030E+03  0.23356273505E+03  0.17200000000E+03 0.  1.
         -6    1    1    2    0  502  0.86632733961E+01 -0.50918303118E+02  0.50788421863E+03  0.53870038558E+03  0.17200000000E+03 0.  1.
</event>
<event>
 4    1  0.5739010E+000  0.1804693E+03  0.7818608E-02  0.1167350E+00
         21   -1    0    0  501  502  0.00000000000E+00  0.00000000000E+00  0.35854764837E+03  0.35854764837E+03  0.00000000000E+00 0. -1.
         21   -1    0    0  502  503 -0.00000000000E+00 -0.00000000000E+00 -0.16488606585E+03  0.16488606585E+03  0.00000000000E+00 0. -1.
          6    1    1    2  501    0 -0.33708234439E+02 -0.42998940463E+02  0.27221943243E+03  0.32660767496E+03  0.17200000000E+03 0. -1.
         -6    1    1    2    0  503  0.33708234439E+02  0.42998940463E+02 -0.78557849908E+02  0.19682603926E+03  0.17200000000E+03 0. -1.
</event>
<event>
 4    1  0.5739010E+000  0.2133754E+03  0.7818608E-02  0.1138921E+00
         21   -1    0    0  503  502  0.00000000000E+00  0.00000000000E+00  0.69385970588E+02  0.69385970588E+02  0.00000000000E+00 0.  1.
         21   -1    0    0  501  503 -0.00000000000E+00 -0.00000000000E+00 -0.70273823294E+03  0.70273823294E+03  0.00000000000E+00 0. -1.
          6    1    1    2  501    0  0.12619623078E+03  0.44255153779E+01 -0.21729595101E+03  0.30454327143E+03  0.17200000000E+03 0.  1.
         -6    1    1    2    0  502 -0.12619623078E+03 -0.44255153779E+01 -0.41605631134E+03  0.46758093209E+03  0.17200000000E+03 0. -1.
</event>
<event>
 4    1  0.5739010E+000  0.1795336E+03  0.7818608E-02  0.1168255E+00
         21   -1    0    0  503  502  0.00000000000E+00  0.00000000000E+00  0.57357597195E+03  0.57357597195E+03  0.00000000000E+00 0.  1.
         21   -1    0    0  501  503 -0.00000000000E+00 -0.00000000000E+00 -0.23006398138E+03  0.23006398138E+03  0.00000000000E+00 0.  1.
          6    1    1    2  501    0  0.15569227706E+02 -0.49050216856E+02 -0.17755944141E+03  0.25250679171E+03  0.17200000000E+03 0.  1.
         -6    1    1    2    0  502 -0.15569227706E+02  0.49050216856E+02  0.52107143198E+03  0.55113316163E+03  0.17200000000E+03 0.  1.
</event>
<event>
 4    1  0.5739010E+000  0.1804606E+03  0.7818608E-02  0.1167358E+00
         21   -1    0    0  503  502  0.00000000000E+00  0.00000000000E+00  0.56472994188E+02  0.56472994188E+02  0.00000000000E+00 0. -1.
         21   -1    0    0  501  503 -0.00000000000E+00 -0.00000000000E+00 -0.57726113185E+03  0.57726113185E+03  0.00000000000E+00 0. -1.
          6    1    1    2  501    0 -0.25332953553E+00 -0.54607369806E+02 -0.25021589943E+03  0.30850287736E+03  0.17200000000E+03 0.  1.
         -6    1    1    2    0  502  0.25332953553E+00  0.54607369806E+02 -0.27057223823E+03  0.32523124868E+03  0.17200000000E+03 0.  1.
</event>
<event>
 4    1  0.5739010E+000  0.2053805E+03  0.7818608E-02  0.1145277E+00
         21   -1    0    0  503  502  0.00000000000E+00  0.00000000000E+00  0.17692426705E+03  0.17692426705E+03  0.00000000000E+00 0. -1.
         21   -1    0    0  501  503 -0.00000000000E+00 -0.00000000000E+00 -0.26698089273E+03  0.26698089273E+03  0.00000000000E+00 0. -1.
          6    1    1    2  501    0 -0.53696753141E+02 -0.98558706768E+02 -0.11763126539E+03  0.23668180026E+03  0.17200000000E+03 0. -1.
         -6    1    1    2    0  502  0.53696753141E+02  0.98558706768E+02  0.27574639703E+02  0.20722335952E+03  0.17200000000E+03 0. -1.
</event>
<event>
 4    1  0.5739010E+000  0.2190650E+03  0.7818608E-02  0.1134582E+00
         21   -1    0    0  503  502  0.00000000000E+00  0.00000000000E+00  0.14867496267E+04  0.14867496267E+04  0.00000000000E+00 0. -1.
         21   -1    0    0  501  503 -0.00000000000E+00 -0.00000000000E+00 -0.11521443734E+03  0.11521443734E+03  0.00000000000E+00 0. -1.
          6    1    1    2  501    0  0.12497097957E+03  0.52798845389E+02  0.61858102786E+01  0.21915229421E+03  0.17200000000E+03 0. -1.
         -6    1    1    2    0  502 -0.12497097957E+03 -0.52798845389E+02  0.13653493791E+04  0.13828117698E+04  0.17200000000E+03 0. -1.
</event>
<event>
 4    1  0.5739010E+000  0.1769158E+03  0.7818608E-02  0.1170822E+00
         21   -1    0    0  501  502  0.00000000000E+00  0.00000000000E+00  0.11068838210E+03  0.11068838210E+03  0.00000000000E+00 0.  1.
         21   -1    0    0  502  503 -0.00000000000E+00 -0.00000000000E+00 -0.28796664758E+03  0.28796664758E+03  0.00000000000E+00 0.  1.
          6    1    1    2  501    0 -0.35367292146E+02  0.21548506172E+02 -0.11541984252E+03  0.21123665288E+03  0.17200000000E+03 0.  1.
         -6    1    1    2    0  503  0.35367292146E+02 -0.21548506172E+02 -0.61858422964E+02  0.18741837680E+03  0.17200000000E+03 0.  1.
</event>
<event>
 4    1  0.5739010E+000  0.2826306E+03  0.7818608E-02  0.1094261E+00
         21   -1    0    0  501  502  0.00000000000E+00  0.00000000000E+00  0.20092311544E+04  0.20092311544E+04  0.00000000000E+00 0.  1.
         21   -1    0    0  502  503 -0.00000000000E+00 -0.00000000000E+00 -0.51825717922E+02  0.51825717922E+02  0.00000000000E+00 0. -1.
          6    1    1    2  501    0 -0.21647938224E+03  0.58589317538E+02  0.14760120270E+04  0.15028278461E+04  0.17200000000E+03 0.  1.
         -6    1    1    2    0  503  0.21647938224E+03 -0.58589317538E+02  0.48139340946E+03  0.55822902623E+03  0.17200000000E+03 0. -1.
</event>
<event>
 4    1  0.5739010E+000  0.1951247E+03  0.7818608E-02  0.1153919E+00
         21   -1    0    0  503  502  0.00000000000E+00  0.00000000000E+00  0.42336097604E+02  0.42336097604E+02  0.00000000000E+00 0. -1.
         21   -1    0    0  501  503 -0.00000000000E+00 -0.00000000000E+00 -0.10813059735E+04  0.10813059735E+04  0.00000000000E+00 0. -1.
          6    1    1    2  501    0 -0.89987511154E+00  0.92134820206E+02 -0.74997089428E+03  0.77493869250E+03  0.17200000000E+03 0. -1.
         -6    1    1    2    0  502  0.89987511154E+00 -0.92134820206E+02 -0.28899898158E+03  0.34870337857E+03  0.17200000000E+03 0. -1.
</event>
<event>
 4    1  0.5739010E+000  0.1729450E+03  0.7818608E-02  0.1174811E+00
         21   -1    0    0  503  502  0.00000000000E+00  0.00000000000E+00  0.92012274067E+03  0.92012274067E+03  0.00000000000E+00 0.  1.
         21   -1    0    0  501  503 -0.00000000000E+00 -0.00000000000E+00 -0.39658237267E+02  0.39658237267E+02  0.00000000000E+00 0.  1.
          6    1    1    2  501    0 -0.91733947410E+01 -0.15550488649E+02  0.23644301247E+03  0.29294242952E+03  0.17200000000E+03 0.  1.
         -6    1    1    2    0  502  0.91733947410E+01  0.15550488649E+02  0.64402149093E+03  0.66683854842E+03  0.17200000000E+03 0.  1.
</event>
<event>
 4    1  0.5739010E+000  0.1932560E+03  0.7818608E-02  0.1155557E+00
         21   -1    0    0  501  502  0.00000000000E+00  0.00000000000E+00  0.16599732333E+02  0.16599732333E+02  0.00000000000E+00 0.  1.
         21   -1    0    0  502  503 -0.00000000000E+00 -0.00000000000E+00 -0.24244776511E+04  0.24244776511E+04  0.00000000000E+00 0.  1.
          6    1    1    2  501    0  0.88112447049E+02 -0.30778058079E+00 -0.15314491151E+04  0.15435946003E+04  0.17200000000E+03 0.  1.
         -6    1    1    2    0  503 -0.88112447049E+02  0.30778058079E+00 -0.87642880366E+03  0.89748278309E+03  0.17200000000E+03 0.  1.
</event>
<event>
 4    1  0.5739010E+000  0.1814509E+03  0.7818608E-02  0.1166406E+00
         21   -1    0    0  503  502  0.00000000000E+00  0.00000000000E+00  0.62199987671E+02  0.62199987671E+02  0.00000000000E+00 0.  1.
         21   -1    0    0  501  503 -0.00000000000E+00 -0.00000000000E+00 -0.58177587972E+03  0.58177587972E+03  0.00000000000E+00 0.  1.
          6    1    1    2  501    0 -0.24231423283E+02 -0.52471624503E+02 -0.35646198304E+03  0.39998697304E+03  0.17200000000E+03 0.  1.
         -6    1    1    2    0  502  0.24231423283E+02  0.52471624503E+02 -0.16311390901E+03  0.24398889435E+03  0.17200000000E+03 0.  1.
</event>
<event>
 4    1  0.5739010E+000  0.1848857E+03  0.7818608E-02  0.1163157E+00
         21   -1    0    0  503  502  0.00000000000E+00  0.00000000000E+00  0.22676010015E+03  0.22676010015E+03  0.00000000000E+00 0. -1.
         21   -1    0    0  501  503 -0.00000000000E+00 -0.00000000000E+00 -0.18156776562E+03  0.18156776562E+03  0.00000000000E+00 0. -1.
          6    1    1    2  501    0  0.66029166326E+02 -0.15455198511E+02 -0.61524522241E+02  0.19485374208E+03  0.17200000000E+03 0.  1.
         -6    1    1    2    0  502 -0.66029166326E+02  0.15455198511E+02  0.10671685676E+03  0.21347412369E+03  0.17200000000E+03 0.  1.
</event>
<event>
 4    1  0.5739010E+000  0.1809557E+03  0.7818608E-02  0.1166881E+00
         21   -1    0    0  503  502  0.00000000000E+00  0.00000000000E+00  0.43986023198E+03  0.43986023198E+03  0.00000000000E+00 0. -1.
         21   -1    0    0  501  503 -0.00000000000E+00 -0.00000000000E+00 -0.25798268169E+03  0.25798268169E+03  0.00000000000E+00 0. -1.
          6    1    1    2  501    0 -0.19990687662E+02  0.52548385046E+02 -0.20336524227E+03  0.27221752722E+03  0.17200000000E+03 0. -1.
         -6    1    1    2    0  502  0.19990687662E+02 -0.52548385046E+02  0.38524279256E+03  0.42562538644E+03  0.17200000000E+03 0. -1.
</event>
<event>
 4    1  0.5739010E+000  0.1915784E+03  0.7818608E-02  0.1157045E+00
         21   -1    0    0  503  502  0.00000000000E+00  0.00000000000E+00  0.76082920117E+02  0.76082920117E+02  0.00000000000E+00 0.  1.
         21   -1    0    0  501  503 -0.00000000000E+00 -0.00000000000E+00 -0.61080846313E+03  0.61080846313E+03  0.00000000000E+00 0.  1.
          6    1    1    2  501    0 -0.82664632444E+02 -0.16877325966E+02 -0.42483534739E+03  0.46603364468E+03  0.17200000000E+03 0.  1.
         -6    1    1    2    0  502  0.82664632444E+02  0.16877325966E+02 -0.10989019563E+03  0.22085773857E+03  0.17200000000E+03 0.  1.
</event>
<event>
 4    1  0.5739010E+000  0.1789483E+03  0.7818608E-02  0.1168825E+00
         21   -1    0    0  503  502  0.00000000000E+00  0.00000000000E+00  0.25392360169E+03  0.25392360169E+03  0.00000000000E+00 0.  1.
         21   -1    0    0  501  503 -0.00000000000E+00 -0.00000000000E+00 -0.23186418930E+03  0.23186418930E+03  0.00000000000E+00 0.  1.
          6    1    1    2  501    0 -0.46171551029E+02 -0.17512421937E+02 -0.15300925160E+03  0.23544495773E+03  0.17200000000E+03 0.  1.
         -6    1    1    2    0  502  0.46171551029E+02  0.17512421937E+02  0.17506866399E+03  0.25034283325E+03  0.17200000000E+03 0.  1.
</event>
<event>
 4    1  0.5739010E+000  0.3505734E+03  0.7818608E-02  0.1062380E+00
         21   -1    0    0  501  502  0.00000000000E+00  0.00000000000E+00  0.45353761494E+03  0.45353761494E+03  0.00000000000E+00 0. -1.
         21   -1    0    0  502  503 -0.00000000000E+00 -0.00000000000E+00 -0.44830035199E+03  0.44830035199E+03  0.00000000000E+00 0. -1.
          6    1    1    2  501    0 -0.20198992927E+02 -0.30481093264E+03  0.28620650266E+03  0.45256586939E+03  0.17200000000E+03 0. -1.
         -6    1    1    2    0  503  0.20198992927E+02  0.30481093264E+03 -0.28096923971E+03  0.44927209755E+03  0.17200000000E+03 0. -1.
</event>
<event>
 4    1  0.5739010E+000  0.3569672E+03  0.7818608E-02  0.1059791E+00
         21   -1    0    0  501  502  0.00000000000E+00  0.00000000000E+00  0.29998778884E+03  0.29998778884E+03  0.00000000000E+00 0. -1.
         21   -1    0    0  502  503 -0.00000000000E+00 -0.00000000000E+00 -0.43812240309E+03  0.43812240309E+03  0.00000000000E+00 0.  1.
          6    1    1    2  501    0 -0.31266938516E+03 -0.89116584760E+01 -0.46375047198E+01  0.35699729484E+03  0.17200000000E+03 0.  1.
         -6    1    1    2    0  503  0.31266938516E+03  0.89116584760E+01 -0.13349710953E+03  0.38111289709E+03  0.17200000000E+03 0.  1.
</event>
<event>
 4    1  0.5739010E+000  0.2205144E+03  0.7818608E-02  0.1133500E+00
         21   -1    0    0  501  502  0.00000000000E+00  0.00000000000E+00  0.43221321229E+02  0.43221321229E+02  0.00000000000E+00 0.  1.
         21   -1    0    0  502  503 -0.00000000000E+00 -0.00000000000E+00 -0.16497161833E+04  0.16497161833E+04  0.00000000000E+00 0.  1.
          6    1    1    2  501    0  0.13524436454E+03 -0.27414553177E+02 -0.32589014485E+03  0.39348568255E+03  0.17200000000E+03 0.  1.
         -6    1    1    2    0  503 -0.13524436454E+03  0.27414553177E+02 -0.12806047173E+04  0.12994518220E+04  0.17200000000E+03 0.  1.
</event>
<event>
 4    1  0.5739010E+000  0.2547087E+03  0.7818608E-02  0.1110365E+00
         21   -1    0    0  503  502  0.00000000000E+00  0.00000000000E+00  0.62022878984E+03  0.62022878984E+03  0.00000000000E+00 0.  1.
         21   -1    0    0  501  503 -0.00000000000E+00 -0.00000000000E+00 -0.13458707373E+03  0.13458707373E+03  0.00000000000E+00 0. -1.
          6    1    1    2  501    0  0.84281496241E+02 -0.16789623504E+03  0.64677529645E+02  0.26279212163E+03  0.17200000000E+03 0. -1.
         -6    1    1    2    0  502 -0.84281496241E+02  0.16789623504E+03  0.42096418647E+03  0.49202374194E+03  0.17200000000E+03 0.  1.
</event>
<event>
 4    1  0.5739010E+000  0.2267289E+03  0.7818608E-02  0.1128964E+00
         21   -1    0    0  501  502  0.00000000000E+00  0.00000000000E+00  0.94975278967E+02  0.94975278967E+02  0.00000000000E+00 0.  1.
         21   -1    0    0  502  503 -0.00000000000E+00 -0.00000000000E+00 -0.81020453764E+03  0.81020453764E+03  0.00000000000E+00 0. -1.
          6    1    1    2  501    0 -0.13413938421E+03 -0.61875737655E+02 -0.61837510789E+03  0.65863021139E+03  0.17200000000E+03 0. -1.
         -6    1    1    2    0  503  0.13413938421E+03  0.61875737655E+02 -0.96854150785E+02  0.24654960521E+03  0.17200000000E+03 0.  1.
</event>
<event>
 4    1  0.5739010E+000  0.2228480E+03  0.7818608E-02  0.1131777E+00
         21   -1    0    0  501  502  0.00000000000E+00  0.00000000000E+00  0.12795164829E+04  0.12795164829E+04  0.00000000000E+00 0. -1.
         21   -1    0    0  502  503 -0.00000000000E+00 -0.00000000000E+00 -0.66100365720E+02  0.66100365720E+02  0.00000000000E+00 0. -1.
          6    1    1    2  501    0  0.13021742998E+03  0.55862926796E+02  0.10389970724E+04  0.10626270098E+04  0.17200000000E+03 0. -1.
         -6    1    1    2    0  503 -0.13021742998E+03 -0.55862926796E+02  0.17441904482E+03  0.28298983879E+03  0.17200000000E+03 0. -1.
</event>
<event>
 4    1  0.5739010E+000  0.1946859E+03  0.7818608E-02  0.1154302E+00
         21   -1    0    0  503  502  0.00000000000E+00  0.00000000000E+00  0.55328108910E+03  0.55328108910E+03  0.00000000000E+00 0. -1.
         21   -1    0    0  501  503 -0.00000000000E+00 -0.00000000000E+00 -0.84538986355E+02  0.84538986355E+02  0.00000000000E+00 0.  1.
          6    1    1    2  501    0 -0.91195461438E+02  0.14139118049E+01  0.95485133057E+02  0.21684100620E+03  0.17200000000E+03 0.  1.
         -6    1    1    2    0  502  0.91195461438E+02 -0.14139118049E+01  0.37325696969E+03  0.42097906926E+03  0.17200000000E+03 0. -1.
</event>
<event>
 4    1  0.5739010E+000  0.1984830E+03  0.7818608E-02  0.1151025E+00
         21   -1    0    0  501  502  0.00000000000E+00  0.00000000000E+00  0.87592979501E+02  0.87592979501E+02  0.00000000000E+00 0.  1.
         21   -1    0    0  502  503 -0.00000000000E+00 -0.00000000000E+00 -0.44983339258E+03  0.44983339258E+03  0.00000000000E+00 0.  1.
          6    1    1    2  501    0  0.86129585635E+02 -0.48920423944E+02 -0.18463303128E+03  0.27108092821E+03  0.17200000000E+03 0.  1.
         -6    1    1    2    0  503 -0.86129585635E+02  0.48920423944E+02 -0.17760738181E+03  0.26634544387E+03  0.17200000000E+03 0.  1.
</event>
<event>
 4    1  0.5739010E+000  0.1919612E+03  0.7818608E-02  0.1156704E+00
         21   -1    0    0  503  502  0.00000000000E+00  0.00000000000E+00  0.24260867791E+03  0.24260867791E+03  0.00000000000E+00 0. -1.
         21   -1    0    0  501  503 -0.00000000000E+00 -0.00000000000E+00 -0.17012016662E+03  0.17012016662E+03  0.00000000000E+00 0. -1.
          6    1    1    2  501    0 -0.56174423947E+02 -0.64105788836E+02 -0.31315380034E+02  0.19449876888E+03  0.17200000000E+03 0. -1.
         -6    1    1    2    0  502  0.56174423947E+02  0.64105788836E+02  0.10380389132E+03  0.21823007566E+03  0.17200000000E+03 0. -1.
</event>
<event>
 4    1  0.5739010E+000  0.1767101E+03  0.7818608E-02  0.1171025E+00
         21   -1    0    0  501  502  0.00000000000E+00  0.00000000000E+00  0.83672265938E+03  0.83672265938E+03  0.00000000000E+00 0. -1.
         21   -1    0    0  502  503 -0.00000000000E+00 -0.00000000000E+00 -0.45656682904E+02  0.45656682904E+02  0.00000000000E+00 0. -1.
          6    1    1    2  501    0 -0.30561347957E+02  0.26617240937E+02  0.20700740080E+03  0.27217372667E+03  0.17200000000E+03 0. -1.
         -6    1    1    2    0  503  0.30561347957E+02 -0.26617240937E+02  0.58405857567E+03  0.61020561561E+03  0.17200000000E+03 0. -1.
</event>
<event>
 4    1  0.5739010E+000  0.2032501E+03  0.7818608E-02  0.1147025E+00
         21   -1    0    0  503  502  0.00000000000E+00  0.00000000000E+00  0.32868222284E+03  0.32868222284E+03  0.00000000000E+00 0.  1.
         21   -1    0    0  501  503 -0.00000000000E+00 -0.00000000000E+00 -0.18301022755E+03  0.18301022755E+03  0.00000000000E+00 0.  1.
          6    1    1    2  501    0  0.63272521071E+02  0.87881738538E+02  0.21602579518E+03  0.29661044499E+03  0.17200000000E+03 0.  1.
         -6    1    1    2    0  502 -0.63272521071E+02 -0.87881738538E+02 -0.70353799891E+02  0.21508200541E+03  0.17200000000E+03 0.  1.
</event>
<event>
 4    1  0.5739010E+000  0.2136611E+03  0.7818608E-02  0.1138699E+00
         21   -1    0    0  503  502  0.00000000000E+00  0.00000000000E+00  0.37610413263E+03  0.37610413263E+03  0.00000000000E+00 0.  1.
         21   -1    0    0  501  503 -0.00000000000E+00 -0.00000000000E+00 -0.12891380244E+03  0.12891380244E+03  0.00000000000E+00 0.  1.
          6    1    1    2  501    0 -0.10635022239E+03 -0.68968924771E+02  0.62547688667E+02  0.22262815577E+03  0.17200000000E+03 0.  1.
         -6    1    1    2    0  502  0.10635022239E+03  0.68968924771E+02  0.18464264152E+03  0.28238977930E+03  0.17200000000E+03 0.  1.
</event>
<event>
 4    1  0.5739010E+000  0.2489130E+03  0.7818608E-02  0.1113994E+00
         21   -1    0    0  503  502  0.00000000000E+00  0.00000000000E+00  0.53935512667E+03  0.53935512667E+03  0.00000000000E+00 0. -1.
         21   -1    0    0  501  503 -0.00000000000E+00 -0.00000000000E+00 -0.17419166208E+03  0.17419166208E+03  0.00000000000E+00 0. -1.
          6    1    1    2  501    0 -0.17887520567E+03  0.19425471906E+02 -0.25614132456E+02  0.25022744043E+03  0.17200000000E+03 0. -1.
         -6    1    1    2    0  502  0.17887520567E+03 -0.19425471906E+02  0.39077759705E+03  0.46331934831E+03  0.17200000000E+03 0. -1.
</event>
<event>
 4    1  0.5739010E+000  0.1856484E+03  0.7818608E-02  0.1162446E+00
         21   -1    0    0  501  502  0.00000000000E+00  0.00000000000E+00  0.57134018512E+02  0.57134018512E+02  0.00000000000E+00 0.  1.
         21   -1    0    0  502  503 -0.00000000000E+00 -0.00000000000E+00 -0.61392070308E+03  0.61392070308E+03  0.00000000000E+00 0.  1.
          6    1    1    2  501    0  0.58363697985E+02 -0.38405747062E+02 -0.23413003795E+03  0.29880126727E+03  0.17200000000E+03 0.  1.
         -6    1    1    2    0  503 -0.58363697985E+02  0.38405747062E+02 -0.32265664662E+03  0.37225345432E+03  0.17200000000E+03 0.  1.
</event>
<event>
 4    1  0.5739010E+000  0.1948494E+03  0.7818608E-02  0.1154159E+00
         21   -1    0    0  503  502  0.00000000000E+00  0.00000000000E+00  0.16681415271E+03  0.16681415271E+03  0.00000000000E+00 0. -1.
         21   -1    0    0  501  503 -0.00000000000E+00 -0.00000000000E+00 -0.43664960736E+03  0.43664960736E+03  0.00000000000E+00 0.  1.
          6    1    1    2  501    0 -0.44090723334E+02  0.80238951202E+02  0.73859535955E+02  0.20837829116E+03  0.17200000000E+03 0. -1.
         -6    1    1    2    0  502  0.44090723334E+02 -0.80238951202E+02 -0.34369499061E+03  0.39508546891E+03  0.17200000000E+03 0.  1.
</event>
<event>
 4    1  0.5739010E+000  0.2595950E+03  0.7818608E-02  0.1107387E+00
         21   -1    0    0  501  502  0.00000000000E+00  0.00000000000E+00  0.37378617402E+03  0.37378617402E+03  0.00000000000E+00 0.  1.
         21   -1    0    0  502  503 -0.00000000000E+00 -0.00000000000E+00 -0.20753352392E+03  0.20753352392E+03  0.00000000000E+00 0. -1.
          6    1    1    2  501    0 -0.15234610676E+03  0.12081495176E+03  0.18843869560E+03  0.32077832036E+03  0.17200000000E+03 0.  1.
         -6    1    1    2    0  503  0.15234610676E+03 -0.12081495176E+03 -0.22186045499E+02  0.26054137757E+03  0.17200000000E+03 0. -1.
</event>
<event>
 4    1  0.5739010E+000  0.2307238E+03  0.7818608E-02  0.1126131E+00
         21   -1    0    0  501  502  0.00000000000E+00  0.00000000000E+00  0.10463749854E+04  0.10463749854E+04  0.00000000000E+00 0. -1.
         21   -1    0    0  502  503 -0.00000000000E+00 -0.00000000000E+00 -0.57617891824E+02  0.57617891824E+02  0.00000000000E+00 0.  1.
          6    1    1    2  501    0  0.12158468408E+02  0.15330244957E+03  0.30553284950E+03  0.38286262748E+03  0.17200000000E+03 0.  1.
         -6    1    1    2    0  503 -0.12158468408E+02 -0.15330244957E+03  0.68322424405E+03  0.72113024971E+03  0.17200000000E+03 0. -1.
</event>
<event>
 4    1  0.5739010E+000  0.2305690E+03  0.7818608E-02  0.1126240E+00
         21   -1    0    0  501  502  0.00000000000E+00  0.00000000000E+00  0.24083119435E+03  0.24083119435E+03  0.00000000000E+00 0.  1.
         21   -1    0    0  502  503 -0.00000000000E+00 -0.00000000000E+00 -0.33779548652E+03  0.33779548652E+03  0.00000000000E+00 0.  1.
          6    1    1    2  501    0 -0.31157935436E+02 -0.15035701117E+03  0.12182385620E+03  0.26077403952E+03  0.17200000000E+03 0.  1.
         -6    1    1    2    0  503  0.31157935436E+02  0.15035701117E+03 -0.21878814837E+03  0.31785264135E+03  0.17200000000E+03 0.  1.
</event>
<event>
 4    1  0.5739010E+000  0.2314989E+03  0.7818608E-02  0.1125589E+00
         21   -1    0    0  503  502  0.00000000000E+00  0.00000000000E+00  0.25064419956E+03  0.25064419956E+03  0.00000000000E+00 0. -1.
         21   -1    0    0  501  503 -0.00000000000E+00 -0.00000000000E+00 -0.57119490995E+03  0.57119490995E+03  0.00000000000E+00 0.  1.
          6    1    1    2  501    0 -0.53500148700E+02  0.14541480091E+03 -0.48530960670E+03  0.53769614523E+03  0.17200000000E+03 0. -1.
         -6    1    1    2    0  502  0.53500148700E+02 -0.14541480091E+03  0.16475889632E+03  0.28414296428E+03  0.17200000000E+03 0. -1.
</event>
<event>
 4    1  0.5739010E+000  0.1772584E+03  0.7818608E-02  0.1170483E+00
         21   -1    0    0  503  502  0.00000000000E+00  0.00000000000E+00  0.25833952694E+03  0.25833952694E+03  0.00000000000E+00 0.  1.
         21   -1    0    0  501  503 -0.00000000000E+00 -0.00000000000E+00 -0.16855100471E+03  0.16855100471E+03  0.00000000000E+00 0.  1.
          6    1    1    2  501    0 -0.15098231747E+02  0.40106953710E+02 -0.67728977868E+02  0.18975705199E+03  0.17200000000E+03 0.  1.
         -6    1    1    2    0  502  0.15098231747E+02 -0.40106953710E+02  0.15751750010E+03  0.23713347966E+03  0.17200000000E+03 0.  1.
</event>
<event>
 4    1  0.5739010E+000  0.1839551E+03  0.7818608E-02  0.1164029E+00
         21   -1    0    0  501  502  0.00000000000E+00  0.00000000000E+00  0.39747355832E+02  0.39747355832E+02  0.00000000000E+00 0.  1.
         21   -1    0    0  502  503 -0.00000000000E+00 -0.00000000000E+00 -0.85495522252E+03  0.85495522252E+03  0.00000000000E+00 0.  1.
          6    1    1    2  501    0 -0.60036955610E+02 -0.25515826952E+02 -0.37861320017E+03  0.42093639520E+03  0.17200000000E+03 0. -1.
         -6    1    1    2    0  503  0.60036955610E+02  0.25515826952E+02 -0.43659466653E+03  0.47376618316E+03  0.17200000000E+03 0. -1.
</event>
<event>
 4    1  0.5739010E+000  0.1919041E+03  0.7818608E-02  0.1156755E+00
         21   -1    0    0  501  502  0.00000000000E+00  0.00000000000E+00  0.23978404716E+04  0.23978404716E+04  0.00000000000E+00 0.  1.
         21   -1    0    0  502  503 -0.00000000000E+00 -0.00000000000E+00 -0.24813393914E+02  0.24813393914E+02  0.00000000000E+00 0.  1.
          6    1    1    2  501    0 -0.50228990898E+02  0.68703988157E+02  0.19342473757E+04  0.19437438360E+04  0.17200000000E+03 0.  1.
         -6    1    1    2    0  503  0.50228990898E+02 -0.68703988157E+02  0.43877970203E+03  0.47891002958E+03  0.17200000000E+03 0.  1.
</event>
<event>
 4    1  0.5739010E+000  0.3248379E+03  0.7818608E-02  0.1073444E+00
         21   -1    0    0  501  502  0.00000000000E+00  0.00000000000E+00  0.41170227948E+03  0.41170227948E+03  0.00000000000E+00 0.  1.
         21   -1    0    0  502  503 -0.00000000000E+00 -0.00000000000E+00 -0.34696088153E+03  0.34696088153E+03  0.00000000000E+00 0.  1.
          6    1    1    2  501    0  0.19750260563E+02 -0.27485559519E+03 -0.16153319073E+03  0.36278456790E+03  0.17200000000E+03 0.  1.
         -6    1    1    2    0  503 -0.19750260563E+02  0.27485559519E+03  0.22627458868E+03  0.39587859311E+03  0.17200000000E+03 0.  1.
</event>
<event>
 4    1  0.5739010E+000  0.2315682E+03  0.7818608E-02  0.1125541E+00
         21   -1    0    0  501  502  0.00000000000E+00  0.00000000000E+00  0.20898898970E+03  0.20898898970E+03  0.00000000000E+00 0.  1.
         21   -1    0    0  502  503 -0.00000000000E+00 -0.00000000000E+00 -0.53298020859E+03  0.53298020859E+03  0.00000000000E+00 0.  1.
          6    1    1    2  501    0  0.12277008838E+03  0.94695999661E+02  0.10515990302E+03  0.25432741133E+03  0.17200000000E+03 0.  1.
         -6    1    1    2    0  503 -0.12277008838E+03 -0.94695999661E+02 -0.42915112191E+03  0.48764178696E+03  0.17200000000E+03 0.  1.
</event>
<event>
 4    1  0.5739010E+000  0.2146711E+03  0.7818608E-02  0.1137919E+00
         21   -1    0    0  501  502  0.00000000000E+00  0.00000000000E+00  0.24692626268E+03  0.24692626268E+03  0.00000000000E+00 0.  1.
         21   -1    0    0  502  503 -0.00000000000E+00 -0.00000000000E+00 -0.22137836090E+03  0.22137836090E+03  0.00000000000E+00 0.  1.
          6    1    1    2  501    0  0.97903251561E+02 -0.83154323176E+02  0.10554278189E+03  0.23921322484E+03  0.17200000000E+03 0.  1.
         -6    1    1    2    0  503 -0.97903251561E+02  0.83154323176E+02 -0.79994880111E+02  0.22909139873E+03  0.17200000000E+03 0.  1.
</event>
<event>
 4    1  0.5739010E+000  0.2132205E+03  0.7818608E-02  0.1139041E+00
         21   -1    0    0  501  502  0.00000000000E+00  0.00000000000E+00  0.45371780275E+03  0.45371780275E+03  0.00000000000E+00 0. -1.
         21   -1    0    0  502  503 -0.00000000000E+00 -0.00000000000E+00 -0.54880396461E+03  0.54880396461E+03  0.00000000000E+00 0.  1.
          6    1    1    2  501    0  0.12254162491E+03 -0.29369148687E+02  0.40565310326E+03  0.45827659434E+03  0.17200000000E+03 0. -1.
         -6    1    1    2    0  503 -0.12254162491E+03  0.29369148687E+02 -0.50073926511E+03  0.54424517302E+03  0.17200000000E+03 0.  1.
</event>
<event>
 4    1  0.5739010E+000  0.1809362E+03  0.7818608E-02  0.1166900E+00
         21   -1    0    0  501  502  0.00000000000E+00  0.00000000000E+00  0.17328184114E+03  0.17328184114E+03  0.00000000000E+00 0. -1.
         21   -1    0    0  502  503 -0.00000000000E+00 -0.00000000000E+00 -0.21372488293E+03  0.21372488293E+03  0.00000000000E+00 0. -1.
          6    1    1    2  501    0  0.51297909838E+02  0.22856511502E+02  0.45688926816E+02  0.18661557734E+03  0.17200000000E+03 0. -1.
         -6    1    1    2    0  503 -0.51297909838E+02 -0.22856511502E+02 -0.86131968608E+02  0.20039114673E+03  0.17200000000E+03 0. -1.
</event>
<event>
 4    1  0.5739010E+000  0.1807808E+03  0.7818608E-02  0.1167050E+00
         21   -1    0    0  501  502  0.00000000000E+00  0.00000000000E+00  0.13221934243E+03  0.13221934243E+03  0.00000000000E+00 0. -1.
         21   -1    0    0  502  503 -0.00000000000E+00 -0.00000000000E+00 -0.25196371121E+03  0.25196371121E+03  0.00000000000E+00 0. -1.
          6    1    1    2  501    0 -0.57222013105E+01 -0.55362036872E+02 -0.33398326878E+02  0.18384000368E+03  0.17200000000E+03 0.  1.
         -6    1    1    2    0  503  0.57222013105E+01  0.55362036872E+02 -0.86346041903E+02  0.20034304996E+03  0.17200000000E+03 0.  1.
</event>
<event>
 4    1  0.5739010E+000  0.1998749E+03  0.7818608E-02  0.1149845E+00
         21   -1    0    0  503  502  0.00000000000E+00  0.00000000000E+00  0.30719025495E+03  0.30719025495E+03  0.00000000000E+00 0. -1.
         21   -1    0    0  501  503 -0.00000000000E+00 -0.00000000000E+00 -0.15376626422E+03  0.15376626422E+03  0.00000000000E+00 0. -1.
          6    1    1    2  501    0 -0.10168873023E+03 -0.50368954840E+01  0.16722818935E+03  0.26060551699E+03  0.17200000000E+03 0. -1.
         -6    1    1    2    0  502  0.10168873023E+03  0.50368954840E+01 -0.13804198619E+02  0.20035100217E+03  0.17200000000E+03 0. -1.
</event>
<event>
 4    1  0.5739010E+000  0.1807145E+03  0.7818608E-02  0.1167113E+00
         21   -1    0    0  503  502  0.00000000000E+00  0.00000000000E+00  0.43569457552E+02  0.43569457552E+02  0.00000000000E+00 0. -1.
         21   -1    0    0  501  503 -0.00000000000E+00 -0.00000000000E+00 -0.12477038717E+04  0.12477038717E+04  0.00000000000E+00 0. -1.
          6    1    1    2  501    0 -0.48584213376E+02  0.26707963531E+02 -0.10100216204E+04  0.10260611165E+04  0.17200000000E+03 0. -1.
         -6    1    1    2    0  502  0.48584213376E+02 -0.26707963531E+02 -0.19411279379E+03  0.26521221280E+03  0.17200000000E+03 0. -1.
</event>
<event>
 4    1  0.5739010E+000  0.2154721E+03  0.7818608E-02  0.1137305E+00
         21   -1    0    0  503  502  0.00000000000E+00  0.00000000000E+00  0.16725293464E+04  0.16725293464E+04  0.00000000000E+00 0.  1.
         21   -1    0    0  501  503 -0.00000000000E+00 -0.00000000000E+00 -0.27861310283E+02  0.27861310283E+02  0.00000000000E+00 0.  1.
          6    1    1    2  501    0 -0.78917581231E+02  0.10303513210E+03  0.87378177051E+03  0.89995711317E+03  0.17200000000E+03 0.  1.
         -6    1    1    2    0  502  0.78917581231E+02 -0.10303513210E+03  0.77088626560E+03  0.80043354351E+03  0.17200000000E+03 0.  1.
</event>
<event>
 4    1  0.5739010E+000  0.2002969E+03  0.7818608E-02  0.1149489E+00
         21   -1    0    0  501  502  0.00000000000E+00  0.00000000000E+00  0.58538984372E+03  0.58538984372E+03  0.00000000000E+00 0.  1.
         21   -1    0    0  502  503 -0.00000000000E+00 -0.00000000000E+00 -0.16731667116E+03  0.16731667116E+03  0.00000000000E+00 0.  1.
          6    1    1    2  501    0  0.87478585872E+02 -0.53687656180E+02  0.49821598884E+03  0.53697117143E+03  0.17200000000E+03 0.  1.
         -6    1    1    2    0  503 -0.87478585872E+02  0.53687656180E+02 -0.80142816276E+02  0.21573534345E+03  0.17200000000E+03 0.  1.
</event>
<event>
 4    1  0.5739010E+000  0.1829332E+03  0.7818608E-02  0.1164994E+00
         21   -1    0    0  503  502  0.00000000000E+00  0.00000000000E+00  0.11831526277E+03  0.11831526277E+03  0.00000000000E+00 0.  1.
         21   -1    0    0  501  503 -0.00000000000E+00 -0.00000000000E+00 -0.28740645264E+03  0.28740645264E+03  0.00000000000E+00 0.  1.
          6    1    1    2  501    0 -0.18442586637E+01  0.62266787795E+02 -0.11010983297E+03  0.21351517386E+03  0.17200000000E+03 0.  1.
         -6    1    1    2    0  502  0.18442586637E+01 -0.62266787795E+02 -0.58981356902E+02  0.19220654155E+03  0.17200000000E+03 0.  1.
</event>
<event>
 4    1  0.5739010E+000  0.1858445E+03  0.7818608E-02  0.1162264E+00
         21   -1    0    0  503  502  0.00000000000E+00  0.00000000000E+00  0.17254676244E+04  0.17254676244E+04  0.00000000000E+00 0.  1.
         21   -1    0    0  501  503 -0.00000000000E+00 -0.00000000000E+00 -0.51076158658E+02  0.51076158658E+02  0.00000000000E+00 0.  1.
          6    1    1    2  501    0 -0.27111644038E+02 -0.64954750922E+02  0.14451393616E+03  0.23541970745E+03  0.17200000000E+03 0.  1.
         -6    1    1    2    0  502  0.27111644038E+02  0.64954750922E+02  0.15298775296E+04  0.15411240756E+04  0.17200000000E+03 0.  1.
</event>
<event>
 4    1  0.5739010E+000  0.1793676E+03  0.7818608E-02  0.1168416E+00
         21   -1    0    0  501  502  0.00000000000E+00  0.00000000000E+00  0.75185542457E+02  0.75185542457E+02  0.00000000000E+00 0.  1.
         21   -1    0    0  502  503 -0.00000000000E+00 -0.00000000000E+00 -0.43736987204E+03  0.43736987204E+03  0.00000000000E+00 0. -1.
          6    1    1    2  501    0 -0.24496538444E+02  0.44594343076E+02 -0.14340430801E+03  0.22964653576E+03  0.17200000000E+03 0.  1.
         -6    1    1    2    0  503  0.24496538444E+02 -0.44594343076E+02 -0.21878002157E+03  0.28290887874E+03  0.17200000000E+03 0. -1.
</event>
<event>
 4    1  0.5739010E+000  0.2186839E+03  0.7818608E-02  0.1134868E+00
         21   -1    0    0  503  502  0.00000000000E+00  0.00000000000E+00  0.16677150482E+04  0.16677150482E+04  0.00000000000E+00 0. -1.
         21   -1    0    0  501  503 -0.00000000000E+00 -0.00000000000E+00 -0.41339577820E+02  0.41339577820E+02  0.00000000000E+00 0. -1.
          6    1    1    2  501    0  0.90525668353E+02  0.10021849536E+03  0.34022286240E+03  0.40444312275E+03  0.17200000000E+03 0. -1.
         -6    1    1    2    0  502 -0.90525668353E+02 -0.10021849536E+03  0.12861526080E+04  0.13046115033E+04  0.17200000000E+03 0. -1.
</event>
<event>
 4    1  0.5739010E+000  0.2070073E+03  0.7818608E-02  0.1143958E+00
         21   -1    0    0  501  502  0.00000000000E+00  0.00000000000E+00  0.22670364208E+03  0.22670364208E+03  0.00000000000E+00 0. -1.
         21   -1    0    0  502  503 -0.00000000000E+00 -0.00000000000E+00 -0.19329298110E+03  0.19329298110E+03  0.00000000000E+00 0. -1.
          6    1    1    2  501    0  0.94667390619E+02  0.65621026691E+02 -0.14509324737E+02  0.20751519100E+03  0.17200000000E+03 0. -1.
         -6    1    1    2    0  503 -0.94667390619E+02 -0.65621026691E+02  0.47919985711E+02  0.21248143218E+03  0.17200000000E+03 0. -1.
</event>
<event>
 4    1  0.5739010E+000  0.2192399E+03  0.7818608E-02  0.1134451E+00
         21   -1    0    0  501  502  0.00000000000E+00  0.00000000000E+00  0.30976862988E+03  0.30976862988E+03  0.00000000000E+00 0. -1.
         21   -1    0    0  502  503 -0.00000000000E+00 -0.00000000000E+00 -0.15927764870E+03  0.15927764870E+03  0.00000000000E+00 0.  1.
          6    1    1    2  501    0  0.91570068082E+02  0.10048402523E+03  0.37573270278E+02  0.22243620959E+03  0.17200000000E+03 0.  1.
         -6    1    1    2    0  503 -0.91570068082E+02 -0.10048402523E+03  0.11291771090E+03  0.24661006900E+03  0.17200000000E+03 0.  1.
</event>
<event>
 4    1  0.5739010E+000  0.2114867E+03  0.7818608E-02  0.1140394E+00
         21   -1    0    0  501  502  0.00000000000E+00  0.00000000000E+00  0.55069354457E+03  0.55069354457E+03  0.00000000000E+00 0.  1.
         21   -1    0    0  502  503 -0.00000000000E+00 -0.00000000000E+00 -0.10576879267E+03  0.10576879267E+03  0.00000000000E+00 0.  1.
          6    1    1    2  501    0  0.83704826150E+02  0.90200487627E+02  0.38059716335E+03  0.43540880404E+03  0.17200000000E+03 0.  1.
         -6    1    1    2    0  503 -0.83704826150E+02 -0.90200487627E+02  0.64327588553E+02  0.22105353320E+03  0.17200000000E+03 0.  1.
</event>
<event>
 4    1  0.5739010E+000  0.2115086E+03  0.7818608E-02  0.1140377E+00
         21   -1    0    0  501  502  0.00000000000E+00  0.00000000000E+00  0.10958176595E+03  0.10958176595E+03  0.00000000000E+00 0.  1.
         21   -1    0    0  502  503 -0.00000000000E+00 -0.00000000000E+00 -0.55843277627E+03  0.55843277627E+03  0.00000000000E+00 0. -1.
          6    1    1    2  501    0  0.11323370656E+03 -0.48270101708E+02 -0.51207848795E+02  0.21761920595E+03  0.17200000000E+03 0.  1.
         -6    1    1    2    0  503 -0.11323370656E+03  0.48270101708E+02 -0.39764316152E+03  0.45039533626E+03  0.17200000000E+03 0. -1.
</event>
<event>
 4    1  0.5739010E+000  0.2441117E+03  0.7818608E-02  0.1117084E+00
         21   -1    0    0  501  502  0.00000000000E+00  0.00000000000E+00  0.11406603308E+03  0.11406603308E+03  0.00000000000E+00 0.  1.
         21   -1    0    0  502  503 -0.00000000000E+00 -0.00000000000E+00 -0.53072223832E+03  0.53072223832E+03  0.00000000000E+00 0.  1.
          6    1    1    2  501    0 -0.77820006673E+02  0.15475964644E+03 -0.16800791771E+03  0.29633960589E+03  0.17200000000E+03 0.  1.
         -6    1    1    2    0  503  0.77820006673E+02 -0.15475964644E+03 -0.24864828753E+03  0.34844866551E+03  0.17200000000E+03 0.  1.
</event>
<event>
 4    1  0.5739010E+000  0.1731203E+03  0.7818608E-02  0.1174632E+00
         21   -1    0    0  501  502  0.00000000000E+00  0.00000000000E+00  0.10082925073E+03  0.10082925073E+03  0.00000000000E+00 0.  1.
         21   -1    0    0  502  503 -0.00000000000E+00 -0.00000000000E+00 -0.83709427442E+03  0.83709427442E+03  0.00000000000E+00 0.  1.
          6    1    1    2  501    0 -0.90382060766E+01  0.17463286990E+02  0.84740175999E+01  0.17332762196E+03  0.17200000000E+03 0.  1.
         -6    1    1    2    0  503  0.90382060766E+01 -0.17463286990E+02 -0.74473904129E+03  0.76459590319E+03  0.17200000000E+03 0.  1.
</event>
<event>
 4    1  0.5739010E+000  0.2165859E+03  0.7818608E-02  0.1136454E+00
         21   -1    0    0  501  502  0.00000000000E+00  0.00000000000E+00  0.80062657593E+03  0.80062657593E+03  0.00000000000E+00 0.  1.
         21   -1    0    0  502  503 -0.00000000000E+00 -0.00000000000E+00 -0.10461497739E+03  0.10461497739E+03  0.00000000000E+00 0.  1.
          6    1    1    2  501    0 -0.57835162267E+01  0.13149901470E+03  0.64821918306E+03  0.68344535203E+03  0.17200000000E+03 0.  1.
         -6    1    1    2    0  503  0.57835162267E+01 -0.13149901470E+03  0.47792415484E+02  0.22179620128E+03  0.17200000000E+03 0.  1.
</event>
<event>
 4    1  0.5739010E+000  0.2220456E+03  0.7818608E-02  0.1132367E+00
         21   -1    0    0  503  502  0.00000000000E+00  0.00000000000E+00  0.47195095291E+03  0.47195095291E+03  0.00000000000E+00 0. -1.
         21   -1    0    0  501  503 -0.00000000000E+00 -0.00000000000E+00 -0.10459598008E+03  0.10459598008E+03  0.00000000000E+00 0.  1.
          6    1    1    2  501    0 -0.10844911406E+03 -0.89213561621E+02  0.19371951374E+03  0.29467188519E+03  0.17200000000E+03 0.  1.
         -6    1    1    2    0  502  0.10844911406E+03  0.89213561621E+02  0.17363545909E+03  0.28187504780E+03  0.17200000000E+03 0. -1.
</event>
<event>
 4    1  0.5739010E+000  0.1867333E+03  0.7818608E-02  0.1161441E+00
         21   -1    0    0  501  502  0.00000000000E+00  0.00000000000E+00  0.26269560261E+03  0.26269560261E+03  0.00000000000E+00 0. -1.
         21   -1    0    0  502  503 -0.00000000000E+00 -0.00000000000E+00 -0.13295343188E+03  0.13295343188E+03  0.00000000000E+00 0. -1.
          6    1    1    2  501    0 -0.67744087781E+02 -0.26383343655E+02  0.72858594304E+02  0.20044380014E+03  0.17200000000E+03 0. -1.
         -6    1    1    2    0  503  0.67744087781E+02  0.26383343655E+02  0.56883576428E+02  0.19520523435E+03  0.17200000000E+03 0. -1.
</event>
<event>
 4    1  0.5739010E+000  0.1854924E+03  0.7818608E-02  0.1162591E+00
         21   -1    0    0  503  502  0.00000000000E+00  0.00000000000E+00  0.17049600999E+03  0.17049600999E+03  0.00000000000E+00 0. -1.
         21   -1    0    0  501  503 -0.00000000000E+00 -0.00000000000E+00 -0.28747327136E+03  0.28747327136E+03  0.00000000000E+00 0. -1.
          6    1    1    2  501    0  0.65540199943E+02 -0.22976687277E+02 -0.18348868598E+03  0.26091290472E+03  0.17200000000E+03 0. -1.
         -6    1    1    2    0  502 -0.65540199943E+02  0.22976687277E+02  0.66511424607E+02  0.19705637663E+03  0.17200000000E+03 0. -1.
</event>
<event>
 4    1  0.5739010E+000  0.2257388E+03  0.7818608E-02  0.1129675E+00
         21   -1    0    0  501  502  0.00000000000E+00  0.00000000000E+00  0.59442594071E+03  0.59442594071E+03  0.00000000000E+00 0. -1.
         21   -1    0    0  502  503 -0.00000000000E+00 -0.00000000000E+00 -0.24685331274E+03  0.24685331274E+03  0.00000000000E+00 0. -1.
          6    1    1    2  501    0 -0.11702182554E+03  0.87635004654E+02  0.51362650052E+03  0.56104383406E+03  0.17200000000E+03 0. -1.
         -6    1    1    2    0  503  0.11702182554E+03 -0.87635004654E+02 -0.16605387255E+03  0.28023541939E+03  0.17200000000E+03 0. -1.
</event>
<event>
 4    1  0.5739010E+000  0.2134929E+03  0.7818608E-02  0.1138829E+00
         21   -1    0    0  501  502  0.00000000000E+00  0.00000000000E+00  0.16576225869E+04  0.16576225869E+04  0.00000000000E+00 0.  1.
         21   -1    0    0  502  503 -0.00000000000E+00 -0.00000000000E+00 -0.29587031754E+02  0.29587031754E+02  0.00000000000E+00 0.  1.
          6    1    1    2  501    0 -0.12235771412E+03 -0.31997298354E+02  0.58978941410E+03  0.62724061594E+03  0.17200000000E+03 0.  1.
         -6    1    1    2    0  503  0.12235771412E+03  0.31997298354E+02  0.10382461411E+04  0.10599690028E+04  0.17200000000E+03 0.  1.
</event>
<event>
 4    1  0.5739010E+000  0.2019598E+03  0.7818608E-02  0.1148096E+00
         21   -1    0    0  501  502  0.00000000000E+00  0.00000000000E+00  0.37806568977E+03  0.37806568977E+03  0.00000000000E+00 0. -1.
         21   -1    0    0  502  503 -0.00000000000E+00 -0.00000000000E+00 -0.13884747903E+03  0.13884747903E+03  0.00000000000E+00 0. -1.
          6    1    1    2  501    0 -0.48536388147E+01 -0.10573649572E+03  0.24165796606E+03  0.31493862401E+03  0.17200000000E+03 0. -1.
         -6    1    1    2    0  503  0.48536388147E+01  0.10573649572E+03 -0.24397553232E+01  0.20197454479E+03  0.17200000000E+03 0. -1.
</event>
<event>
 4    1  0.5739010E+000  0.1755795E+03  0.7818608E-02  0.1172151E+00
         21   -1    0    0  503  502  0.00000000000E+00  0.00000000000E+00  0.52754299448E+03  0.52754299448E+03  0.00000000000E+00 0.  1.
         21   -1    0    0  501  503 -0.00000000000E+00 -0.00000000000E+00 -0.74210947850E+02  0.74210947850E+02  0.00000000000E+00 0.  1.
          6    1    1    2  501    0 -0.14357313181E+02 -0.32218345881E+02  0.87951505569E+02  0.19637622459E+03  0.17200000000E+03 0.  1.
         -6    1    1    2    0  502  0.14357313181E+02  0.32218345881E+02  0.36538054106E+03  0.40537771773E+03  0.17200000000E+03 0.  1.
</event>
<event>
 4    1  0.5739010E+000  0.2200768E+03  0.7818608E-02  0.1133826E+00
         21   -1    0    0  503  502  0.00000000000E+00  0.00000000000E+00  0.14742502618E+03  0.14742502618E+03  0.00000000000E+00 0.  1.
         21   -1    0    0  501  503 -0.00000000000E+00 -0.00000000000E+00 -0.37424044201E+03  0.37424044201E+03  0.00000000000E+00 0.  1.
          6    1    1    2  501    0  0.33699330986E+01  0.13725326525E+03 -0.22251615635E+02  0.22119889165E+03  0.17200000000E+03 0.  1.
         -6    1    1    2    0  502 -0.33699330986E+01 -0.13725326525E+03 -0.20456380019E+03  0.30046657654E+03  0.17200000000E+03 0.  1.
</event>
<event>
 4    1  0.5739010E+000  0.1956489E+03  0.7818608E-02  0.1153463E+00
         21   -1    0    0  503  502  0.00000000000E+00  0.00000000000E+00  0.12283808847E+04  0.12283808847E+04  0.00000000000E+00 0.  1.
         21   -1    0    0  501  503 -0.00000000000E+00 -0.00000000000E+00 -0.42923767223E+02  0.42923767223E+02  0.00000000000E+00 0.  1.
          6    1    1    2  501    0 -0.93240698390E+02 -0.82120472365E+00  0.25998353621E+03  0.32537661458E+03  0.17200000000E+03 0.  1.
         -6    1    1    2    0  502  0.93240698390E+02  0.82120472365E+00  0.92547358124E+03  0.94592803732E+03  0.17200000000E+03 0.  1.
</event>
<event>
 4    1  0.5739010E+000  0.3320980E+03  0.7818608E-02  0.1070212E+00
         21   -1    0    0  501  502  0.00000000000E+00  0.00000000000E+00  0.24663324178E+03  0.24663324178E+03  0.00000000000E+00 0.  1.
         21   -1    0    0  502  503 -0.00000000000E+00 -0.00000000000E+00 -0.17425175147E+04  0.17425175147E+04  0.00000000000E+00 0.  1.
          6    1    1    2  501    0  0.17710804647E+03  0.22212116178E+03  0.10957115287E+03  0.34970688895E+03  0.17200000000E+03 0.  1.
         -6    1    1    2    0  503 -0.17710804647E+03 -0.22212116178E+03 -0.16054554258E+04  0.16394438676E+04  0.17200000000E+03 0.  1.
</event>
<event>
 4    1  0.5739010E+000  0.2423962E+03  0.7818608E-02  0.1118207E+00
         21   -1    0    0  501  502  0.00000000000E+00  0.00000000000E+00  0.15849842523E+03  0.15849842523E+03  0.00000000000E+00 0. -1.
         21   -1    0    0  502  503 -0.00000000000E+00 -0.00000000000E+00 -0.44311022847E+03  0.44311022847E+03  0.00000000000E+00 0. -1.
          6    1    1    2  501    0 -0.13004406107E+03  0.11072704807E+03 -0.20710444141E+02  0.24327938567E+03  0.17200000000E+03 0. -1.
         -6    1    1    2    0  503  0.13004406107E+03 -0.11072704807E+03 -0.26390135910E+03  0.35832926803E+03  0.17200000000E+03 0. -1.
</event>
<event>
 4    1  0.5739010E+000  0.2602118E+03  0.7818608E-02  0.1107016E+00
         21   -1    0    0  503  502  0.00000000000E+00  0.00000000000E+00  0.27185901035E+03  0.27185901035E+03  0.00000000000E+00 0.  1.
         21   -1    0    0  501  503 -0.00000000000E+00 -0.00000000000E+00 -0.28190815662E+03  0.28190815662E+03  0.00000000000E+00 0.  1.
          6    1    1    2  501    0 -0.13347950075E+03  0.14251110449E+03  0.89484801228E+02  0.27516853322E+03  0.17200000000E+03 0.  1.
         -6    1    1    2    0  502  0.13347950075E+03 -0.14251110449E+03 -0.99533947503E+02  0.27859863375E+03  0.17200000000E+03 0.  1.
</event>
<event>
 4    1  0.5739010E+000  0.1813563E+03  0.7818608E-02  0.1166497E+00
         21   -1    0    0  503  502  0.00000000000E+00  0.00000000000E+00  0.10376875294E+03  0.10376875294E+03  0.00000000000E+00 0.  1.
         21   -1    0    0  501  503 -0.00000000000E+00 -0.00000000000E+00 -0.45077529444E+03  0.45077529444E+03  0.00000000000E+00 0.  1.
          6    1    1    2  501    0  0.31293255694E+02 -0.48237345591E+02 -0.32457585976E+03  0.37180586077E+03  0.17200000000E+03 0.  1.
         -6    1    1    2    0  502 -0.31293255694E+02  0.48237345591E+02 -0.22430681728E+02  0.18273818661E+03  0.17200000000E+03 0.  1.
</event>
<event>
 4    1  0.5739010E+000  0.2474406E+03  0.7818608E-02  0.1114933E+00
         21   -1    0    0  501  502  0.00000000000E+00  0.00000000000E+00  0.26454528698E+03  0.26454528698E+03  0.00000000000E+00 0.  1.
         21   -1    0    0  502  503 -0.00000000000E+00 -0.00000000000E+00 -0.27482503256E+03  0.27482503256E+03  0.00000000000E+00 0.  1.
          6    1    1    2  501    0 -0.17777636845E+03 -0.61976804244E+01 -0.11228924989E+03  0.27172729723E+03  0.17200000000E+03 0.  1.
         -6    1    1    2    0  503  0.17777636845E+03  0.61976804244E+01  0.10200950431E+03  0.26764302231E+03  0.17200000000E+03 0.  1.
</event>
<event>
 4    1  0.5739010E+000  0.2118326E+03  0.7818608E-02  0.1140123E+00
         21   -1    0    0  501  502  0.00000000000E+00  0.00000000000E+00  0.95000428351E+02  0.95000428351E+02  0.00000000000E+00 0.  1.
         21   -1    0    0  502  503 -0.00000000000E+00 -0.00000000000E+00 -0.68007623189E+03  0.68007623189E+03  0.00000000000E+00 0.  1.
          6    1    1    2  501    0 -0.12013923866E+03  0.29250727775E+02 -0.78354380308E+02  0.22585936035E+03  0.17200000000E+03 0.  1.
         -6    1    1    2    0  503  0.12013923866E+03 -0.29250727775E+02 -0.50672142323E+03  0.54921729989E+03  0.17200000000E+03 0.  1.
</event>
<event>
 4    1  0.5739010E+000  0.1842374E+03  0.7818608E-02  0.1163764E+00
         21   -1    0    0  503  502  0.00000000000E+00  0.00000000000E+00  0.41594615128E+03  0.41594615128E+03  0.00000000000E+00 0.  1.
         21   -1    0    0  501  503 -0.00000000000E+00 -0.00000000000E+00 -0.83291749301E+02  0.83291749301E+02  0.00000000000E+00 0.  1.
          6    1    1    2  501    0  0.60085459976E+02 -0.27371035248E+02  0.13080864696E+03  0.22595207056E+03  0.17200000000E+03 0.  1.
         -6    1    1    2    0  502 -0.60085459976E+02  0.27371035248E+02  0.20184575502E+03  0.27328583002E+03  0.17200000000E+03 0.  1.
</event>
<event>
 4    1  0.5739010E+000  0.1736828E+03  0.7818608E-02  0.1174061E+00
         21   -1    0    0  501  502  0.00000000000E+00  0.00000000000E+00  0.10787033131E+03  0.10787033131E+03  0.00000000000E+00 0. -1.
         21   -1    0    0  502  503 -0.00000000000E+00 -0.00000000000E+00 -0.56636148785E+03  0.56636148785E+03  0.00000000000E+00 0. -1.
          6    1    1    2  501    0  0.20644030887E+02  0.12471961482E+02  0.10613648697E+02  0.17400682565E+03  0.17200000000E+03 0. -1.
         -6    1    1    2    0  503 -0.20644030887E+02 -0.12471961482E+02 -0.46910480524E+03  0.50022499351E+03  0.17200000000E+03 0. -1.
</event>
<event>
 4    1  0.5739010E+000  0.1751403E+03  0.7818608E-02  0.1172591E+00
         21   -1    0    0  503  502  0.00000000000E+00  0.00000000000E+00  0.27658572186E+03  0.27658572186E+03  0.00000000000E+00 0. -1.
         21   -1    0    0  501  503 -0.00000000000E+00 -0.00000000000E+00 -0.10659109270E+04  0.10659109270E+04  0.00000000000E+00 0. -1.
          6    1    1    2  501    0 -0.12652699157E+00 -0.33016668063E+02 -0.10300320145E+04  0.10448158055E+04  0.17200000000E+03 0. -1.
         -6    1    1    2    0  502  0.12652699157E+00  0.33016668063E+02  0.24070680945E+03  0.29768084335E+03  0.17200000000E+03 0. -1.
</event>
<event>
 4    1  0.5739010E+000  0.2993814E+03  0.7818608E-02  0.1085550E+00
         21   -1    0    0  503  502  0.00000000000E+00  0.00000000000E+00  0.10200679066E+04  0.10200679066E+04  0.00000000000E+00 0. -1.
         21   -1    0    0  501  503 -0.00000000000E+00 -0.00000000000E+00 -0.10568690603E+03  0.10568690603E+03  0.00000000000E+00 0.  1.
          6    1    1    2  501    0  0.48460875451E+02  0.24020151563E+03  0.22605382788E+03  0.37513938431E+03  0.17200000000E+03 0.  1.
         -6    1    1    2    0  502 -0.48460875451E+02 -0.24020151563E+03  0.68832717267E+03  0.75061542830E+03  0.17200000000E+03 0.  1.
</event>
<event>
 4    1  0.5739010E+000  0.1766105E+03  0.7818608E-02  0.1171124E+00
         21   -1    0    0  501  502  0.00000000000E+00  0.00000000000E+00  0.10681271039E+03  0.10681271039E+03  0.00000000000E+00 0.  1.
         21   -1    0    0  502  503 -0.00000000000E+00 -0.00000000000E+00 -0.42966138384E+03  0.42966138384E+03  0.00000000000E+00 0.  1.
          6    1    1    2  501    0  0.32251807671E+02 -0.23814012915E+02 -0.96031097982E+01  0.17687143926E+03  0.17200000000E+03 0.  1.
         -6    1    1    2    0  503 -0.32251807671E+02  0.23814012915E+02 -0.31324556366E+03  0.35960265497E+03  0.17200000000E+03 0.  1.
</event>
<event>
 4    1  0.5739010E+000  0.1836475E+03  0.7818608E-02  0.1164319E+00
         21   -1    0    0  503  502  0.00000000000E+00  0.00000000000E+00  0.63380805765E+03  0.63380805765E+03  0.00000000000E+00 0. -1.
         21   -1    0    0  501  503 -0.00000000000E+00 -0.00000000000E+00 -0.53581122218E+02  0.53581122218E+02  0.00000000000E+00 0. -1.
          6    1    1    2  501    0 -0.13536625917E+02 -0.62922005911E+02  0.31862648793E+03  0.36776250200E+03  0.17200000000E+03 0. -1.
         -6    1    1    2    0  502  0.13536625917E+02  0.62922005911E+02  0.26160044750E+03  0.31962667786E+03  0.17200000000E+03 0. -1.
</event>
<event>
 4    1  0.5739010E+000  0.2376983E+03  0.7818608E-02  0.1121336E+00
         21   -1    0    0  501  502  0.00000000000E+00  0.00000000000E+00  0.22681215069E+03  0.22681215069E+03  0.00000000000E+00 0. -1.
         21   -1    0    0  502  503 -0.00000000000E+00 -0.00000000000E+00 -0.34993842028E+03  0.34993842028E+03  0.00000000000E+00 0.  1.
          6    1    1    2  501    0  0.71930231924E+02 -0.14745350978E+03  0.93233014540E+02  0.25532898545E+03  0.17200000000E+03 0. -1.
         -6    1    1    2    0  503 -0.71930231924E+02  0.14745350978E+03 -0.21635928413E+03  0.32142158552E+03  0.17200000000E+03 0.  1.
</event>
<event>
 4    1  0.5739010E+000  0.1807417E+03  0.7818608E-02  0.1167087E+00
         21   -1    0    0  503  502  0.00000000000E+00  0.00000000000E+00  0.97822881118E+02  0.97822881118E+02  0.00000000000E+00 0.  1.
         21   -1    0    0  501  503 -0.00000000000E+00 -0.00000000000E+00 -0.39268881050E+03  0.39268881050E+03  0.00000000000E+00 0. -1.
          6    1    1    2  501    0 -0.30388253455E+01  0.55446776609E+02 -0.24229047530E+03  0.30227843773E+03  0.17200000000E+03 0. -1.
         -6    1    1    2    0  502  0.30388253455E+01 -0.55446776609E+02 -0.52575454078E+02  0.18823325388E+03  0.17200000000E+03 0.  1.
</event>
<event>
 4    1  0.5739010E+000  0.1932038E+03  0.7818608E-02  0.1155603E+00
         21   -1    0    0  503  502  0.00000000000E+00  0.00000000000E+00  0.74784385071E+02  0.74784385071E+02  0.00000000000E+00 0.  1.
         21   -1    0    0  501  503 -0.00000000000E+00 -0.00000000000E+00 -0.54357368420E+03  0.54357368420E+03  0.00000000000E+00 0. -1.
          6    1    1    2  501    0 -0.33404735398E+02 -0.81411589023E+02 -0.14599570044E+03  0.24216206912E+03  0.17200000000E+03 0.  1.
         -6    1    1    2    0  502  0.33404735398E+02  0.81411589023E+02 -0.32279359868E+03  0.37619600015E+03  0.17200000000E+03 0. -1.
</event>
<event>
 4    1  0.5739010E+000  0.1827492E+03  0.7818608E-02  0.1165169E+00
         21   -1    0    0  503  502  0.00000000000E+00  0.00000000000E+00  0.53419062187E+02  0.53419062187E+02  0.00000000000E+00 0. -1.
         21   -1    0    0  501  503 -0.00000000000E+00 -0.00000000000E+00 -0.66443854914E+03  0.66443854914E+03  0.00000000000E+00 0. -1.
          6    1    1    2  501    0 -0.38201076507E+02 -0.48517631498E+02 -0.39274057056E+03  0.43317714457E+03  0.17200000000E+03 0. -1.
         -6    1    1    2    0  502  0.38201076507E+02  0.48517631498E+02 -0.21827891640E+03  0.28468046676E+03  0.17200000000E+03 0. -1.
</event>
<event>
 4    1  0.5739010E+000  0.2723075E+03  0.7818608E-02  0.1099966E+00
         21   -1    0    0  501  502  0.00000000000E+00  0.00000000000E+00  0.43363476521E+03  0.43363476521E+03  0.00000000000E+00 0.  1.
         21   -1    0    0  502  503 -0.00000000000E+00 -0.00000000000E+00 -0.23490998408E+03  0.23490998408E+03  0.00000000000E+00 0.  1.
          6    1    1    2  501    0  0.16571470851E+03 -0.13078995589E+03 -0.74993015365E+02  0.28244526820E+03  0.17200000000E+03 0.  1.
         -6    1    1    2    0  503 -0.16571470851E+03  0.13078995589E+03  0.27371779649E+03  0.38609948109E+03  0.17200000000E+03 0.  1.
</event>
<event>
 4    1  0.5739010E+000  0.2029230E+03  0.7818608E-02  0.1147296E+00
         21   -1    0    0  503  502  0.00000000000E+00  0.00000000000E+00  0.80772786949E+02  0.80772786949E+02  0.00000000000E+00 0. -1.
         21   -1    0    0  501  503 -0.00000000000E+00 -0.00000000000E+00 -0.62764022493E+03  0.62764022493E+03  0.00000000000E+00 0.  1.
          6    1    1    2  501    0 -0.76599716306E+02  0.75671836266E+02 -0.42691415637E+03  0.47268746572E+03  0.17200000000E+03 0.  1.
         -6    1    1    2    0  502  0.76599716306E+02 -0.75671836266E+02 -0.11995328161E+03  0.23572554616E+03  0.17200000000E+03 0. -1.
</event>
<event>
 4    1  0.5739010E+000  0.2548122E+03  0.7818608E-02  0.1110301E+00
         21   -1    0    0  501  502  0.00000000000E+00  0.00000000000E+00  0.17961651074E+03  0.17961651074E+03  0.00000000000E+00 0.  1.
         21   -1    0    0  502  503 -0.00000000000E+00 -0.00000000000E+00 -0.36246595080E+03  0.36246595080E+03  0.00000000000E+00 0.  1.
          6    1    1    2  501    0  0.82758539480E+02  0.16880849063E+03 -0.77348865340E+02  0.26629331448E+03  0.17200000000E+03 0.  1.
         -6    1    1    2    0  503 -0.82758539480E+02 -0.16880849063E+03 -0.10550057472E+03  0.27578914705E+03  0.17200000000E+03 0.  1.
</event>
<event>
 4    1  0.5739010E+000  0.1918029E+03  0.7818608E-02  0.1156845E+00
         21   -1    0    0  501  502  0.00000000000E+00  0.00000000000E+00  0.87959232916E+02  0.87959232916E+02  0.00000000000E+00 0. -1.
         21   -1    0    0  502  503 -0.00000000000E+00 -0.00000000000E+00 -0.61261342356E+03  0.61261342356E+03  0.00000000000E+00 0. -1.
          6    1    1    2  501    0 -0.22831186472E+02 -0.81750228658E+02 -0.65019116246E+02  0.20252369846E+03  0.17200000000E+03 0. -1.
         -6    1    1    2    0  503  0.22831186472E+02  0.81750228658E+02 -0.45963507440E+03  0.49804895801E+03  0.17200000000E+03 0. -1.
</event>
<event>
 4    1  0.5739010E+000  0.1793143E+03  0.7818608E-02  0.1168468E+00
         21   -1    0    0  503  502  0.00000000000E+00  0.00000000000E+00  0.62852747564E+03  0.62852747564E+03  0.00000000000E+00 0.  1.
         21   -1    0    0  501  503 -0.00000000000E+00 -0.00000000000E+00 -0.21856448294E+03  0.21856448294E+03  0.00000000000E+00 0.  1.
          6    1    1    2  501    0  0.27260210618E+02  0.42737562487E+02 -0.16569762319E+03  0.24415020102E+03  0.17200000000E+03 0.  1.
         -6    1    1    2    0  502 -0.27260210618E+02 -0.42737562487E+02  0.57566061588E+03  0.60294175756E+03  0.17200000000E+03 0.  1.
</event>
<event>
 4    1  0.5739010E+000  0.1800032E+03  0.7818608E-02  0.1167800E+00
         21   -1    0    0  501  502  0.00000000000E+00  0.00000000000E+00  0.53237298519E+03  0.53237298519E+03  0.00000000000E+00 0. -1.
         21   -1    0    0  502  503 -0.00000000000E+00 -0.00000000000E+00 -0.69890129220E+02  0.69890129220E+02  0.00000000000E+00 0. -1.
          6    1    1    2  501    0 -0.45884648028E+02 -0.26678836466E+02  0.12301014519E+03  0.21801985474E+03  0.17200000000E+03 0. -1.
         -6    1    1    2    0  503  0.45884648028E+02  0.26678836466E+02  0.33947271078E+03  0.38424325967E+03  0.17200000000E+03 0. -1.
</event>
<event>
 4    1  0.5739010E+000  0.3176873E+03  0.7818608E-02  0.1076719E+00
         21   -1    0    0  503  502  0.00000000000E+00  0.00000000000E+00  0.73341628892E+03  0.73341628892E+03  0.00000000000E+00 0. -1.
         21   -1    0    0  501  503 -0.00000000000E+00 -0.00000000000E+00 -0.32060967482E+03  0.32060967482E+03  0.00000000000E+00 0.  1.
          6    1    1    2  501    0  0.14627742095E+02 -0.26669688186E+03 -0.19175750456E+03  0.37107430278E+03  0.17200000000E+03 0.  1.
         -6    1    1    2    0  502 -0.14627742095E+02  0.26669688186E+03  0.60456411866E+03  0.68295166096E+03  0.17200000000E+03 0. -1.
</event>
<event>
 4    1  0.5739010E+000  0.2120031E+03  0.7818608E-02  0.1139990E+00
         21   -1    0    0  501  502  0.00000000000E+00  0.00000000000E+00  0.38670511914E+03  0.38670511914E+03  0.00000000000E+00 0.  1.
         21   -1    0    0  502  503 -0.00000000000E+00 -0.00000000000E+00 -0.11735455123E+03  0.11735455123E+03  0.00000000000E+00 0. -1.
          6    1    1    2  501    0 -0.12371813812E+03 -0.74251748085E+01  0.15938695087E+03  0.26523482243E+03  0.17200000000E+03 0.  1.
         -6    1    1    2    0  503  0.12371813812E+03  0.74251748085E+01  0.10996361704E+03  0.23882484794E+03  0.17200000000E+03 0. -1.
</event>
<event>
 4    1  0.5739010E+000  0.1781426E+03  0.7818608E-02  0.1169613E+00
         21   -1    0    0  503  502  0.00000000000E+00  0.00000000000E+00  0.47205293151E+02  0.47205293151E+02  0.00000000000E+00 0. -1.
         21   -1    0    0  501  503 -0.00000000000E+00 -0.00000000000E+00 -0.12987692177E+04  0.12987692177E+04  0.00000000000E+00 0. -1.
          6    1    1    2  501    0 -0.97190012438E+01 -0.45346867007E+02 -0.10931945631E+04  0.11076141702E+04  0.17200000000E+03 0. -1.
         -6    1    1    2    0  502  0.97190012438E+01  0.45346867007E+02 -0.15836936148E+03  0.23836034063E+03  0.17200000000E+03 0. -1.
</event>
<event>
 4    1  0.5739010E+000  0.1837508E+03  0.7818608E-02  0.1164222E+00
         21   -1    0    0  503  502  0.00000000000E+00  0.00000000000E+00  0.34253920983E+02  0.34253920983E+02  0.00000000000E+00 0. -1.
         21   -1    0    0  501  503 -0.00000000000E+00 -0.00000000000E+00 -0.19900166959E+04  0.19900166959E+04  0.00000000000E+00 0. -1.
          6    1    1    2  501    0  0.60321731521E+02  0.23272981876E+02 -0.16969063355E+04  0.17068261348E+04  0.17200000000E+03 0. -1.
         -6    1    1    2    0  502 -0.60321731521E+02 -0.23272981876E+02 -0.25885643944E+03  0.31744448210E+03  0.17200000000E+03 0. -1.
</event>
<event>
 4    1  0.5739010E+000  0.1825168E+03  0.7818608E-02  0.1165389E+00
         21   -1    0    0  501  502  0.00000000000E+00  0.00000000000E+00  0.41598212963E+03  0.41598212963E+03  0.00000000000E+00 0. -1.
         21   -1    0    0  502  503 -0.00000000000E+00 -0.00000000000E+00 -0.83607947210E+02  0.83607947210E+02  0.00000000000E+00 0.  1.
          6    1    1    2  501    0 -0.60243358797E+02 -0.99556192609E+01  0.21749011614E+03  0.28392662301E+03  0.17200000000E+03 0. -1.
         -6    1    1    2    0  503  0.60243358797E+02  0.99556192609E+01  0.11488406628E+03  0.21566345383E+03  0.17200000000E+03 0.  1.
</event>
<event>
 4    1  0.5739010E+000  0.1891568E+03  0.7818608E-02  0.1159224E+00
         21   -1    0    0  501  502  0.00000000000E+00  0.00000000000E+00  0.30392959182E+03  0.30392959182E+03  0.00000000000E+00 0.  1.
         21   -1    0    0  502  503 -0.00000000000E+00 -0.00000000000E+00 -0.12283437716E+03  0.12283437716E+03  0.00000000000E+00 0.  1.
          6    1    1    2  501    0  0.58889617665E+02  0.52233114343E+02  0.13406445417E+03  0.23184814680E+03  0.17200000000E+03 0.  1.
         -6    1    1    2    0  503 -0.58889617665E+02 -0.52233114343E+02  0.47030760499E+02  0.19491582218E+03  0.17200000000E+03 0.  1.
</event>
<event>
 4    1  0.5739010E+000  0.1849668E+03  0.7818608E-02  0.1163081E+00
         21   -1    0    0  503  502  0.00000000000E+00  0.00000000000E+00  0.78182709755E+02  0.78182709755E+02  0.00000000000E+00 0. -1.
         21   -1    0    0  501  503 -0.00000000000E+00 -0.00000000000E+00 -0.47316997919E+03  0.47316997919E+03  0.00000000000E+00 0.  1.
          6    1    1    2  501    0  0.67859565824E+02  0.48780977563E+01 -0.12190863316E+03  0.22152749570E+03  0.17200000000E+03 0. -1.
         -6    1    1    2    0  502 -0.67859565824E+02 -0.48780977563E+01 -0.27307863628E+03  0.32982519325E+03  0.17200000000E+03 0.  1.
</event>
<event>
 4    1  0.5739010E+000  0.2730065E+03  0.7818608E-02  0.1099571E+00
         21   -1    0    0  501  502  0.00000000000E+00  0.00000000000E+00  0.26870523738E+03  0.26870523738E+03  0.00000000000E+00 0.  1.
         21   -1    0    0  502  503 -0.00000000000E+00 -0.00000000000E+00 -0.33114739203E+03  0.33114739203E+03  0.00000000000E+00 0.  1.
          6    1    1    2  501    0 -0.11809560421E+03  0.17607375097E+03 -0.15207958662E+03  0.31250718100E+03  0.17200000000E+03 0.  1.
         -6    1    1    2    0  503  0.11809560421E+03 -0.17607375097E+03  0.89637431970E+02  0.28734544841E+03  0.17200000000E+03 0.  1.
</event>
<event>
 4    1  0.5739010E+000  0.2061923E+03  0.7818608E-02  0.1144617E+00
         21   -1    0    0  503  502  0.00000000000E+00  0.00000000000E+00  0.14873770799E+03  0.14873770799E+03  0.00000000000E+00 0. -1.
         21   -1    0    0  501  503 -0.00000000000E+00 -0.00000000000E+00 -0.69116837269E+03  0.69116837269E+03  0.00000000000E+00 0. -1.
          6    1    1    2  501    0  0.10087550198E+03 -0.52491856641E+02 -0.59281236438E+03  0.62764780034E+03  0.17200000000E+03 0. -1.
         -6    1    1    2    0  502 -0.10087550198E+03  0.52491856641E+02  0.50381699667E+02  0.21225828034E+03  0.17200000000E+03 0. -1.
</event>
<event>
 4    1  0.5739010E+000  0.2238054E+03  0.7818608E-02  0.1131077E+00
         21   -1    0    0  503  502  0.00000000000E+00  0.00000000000E+00  0.48063934944E+03  0.48063934944E+03  0.00000000000E+00 0. -1.
         21   -1    0    0  501  503 -0.00000000000E+00 -0.00000000000E+00 -0.10447219633E+03  0.10447219633E+03  0.00000000000E+00 0. -1.
          6    1    1    2  501    0 -0.12032602403E+03  0.77630605798E+02  0.17351113466E+03  0.28318717638E+03  0.17200000000E+03 0. -1.
         -6    1    1    2    0  502  0.12032602403E+03 -0.77630605798E+02  0.20265601845E+03  0.30192436939E+03  0.17200000000E+03 0. -1.
</event>
<event>
 4    1  0.5739010E+000  0.1865563E+03  0.7818608E-02  0.1161605E+00
         21   -1    0    0  501  502  0.00000000000E+00  0.00000000000E+00  0.55835768788E+02  0.55835768788E+02  0.00000000000E+00 0.  1.
         21   -1    0    0  502  503 -0.00000000000E+00 -0.00000000000E+00 -0.62356206114E+03  0.62356206114E+03  0.00000000000E+00 0.  1.
          6    1    1    2  501    0  0.56431011196E+02 -0.45108628876E+02 -0.27709536139E+03  0.33404354016E+03  0.17200000000E+03 0. -1.
         -6    1    1    2    0  503 -0.56431011196E+02  0.45108628876E+02 -0.29063093097E+03  0.34535428976E+03  0.17200000000E+03 0. -1.
</event>
<event>
 4    1  0.5739010E+000  0.2131471E+03  0.7818608E-02  0.1139098E+00
         21   -1    0    0  501  502  0.00000000000E+00  0.00000000000E+00  0.16062593656E+03  0.16062593656E+03  0.00000000000E+00 0.  1.
         21   -1    0    0  502  503 -0.00000000000E+00 -0.00000000000E+00 -0.28414502088E+03  0.28414502088E+03  0.00000000000E+00 0. -1.
          6    1    1    2  501    0 -0.83181405202E+02 -0.94490886498E+02 -0.46696846854E+02  0.21820235862E+03  0.17200000000E+03 0. -1.
         -6    1    1    2    0  503  0.83181405202E+02  0.94490886498E+02 -0.76822237468E+02  0.22656859882E+03  0.17200000000E+03 0. -1.
</event>
<event>
 4    1  0.5739010E+000  0.2049555E+03  0.7818608E-02  0.1145624E+00
         21   -1    0    0  503  502  0.00000000000E+00  0.00000000000E+00  0.18813716431E+03  0.18813716431E+03  0.00000000000E+00 0.  1.
         21   -1    0    0  501  503 -0.00000000000E+00 -0.00000000000E+00 -0.27401737048E+03  0.27401737048E+03  0.00000000000E+00 0.  1.
          6    1    1    2  501    0 -0.99419880842E+02  0.50383173682E+02 -0.14237601957E+03  0.24955501968E+03  0.17200000000E+03 0.  1.
         -6    1    1    2    0  502  0.99419880842E+02 -0.50383173682E+02  0.56495813403E+02  0.21259951512E+03  0.17200000000E+03 0.  1.
</event>
<event>
 4    1  0.5739010E+000  0.2127307E+03  0.7818608E-02  0.1139422E+00
         21   -1    0    0  501  502  0.00000000000E+00  0.00000000000E+00  0.25107287449E+03  0.25107287449E+03  0.00000000000E+00 0.  1.
         21   -1    0    0  502  503 -0.00000000000E+00 -0.00000000000E+00 -0.18858445085E+03  0.18858445085E+03  0.00000000000E+00 0. -1.
          6    1    1    2  501    0  0.76603528391E+02  0.99006410554E+02  0.77474553666E+02  0.22639937358E+03  0.17200000000E+03 0.  1.
         -6    1    1    2    0  503 -0.76603528391E+02 -0.99006410554E+02 -0.14986130024E+02  0.21325795175E+03  0.17200000000E+03 0. -1.
</event>
<event>
 4    1  0.5739010E+000  0.1788618E+03  0.7818608E-02  0.1168909E+00
         21   -1    0    0  501  502  0.00000000000E+00  0.00000000000E+00  0.50873623465E+03  0.50873623465E+03  0.00000000000E+00 0. -1.
         21   -1    0    0  502  503 -0.00000000000E+00 -0.00000000000E+00 -0.10415631601E+03  0.10415631601E+03  0.00000000000E+00 0. -1.
          6    1    1    2  501    0  0.74366180064E+01  0.48500066235E+02  0.39519296451E+03  0.43378455357E+03  0.17200000000E+03 0. -1.
         -6    1    1    2    0  503 -0.74366180064E+01 -0.48500066235E+02  0.93869541262E+01  0.17910799709E+03  0.17200000000E+03 0. -1.
</event>
<event>
 4    1  0.5739010E+000  0.2390767E+03  0.7818608E-02  0.1120409E+00
         21   -1    0    0  501  502  0.00000000000E+00  0.00000000000E+00  0.78586215766E+02  0.78586215766E+02  0.00000000000E+00 0.  1.
         21   -1    0    0  502  503 -0.00000000000E+00 -0.00000000000E+00 -0.80892602501E+03  0.80892602501E+03  0.00000000000E+00 0.  1.
          6    1    1    2  501    0  0.15061564964E+03 -0.69918462571E+02 -0.50611163187E+03  0.55973801840E+03  0.17200000000E+03 0.  1.
         -6    1    1    2    0  503 -0.15061564964E+03  0.69918462571E+02 -0.22422817737E+03  0.32777422237E+03  0.17200000000E+03 0.  1.
</event>
<event>
 4    1  0.5739010E+000  0.1913560E+03  0.7818608E-02  0.1157244E+00
         21   -1    0    0  501  502  0.00000000000E+00  0.00000000000E+00  0.85254709158E+02  0.85254709158E+02  0.00000000000E+00 0.  1.
         21   -1    0    0  502  503 -0.00000000000E+00 -0.00000000000E+00 -0.43119877424E+03  0.43119877424E+03  0.00000000000E+00 0. -1.
          6    1    1    2  501    0  0.96445026889E+01  0.83307232183E+02 -0.15677596720E+03  0.24737787948E+03  0.17200000000E+03 0. -1.
         -6    1    1    2    0  503 -0.96445026889E+01 -0.83307232183E+02 -0.18916809788E+03  0.26907560392E+03  0.17200000000E+03 0.  1.
</event>
<event>
 4    1  0.5739010E+000  0.1812961E+03  0.7818608E-02  0.1166555E+00
         21   -1    0    0  503  502  0.00000000000E+00  0.00000000000E+00  0.16333705054E+04  0.16333705054E+04  0.00000000000E+00 0. -1.
         21   -1    0    0  501  503 -0.00000000000E+00 -0.00000000000E+00 -0.51799715747E+02  0.51799715747E+02  0.00000000000E+00 0. -1.
          6    1    1    2  501    0 -0.60802455520E+01 -0.56985220453E+02  0.13188420542E+03  0.22419127631E+03  0.17200000000E+03 0. -1.
         -6    1    1    2    0  502  0.60802455520E+01  0.56985220453E+02  0.14496865842E+04  0.14609789448E+04  0.17200000000E+03 0. -1.
</event>
<event>
 4    1  0.5739010E+000  0.2264043E+03  0.7818608E-02  0.1129196E+00
         21   -1    0    0  501  502  0.00000000000E+00  0.00000000000E+00  0.20590878557E+03  0.20590878557E+03  0.00000000000E+00 0.  1.
         21   -1    0    0  502  503 -0.00000000000E+00 -0.00000000000E+00 -0.25281391255E+03  0.25281391255E+03  0.00000000000E+00 0. -1.
          6    1    1    2  501    0  0.77130104840E+02  0.12540278043E+03  0.49397529294E+01  0.22645818945E+03  0.17200000000E+03 0.  1.
         -6    1    1    2    0  503 -0.77130104840E+02 -0.12540278043E+03 -0.51844879914E+02  0.23226450866E+03  0.17200000000E+03 0. -1.
</event>
<event>
 4    1  0.5739010E+000  0.1727036E+03  0.7818608E-02  0.1175057E+00
         21   -1    0    0  501  502  0.00000000000E+00  0.00000000000E+00  0.51863930431E+03  0.51863930431E+03  0.00000000000E+00 0. -1.
         21   -1    0    0  502  503 -0.00000000000E+00 -0.00000000000E+00 -0.59659031298E+02  0.59659031298E+02  0.00000000000E+00 0. -1.
          6    1    1    2  501    0 -0.15301774779E+02  0.28941752325E+01  0.28437949623E+03  0.33271341788E+03  0.17200000000E+03 0. -1.
         -6    1    1    2    0  503  0.15301774779E+02 -0.28941752325E+01  0.17460077677E+03  0.24558491772E+03  0.17200000000E+03 0. -1.
</event>
<event>
 4    1  0.5739010E+000  0.1728434E+03  0.7818608E-02  0.1174915E+00
         21   -1    0    0  503  502  0.00000000000E+00  0.00000000000E+00  0.10738618084E+03  0.10738618084E+03  0.00000000000E+00 0.  1.
         21   -1    0    0  501  503 -0.00000000000E+00 -0.00000000000E+00 -0.34373899994E+03  0.34373899994E+03  0.00000000000E+00 0.  1.
          6    1    1    2  501    0  0.32230313256E+01 -0.16746851450E+02 -0.21666871024E+03  0.27716452689E+03  0.17200000000E+03 0.  1.
         -6    1    1    2    0  502 -0.32230313256E+01  0.16746851450E+02 -0.19684108853E+02  0.17396065390E+03  0.17200000000E+03 0.  1.
</event>
<event>
 4    1  0.5739010E+000  0.1754558E+03  0.7818608E-02  0.1172275E+00
         21   -1    0    0  503  502  0.00000000000E+00  0.00000000000E+00  0.13543399290E+04  0.13543399290E+04  0.00000000000E+00 0. -1.
         21   -1    0    0  501  503 -0.00000000000E+00 -0.00000000000E+00 -0.22743148776E+02  0.22743148776E+02  0.00000000000E+00 0. -1.
          6    1    1    2  501    0  0.33452010964E+02  0.90390257992E+01  0.68207542346E+03  0.70428092712E+03  0.17200000000E+03 0.  1.
         -6    1    1    2    0  502 -0.33452010964E+02 -0.90390257992E+01  0.64952135672E+03  0.67280215061E+03  0.17200000000E+03 0.  1.
</event>
<event>
 4    1  0.5739010E+000  0.2405422E+03  0.7818608E-02  0.1119432E+00
         21   -1    0    0  501  502  0.00000000000E+00  0.00000000000E+00  0.55816413688E+02  0.55816413688E+02  0.00000000000E+00 0. -1.
         21   -1    0    0  502  503 -0.00000000000E+00 -0.00000000000E+00 -0.10648517369E+04  0.10648517369E+04  0.00000000000E+00 0. -1.
          6    1    1    2  501    0 -0.13649118931E+03 -0.98217743628E+02 -0.41328521395E+03  0.47818954191E+03  0.17200000000E+03 0. -1.
         -6    1    1    2    0  503  0.13649118931E+03  0.98217743628E+02 -0.59575010924E+03  0.64247860865E+03  0.17200000000E+03 0. -1.
</event>
<event>
 4    1  0.5739010E+000  0.2603662E+03  0.7818608E-02  0.1106923E+00
         21   -1    0    0  501  502  0.00000000000E+00  0.00000000000E+00  0.48389921418E+03  0.48389921418E+03  0.00000000000E+00 0. -1.
         21   -1    0    0  502  503 -0.00000000000E+00 -0.00000000000E+00 -0.17486529814E+03  0.17486529814E+03  0.00000000000E+00 0. -1.
          6    1    1    2  501    0 -0.13885789650E+03 -0.13756828601E+03  0.30139927639E+03  0.39828642023E+03  0.17200000000E+03 0. -1.
         -6    1    1    2    0  503  0.13885789650E+03  0.13756828601E+03  0.76346396405E+01  0.26047809209E+03  0.17200000000E+03 0. -1.
</event>
<event>
 4    1  0.5739010E+000  0.2071655E+03  0.7818608E-02  0.1143830E+00
         21   -1    0    0  503  502  0.00000000000E+00  0.00000000000E+00  0.23383822659E+04  0.23383822659E+04  0.00000000000E+00 0.  1.
         21   -1    0    0  501  503 -0.00000000000E+00 -0.00000000000E+00 -0.18670292548E+02  0.18670292548E+02  0.00000000000E+00 0.  1.
          6    1    1    2  501    0  0.10079394917E+03 -0.56339312946E+02  0.10063449438E+04  0.10274471686E+04  0.17200000000E+03 0.  1.
         -6    1    1    2    0  502 -0.10079394917E+03  0.56339312946E+02  0.13133670295E+04  0.13296053898E+04  0.17200000000E+03 0.  1.
</event>
<event>
 4    1  0.5739010E+000  0.2003596E+03  0.7818608E-02  0.1149436E+00
         21   -1    0    0  501  502  0.00000000000E+00  0.00000000000E+00  0.45223405173E+03  0.45223405173E+03  0.00000000000E+00 0. -1.
         21   -1    0    0  502  503 -0.00000000000E+00 -0.00000000000E+00 -0.13946362910E+03  0.13946362910E+03  0.00000000000E+00 0. -1.
          6    1    1    2  501    0  0.10211695473E+03  0.11493123477E+02  0.33475617386E+03  0.39013543837E+03  0.17200000000E+03 0. -1.
         -6    1    1    2    0  503 -0.10211695473E+03 -0.11493123477E+02 -0.21985751235E+02  0.20156224246E+03  0.17200000000E+03 0. -1.
</event>
<event>
 4    1  0.5739010E+000  0.2328454E+03  0.7818608E-02  0.1124653E+00
         21   -1    0    0  503  502  0.00000000000E+00  0.00000000000E+00  0.77404662961E+02  0.77404662961E+02  0.00000000000E+00 0. -1.
         21   -1    0    0  501  503 -0.00000000000E+00 -0.00000000000E+00 -0.71861090225E+03  0.71861090225E+03  0.00000000000E+00 0.  1.
          6    1    1    2  501    0 -0.74963147769E+02  0.13788945978E+03 -0.38390057352E+03  0.44899513025E+03  0.17200000000E+03 0. -1.
         -6    1    1    2    0  502  0.74963147769E+02 -0.13788945978E+03 -0.25730566577E+03  0.34702043496E+03  0.17200000000E+03 0. -1.
</event>
<event>
 4    1  0.5739010E+000  0.1964193E+03  0.7818608E-02  0.1152796E+00
         21   -1    0    0  503  502  0.00000000000E+00  0.00000000000E+00  0.49106688393E+03  0.49106688393E+03  0.00000000000E+00 0. -1.
         21   -1    0    0  501  503 -0.00000000000E+00 -0.00000000000E+00 -0.42405501609E+03  0.42405501609E+03  0.00000000000E+00 0. -1.
          6    1    1    2  501    0  0.94178138605E+02  0.11270126491E+02 -0.37949950474E+03  0.42731769404E+03  0.17200000000E+03 0. -1.
         -6    1    1    2    0  502 -0.94178138605E+02 -0.11270126491E+02  0.44651137257E+03  0.48780420599E+03  0.17200000000E+03 0. -1.
</event>
<event>
 4    1  0.5739010E+000  0.2727368E+03  0.7818608E-02  0.1099723E+00
         21   -1    0    0  503  502  0.00000000000E+00  0.00000000000E+00  0.19600237792E+04  0.19600237792E+04  0.00000000000E+00 0.  1.
         21   -1    0    0  501  503 -0.00000000000E+00 -0.00000000000E+00 -0.58351856456E+02  0.58351856456E+02  0.00000000000E+00 0. -1.
          6    1    1    2  501    0  0.78635208093E+02  0.19651427319E+03  0.35412202234E+03  0.44697624347E+03  0.17200000000E+03 0. -1.
         -6    1    1    2    0  502 -0.78635208093E+02 -0.19651427319E+03  0.15475499004E+04  0.15713993922E+04  0.17200000000E+03 0.  1.
</event>
<event>
 4    1  0.5739010E+000  0.1729722E+03  0.7818608E-02  0.1174783E+00
         21   -1    0    0  501  502  0.00000000000E+00  0.00000000000E+00  0.96500166109E+02  0.96500166109E+02  0.00000000000E+00 0. -1.
         21   -1    0    0  502  503 -0.00000000000E+00 -0.00000000000E+00 -0.99068614386E+03  0.99068614386E+03  0.00000000000E+00 0. -1.
          6    1    1    2  501    0  0.32341158914E+01  0.18025894686E+02  0.34798821941E+01  0.17300723096E+03  0.17200000000E+03 0. -1.
         -6    1    1    2    0  503 -0.32341158914E+01 -0.18025894686E+02 -0.89766585995E+03  0.91417907901E+03  0.17200000000E+03 0. -1.
</event>
<event>
 4    1  0.5739010E+000  0.1859809E+03  0.7818608E-02  0.1162137E+00
         21   -1    0    0  501  502  0.00000000000E+00  0.00000000000E+00  0.85047094159E+02  0.85047094159E+02  0.00000000000E+00 0. -1.
         21   -1    0    0  502  503 -0.00000000000E+00 -0.00000000000E+00 -0.75259347014E+03  0.75259347014E+03  0.00000000000E+00 0.  1.
          6    1    1    2  501    0  0.70595859902E+02  0.45961584242E+01 -0.49839553822E+02  0.19254319316E+03  0.17200000000E+03 0. -1.
         -6    1    1    2    0  503 -0.70595859902E+02 -0.45961584242E+01 -0.61770682215E+03  0.64509737113E+03  0.17200000000E+03 0.  1.
</event>
<event>
 4    1  0.5739010E+000  0.1845300E+03  0.7818608E-02  0.1163489E+00
         21   -1    0    0  501  502  0.00000000000E+00  0.00000000000E+00  0.15893603674E+04  0.15893603674E+04  0.00000000000E+00 0.  1.
         21   -1    0    0  502  503 -0.00000000000E+00 -0.00000000000E+00 -0.40907969719E+02  0.40907969719E+02  0.00000000000E+00 0.  1.
          6    1    1    2  501    0  0.10477705168E+02 -0.66011742369E+02  0.13367717778E+04  0.13494480792E+04  0.17200000000E+03 0.  1.
         -6    1    1    2    0  503 -0.10477705168E+02  0.66011742369E+02  0.21168061982E+03  0.28082025789E+03  0.17200000000E+03 0.  1.
</event>
<event>
 4    1  0.5739010E+000  0.1776453E+03  0.7818608E-02  0.1170102E+00
         21   -1    0    0  501  502  0.00000000000E+00  0.00000000000E+00  0.20186314245E+03  0.20186314245E+03  0.00000000000E+00 0. -1.
         21   -1    0    0  502  503 -0.00000000000E+00 -0.00000000000E+00 -0.40904647694E+03  0.40904647694E+03  0.00000000000E+00 0. -1.
          6    1    1    2  501    0  0.72178410019E+01 -0.43837699015E+02  0.13649882776E+03  0.22403073687E+03  0.17200000000E+03 0. -1.
         -6    1    1    2    0  503 -0.72178410019E+01  0.43837699015E+02 -0.34368216225E+03  0.38687888251E+03  0.17200000000E+03 0. -1.
</event>
<event>
 4    1  0.5739010E+000  0.2109291E+03  0.7818608E-02  0.1140832E+00
         21   -1    0    0  501  502  0.00000000000E+00  0.00000000000E+00  0.17358726574E+04  0.17358726574E+04  0.00000000000E+00 0.  1.
         21   -1    0    0  502  503 -0.00000000000E+00 -0.00000000000E+00 -0.55152684000E+02  0.55152684000E+02  0.00000000000E+00 0.  1.
          6    1    1    2  501    0  0.43169868850E+02 -0.11420783634E+03  0.14955444172E+04  0.15103457125E+04  0.17200000000E+03 0.  1.
         -6    1    1    2    0  503 -0.43169868850E+02  0.11420783634E+03  0.18517555617E+03  0.28067962887E+03  0.17200000000E+03 0.  1.
</event>
<event>
 4    1  0.5739010E+000  0.1786482E+03  0.7818608E-02  0.1169118E+00
         21   -1    0    0  501  502  0.00000000000E+00  0.00000000000E+00  0.34444506834E+03  0.34444506834E+03  0.00000000000E+00 0.  1.
         21   -1    0    0  502  503 -0.00000000000E+00 -0.00000000000E+00 -0.92962287756E+02  0.92962287756E+02  0.00000000000E+00 0.  1.
          6    1    1    2  501    0 -0.37237972114E+02 -0.30733087947E+02  0.11320490052E+03  0.21149595449E+03  0.17200000000E+03 0. -1.
         -6    1    1    2    0  503  0.37237972114E+02  0.30733087947E+02  0.13827788006E+03  0.22591140160E+03  0.17200000000E+03 0. -1.
</event>
<event>
 4    1  0.5739010E+000  0.2119330E+03  0.7818608E-02  0.1140044E+00
         21   -1    0    0  501  502  0.00000000000E+00  0.00000000000E+00  0.63036227454E+03  0.63036227454E+03  0.00000000000E+00 0. -1.
         21   -1    0    0  502  503 -0.00000000000E+00 -0.00000000000E+00 -0.20896499095E+03  0.20896499095E+03  0.00000000000E+00 0. -1.
          6    1    1    2  501    0  0.35252126164E+02  0.11869663679E+03  0.55138084355E+03  0.59070842099E+03  0.17200000000E+03 0. -1.
         -6    1    1    2    0  503 -0.35252126164E+02 -0.11869663679E+03 -0.12998355996E+03  0.24861884451E+03  0.17200000000E+03 0. -1.
</event>
<event>
 4    1  0.5739010E+000  0.1916715E+03  0.7818608E-02  0.1156962E+00
         21   -1    0    0  503  502  0.00000000000E+00  0.00000000000E+00  0.80659889445E+02  0.80659889445E+02  0.00000000000E+00 0. -1.
         21   -1    0    0  501  503 -0.00000000000E+00 -0.00000000000E+00 -0.46638486055E+03  0.46638486055E+03  0.00000000000E+00 0. -1.
          6    1    1    2  501    0  0.84435080719E+02 -0.49691094147E+01 -0.23471054684E+03  0.30302972743E+03  0.17200000000E+03 0. -1.
         -6    1    1    2    0  502 -0.84435080719E+02  0.49691094147E+01 -0.15101442426E+03  0.24401502257E+03  0.17200000000E+03 0. -1.
</event>
<event>
 4    1  0.5739010E+000  0.2427241E+03  0.7818608E-02  0.1117991E+00
         21   -1    0    0  503  502  0.00000000000E+00  0.00000000000E+00  0.56892550446E+03  0.56892550446E+03  0.00000000000E+00 0.  1.
         21   -1    0    0  501  503 -0.00000000000E+00 -0.00000000000E+00 -0.15450076890E+03  0.15450076890E+03  0.00000000000E+00 0.  1.
          6    1    1    2  501    0  0.14594589493E+03 -0.89614701073E+02 -0.49582737636E+00  0.24272462739E+03  0.17200000000E+03 0.  1.
         -6    1    1    2    0  502 -0.14594589493E+03  0.89614701073E+02  0.41492056294E+03  0.48070164598E+03  0.17200000000E+03 0.  1.
</event>
<event>
 4    1  0.5739010E+000  0.1889743E+03  0.7818608E-02  0.1159390E+00
         21   -1    0    0  503  502  0.00000000000E+00  0.00000000000E+00  0.55515846933E+03  0.55515846933E+03  0.00000000000E+00 0. -1.
         21   -1    0    0  501  503 -0.00000000000E+00 -0.00000000000E+00 -0.72445944558E+02  0.72445944558E+02  0.00000000000E+00 0.  1.
          6    1    1    2  501    0 -0.12612306298E+02 -0.77254154994E+02  0.13630090359E+03  0.23300045291E+03  0.17200000000E+03 0. -1.
         -6    1    1    2    0  502  0.12612306298E+02  0.77254154994E+02  0.34641162118E+03  0.39460396098E+03  0.17200000000E+03 0. -1.
</event>
<event>
 4    1  0.5739010E+000  0.1876111E+03  0.7818608E-02  0.1160634E+00
         21   -1    0    0  503  502  0.00000000000E+00  0.00000000000E+00  0.52014802254E+03  0.52014802254E+03  0.00000000000E+00 0. -1.
         21   -1    0    0  501  503 -0.00000000000E+00 -0.00000000000E+00 -0.79315124029E+02  0.79315124029E+02  0.00000000000E+00 0.  1.
          6    1    1    2  501    0 -0.59849377976E+02 -0.45077570560E+02  0.10556306373E+03  0.21527075007E+03  0.17200000000E+03 0.  1.
         -6    1    1    2    0  502  0.59849377976E+02  0.45077570560E+02  0.33526983478E+03  0.38419239650E+03  0.17200000000E+03 0. -1.
</event>
<event>
 4    1  0.5739010E+000  0.2046968E+03  0.7818608E-02  0.1145836E+00
         21   -1    0    0  503  502  0.00000000000E+00  0.00000000000E+00  0.16626267610E+04  0.16626267610E+04  0.00000000000E+00 0. -1.
         21   -1    0    0  501  503 -0.00000000000E+00 -0.00000000000E+00 -0.26362626034E+02  0.26362626034E+02  0.00000000000E+00 0. -1.
          6    1    1    2  501    0  0.10746270018E+03 -0.27722484598E+02  0.64090367444E+03  0.67279884660E+03  0.17200000000E+03 0. -1.
         -6    1    1    2    0  502 -0.10746270018E+03  0.27722484598E+02  0.99536046057E+03  0.10161905405E+04  0.17200000000E+03 0. -1.
</event>
<event>
 4    1  0.5739010E+000  0.2137275E+03  0.7818608E-02  0.1138648E+00
         21   -1    0    0  503  502  0.00000000000E+00  0.00000000000E+00  0.11858532257E+03  0.11858532257E+03  0.00000000000E+00 0.  1.
         21   -1    0    0  501  503 -0.00000000000E+00 -0.00000000000E+00 -0.89441806192E+03  0.89441806192E+03  0.00000000000E+00 0. -1.
          6    1    1    2  501    0 -0.10741529983E+03  0.67508343807E+02 -0.77009045675E+03  0.79919880800E+03  0.17200000000E+03 0. -1.
         -6    1    1    2    0  502  0.10741529983E+03 -0.67508343807E+02 -0.57422825973E+01  0.21380457650E+03  0.17200000000E+03 0.  1.
</event>
<event>
 4    1  0.5739010E+000  0.1979222E+03  0.7818608E-02  0.1151504E+00
         21   -1    0    0  503  502  0.00000000000E+00  0.00000000000E+00  0.72018395735E+03  0.72018395735E+03  0.00000000000E+00 0. -1.
         21   -1    0    0  501  503 -0.00000000000E+00 -0.00000000000E+00 -0.63515838203E+02  0.63515838203E+02  0.00000000000E+00 0. -1.
          6    1    1    2  501    0  0.57958489909E+02 -0.78930412716E+02  0.17983076618E+03  0.26741783985E+03  0.17200000000E+03 0. -1.
         -6    1    1    2    0  502 -0.57958489909E+02  0.78930412716E+02  0.47683735297E+03  0.51628195571E+03  0.17200000000E+03 0. -1.
</event>
<event>
 4    1  0.5739010E+000  0.2221670E+03  0.7818608E-02  0.1132278E+00
         21   -1    0    0  503  502  0.00000000000E+00  0.00000000000E+00  0.89207808932E+03  0.89207808932E+03  0.00000000000E+00 0.  1.
         21   -1    0    0  501  503 -0.00000000000E+00 -0.00000000000E+00 -0.56016894068E+02  0.56016894068E+02  0.00000000000E+00 0.  1.
          6    1    1    2  501    0 -0.86746074043E+02 -0.11067656456E+03  0.36551559284E+03  0.42773804122E+03  0.17200000000E+03 0. -1.
         -6    1    1    2    0  502  0.86746074043E+02  0.11067656456E+03  0.47054560242E+03  0.52035694217E+03  0.17200000000E+03 0. -1.
</event>
<event>
 4    1  0.5739010E+000  0.1965360E+03  0.7818608E-02  0.1152695E+00
         21   -1    0    0  503  502  0.00000000000E+00  0.00000000000E+00  0.20321099447E+03  0.20321099447E+03  0.00000000000E+00 0.  1.
         21   -1    0    0  501  503 -0.00000000000E+00 -0.00000000000E+00 -0.52158571786E+03  0.52158571786E+03  0.00000000000E+00 0.  1.
          6    1    1    2  501    0  0.84309548690E+02  0.43980681816E+02 -0.44810144314E+03  0.48930696267E+03  0.17200000000E+03 0.  1.
         -6    1    1    2    0  502 -0.84309548690E+02 -0.43980681816E+02  0.12972671976E+03  0.23548974966E+03  0.17200000000E+03 0.  1.
</event>
<event>
 4    1  0.5739010E+000  0.2525431E+03  0.7818608E-02  0.1111708E+00
         21   -1    0    0  503  502  0.00000000000E+00  0.00000000000E+00  0.75505703604E+03  0.75505703604E+03  0.00000000000E+00 0. -1.
         21   -1    0    0  501  503 -0.00000000000E+00 -0.00000000000E+00 -0.14457032513E+03  0.14457032513E+03  0.00000000000E+00 0.  1.
          6    1    1    2  501    0 -0.11564472248E+03 -0.14429245546E+03  0.15215705947E+02  0.25300105187E+03  0.17200000000E+03 0.  1.
         -6    1    1    2    0  502  0.11564472248E+03  0.14429245546E+03  0.59527100496E+03  0.64662630931E+03  0.17200000000E+03 0. -1.
</event>
<event>
 4    1  0.5739010E+000  0.1805217E+03  0.7818608E-02  0.1167299E+00
         21   -1    0    0  501  502  0.00000000000E+00  0.00000000000E+00  0.15138135425E+03  0.15138135425E+03  0.00000000000E+00 0.  1.
         21   -1    0    0  502  503 -0.00000000000E+00 -0.00000000000E+00 -0.25044749475E+03  0.25044749475E+03  0.00000000000E+00 0.  1.
          6    1    1    2  501    0 -0.37680756572E+02  0.39802585251E+02  0.25763676064E+02  0.18235090406E+03  0.17200000000E+03 0.  1.
         -6    1    1    2    0  503  0.37680756572E+02 -0.39802585251E+02 -0.12482981656E+03  0.21947794493E+03  0.17200000000E+03 0.  1.
</event>
<event>
 4    1  0.5739010E+000  0.1883018E+03  0.7818608E-02  0.1160002E+00
         21   -1    0    0  501  502  0.00000000000E+00  0.00000000000E+00  0.30628015537E+03  0.30628015537E+03  0.00000000000E+00 0.  1.
         21   -1    0    0  502  503 -0.00000000000E+00 -0.00000000000E+00 -0.11595827597E+03  0.11595827597E+03  0.00000000000E+00 0.  1.
          6    1    1    2  501    0  0.74364259417E+02 -0.18534773092E+02  0.10370269415E+03  0.21496936914E+03  0.17200000000E+03 0. -1.
         -6    1    1    2    0  503 -0.74364259417E+02  0.18534773092E+02  0.86619185254E+02  0.20726906220E+03  0.17200000000E+03 0. -1.
</event>
<event>
 4    1  0.5739010E+000  0.1759278E+03  0.7818608E-02  0.1171803E+00
         21   -1    0    0  503  502  0.00000000000E+00  0.00000000000E+00  0.13554625909E+03  0.13554625909E+03  0.00000000000E+00 0. -1.
         21   -1    0    0  501  503 -0.00000000000E+00 -0.00000000000E+00 -0.25415835640E+03  0.25415835640E+03  0.00000000000E+00 0. -1.
          6    1    1    2  501    0 -0.34612142210E+02  0.12983694821E+02 -0.12141027166E+03  0.21375460413E+03  0.17200000000E+03 0.  1.
         -6    1    1    2    0  502  0.34612142210E+02 -0.12983694821E+02  0.27981743538E+01  0.17595001136E+03  0.17200000000E+03 0.  1.
</event>
<event>
 4    1  0.5739010E+000  0.1871905E+03  0.7818608E-02  0.1161020E+00
         21   -1    0    0  501  502  0.00000000000E+00  0.00000000000E+00  0.20418892197E+03  0.20418892197E+03  0.00000000000E+00 0.  1.
         21   -1    0    0  502  503 -0.00000000000E+00 -0.00000000000E+00 -0.17649278291E+03  0.17649278291E+03  0.00000000000E+00 0.  1.
          6    1    1    2  501    0  0.73756634480E+02 -0.40309165375E+01  0.45516509828E+02  0.19264486000E+03  0.17200000000E+03 0.  1.
         -6    1    1    2    0  503 -0.73756634480E+02  0.40309165375E+01 -0.17820370772E+02  0.18803684488E+03  0.17200000000E+03 0.  1.
</event>
<event>
 4    1  0.5739010E+000  0.1873553E+03  0.7818608E-02  0.1160868E+00
         21   -1    0    0  501  502  0.00000000000E+00  0.00000000000E+00  0.15027029941E+02  0.15027029941E+02  0.00000000000E+00 0. -1.
         21   -1    0    0  502  503 -0.00000000000E+00 -0.00000000000E+00 -0.23492912075E+04  0.23492912075E+04  0.00000000000E+00 0. -1.
          6    1    1    2  501    0 -0.49099425422E+02 -0.55742907486E+02 -0.12562983114E+04  0.12701919038E+04  0.17200000000E+03 0. -1.
         -6    1    1    2    0  503  0.49099425422E+02  0.55742907486E+02 -0.10779658661E+04  0.10941263336E+04  0.17200000000E+03 0. -1.
</event>
<event>
 4    1  0.5739010E+000  0.1907010E+03  0.7818608E-02  0.1157831E+00
         21   -1    0    0  501  502  0.00000000000E+00  0.00000000000E+00  0.14721794355E+03  0.14721794355E+03  0.00000000000E+00 0.  1.
         21   -1    0    0  502  503 -0.00000000000E+00 -0.00000000000E+00 -0.33053602549E+03  0.33053602549E+03  0.00000000000E+00 0.  1.
          6    1    1    2  501    0 -0.77325748623E+02 -0.28347920692E+02  0.28409821378E+02  0.19280558591E+03  0.17200000000E+03 0.  1.
         -6    1    1    2    0  503  0.77325748623E+02  0.28347920692E+02 -0.21172790331E+03  0.28494838313E+03  0.17200000000E+03 0.  1.
</event>
<event>
 4    1  0.5739010E+000  0.2641259E+03  0.7818608E-02  0.1104689E+00
         21   -1    0    0  503  502  0.00000000000E+00  0.00000000000E+00  0.16534045034E+03  0.16534045034E+03  0.00000000000E+00 0.  1.
         21   -1    0    0  501  503 -0.00000000000E+00 -0.00000000000E+00 -0.46640096038E+03  0.46640096038E+03  0.00000000000E+00 0.  1.
          6    1    1    2  501    0 -0.18594693452E+03  0.74848025287E+02 -0.24806430899E+03  0.36235119807E+03  0.17200000000E+03 0.  1.
         -6    1    1    2    0  502  0.18594693452E+03 -0.74848025287E+02 -0.52996201049E+02  0.26939021265E+03  0.17200000000E+03 0.  1.
</event>
<event>
 4    1  0.5739010E+000  0.2072391E+03  0.7818608E-02  0.1143771E+00
         21   -1    0    0  503  502  0.00000000000E+00  0.00000000000E+00  0.18024150320E+03  0.18024150320E+03  0.00000000000E+00 0.  1.
         21   -1    0    0  501  503 -0.00000000000E+00 -0.00000000000E+00 -0.24493462398E+03  0.24493462398E+03  0.00000000000E+00 0. -1.
          6    1    1    2  501    0  0.10135483360E+03  0.55598969634E+02 -0.67385989215E+02  0.21791952474E+03  0.17200000000E+03 0. -1.
         -6    1    1    2    0  502 -0.10135483360E+03 -0.55598969634E+02  0.26928684338E+01  0.20725660245E+03  0.17200000000E+03 0. -1.
</event>
<event>
 4    1  0.5739010E+000  0.2386822E+03  0.7818608E-02  0.1120674E+00
         21   -1    0    0  503  502  0.00000000000E+00  0.00000000000E+00  0.27608291134E+03  0.27608291134E+03  0.00000000000E+00 0. -1.
         21   -1    0    0  501  503 -0.00000000000E+00 -0.00000000000E+00 -0.21124788351E+03  0.21124788351E+03  0.00000000000E+00 0.  1.
          6    1    1    2  501    0  0.14997452599E+03 -0.69948957938E+02 -0.46916485038E+01  0.23872835342E+03  0.17200000000E+03 0. -1.
         -6    1    1    2    0  502 -0.14997452599E+03  0.69948957938E+02  0.69526676334E+02  0.24860244143E+03  0.17200000000E+03 0.  1.
</event>
<event>
 4    1  0.5739010E+000  0.3382267E+03  0.7818608E-02  0.1067554E+00
         21   -1    0    0  503  502  0.00000000000E+00  0.00000000000E+00  0.43850475750E+03  0.43850475750E+03  0.00000000000E+00 0.  1.
         21   -1    0    0  501  503 -0.00000000000E+00 -0.00000000000E+00 -0.31294673619E+03  0.31294673619E+03  0.00000000000E+00 0.  1.
          6    1    1    2  501    0  0.28768456051E+03  0.45287047219E+02  0.21603378062E+03  0.40133267668E+03  0.17200000000E+03 0.  1.
         -6    1    1    2    0  502 -0.28768456051E+03 -0.45287047219E+02 -0.90475759311E+02  0.35011881701E+03  0.17200000000E+03 0.  1.
</event>
<event>
 4    1  0.5739010E+000  0.1954890E+03  0.7818608E-02  0.1153602E+00
         21   -1    0    0  503  502  0.00000000000E+00  0.00000000000E+00  0.71591621667E+02  0.71591621667E+02  0.00000000000E+00 0. -1.
         21   -1    0    0  501  503 -0.00000000000E+00 -0.00000000000E+00 -0.54022531036E+03  0.54022531036E+03  0.00000000000E+00 0. -1.
          6    1    1    2  501    0 -0.10638510639E+02 -0.92297273544E+02 -0.26766582104E+03  0.33145279659E+03  0.17200000000E+03 0. -1.
         -6    1    1    2    0  502  0.10638510639E+02  0.92297273544E+02 -0.20096786766E+03  0.28036413544E+03  0.17200000000E+03 0. -1.
</event>
<event>
 4    1  0.5739010E+000  0.1754395E+03  0.7818608E-02  0.1172291E+00
         21   -1    0    0  503  502  0.00000000000E+00  0.00000000000E+00  0.37893579151E+03  0.37893579151E+03  0.00000000000E+00 0.  1.
         21   -1    0    0  501  503 -0.00000000000E+00 -0.00000000000E+00 -0.87744707505E+02  0.87744707505E+02  0.00000000000E+00 0.  1.
          6    1    1    2  501    0  0.29091585483E+02  0.18673444108E+02  0.81989712151E+02  0.19365260329E+03  0.17200000000E+03 0.  1.
         -6    1    1    2    0  502 -0.29091585483E+02 -0.18673444108E+02  0.20920137185E+03  0.27302789573E+03  0.17200000000E+03 0.  1.
</event>
<event>
 4    1  0.5739010E+000  0.1945883E+03  0.7818608E-02  0.1154387E+00
         21   -1    0    0  503  502  0.00000000000E+00  0.00000000000E+00  0.33248726908E+03  0.33248726908E+03  0.00000000000E+00 0. -1.
         21   -1    0    0  501  503 -0.00000000000E+00 -0.00000000000E+00 -0.13852124948E+03  0.13852124948E+03  0.00000000000E+00 0. -1.
          6    1    1    2  501    0 -0.61281776191E+02 -0.67269101283E+02 -0.23393591816E+01  0.19460231417E+03  0.17200000000E+03 0. -1.
         -6    1    1    2    0  502  0.61281776191E+02  0.67269101283E+02  0.19630537878E+03  0.27640620438E+03  0.17200000000E+03 0. -1.
</event>
<event>
 4    1  0.5739010E+000  0.1842034E+03  0.7818608E-02  0.1163796E+00
         21   -1    0    0  503  502  0.00000000000E+00  0.00000000000E+00  0.44749237059E+03  0.44749237059E+03  0.00000000000E+00 0.  1.
         21   -1    0    0  501  503 -0.00000000000E+00 -0.00000000000E+00 -0.80577954765E+02  0.80577954765E+02  0.00000000000E+00 0. -1.
          6    1    1    2  501    0  0.64295877116E+02 -0.14591919489E+02  0.24758679825E+03  0.30859375657E+03  0.17200000000E+03 0.  1.
         -6    1    1    2    0  502 -0.64295877116E+02  0.14591919489E+02  0.11932761758E+03  0.21947656879E+03  0.17200000000E+03 0.  1.
</event>
<event>
 4    1  0.5739010E+000  0.1867393E+03  0.7818608E-02  0.1161436E+00
         21   -1    0    0  503  502  0.00000000000E+00  0.00000000000E+00  0.41624807237E+02  0.41624807237E+02  0.00000000000E+00 0. -1.
         21   -1    0    0  501  503 -0.00000000000E+00 -0.00000000000E+00 -0.84453378701E+03  0.84453378701E+03  0.00000000000E+00 0. -1.
          6    1    1    2  501    0 -0.70552073771E+02 -0.17605512446E+02 -0.36176946116E+03  0.40712245358E+03  0.17200000000E+03 0. -1.
         -6    1    1    2    0  502  0.70552073771E+02  0.17605512446E+02 -0.44113951861E+03  0.47903614067E+03  0.17200000000E+03 0. -1.
</event>
<event>
 4    1  0.5739010E+000  0.1897806E+03  0.7818608E-02  0.1158659E+00
         21   -1    0    0  503  502  0.00000000000E+00  0.00000000000E+00  0.69530989999E+03  0.69530989999E+03  0.00000000000E+00 0.  1.
         21   -1    0    0  501  503 -0.00000000000E+00 -0.00000000000E+00 -0.53454590005E+02  0.53454590005E+02  0.00000000000E+00 0.  1.
          6    1    1    2  501    0 -0.76245422761E+02  0.24886287021E+02  0.25505031155E+03  0.31791092022E+03  0.17200000000E+03 0.  1.
         -6    1    1    2    0  502  0.76245422761E+02 -0.24886287021E+02  0.38680499844E+03  0.43085356978E+03  0.17200000000E+03 0.  1.
</event>
<event>
 4    1  0.5739010E+000  0.3359127E+03  0.7818608E-02  0.1068550E+00
         21   -1    0    0  503  502  0.00000000000E+00  0.00000000000E+00  0.69695631237E+02  0.69695631237E+02  0.00000000000E+00 0. -1.
         21   -1    0    0  501  503 -0.00000000000E+00 -0.00000000000E+00 -0.21678313818E+04  0.21678313818E+04  0.00000000000E+00 0. -1.
          6    1    1    2  501    0  0.21557761130E+02 -0.28773014000E+03 -0.16119846558E+04  0.16466122497E+04  0.17200000000E+03 0. -1.
         -6    1    1    2    0  502 -0.21557761130E+02  0.28773014000E+03 -0.48615109481E+03  0.59091476332E+03  0.17200000000E+03 0. -1.
</event>
<event>
 4    1  0.5739010E+000  0.2988220E+03  0.7818608E-02  0.1085831E+00
         21   -1    0    0  503  502  0.00000000000E+00  0.00000000000E+00  0.56603841370E+03  0.56603841370E+03  0.00000000000E+00 0. -1.
         21   -1    0    0  501  503 -0.00000000000E+00 -0.00000000000E+00 -0.19729492755E+03  0.19729492755E+03  0.00000000000E+00 0.  1.
          6    1    1    2  501    0 -0.21556767661E+03  0.11507031368E+03  0.13507230255E+02  0.29912713945E+03  0.17200000000E+03 0.  1.
         -6    1    1    2    0  502  0.21556767661E+03 -0.11507031368E+03  0.35523625589E+03  0.46420620180E+03  0.17200000000E+03 0. -1.
</event>
<event>
 4    1  0.5739010E+000  0.1911318E+03  0.7818608E-02  0.1157444E+00
         21   -1    0    0  501  502  0.00000000000E+00  0.00000000000E+00  0.13732339688E+03  0.13732339688E+03  0.00000000000E+00 0.  1.
         21   -1    0    0  502  503 -0.00000000000E+00 -0.00000000000E+00 -0.30016456008E+03  0.30016456008E+03  0.00000000000E+00 0. -1.
          6    1    1    2  501    0 -0.73011466721E+01  0.83030398770E+02 -0.76488256608E+01  0.19128475736E+03  0.17200000000E+03 0.  1.
         -6    1    1    2    0  503  0.73011466721E+01 -0.83030398770E+02 -0.15519233754E+03  0.24620319960E+03  0.17200000000E+03 0. -1.
</event>
<event>
 4    1  0.5739010E+000  0.1797324E+03  0.7818608E-02  0.1168062E+00
         21   -1    0    0  503  502  0.00000000000E+00  0.00000000000E+00  0.46218859043E+03  0.46218859043E+03  0.00000000000E+00 0. -1.
         21   -1    0    0  501  503 -0.00000000000E+00 -0.00000000000E+00 -0.96899716672E+02  0.96899716672E+02  0.00000000000E+00 0. -1.
          6    1    1    2  501    0  0.19653036700E+02 -0.48306373781E+02  0.35065272663E+02  0.18312105544E+03  0.17200000000E+03 0. -1.
         -6    1    1    2    0  502 -0.19653036700E+02  0.48306373781E+02  0.33022360109E+03  0.37596725166E+03  0.17200000000E+03 0. -1.
</event>
<event>
 4    1  0.5739010E+000  0.2246666E+03  0.7818608E-02  0.1130451E+00
         21   -1    0    0  501  502  0.00000000000E+00  0.00000000000E+00  0.11246635022E+04  0.11246635022E+04  0.00000000000E+00 0.  1.
         21   -1    0    0  502  503 -0.00000000000E+00 -0.00000000000E+00 -0.16914561621E+03  0.16914561621E+03  0.00000000000E+00 0.  1.
          6    1    1    2  501    0  0.13434870922E+03 -0.53305681994E+02  0.10322378862E+04  0.10564043379E+04  0.17200000000E+03 0.  1.
         -6    1    1    2    0  503 -0.13434870922E+03  0.53305681994E+02 -0.76720000177E+02  0.23740478055E+03  0.17200000000E+03 0.  1.
</event>
<event>
 4    1  0.5739010E+000  0.2345408E+03  0.7818608E-02  0.1123484E+00
         21   -1    0    0  501  502  0.00000000000E+00  0.00000000000E+00  0.39310441273E+02  0.39310441273E+02  0.00000000000E+00 0.  1.
         21   -1    0    0  502  503 -0.00000000000E+00 -0.00000000000E+00 -0.13998856588E+04  0.13998856588E+04  0.00000000000E+00 0.  1.
          6    1    1    2  501    0  0.15603117677E+03 -0.32858477159E+02 -0.66632599185E+03  0.70639913297E+03  0.17200000000E+03 0.  1.
         -6    1    1    2    0  503 -0.15603117677E+03  0.32858477159E+02 -0.69424922569E+03  0.73279696712E+03  0.17200000000E+03 0.  1.
</event>
<event>
 4    1  0.5739010E+000  0.1726533E+03  0.7818608E-02  0.1175109E+00
         21   -1    0    0  501  502  0.00000000000E+00  0.00000000000E+00  0.29100490316E+03  0.29100490316E+03  0.00000000000E+00 0. -1.
         21   -1    0    0  502  503 -0.00000000000E+00 -0.00000000000E+00 -0.12236797665E+03  0.12236797665E+03  0.00000000000E+00 0. -1.
          6    1    1    2  501    0  0.14993943381E+02  0.58206204738E+00  0.16773680614E+03  0.24071724755E+03  0.17200000000E+03 0. -1.
         -6    1    1    2    0  503 -0.14993943381E+02 -0.58206204738E+00  0.90012037357E+00  0.17265563226E+03  0.17200000000E+03 0. -1.
</event>
<event>
 4    1  0.5739010E+000  0.2123071E+03  0.7818608E-02  0.1139752E+00
         21   -1    0    0  503  502  0.00000000000E+00  0.00000000000E+00  0.41992363585E+03  0.41992363585E+03  0.00000000000E+00 0. -1.
         21   -1    0    0  501  503 -0.00000000000E+00 -0.00000000000E+00 -0.23088393786E+03  0.23088393786E+03  0.00000000000E+00 0. -1.
          6    1    1    2  501    0  0.36795941304E+01  0.12440569855E+03  0.33255311668E+03  0.39454517189E+03  0.17200000000E+03 0. -1.
         -6    1    1    2    0  502 -0.36795941304E+01 -0.12440569855E+03 -0.14351341869E+03  0.25626240182E+03  0.17200000000E+03 0. -1.
</event>
<event>
 4    1  0.5739010E+000  0.1781477E+03  0.7818608E-02  0.1169608E+00
         21   -1    0    0  501  502  0.00000000000E+00  0.00000000000E+00  0.17567226341E+03  0.17567226341E+03  0.00000000000E+00 0. -1.
         21   -1    0    0  502  503 -0.00000000000E+00 -0.00000000000E+00 -0.18243647142E+03  0.18243647142E+03  0.00000000000E+00 0. -1.
          6    1    1    2  501    0  0.16916026832E+02 -0.43202265301E+02  0.14297027361E+02  0.17872043163E+03  0.17200000000E+03 0.  1.
         -6    1    1    2    0  503 -0.16916026832E+02  0.43202265301E+02 -0.21061235373E+02  0.17938830320E+03  0.17200000000E+03 0.  1.
</event>
<event>
 4    1  0.5739010E+000  0.2789780E+03  0.7818608E-02  0.1096248E+00
         21   -1    0    0  501  502  0.00000000000E+00  0.00000000000E+00  0.86079596208E+02  0.86079596208E+02  0.00000000000E+00 0. -1.
         21   -1    0    0  502  503 -0.00000000000E+00 -0.00000000000E+00 -0.11852587615E+04  0.11852587615E+04  0.00000000000E+00 0. -1.
          6    1    1    2  501    0  0.17167868853E+03  0.13700778724E+03 -0.24001649155E+03  0.36801714916E+03  0.17200000000E+03 0. -1.
         -6    1    1    2    0  503 -0.17167868853E+03 -0.13700778724E+03 -0.85916267373E+03  0.90332120854E+03  0.17200000000E+03 0. -1.
</event>
<event>
 4    1  0.5739010E+000  0.2739000E+03  0.7818608E-02  0.1099068E+00
         21   -1    0    0  503  502  0.00000000000E+00  0.00000000000E+00  0.89826883806E+03  0.89826883806E+03  0.00000000000E+00 0.  1.
         21   -1    0    0  501  503 -0.00000000000E+00 -0.00000000000E+00 -0.91408504453E+02  0.91408504453E+02  0.00000000000E+00 0. -1.
          6    1    1    2  501    0 -0.20966159844E+03  0.38461023283E+02  0.54882011318E+03  0.61337162699E+03  0.17200000000E+03 0.  1.
         -6    1    1    2    0  502  0.20966159844E+03 -0.38461023283E+02  0.25804022043E+03  0.37630571552E+03  0.17200000000E+03 0. -1.
</event>
<event>
 4    1  0.5739010E+000  0.2148716E+03  0.7818608E-02  0.1137765E+00
         21   -1    0    0  501  502  0.00000000000E+00  0.00000000000E+00  0.93238987519E+02  0.93238987519E+02  0.00000000000E+00 0.  1.
         21   -1    0    0  502  503 -0.00000000000E+00 -0.00000000000E+00 -0.80198514495E+03  0.80198514495E+03  0.00000000000E+00 0.  1.
          6    1    1    2  501    0 -0.12464979050E+03  0.32376408128E+02 -0.77518273307E+02  0.22842697908E+03  0.17200000000E+03 0.  1.
         -6    1    1    2    0  503  0.12464979050E+03 -0.32376408128E+02 -0.63122788412E+03  0.66679715339E+03  0.17200000000E+03 0.  1.
</event>
<event>
 4    1  0.5739010E+000  0.1986698E+03  0.7818608E-02  0.1150866E+00
         21   -1    0    0  501  502  0.00000000000E+00  0.00000000000E+00  0.18302698383E+04  0.18302698383E+04  0.00000000000E+00 0. -1.
         21   -1    0    0  502  503 -0.00000000000E+00 -0.00000000000E+00 -0.23631756954E+02  0.23631756954E+02  0.00000000000E+00 0. -1.
          6    1    1    2  501    0 -0.89787130542E+02 -0.42708000020E+02  0.11774494572E+04  0.11940925116E+04  0.17200000000E+03 0. -1.
         -6    1    1    2    0  503  0.89787130542E+02  0.42708000020E+02  0.62918862418E+03  0.65980908365E+03  0.17200000000E+03 0. -1.
</event>
<event>
 4    1  0.5739010E+000  0.2131740E+03  0.7818608E-02  0.1139077E+00
         21   -1    0    0  501  502  0.00000000000E+00  0.00000000000E+00  0.13343763987E+03  0.13343763987E+03  0.00000000000E+00 0.  1.
         21   -1    0    0  502  503 -0.00000000000E+00 -0.00000000000E+00 -0.74117190668E+03  0.74117190668E+03  0.00000000000E+00 0.  1.
          6    1    1    2  501    0 -0.16948583947E+02 -0.12478744765E+03  0.17638166192E+02  0.21390246959E+03  0.17200000000E+03 0.  1.
         -6    1    1    2    0  503  0.16948583947E+02  0.12478744765E+03 -0.62537243300E+03  0.66070707696E+03  0.17200000000E+03 0.  1.
</event>
<event>
 4    1  0.5739010E+000  0.1734174E+03  0.7818608E-02  0.1174330E+00
         21   -1    0    0  501  502  0.00000000000E+00  0.00000000000E+00  0.48124276998E+02  0.48124276998E+02  0.00000000000E+00 0.  1.
         21   -1    0    0  502  503 -0.00000000000E+00 -0.00000000000E+00 -0.68306259122E+03  0.68306259122E+03  0.00000000000E+00 0.  1.
          6    1    1    2  501    0  0.13336646002E+02  0.17655432076E+02 -0.21080115322E+03  0.27296649356E+03  0.17200000000E+03 0. -1.
         -6    1    1    2    0  503 -0.13336646002E+02 -0.17655432076E+02 -0.42413716100E+03  0.45822037465E+03  0.17200000000E+03 0. -1.
</event>
<event>
 4    1  0.5739010E+000  0.2096338E+03  0.7818608E-02  0.1141856E+00
         21   -1    0    0  501  502  0.00000000000E+00  0.00000000000E+00  0.41503804296E+03  0.41503804296E+03  0.00000000000E+00 0. -1.
         21   -1    0    0  502  503 -0.00000000000E+00 -0.00000000000E+00 -0.12819788733E+03  0.12819788733E+03  0.00000000000E+00 0.  1.
          6    1    1    2  501    0 -0.11984259483E+03 -0.29460228956E+00  0.25673711558E+03  0.33145177756E+03  0.17200000000E+03 0. -1.
         -6    1    1    2    0  503  0.11984259483E+03  0.29460228956E+00  0.30103040046E+02  0.21178415273E+03  0.17200000000E+03 0.  1.
</event>
<event>
 4    1  0.5739010E+000  0.1875616E+03  0.7818608E-02  0.1160679E+00
         21   -1    0    0  501  502  0.00000000000E+00  0.00000000000E+00  0.22453611094E+03  0.22453611094E+03  0.00000000000E+00 0. -1.
         21   -1    0    0  502  503 -0.00000000000E+00 -0.00000000000E+00 -0.18894283864E+03  0.18894283864E+03  0.00000000000E+00 0. -1.
          6    1    1    2  501    0 -0.29654997072E+02 -0.68672737109E+02 -0.67638807524E+02  0.19938498428E+03  0.17200000000E+03 0. -1.
         -6    1    1    2    0  503  0.29654997072E+02  0.68672737109E+02  0.10323207983E+03  0.21409396530E+03  0.17200000000E+03 0. -1.
</event>
<event>
 4    1  0.5739010E+000  0.2346675E+03  0.7818608E-02  0.1123397E+00
         21   -1    0    0  501  502  0.00000000000E+00  0.00000000000E+00  0.36620001158E+03  0.36620001158E+03  0.00000000000E+00 0. -1.
         21   -1    0    0  502  503 -0.00000000000E+00 -0.00000000000E+00 -0.15472149948E+03  0.15472149948E+03  0.00000000000E+00 0.  1.
          6    1    1    2  501    0 -0.13352059683E+03 -0.87504838464E+02  0.14937368947E+03  0.27817502698E+03  0.17200000000E+03 0. -1.
         -6    1    1    2    0  503  0.13352059683E+03  0.87504838464E+02  0.62104822634E+02  0.24274648407E+03  0.17200000000E+03 0.  1.
</event>
<event>
 4    1  0.5739010E+000  0.1749054E+03  0.7818608E-02  0.1172827E+00
         21   -1    0    0  503  502  0.00000000000E+00  0.00000000000E+00  0.65558424084E+03  0.65558424084E+03  0.00000000000E+00 0.  1.
         21   -1    0    0  501  503 -0.00000000000E+00 -0.00000000000E+00 -0.52937104211E+02  0.52937104211E+02  0.00000000000E+00 0.  1.
          6    1    1    2  501    0 -0.17898609272E+02 -0.26221118712E+02  0.17936883463E+03  0.25052961126E+03  0.17200000000E+03 0.  1.
         -6    1    1    2    0  502  0.17898609272E+02  0.26221118712E+02  0.42327830200E+03  0.45799173379E+03  0.17200000000E+03 0.  1.
</event>
<event>
 4    1  0.5739010E+000  0.3911445E+03  0.7818608E-02  0.1046890E+00
         21   -1    0    0  501  502  0.00000000000E+00  0.00000000000E+00  0.49296818458E+03  0.49296818458E+03  0.00000000000E+00 0.  1.
         21   -1    0    0  502  503 -0.00000000000E+00 -0.00000000000E+00 -0.68370528987E+03  0.68370528987E+03  0.00000000000E+00 0. -1.
          6    1    1    2  501    0 -0.32630127329E+03  0.13014409582E+03  0.33939295122E+03  0.51786251260E+03  0.17200000000E+03 0.  1.
         -6    1    1    2    0  503  0.32630127329E+03 -0.13014409582E+03 -0.53013005651E+03  0.65881096184E+03  0.17200000000E+03 0. -1.
</event>
<event>
 4    1  0.5739010E+000  0.2152709E+03  0.7818608E-02  0.1137459E+00
         21   -1    0    0  501  502  0.00000000000E+00  0.00000000000E+00  0.72482529724E+03  0.72482529724E+03  0.00000000000E+00 0.  1.
         21   -1    0    0  502  503 -0.00000000000E+00 -0.00000000000E+00 -0.64026130464E+02  0.64026130464E+02  0.00000000000E+00 0.  1.
          6    1    1    2  501    0 -0.10621711947E+03 -0.73996437940E+02  0.34529768352E+03  0.40690544300E+03  0.17200000000E+03 0.  1.
         -6    1    1    2    0  503  0.10621711947E+03  0.73996437940E+02  0.31550148326E+03  0.38194598471E+03  0.17200000000E+03 0.  1.
</event>
<event>
 4    1  0.5739010E+000  0.1726089E+03  0.7818608E-02  0.1175154E+00
         21   -1    0    0  503  502  0.00000000000E+00  0.00000000000E+00  0.95415650257E+02  0.95415650257E+02  0.00000000000E+00 0. -1.
         21   -1    0    0  501  503 -0.00000000000E+00 -0.00000000000E+00 -0.38944498345E+03  0.38944498345E+03  0.00000000000E+00 0. -1.
          6    1    1    2  501    0  0.13455801190E+02  0.53634295453E+01 -0.25494658977E+03  0.30788242658E+03  0.17200000000E+03 0. -1.
         -6    1    1    2    0  502 -0.13455801190E+02 -0.53634295453E+01 -0.39082743416E+02  0.17697820712E+03  0.17200000000E+03 0. -1.
</event>
<event>
 4    1  0.5739010E+000  0.1815690E+03  0.7818608E-02  0.1166293E+00
         21   -1    0    0  501  502  0.00000000000E+00  0.00000000000E+00  0.21804341402E+03  0.21804341402E+03  0.00000000000E+00 0. -1.
         21   -1    0    0  502  503 -0.00000000000E+00 -0.00000000000E+00 -0.62461866999E+03  0.62461866999E+03  0.00000000000E+00 0. -1.
          6    1    1    2  501    0  0.14135092353E+02 -0.56422666466E+02  0.16352176403E+03  0.24434951491E+03  0.17200000000E+03 0. -1.
         -6    1    1    2    0  503 -0.14135092353E+02  0.56422666466E+02 -0.57009702000E+03  0.59831256910E+03  0.17200000000E+03 0. -1.
</event>
<event>
 4    1  0.5739010E+000  0.1972034E+03  0.7818608E-02  0.1152120E+00
         21   -1    0    0  501  502  0.00000000000E+00  0.00000000000E+00  0.14097724965E+03  0.14097724965E+03  0.00000000000E+00 0. -1.
         21   -1    0    0  502  503 -0.00000000000E+00 -0.00000000000E+00 -0.29016597081E+03  0.29016597081E+03  0.00000000000E+00 0. -1.
          6    1    1    2  501    0 -0.47425622831E+02 -0.83999909136E+02 -0.26718769397E+02  0.19900519358E+03  0.17200000000E+03 0. -1.
         -6    1    1    2    0  503  0.47425622831E+02  0.83999909136E+02 -0.12246995176E+03  0.23213802687E+03  0.17200000000E+03 0. -1.
</event>
<event>
 4    1  0.5739010E+000  0.2609271E+03  0.7818608E-02  0.1106588E+00
         21   -1    0    0  503  502  0.00000000000E+00  0.00000000000E+00  0.17449728931E+03  0.17449728931E+03  0.00000000000E+00 0.  1.
         21   -1    0    0  501  503 -0.00000000000E+00 -0.00000000000E+00 -0.41889670393E+03  0.41889670393E+03  0.00000000000E+00 0. -1.
          6    1    1    2  501    0 -0.17550176269E+02  0.19542499405E+03 -0.19990160333E+03  0.32869984484E+03  0.17200000000E+03 0. -1.
         -6    1    1    2    0  502  0.17550176269E+02 -0.19542499405E+03 -0.44497811284E+02  0.26469414840E+03  0.17200000000E+03 0.  1.
</event>
<event>
 4    1  0.5739010E+000  0.1764450E+03  0.7818608E-02  0.1171289E+00
         21   -1    0    0  501  502  0.00000000000E+00  0.00000000000E+00  0.66353664528E+03  0.66353664528E+03  0.00000000000E+00 0.  1.
         21   -1    0    0  502  503 -0.00000000000E+00 -0.00000000000E+00 -0.99882249371E+02  0.99882249371E+02  0.00000000000E+00 0.  1.
          6    1    1    2  501    0 -0.36015640377E+02 -0.15865540730E+02  0.55978175712E+03  0.58693139066E+03  0.17200000000E+03 0.  1.
         -6    1    1    2    0  503  0.36015640377E+02  0.15865540730E+02  0.38726387881E+01  0.17648750399E+03  0.17200000000E+03 0.  1.
</event>
<event>
 4    1  0.5739010E+000  0.2142407E+03  0.7818608E-02  0.1138251E+00
         21   -1    0    0  503  502  0.00000000000E+00  0.00000000000E+00  0.13327053605E+03  0.13327053605E+03  0.00000000000E+00 0.  1.
         21   -1    0    0  501  503 -0.00000000000E+00 -0.00000000000E+00 -0.36085056016E+03  0.36085056016E+03  0.00000000000E+00 0.  1.
          6    1    1    2  501    0 -0.12724699944E+03  0.11102716352E+02 -0.16653255329E+03  0.27135246541E+03  0.17200000000E+03 0.  1.
         -6    1    1    2    0  502  0.12724699944E+03 -0.11102716352E+02 -0.61047470822E+02  0.22276863080E+03  0.17200000000E+03 0.  1.
</event>
<event>
 4    1  0.5739010E+000  0.2500075E+03  0.7818608E-02  0.1113300E+00
         21   -1    0    0  501  502  0.00000000000E+00  0.00000000000E+00  0.84317846275E+03  0.84317846275E+03  0.00000000000E+00 0. -1.
         21   -1    0    0  502  503 -0.00000000000E+00 -0.00000000000E+00 -0.20160808590E+03  0.20160808590E+03  0.00000000000E+00 0. -1.
          6    1    1    2  501    0 -0.16359542144E+03  0.78462080031E+02  0.73618233702E+03  0.77747552582E+03  0.17200000000E+03 0. -1.
         -6    1    1    2    0  503  0.16359542144E+03 -0.78462080031E+02 -0.94611960166E+02  0.26731102283E+03  0.17200000000E+03 0. -1.
</event>
<event>
 4    1  0.5739010E+000  0.1741034E+03  0.7818608E-02  0.1173635E+00
         21   -1    0    0  501  502  0.00000000000E+00  0.00000000000E+00  0.47493766192E+03  0.47493766192E+03  0.00000000000E+00 0.  1.
         21   -1    0    0  502  503 -0.00000000000E+00 -0.00000000000E+00 -0.64054433062E+02  0.64054433062E+02  0.00000000000E+00 0.  1.
          6    1    1    2  501    0 -0.22613867287E+02 -0.14717518343E+02  0.22163731435E+03  0.28184231664E+03  0.17200000000E+03 0.  1.
         -6    1    1    2    0  503  0.22613867287E+02  0.14717518343E+02  0.18924591451E+03  0.25714977833E+03  0.17200000000E+03 0.  1.
</event>
<event>
 4    1  0.5739010E+000  0.1801910E+03  0.7818608E-02  0.1167618E+00
         21   -1    0    0  501  502  0.00000000000E+00  0.00000000000E+00  0.73737999366E+02  0.73737999366E+02  0.00000000000E+00 0. -1.
         21   -1    0    0  502  503 -0.00000000000E+00 -0.00000000000E+00 -0.66660471037E+03  0.66660471037E+03  0.00000000000E+00 0. -1.
          6    1    1    2  501    0 -0.10076274695E+02  0.52756828328E+02 -0.80763355221E+02  0.19746274027E+03  0.17200000000E+03 0. -1.
         -6    1    1    2    0  503  0.10076274695E+02 -0.52756828328E+02 -0.51210335578E+03  0.54287996946E+03  0.17200000000E+03 0. -1.
</event>
<event>
 4    1  0.5739010E+000  0.2219105E+03  0.7818608E-02  0.1132467E+00
         21   -1    0    0  503  502  0.00000000000E+00  0.00000000000E+00  0.41868046774E+03  0.41868046774E+03  0.00000000000E+00 0.  1.
         21   -1    0    0  501  503 -0.00000000000E+00 -0.00000000000E+00 -0.17238405766E+03  0.17238405766E+03  0.00000000000E+00 0.  1.
          6    1    1    2  501    0  0.11424626652E+03 -0.81289889334E+02 -0.43428041305E+02  0.22611999092E+03  0.17200000000E+03 0.  1.
         -6    1    1    2    0  502 -0.11424626652E+03  0.81289889334E+02  0.28972445138E+03  0.36494453448E+03  0.17200000000E+03 0.  1.
</event>
<event>
 4    1  0.5739010E+000  0.1734668E+03  0.7818608E-02  0.1174280E+00
         21   -1    0    0  501  502  0.00000000000E+00  0.00000000000E+00  0.43190092735E+03  0.43190092735E+03  0.00000000000E+00 0.  1.
         21   -1    0    0  502  503 -0.00000000000E+00 -0.00000000000E+00 -0.78930508868E+02  0.78930508868E+02  0.00000000000E+00 0.  1.
          6    1    1    2  501    0 -0.24198994032E+01 -0.22380192230E+02  0.26396992957E+03  0.31586524442E+03  0.17200000000E+03 0.  1.
         -6    1    1    2    0  503  0.24198994032E+01  0.22380192230E+02  0.89000488917E+02  0.19496619180E+03  0.17200000000E+03 0.  1.
</event>
<event>
 4    1  0.5739010E+000  0.1838652E+03  0.7818608E-02  0.1164114E+00
         21   -1    0    0  503  502  0.00000000000E+00  0.00000000000E+00  0.35366226294E+03  0.35366226294E+03  0.00000000000E+00 0.  1.
         21   -1    0    0  501  503 -0.00000000000E+00 -0.00000000000E+00 -0.10498125269E+03  0.10498125269E+03  0.00000000000E+00 0.  1.
          6    1    1    2  501    0 -0.53173939946E+02  0.37348924164E+02  0.55750318872E+02  0.19213148644E+03  0.17200000000E+03 0.  1.
         -6    1    1    2    0  502  0.53173939946E+02 -0.37348924164E+02  0.19293069138E+03  0.26651202919E+03  0.17200000000E+03 0.  1.
</event>
<event>
 4    1  0.5739010E+000  0.1984713E+03  0.7818608E-02  0.1151035E+00
         21   -1    0    0  501  502  0.00000000000E+00  0.00000000000E+00  0.79844664743E+03  0.79844664743E+03  0.00000000000E+00 0.  1.
         21   -1    0    0  502  503 -0.00000000000E+00 -0.00000000000E+00 -0.73157464642E+02  0.73157464642E+02  0.00000000000E+00 0.  1.
          6    1    1    2  501    0  0.17878205986E+02 -0.97402335833E+02  0.61133511374E+03  0.64274525791E+03  0.17200000000E+03 0.  1.
         -6    1    1    2    0  503 -0.17878205986E+02  0.97402335833E+02  0.11395406904E+03  0.22885885416E+03  0.17200000000E+03 0.  1.
</event>
<event>
 4    1  0.5739010E+000  0.2109344E+03  0.7818608E-02  0.1140828E+00
         21   -1    0    0  503  502  0.00000000000E+00  0.00000000000E+00  0.91619916252E+02  0.91619916252E+02  0.00000000000E+00 0.  1.
         21   -1    0    0  501  503 -0.00000000000E+00 -0.00000000000E+00 -0.53615975015E+03  0.53615975015E+03  0.00000000000E+00 0.  1.
          6    1    1    2  501    0 -0.10281245257E+03 -0.65870563900E+02 -0.31863195747E+03  0.38212518357E+03  0.17200000000E+03 0.  1.
         -6    1    1    2    0  502  0.10281245257E+03  0.65870563900E+02 -0.12590787642E+03  0.24565448283E+03  0.17200000000E+03 0.  1.
</event>
<event>
 4    1  0.5739010E+000  0.2138054E+03  0.7818608E-02  0.1138587E+00
         21   -1    0    0  501  502  0.00000000000E+00  0.00000000000E+00  0.10370314911E+03  0.10370314911E+03  0.00000000000E+00 0. -1.
         21   -1    0    0  502  503 -0.00000000000E+00 -0.00000000000E+00 -0.45473252587E+03  0.45473252587E+03  0.00000000000E+00 0.  1.
          6    1    1    2  501    0  0.12360144645E+03  0.29179641540E+02 -0.12664756109E+03  0.24850024905E+03  0.17200000000E+03 0. -1.
         -6    1    1    2    0  503 -0.12360144645E+03 -0.29179641540E+02 -0.22438181567E+03  0.30993542593E+03  0.17200000000E+03 0. -1.
</event>
<event>
 4    1  0.5739010E+000  0.3043989E+03  0.7818608E-02  0.1083062E+00
         21   -1    0    0  501  502  0.00000000000E+00  0.00000000000E+00  0.11432900639E+03  0.11432900639E+03  0.00000000000E+00 0.  1.
         21   -1    0    0  502  503 -0.00000000000E+00 -0.00000000000E+00 -0.81225541077E+03  0.81225541077E+03  0.00000000000E+00 0. -1.
          6    1    1    2  501    0 -0.14383784301E+02 -0.25073451312E+03 -0.32716049686E+03  0.44686986923E+03  0.17200000000E+03 0. -1.
         -6    1    1    2    0  503  0.14383784301E+02  0.25073451312E+03 -0.37076590752E+03  0.47971454794E+03  0.17200000000E+03 0. -1.
</event>
<event>
 4    1  0.5739010E+000  0.3149520E+03  0.7818608E-02  0.1077996E+00
         21   -1    0    0  501  502  0.00000000000E+00  0.00000000000E+00  0.47079605094E+03  0.47079605094E+03  0.00000000000E+00 0.  1.
         21   -1    0    0  502  503 -0.00000000000E+00 -0.00000000000E+00 -0.36163043584E+03  0.36163043584E+03  0.00000000000E+00 0. -1.
          6    1    1    2  501    0  0.19905815072E+03 -0.17316647189E+03  0.32347475121E+03  0.45147612232E+03  0.17200000000E+03 0.  1.
         -6    1    1    2    0  503 -0.19905815072E+03  0.17316647189E+03 -0.21430913611E+03  0.38095036445E+03  0.17200000000E+03 0. -1.
</event>
<event>
 4    1  0.5739010E+000  0.3832174E+03  0.7818608E-02  0.1049751E+00
         21   -1    0    0  503  502  0.00000000000E+00  0.00000000000E+00  0.70191472878E+03  0.70191472878E+03  0.00000000000E+00 0. -1.
         21   -1    0    0  501  503 -0.00000000000E+00 -0.00000000000E+00 -0.46655253777E+03  0.46655253777E+03  0.00000000000E+00 0. -1.
          6    1    1    2  501    0 -0.26167394733E+03  0.22090343097E+03 -0.31621171000E+03  0.49683541144E+03  0.17200000000E+03 0. -1.
         -6    1    1    2    0  502  0.26167394733E+03 -0.22090343097E+03  0.55157390101E+03  0.67163185511E+03  0.17200000000E+03 0. -1.
</event>
<event>
 4    1  0.5739010E+000  0.1976693E+03  0.7818608E-02  0.1151720E+00
         21   -1    0    0  503  502  0.00000000000E+00  0.00000000000E+00  0.15226495170E+04  0.15226495170E+04  0.00000000000E+00 0. -1.
         21   -1    0    0  501  503 -0.00000000000E+00 -0.00000000000E+00 -0.33066062991E+02  0.33066062991E+02  0.00000000000E+00 0. -1.
          6    1    1    2  501    0 -0.29160239279E+02  0.92945337480E+02  0.11128908214E+04  0.11303093097E+04  0.17200000000E+03 0. -1.
         -6    1    1    2    0  502  0.29160239279E+02 -0.92945337480E+02  0.37669263264E+03  0.42540627029E+03  0.17200000000E+03 0. -1.
</event>
<event>
 4    1  0.5739010E+000  0.2438757E+03  0.7818608E-02  0.1117238E+00
         21   -1    0    0  503  502  0.00000000000E+00  0.00000000000E+00  0.52174391135E+02  0.52174391135E+02  0.00000000000E+00 0.  1.
         21   -1    0    0  501  503 -0.00000000000E+00 -0.00000000000E+00 -0.13197158523E+04  0.13197158523E+04  0.00000000000E+00 0. -1.
          6    1    1    2  501    0 -0.10977192219E+03 -0.13357196805E+03 -0.88694669338E+03  0.91986400214E+03  0.17200000000E+03 0. -1.
         -6    1    1    2    0  502  0.10977192219E+03  0.13357196805E+03 -0.38059476782E+03  0.45202624132E+03  0.17200000000E+03 0.  1.
</event>
<event>
 4    1  0.5739010E+000  0.2704199E+03  0.7818608E-02  0.1101040E+00
         21   -1    0    0  503  502  0.00000000000E+00  0.00000000000E+00  0.96737289662E+03  0.96737289662E+03  0.00000000000E+00 0.  1.
         21   -1    0    0  501  503 -0.00000000000E+00 -0.00000000000E+00 -0.28925302990E+03  0.28925302990E+03  0.00000000000E+00 0.  1.
          6    1    1    2  501    0  0.79586828479E+02 -0.19289602553E+03 -0.20094579561E+03  0.33690674185E+03  0.17200000000E+03 0.  1.
         -6    1    1    2    0  502 -0.79586828479E+02  0.19289602553E+03  0.87906566234E+03  0.91971918467E+03  0.17200000000E+03 0.  1.
</event>
<event>
 4    1  0.5739010E+000  0.2031052E+03  0.7818608E-02  0.1147145E+00
         21   -1    0    0  503  502  0.00000000000E+00  0.00000000000E+00  0.42098253991E+03  0.42098253991E+03  0.00000000000E+00 0.  1.
         21   -1    0    0  501  503 -0.00000000000E+00 -0.00000000000E+00 -0.33221841896E+03  0.33221841896E+03  0.00000000000E+00 0.  1.
          6    1    1    2  501    0 -0.32747791655E+02 -0.10293341501E+03 -0.27183815522E+03  0.33933418398E+03  0.17200000000E+03 0.  1.
         -6    1    1    2    0  502  0.32747791655E+02  0.10293341501E+03  0.36060227617E+03  0.41386677490E+03  0.17200000000E+03 0.  1.
</event>
<event>
 4    1  0.5739010E+000  0.1886104E+03  0.7818608E-02  0.1159721E+00
         21   -1    0    0  503  502  0.00000000000E+00  0.00000000000E+00  0.39766081948E+03  0.39766081948E+03  0.00000000000E+00 0.  1.
         21   -1    0    0  501  503 -0.00000000000E+00 -0.00000000000E+00 -0.27002725123E+03  0.27002725123E+03  0.00000000000E+00 0. -1.
          6    1    1    2  501    0 -0.29602438233E+02 -0.71509176054E+02 -0.20918277700E+03  0.28165812753E+03  0.17200000000E+03 0. -1.
         -6    1    1    2    0  502  0.29602438233E+02  0.71509176054E+02  0.33681634525E+03  0.38602994319E+03  0.17200000000E+03 0.  1.
</event>
<event>
 4    1  0.5739010E+000  0.1958220E+03  0.7818608E-02  0.1153313E+00
         21   -1    0    0  501  502  0.00000000000E+00  0.00000000000E+00  0.20159190138E+04  0.20159190138E+04  0.00000000000E+00 0.  1.
         21   -1    0    0  502  503 -0.00000000000E+00 -0.00000000000E+00 -0.40520426329E+02  0.40520426329E+02  0.00000000000E+00 0.  1.
          6    1    1    2  501    0  0.21512891204E+02 -0.91101244805E+02  0.17366532482E+04  0.17476586468E+04  0.17200000000E+03 0.  1.
         -6    1    1    2    0  503 -0.21512891204E+02  0.91101244805E+02  0.23874533923E+03  0.30878079328E+03  0.17200000000E+03 0.  1.
</event>
<event>
 4    1  0.5739010E+000  0.1827590E+03  0.7818608E-02  0.1165159E+00
         21   -1    0    0  503  502  0.00000000000E+00  0.00000000000E+00  0.72502677087E+02  0.72502677087E+02  0.00000000000E+00 0. -1.
         21   -1    0    0  501  503 -0.00000000000E+00 -0.00000000000E+00 -0.27333047218E+04  0.27333047218E+04  0.00000000000E+00 0. -1.
          6    1    1    2  501    0  0.38314925635E+02  0.48464490909E+02 -0.26096270679E+04  0.26160187832E+04  0.17200000000E+03 0. -1.
         -6    1    1    2    0  502 -0.38314925635E+02 -0.48464490909E+02 -0.51174976826E+02  0.18978861572E+03  0.17200000000E+03 0. -1.
</event>
<event>
 4    1  0.5739010E+000  0.2857403E+03  0.7818608E-02  0.1092594E+00
         21   -1    0    0  503  502  0.00000000000E+00  0.00000000000E+00  0.83700267303E+02  0.83700267303E+02  0.00000000000E+00 0.  1.
         21   -1    0    0  501  503 -0.00000000000E+00 -0.00000000000E+00 -0.14559157176E+04  0.14559157176E+04  0.00000000000E+00 0. -1.
          6    1    1    2  501    0  0.19291617877E+03 -0.12184764079E+03 -0.11283235732E+04  0.11639422604E+04  0.17200000000E+03 0. -1.
         -6    1    1    2    0  502 -0.19291617877E+03  0.12184764079E+03 -0.24389187707E+03  0.37567372452E+03  0.17200000000E+03 0.  1.
</event>
<event>
 4    1  0.5739010E+000  0.2647699E+03  0.7818608E-02  0.1104311E+00
         21   -1    0    0  503  502  0.00000000000E+00  0.00000000000E+00  0.96892156116E+03  0.96892156116E+03  0.00000000000E+00 0. -1.
         21   -1    0    0  501  503 -0.00000000000E+00 -0.00000000000E+00 -0.28579705094E+03  0.28579705094E+03  0.00000000000E+00 0.  1.
          6    1    1    2  501    0  0.93528539509E+02  0.17824566722E+03 -0.20060194900E+03  0.33218104631E+03  0.17200000000E+03 0.  1.
         -6    1    1    2    0  502 -0.93528539509E+02 -0.17824566722E+03  0.88372645922E+03  0.92253756580E+03  0.17200000000E+03 0. -1.
</event>
<event>
 4    1  0.5739010E+000  0.1748473E+03  0.7818608E-02  0.1172885E+00
         21   -1    0    0  503  502  0.00000000000E+00  0.00000000000E+00  0.18323262601E+03  0.18323262601E+03  0.00000000000E+00 0.  1.
         21   -1    0    0  501  503 -0.00000000000E+00 -0.00000000000E+00 -0.32528648601E+03  0.32528648601E+03  0.00000000000E+00 0.  1.
          6    1    1    2  501    0 -0.29600790022E+02  0.10553556023E+02 -0.24847762469E+03  0.30383007469E+03  0.17200000000E+03 0. -1.
         -6    1    1    2    0  502  0.29600790022E+02 -0.10553556023E+02  0.10642376469E+03  0.20468903733E+03  0.17200000000E+03 0. -1.
</event>
<event>
 4    1  0.5739010E+000  0.2100639E+03  0.7818608E-02  0.1141515E+00
         21   -1    0    0  503  502  0.00000000000E+00  0.00000000000E+00  0.66742861348E+02  0.66742861348E+02  0.00000000000E+00 0.  1.
         21   -1    0    0  501  503 -0.00000000000E+00 -0.00000000000E+00 -0.66562552901E+03  0.66562552901E+03  0.00000000000E+00 0.  1.
          6    1    1    2  501    0  0.93364620010E+02 -0.76327386979E+02 -0.32947905892E+03  0.39074706978E+03  0.17200000000E+03 0.  1.
         -6    1    1    2    0  502 -0.93364620010E+02  0.76327386979E+02 -0.26940360874E+03  0.34162132058E+03  0.17200000000E+03 0.  1.
</event>
<event>
 4    1  0.5739010E+000  0.1757234E+03  0.7818608E-02  0.1172007E+00
         21   -1    0    0  501  502  0.00000000000E+00  0.00000000000E+00  0.97931823902E+02  0.97931823902E+02  0.00000000000E+00 0. -1.
         21   -1    0    0  502  503 -0.00000000000E+00 -0.00000000000E+00 -0.45598116421E+03  0.45598116421E+03  0.00000000000E+00 0. -1.
          6    1    1    2  501    0 -0.14586990729E+02  0.32892971972E+02 -0.25193942928E+02  0.17752031620E+03  0.17200000000E+03 0.  1.
         -6    1    1    2    0  503  0.14586990729E+02 -0.32892971972E+02 -0.33285539738E+03  0.37639267191E+03  0.17200000000E+03 0.  1.
</event>
<event>
 4    1  0.5739010E+000  0.1772947E+03  0.7818608E-02  0.1170447E+00
         21   -1    0    0  503  502  0.00000000000E+00  0.00000000000E+00  0.12218759557E+03  0.12218759557E+03  0.00000000000E+00 0. -1.
         21   -1    0    0  501  503 -0.00000000000E+00 -0.00000000000E+00 -0.32732509818E+03  0.32732509818E+03  0.00000000000E+00 0. -1.
          6    1    1    2  501    0  0.11841448404E+02 -0.41342359040E+02 -0.20655780906E+03  0.27221230508E+03  0.17200000000E+03 0. -1.
         -6    1    1    2    0  502 -0.11841448404E+02  0.41342359040E+02  0.14203064503E+01  0.17730038867E+03  0.17200000000E+03 0. -1.
</event>
<event>
 4    1  0.5739010E+000  0.2763272E+03  0.7818608E-02  0.1097712E+00
         21   -1    0    0  501  502  0.00000000000E+00  0.00000000000E+00  0.63957927661E+03  0.63957927661E+03  0.00000000000E+00 0. -1.
         21   -1    0    0  502  503 -0.00000000000E+00 -0.00000000000E+00 -0.17245251731E+03  0.17245251731E+03  0.00000000000E+00 0.  1.
          6    1    1    2  501    0  0.17893243473E+03  0.12147387375E+03  0.45878970913E+03  0.53557886012E+03  0.17200000000E+03 0. -1.
         -6    1    1    2    0  503 -0.17893243473E+03 -0.12147387375E+03  0.83370501748E+01  0.27645293380E+03  0.17200000000E+03 0.  1.
</event>
<event>
 4    1  0.5739010E+000  0.1779746E+03  0.7818608E-02  0.1169778E+00
         21   -1    0    0  501  502  0.00000000000E+00  0.00000000000E+00  0.14862956761E+03  0.14862956761E+03  0.00000000000E+00 0.  1.
         21   -1    0    0  502  503 -0.00000000000E+00 -0.00000000000E+00 -0.24412148972E+03  0.24412148972E+03  0.00000000000E+00 0.  1.
          6    1    1    2  501    0 -0.55986741488E+01  0.45382803600E+02  0.22241826823E+02  0.17935897768E+03  0.17200000000E+03 0. -1.
         -6    1    1    2    0  503  0.55986741488E+01 -0.45382803600E+02 -0.11773374893E+03  0.21339207964E+03  0.17200000000E+03 0. -1.
</event>
<event>
 4    1  0.5739010E+000  0.1928312E+03  0.7818608E-02  0.1155932E+00
         21   -1    0    0  501  502  0.00000000000E+00  0.00000000000E+00  0.76516338708E+02  0.76516338708E+02  0.00000000000E+00 0. -1.
         21   -1    0    0  502  503 -0.00000000000E+00 -0.00000000000E+00 -0.52195970055E+03  0.52195970055E+03  0.00000000000E+00 0. -1.
          6    1    1    2  501    0 -0.42656281475E+00 -0.87176109810E+02 -0.14413487965E+03  0.24074617258E+03  0.17200000000E+03 0.  1.
         -6    1    1    2    0  503  0.42656281475E+00  0.87176109810E+02 -0.30130848219E+03  0.35772986668E+03  0.17200000000E+03 0.  1.
</event>
<event>
 4    1  0.5739010E+000  0.2270479E+03  0.7818608E-02  0.1128735E+00
         21   -1    0    0  501  502  0.00000000000E+00  0.00000000000E+00  0.42367111095E+03  0.42367111095E+03  0.00000000000E+00 0.  1.
         21   -1    0    0  502  503 -0.00000000000E+00 -0.00000000000E+00 -0.32296668119E+03  0.32296668119E+03  0.00000000000E+00 0. -1.
          6    1    1    2  501    0  0.74658403880E+02 -0.12803469676E+03  0.34507421328E+03  0.41307017989E+03  0.17200000000E+03 0.  1.
         -6    1    1    2    0  503 -0.74658403880E+02  0.12803469676E+03 -0.24436978352E+03  0.33356761225E+03  0.17200000000E+03 0. -1.
</event>
<event>
 4    1  0.5739010E+000  0.2320252E+03  0.7818608E-02  0.1125222E+00
         21   -1    0    0  501  502  0.00000000000E+00  0.00000000000E+00  0.62820187672E+02  0.62820187672E+02  0.00000000000E+00 0. -1.
         21   -1    0    0  502  503 -0.00000000000E+00 -0.00000000000E+00 -0.94321407041E+03  0.94321407041E+03  0.00000000000E+00 0.  1.
          6    1    1    2  501    0  0.14178387501E+03 -0.64413087569E+02 -0.28810215374E+03  0.36991696914E+03  0.17200000000E+03 0.  1.
         -6    1    1    2    0  503 -0.14178387501E+03  0.64413087569E+02 -0.59229172899E+03  0.63611728895E+03  0.17200000000E+03 0. -1.
</event>
<event>
 4    1  0.5739010E+000  0.2324459E+03  0.7818608E-02  0.1124930E+00
         21   -1    0    0  501  502  0.00000000000E+00  0.00000000000E+00  0.12128983515E+04  0.12128983515E+04  0.00000000000E+00 0. -1.
         21   -1    0    0  502  503 -0.00000000000E+00 -0.00000000000E+00 -0.46002451315E+02  0.46002451315E+02  0.00000000000E+00 0. -1.
          6    1    1    2  501    0 -0.13236905148E+03  0.83219806038E+02  0.69540597428E+03  0.73322613904E+03  0.17200000000E+03 0. -1.
         -6    1    1    2    0  503  0.13236905148E+03 -0.83219806038E+02  0.47148992591E+03  0.52567466378E+03  0.17200000000E+03 0. -1.
</event>
<event>
 4    1  0.5739010E+000  0.1908732E+03  0.7818608E-02  0.1157676E+00
         21   -1    0    0  501  502  0.00000000000E+00  0.00000000000E+00  0.46765597971E+03  0.46765597971E+03  0.00000000000E+00 0. -1.
         21   -1    0    0  502  503 -0.00000000000E+00 -0.00000000000E+00 -0.89561861818E+02  0.89561861818E+02  0.00000000000E+00 0. -1.
          6    1    1    2  501    0  0.79991855144E+02  0.21210197106E+02  0.28956209831E+03  0.34681230966E+03  0.17200000000E+03 0. -1.
         -6    1    1    2    0  503 -0.79991855144E+02 -0.21210197106E+02  0.88532019580E+02  0.21040553187E+03  0.17200000000E+03 0. -1.
</event>
<event>
 4    1  0.5739010E+000  0.3281095E+03  0.7818608E-02  0.1071976E+00
         21   -1    0    0  503  502  0.00000000000E+00  0.00000000000E+00  0.12179388399E+04  0.12179388399E+04  0.00000000000E+00 0. -1.
         21   -1    0    0  501  503 -0.00000000000E+00 -0.00000000000E+00 -0.10479842276E+03  0.10479842276E+03  0.00000000000E+00 0. -1.
          6    1    1    2  501    0 -0.13894366230E+03 -0.24241810029E+03  0.29488748477E+03  0.44115134060E+03  0.17200000000E+03 0. -1.
         -6    1    1    2    0  502  0.13894366230E+03  0.24241810029E+03  0.81825293234E+03  0.88158592203E+03  0.17200000000E+03 0. -1.
</event>
<event>
 4    1  0.5739010E+000  0.4292392E+03  0.7818608E-02  0.1034101E+00
         21   -1    0    0  501  502  0.00000000000E+00  0.00000000000E+00  0.14712453167E+03  0.14712453167E+03  0.00000000000E+00 0.  1.
         21   -1    0    0  502  503 -0.00000000000E+00 -0.00000000000E+00 -0.13033686773E+04  0.13033686773E+04  0.00000000000E+00 0. -1.
          6    1    1    2  501    0  0.40169296578E+02  0.39121440818E+03 -0.43458477088E+03  0.61082747862E+03  0.17200000000E+03 0.  1.
         -6    1    1    2    0  503 -0.40169296578E+02 -0.39121440818E+03 -0.72165937475E+03  0.83966573034E+03  0.17200000000E+03 0. -1.
</event>
<event>
 4    1  0.5739010E+000  0.2457583E+03  0.7818608E-02  0.1116015E+00
         21   -1    0    0  501  502  0.00000000000E+00  0.00000000000E+00  0.58025136577E+03  0.58025136577E+03  0.00000000000E+00 0. -1.
         21   -1    0    0  502  503 -0.00000000000E+00 -0.00000000000E+00 -0.17868024813E+03  0.17868024813E+03  0.00000000000E+00 0. -1.
          6    1    1    2  501    0  0.17122888004E+03 -0.38649781657E+02  0.44596359961E+03  0.50919609893E+03  0.17200000000E+03 0. -1.
         -6    1    1    2    0  503 -0.17122888004E+03  0.38649781657E+02 -0.44392481974E+02  0.24973551497E+03  0.17200000000E+03 0. -1.
</event>
<event>
 4    1  0.5739010E+000  0.2423921E+03  0.7818608E-02  0.1118209E+00
         21   -1    0    0  501  502  0.00000000000E+00  0.00000000000E+00  0.46470223465E+03  0.46470223465E+03  0.00000000000E+00 0. -1.
         21   -1    0    0  502  503 -0.00000000000E+00 -0.00000000000E+00 -0.24569377507E+03  0.24569377507E+03  0.00000000000E+00 0.  1.
          6    1    1    2  501    0 -0.13589954157E+03  0.10344675373E+03  0.35697356873E+03  0.43149049239E+03  0.17200000000E+03 0. -1.
         -6    1    1    2    0  503  0.13589954157E+03 -0.10344675373E+03 -0.13796510915E+03  0.27890551733E+03  0.17200000000E+03 0.  1.
</event>
<event>
 4    1  0.5739010E+000  0.1969428E+03  0.7818608E-02  0.1152344E+00
         21   -1    0    0  501  502  0.00000000000E+00  0.00000000000E+00  0.29864105019E+03  0.29864105019E+03  0.00000000000E+00 0.  1.
         21   -1    0    0  502  503 -0.00000000000E+00 -0.00000000000E+00 -0.33342951268E+03  0.33342951268E+03  0.00000000000E+00 0.  1.
          6    1    1    2  501    0  0.93316483613E+02  0.22237587628E+02  0.22953484888E+03  0.30244457884E+03  0.17200000000E+03 0.  1.
         -6    1    1    2    0  503 -0.93316483613E+02 -0.22237587628E+02 -0.26432331137E+03  0.32962598404E+03  0.17200000000E+03 0.  1.
</event>
<event>
 4    1  0.5739010E+000  0.2902806E+03  0.7818608E-02  0.1090203E+00
         21   -1    0    0  503  502  0.00000000000E+00  0.00000000000E+00  0.38390396461E+03  0.38390396461E+03  0.00000000000E+00 0.  1.
         21   -1    0    0  501  503 -0.00000000000E+00 -0.00000000000E+00 -0.22154549373E+03  0.22154549373E+03  0.00000000000E+00 0. -1.
          6    1    1    2  501    0  0.42419469522E+02  0.22995525022E+03  0.11034303077E+03  0.31054534763E+03  0.17200000000E+03 0.  1.
         -6    1    1    2    0  502 -0.42419469522E+02 -0.22995525022E+03  0.52015440113E+02  0.29490411070E+03  0.17200000000E+03 0. -1.
</event>
<event>
 4    1  0.5739010E+000  0.2113692E+03  0.7818608E-02  0.1140486E+00
         21   -1    0    0  501  502  0.00000000000E+00  0.00000000000E+00  0.85458344100E+02  0.85458344100E+02  0.00000000000E+00 0. -1.
         21   -1    0    0  502  503 -0.00000000000E+00 -0.00000000000E+00 -0.57081586942E+03  0.57081586942E+03  0.00000000000E+00 0. -1.
          6    1    1    2  501    0  0.99386213711E+02 -0.72217138008E+02 -0.14750086261E+03  0.25774685055E+03  0.17200000000E+03 0. -1.
         -6    1    1    2    0  503 -0.99386213711E+02  0.72217138008E+02 -0.33785666272E+03  0.39852736298E+03  0.17200000000E+03 0. -1.
</event>
<event>
 4    1  0.5739010E+000  0.1988204E+03  0.7818608E-02  0.1150738E+00
         21   -1    0    0  501  502  0.00000000000E+00  0.00000000000E+00  0.21181886849E+03  0.21181886849E+03  0.00000000000E+00 0.  1.
         21   -1    0    0  502  503 -0.00000000000E+00 -0.00000000000E+00 -0.43321795948E+03  0.43321795948E+03  0.00000000000E+00 0.  1.
          6    1    1    2  501    0  0.28844334164E+02  0.95464982265E+02  0.13263084668E+03  0.23899895385E+03  0.17200000000E+03 0.  1.
         -6    1    1    2    0  503 -0.28844334164E+02 -0.95464982265E+02 -0.35402993767E+03  0.40603787412E+03  0.17200000000E+03 0.  1.
</event>
<event>
 4    1  0.5739010E+000  0.1895621E+03  0.7818608E-02  0.1158857E+00
         21   -1    0    0  503  502  0.00000000000E+00  0.00000000000E+00  0.17632722271E+03  0.17632722271E+03  0.00000000000E+00 0. -1.
         21   -1    0    0  501  503 -0.00000000000E+00 -0.00000000000E+00 -0.21259369364E+03  0.21259369364E+03  0.00000000000E+00 0. -1.
          6    1    1    2  501    0  0.57715461008E+02 -0.54942775074E+02  0.21438074488E+02  0.19077047468E+03  0.17200000000E+03 0. -1.
         -6    1    1    2    0  502 -0.57715461008E+02  0.54942775074E+02 -0.57704545416E+02  0.19815044167E+03  0.17200000000E+03 0. -1.
</event>
<event>
 4    1  0.5739010E+000  0.2276104E+03  0.7818608E-02  0.1128333E+00
         21   -1    0    0  503  502  0.00000000000E+00  0.00000000000E+00  0.20465569876E+03  0.20465569876E+03  0.00000000000E+00 0.  1.
         21   -1    0    0  501  503 -0.00000000000E+00 -0.00000000000E+00 -0.87957639232E+03  0.87957639232E+03  0.00000000000E+00 0. -1.
          6    1    1    2  501    0 -0.14271266430E+03 -0.43076652996E+02 -0.79496344431E+03  0.82690590781E+03  0.17200000000E+03 0. -1.
         -6    1    1    2    0  502  0.14271266430E+03  0.43076652996E+02  0.12004275075E+03  0.25732618326E+03  0.17200000000E+03 0.  1.
</event>
<event>
 4    1  0.5739010E+000  0.4162170E+03  0.7818608E-02  0.1038305E+00
         21   -1    0    0  503  502  0.00000000000E+00  0.00000000000E+00  0.61314341284E+03  0.61314341284E+03  0.00000000000E+00 0.  1.
         21   -1    0    0  501  503 -0.00000000000E+00 -0.00000000000E+00 -0.57527468941E+03  0.57527468941E+03  0.00000000000E+00 0. -1.
          6    1    1    2  501    0  0.36047033778E+03 -0.11710544916E+03 -0.40494270588E+03  0.58070228662E+03  0.17200000000E+03 0. -1.
         -6    1    1    2    0  502 -0.36047033778E+03  0.11710544916E+03  0.44281142931E+03  0.60771581563E+03  0.17200000000E+03 0.  1.
</event>
<event>
 4    1  0.5739010E+000  0.1748060E+03  0.7818608E-02  0.1172927E+00
         21   -1    0    0  503  502  0.00000000000E+00  0.00000000000E+00  0.61317514656E+02  0.61317514656E+02  0.00000000000E+00 0. -1.
         21   -1    0    0  501  503 -0.00000000000E+00 -0.00000000000E+00 -0.66996215686E+03  0.66996215686E+03  0.00000000000E+00 0. -1.
          6    1    1    2  501    0  0.20070828054E+02 -0.23881247230E+02 -0.48938178277E+03  0.51966497035E+03  0.17200000000E+03 0. -1.
         -6    1    1    2    0  502 -0.20070828054E+02  0.23881247230E+02 -0.11926285944E+03  0.21161470117E+03  0.17200000000E+03 0. -1.
</event>
<event>
 4    1  0.5739010E+000  0.2128546E+03  0.7818608E-02  0.1139325E+00
         21   -1    0    0  501  502  0.00000000000E+00  0.00000000000E+00  0.17067987833E+03  0.17067987833E+03  0.00000000000E+00 0. -1.
         21   -1    0    0  502  503 -0.00000000000E+00 -0.00000000000E+00 -0.39156650959E+03  0.39156650959E+03  0.00000000000E+00 0. -1.
          6    1    1    2  501    0  0.79370664247E+02 -0.97074063469E+02  0.49100085625E+02  0.21844425959E+03  0.17200000000E+03 0. -1.
         -6    1    1    2    0  503 -0.79370664247E+02  0.97074063469E+02 -0.26998671689E+03  0.34380212832E+03  0.17200000000E+03 0. -1.
</event>
<event>
 4    1  0.5739010E+000  0.1734821E+03  0.7818608E-02  0.1174264E+00
         21   -1    0    0  503  502  0.00000000000E+00  0.00000000000E+00  0.62818407066E+03  0.62818407066E+03  0.00000000000E+00 0.  1.
         21   -1    0    0  501  503 -0.00000000000E+00 -0.00000000000E+00 -0.26431515762E+03  0.26431515762E+03  0.00000000000E+00 0.  1.
          6    1    1    2  501    0  0.14742611915E+02  0.17166935985E+02 -0.22185132561E+03  0.28162751814E+03  0.17200000000E+03 0.  1.
         -6    1    1    2    0  502 -0.14742611915E+02 -0.17166935985E+02  0.58572023864E+03  0.61087171014E+03  0.17200000000E+03 0.  1.
</event>
<event>
 4    1  0.5739010E+000  0.2131035E+03  0.7818608E-02  0.1139132E+00
         21   -1    0    0  501  502  0.00000000000E+00  0.00000000000E+00  0.77102387163E+03  0.77102387163E+03  0.00000000000E+00 0. -1.
         21   -1    0    0  502  503 -0.00000000000E+00 -0.00000000000E+00 -0.71852952071E+02  0.71852952071E+02  0.00000000000E+00 0. -1.
          6    1    1    2  501    0 -0.12465847759E+03  0.17010933923E+02  0.52852260157E+03  0.56986774631E+03  0.17200000000E+03 0. -1.
         -6    1    1    2    0  503  0.12465847759E+03 -0.17010933923E+02  0.17064831799E+03  0.27300907739E+03  0.17200000000E+03 0. -1.
</event>
<event>
 4    1  0.5739010E+000  0.2065945E+03  0.7818608E-02  0.1144291E+00
         21   -1    0    0  503  502  0.00000000000E+00  0.00000000000E+00  0.95981922242E+02  0.95981922242E+02  0.00000000000E+00 0.  1.
         21   -1    0    0  501  503 -0.00000000000E+00 -0.00000000000E+00 -0.86518791034E+03  0.86518791034E+03  0.00000000000E+00 0.  1.
          6    1    1    2  501    0 -0.12741920610E+02 -0.11373187304E+03 -0.71964688804E+03  0.74871419043E+03  0.17200000000E+03 0.  1.
         -6    1    1    2    0  502  0.12741920610E+02  0.11373187304E+03 -0.49559100066E+02  0.21245564216E+03  0.17200000000E+03 0.  1.
</event>
<event>
 4    1  0.5739010E+000  0.2303347E+03  0.7818608E-02  0.1126404E+00
         21   -1    0    0  501  502  0.00000000000E+00  0.00000000000E+00  0.10290743441E+03  0.10290743441E+03  0.00000000000E+00 0. -1.
         21   -1    0    0  502  503 -0.00000000000E+00 -0.00000000000E+00 -0.58020475236E+03  0.58020475236E+03  0.00000000000E+00 0. -1.
          6    1    1    2  501    0 -0.84513082766E+02  0.12777957323E+03 -0.12463243865E+03  0.26189181976E+03  0.17200000000E+03 0. -1.
         -6    1    1    2    0  503  0.84513082766E+02 -0.12777957323E+03 -0.35266487930E+03  0.42122036701E+03  0.17200000000E+03 0. -1.
</event>
<event>
 4    1  0.5739010E+000  0.3525980E+03  0.7818608E-02  0.1061554E+00
         21   -1    0    0  501  502  0.00000000000E+00  0.00000000000E+00  0.22977988259E+03  0.22977988259E+03  0.00000000000E+00 0. -1.
         21   -1    0    0  502  503 -0.00000000000E+00 -0.00000000000E+00 -0.69594373631E+03  0.69594373631E+03  0.00000000000E+00 0.  1.
          6    1    1    2  501    0  0.25937446071E+03  0.16572947369E+03 -0.45143692031E+03  0.57281817564E+03  0.17200000000E+03 0.  1.
         -6    1    1    2    0  503 -0.25937446071E+03 -0.16572947369E+03 -0.14726933399E+02  0.35290544326E+03  0.17200000000E+03 0. -1.
</event>
<event>
 4    1  0.5739010E+000  0.1958480E+03  0.7818608E-02  0.1153290E+00
         21   -1    0    0  501  502  0.00000000000E+00  0.00000000000E+00  0.24538473441E+03  0.24538473441E+03  0.00000000000E+00 0. -1.
         21   -1    0    0  502  503 -0.00000000000E+00 -0.00000000000E+00 -0.17109601000E+03  0.17109601000E+03  0.00000000000E+00 0.  1.
          6    1    1    2  501    0 -0.43447847376E+02 -0.82974144832E+02 -0.24069581414E+02  0.19732148616E+03  0.17200000000E+03 0.  1.
         -6    1    1    2    0  503  0.43447847376E+02  0.82974144832E+02  0.98358305822E+02  0.21915925825E+03  0.17200000000E+03 0. -1.
</event>
<event>
 4    1  0.5739010E+000  0.2551803E+03  0.7818608E-02  0.1110074E+00
         21   -1    0    0  503  502  0.00000000000E+00  0.00000000000E+00  0.86172470343E+03  0.86172470343E+03  0.00000000000E+00 0. -1.
         21   -1    0    0  501  503 -0.00000000000E+00 -0.00000000000E+00 -0.88685169935E+02  0.88685169935E+02  0.00000000000E+00 0.  1.
          6    1    1    2  501    0 -0.16948636233E+03  0.82506632555E+02  0.20374725580E+03  0.32654236429E+03  0.17200000000E+03 0.  1.
         -6    1    1    2    0  502  0.16948636233E+03 -0.82506632555E+02  0.56929227770E+03  0.62386750907E+03  0.17200000000E+03 0. -1.
</event>
<event>
 4    1  0.5739010E+000  0.2193897E+03  0.7818608E-02  0.1134339E+00
         21   -1    0    0  503  502  0.00000000000E+00  0.00000000000E+00  0.19108027028E+03  0.19108027028E+03  0.00000000000E+00 0.  1.
         21   -1    0    0  501  503 -0.00000000000E+00 -0.00000000000E+00 -0.35614958366E+03  0.35614958366E+03  0.00000000000E+00 0.  1.
          6    1    1    2  501    0  0.81229354427E+02  0.10931433508E+03 -0.23057318970E+03  0.31827005465E+03  0.17200000000E+03 0.  1.
         -6    1    1    2    0  502 -0.81229354427E+02 -0.10931433508E+03  0.65503876329E+02  0.22895979929E+03  0.17200000000E+03 0.  1.
</event>
<event>
 4    1  0.5739010E+000  0.1788746E+03  0.7818608E-02  0.1168897E+00
         21   -1    0    0  503  502  0.00000000000E+00  0.00000000000E+00  0.67277574871E+03  0.67277574871E+03  0.00000000000E+00 0.  1.
         21   -1    0    0  501  503 -0.00000000000E+00 -0.00000000000E+00 -0.59125833545E+02  0.59125833545E+02  0.00000000000E+00 0.  1.
          6    1    1    2  501    0  0.39575499900E+02 -0.29084140042E+02  0.14495978397E+03  0.23023780394E+03  0.17200000000E+03 0.  1.
         -6    1    1    2    0  502 -0.39575499900E+02  0.29084140042E+02  0.46869013120E+03  0.50166377832E+03  0.17200000000E+03 0.  1.
</event>
<event>
 4    1  0.5739010E+000  0.2360231E+03  0.7818608E-02  0.1122471E+00
         21   -1    0    0  503  502  0.00000000000E+00  0.00000000000E+00  0.16060592364E+04  0.16060592364E+04  0.00000000000E+00 0.  1.
         21   -1    0    0  501  503 -0.00000000000E+00 -0.00000000000E+00 -0.65890370474E+03  0.65890370474E+03  0.00000000000E+00 0.  1.
          6    1    1    2  501    0  0.74891748475E+02 -0.14322748403E+03 -0.62869318703E+03  0.67153705005E+03  0.17200000000E+03 0.  1.
         -6    1    1    2    0  502 -0.74891748475E+02  0.14322748403E+03  0.15758487187E+04  0.15934258911E+04  0.17200000000E+03 0.  1.
</event>
<event>
 4    1  0.5739010E+000  0.2080656E+03  0.7818608E-02  0.1143107E+00
         21   -1    0    0  503  502  0.00000000000E+00  0.00000000000E+00  0.27809987559E+03  0.27809987559E+03  0.00000000000E+00 0.  1.
         21   -1    0    0  501  503 -0.00000000000E+00 -0.00000000000E+00 -0.15913606558E+03  0.15913606558E+03  0.00000000000E+00 0.  1.
          6    1    1    2  501    0 -0.27550495972E+02  0.11379042059E+03  0.27209108655E+02  0.20983713980E+03  0.17200000000E+03 0.  1.
         -6    1    1    2    0  502  0.27550495972E+02 -0.11379042059E+03  0.91754701348E+02  0.22739880137E+03  0.17200000000E+03 0.  1.
</event>
<event>
 4    1  0.5739010E+000  0.2543999E+03  0.7818608E-02  0.1110555E+00
         21   -1    0    0  503  502  0.00000000000E+00  0.00000000000E+00  0.15735438970E+03  0.15735438970E+03  0.00000000000E+00 0. -1.
         21   -1    0    0  501  503 -0.00000000000E+00 -0.00000000000E+00 -0.64594226453E+03  0.64594226453E+03  0.00000000000E+00 0.  1.
          6    1    1    2  501    0 -0.12288789773E+02  0.18704089135E+03 -0.48637202142E+03  0.54888710370E+03  0.17200000000E+03 0.  1.
         -6    1    1    2    0  502  0.12288789773E+02 -0.18704089135E+03 -0.22158534109E+01  0.25440955052E+03  0.17200000000E+03 0. -1.
</event>
<event>
 4    1  0.5739010E+000  0.3043006E+03  0.7818608E-02  0.1083110E+00
         21   -1    0    0  501  502  0.00000000000E+00  0.00000000000E+00  0.21882003547E+04  0.21882003547E+04  0.00000000000E+00 0.  1.
         21   -1    0    0  502  503 -0.00000000000E+00 -0.00000000000E+00 -0.46612843062E+02  0.46612843062E+02  0.00000000000E+00 0. -1.
          6    1    1    2  501    0 -0.12808951225E+03  0.21588867450E+03  0.73158669386E+03  0.79234962836E+03  0.17200000000E+03 0.  1.
         -6    1    1    2    0  503  0.12808951225E+03 -0.21588867450E+03  0.14100008178E+04  0.14424635694E+04  0.17200000000E+03 0.  1.
</event>
<event>
 4    1  0.5739010E+000  0.1756121E+03  0.7818608E-02  0.1172119E+00
         21   -1    0    0  503  502  0.00000000000E+00  0.00000000000E+00  0.11425760428E+03  0.11425760428E+03  0.00000000000E+00 0.  1.
         21   -1    0    0  501  503 -0.00000000000E+00 -0.00000000000E+00 -0.37474251451E+03  0.37474251451E+03  0.00000000000E+00 0.  1.
          6    1    1    2  501    0  0.31365917804E+02  0.16485621075E+02 -0.25955914141E+03  0.31338561612E+03  0.17200000000E+03 0.  1.
         -6    1    1    2    0  502 -0.31365917804E+02 -0.16485621075E+02 -0.92576881629E+00  0.17561450268E+03  0.17200000000E+03 0.  1.
</event>
<event>
 4    1  0.5739010E+000  0.1762805E+03  0.7818608E-02  0.1171452E+00
         21   -1    0    0  501  502  0.00000000000E+00  0.00000000000E+00  0.18560586333E+03  0.18560586333E+03  0.00000000000E+00 0. -1.
         21   -1    0    0  502  503 -0.00000000000E+00 -0.00000000000E+00 -0.21301108985E+03  0.21301108985E+03  0.00000000000E+00 0. -1.
          6    1    1    2  501    0 -0.32226134278E+02  0.21267113942E+02  0.78500841337E+02  0.19296941715E+03  0.17200000000E+03 0. -1.
         -6    1    1    2    0  503  0.32226134278E+02 -0.21267113942E+02 -0.10590606786E+03  0.20564753603E+03  0.17200000000E+03 0. -1.
</event>
<event>
 4    1  0.5739010E+000  0.2310645E+03  0.7818608E-02  0.1125893E+00
         21   -1    0    0  501  502  0.00000000000E+00  0.00000000000E+00  0.18502492327E+03  0.18502492327E+03  0.00000000000E+00 0. -1.
         21   -1    0    0  502  503 -0.00000000000E+00 -0.00000000000E+00 -0.28992592919E+03  0.28992592919E+03  0.00000000000E+00 0.  1.
          6    1    1    2  501    0  0.11295315420E+03 -0.10511134468E+03 -0.36151020914E+02  0.23387540730E+03  0.17200000000E+03 0.  1.
         -6    1    1    2    0  503 -0.11295315420E+03  0.10511134468E+03 -0.68749984997E+02  0.24107544516E+03  0.17200000000E+03 0. -1.
</event>
<event>
 4    1  0.5739010E+000  0.2395364E+03  0.7818608E-02  0.1120102E+00
         21   -1    0    0  503  502  0.00000000000E+00  0.00000000000E+00  0.22207153982E+03  0.22207153982E+03  0.00000000000E+00 0. -1.
         21   -1    0    0  501  503 -0.00000000000E+00 -0.00000000000E+00 -0.35392055217E+03  0.35392055217E+03  0.00000000000E+00 0. -1.
          6    1    1    2  501    0 -0.15138596351E+03  0.69828129881E+02 -0.21556166327E+03  0.32224914017E+03  0.17200000000E+03 0. -1.
         -6    1    1    2    0  502  0.15138596351E+03 -0.69828129881E+02  0.83712650923E+02  0.25374295182E+03  0.17200000000E+03 0. -1.
</event>
<event>
 4    1  0.5739010E+000  0.1896021E+03  0.7818608E-02  0.1158821E+00
         21   -1    0    0  503  502  0.00000000000E+00  0.00000000000E+00  0.14608040815E+04  0.14608040815E+04  0.00000000000E+00 0.  1.
         21   -1    0    0  501  503 -0.00000000000E+00 -0.00000000000E+00 -0.33493316207E+02  0.33493316207E+02  0.00000000000E+00 0.  1.
          6    1    1    2  501    0  0.53090020146E+02  0.59551766268E+02  0.32885155792E+03  0.37959492917E+03  0.17200000000E+03 0.  1.
         -6    1    1    2    0  502 -0.53090020146E+02 -0.59551766268E+02  0.10984592074E+04  0.11147024685E+04  0.17200000000E+03 0.  1.
</event>
<event>
 4    1  0.5739010E+000  0.1768426E+03  0.7818608E-02  0.1170894E+00
         21   -1    0    0  503  502  0.00000000000E+00  0.00000000000E+00  0.34047052052E+03  0.34047052052E+03  0.00000000000E+00 0. -1.
         21   -1    0    0  501  503 -0.00000000000E+00 -0.00000000000E+00 -0.13811601294E+03  0.13811601294E+03  0.00000000000E+00 0.  1.
          6    1    1    2  501    0 -0.34648917800E+02 -0.22107748850E+02 -0.37314709859E+02  0.18073651440E+03  0.17200000000E+03 0.  1.
         -6    1    1    2    0  502  0.34648917800E+02  0.22107748850E+02  0.23966921744E+03  0.29785001906E+03  0.17200000000E+03 0. -1.
</event>
<event>
 4    1  0.5739010E+000  0.2117147E+03  0.7818608E-02  0.1140215E+00
         21   -1    0    0  503  502  0.00000000000E+00  0.00000000000E+00  0.93236848857E+03  0.93236848857E+03  0.00000000000E+00 0. -1.
         21   -1    0    0  501  503 -0.00000000000E+00 -0.00000000000E+00 -0.48371085799E+02  0.48371085799E+02  0.00000000000E+00 0.  1.
          6    1    1    2  501    0 -0.53343785241E+02 -0.11132640573E+03  0.48039791651E+03  0.52498122464E+03  0.17200000000E+03 0. -1.
         -6    1    1    2    0  502  0.53343785241E+02  0.11132640573E+03  0.40359948626E+03  0.45575834972E+03  0.17200000000E+03 0. -1.
</event>
<event>
 4    1  0.5739010E+000  0.2195744E+03  0.7818608E-02  0.1134201E+00
         21   -1    0    0  503  502  0.00000000000E+00  0.00000000000E+00  0.62362250276E+03  0.62362250276E+03  0.00000000000E+00 0. -1.
         21   -1    0    0  501  503 -0.00000000000E+00 -0.00000000000E+00 -0.83280893907E+02  0.83280893907E+02  0.00000000000E+00 0.  1.
          6    1    1    2  501    0  0.99996121324E+02 -0.92896057330E+02  0.17553850745E+03  0.28111682509E+03  0.17200000000E+03 0. -1.
         -6    1    1    2    0  502 -0.99996121324E+02  0.92896057330E+02  0.36480310140E+03  0.42578657158E+03  0.17200000000E+03 0. -1.
</event>
<event>
 4    1  0.5739010E+000  0.2061631E+03  0.7818608E-02  0.1144641E+00
         21   -1    0    0  501  502  0.00000000000E+00  0.00000000000E+00  0.73793947890E+03  0.73793947890E+03  0.00000000000E+00 0. -1.
         21   -1    0    0  502  503 -0.00000000000E+00 -0.00000000000E+00 -0.78202966449E+02  0.78202966449E+02  0.00000000000E+00 0.  1.
          6    1    1    2  501    0  0.17243152351E+02  0.11234715143E+03  0.53933703432E+03  0.57739730284E+03  0.17200000000E+03 0. -1.
         -6    1    1    2    0  503 -0.17243152351E+02 -0.11234715143E+03  0.12039947813E+03  0.23874514251E+03  0.17200000000E+03 0.  1.
</event>
<event>
 4    1  0.5739010E+000  0.2841358E+03  0.7818608E-02  0.1093451E+00
         21   -1    0    0  501  502  0.00000000000E+00  0.00000000000E+00  0.11503653755E+04  0.11503653755E+04  0.00000000000E+00 0.  1.
         21   -1    0    0  502  503 -0.00000000000E+00 -0.00000000000E+00 -0.11258971771E+03  0.11258971771E+03  0.00000000000E+00 0. -1.
          6    1    1    2  501    0 -0.19378028062E+03 -0.11661198153E+03  0.90644785071E+03  0.94993729133E+03  0.17200000000E+03 0. -1.
         -6    1    1    2    0  503  0.19378028062E+03  0.11661198153E+03  0.13132780710E+03  0.31301780191E+03  0.17200000000E+03 0. -1.
</event>
<event>
 4    1  0.5739010E+000  0.2324995E+03  0.7818608E-02  0.1124893E+00
         21   -1    0    0  503  502  0.00000000000E+00  0.00000000000E+00  0.21657399077E+03  0.21657399077E+03  0.00000000000E+00 0.  1.
         21   -1    0    0  501  503 -0.00000000000E+00 -0.00000000000E+00 -0.38123128956E+03  0.38123128956E+03  0.00000000000E+00 0. -1.
          6    1    1    2  501    0 -0.12344789521E+03 -0.96086674926E+02 -0.25796783677E+03  0.34728005520E+03  0.17200000000E+03 0. -1.
         -6    1    1    2    0  502  0.12344789521E+03  0.96086674926E+02  0.93310537974E+02  0.25052522513E+03  0.17200000000E+03 0.  1.
</event>
<event>
 4    1  0.5739010E+000  0.2071284E+03  0.7818608E-02  0.1143860E+00
         21   -1    0    0  503  502  0.00000000000E+00  0.00000000000E+00  0.12839522625E+03  0.12839522625E+03  0.00000000000E+00 0.  1.
         21   -1    0    0  501  503 -0.00000000000E+00 -0.00000000000E+00 -0.89829932367E+03  0.89829932367E+03  0.00000000000E+00 0.  1.
          6    1    1    2  501    0 -0.11357166378E+03  0.20485096796E+02 -0.79177089765E+03  0.81841512472E+03  0.17200000000E+03 0.  1.
         -6    1    1    2    0  502  0.11357166378E+03 -0.20485096796E+02  0.21866800231E+02  0.20827942519E+03  0.17200000000E+03 0.  1.
</event>
<event>
 4    1  0.5739010E+000  0.2070240E+03  0.7818608E-02  0.1143945E+00
         21   -1    0    0  501  502  0.00000000000E+00  0.00000000000E+00  0.14530090464E+03  0.14530090464E+03  0.00000000000E+00 0. -1.
         21   -1    0    0  502  503 -0.00000000000E+00 -0.00000000000E+00 -0.74737412711E+03  0.74737412711E+03  0.00000000000E+00 0. -1.
          6    1    1    2  501    0 -0.10421494652E+03 -0.49134515772E+02  0.46226886299E+02  0.21212232493E+03  0.17200000000E+03 0. -1.
         -6    1    1    2    0  503  0.10421494652E+03  0.49134515772E+02 -0.64830010877E+03  0.68055270682E+03  0.17200000000E+03 0. -1.
</event>
<event>
 4    1  0.5739010E+000  0.2218571E+03  0.7818608E-02  0.1132506E+00
         21   -1    0    0  503  502  0.00000000000E+00  0.00000000000E+00  0.69396802600E+03  0.69396802600E+03  0.00000000000E+00 0. -1.
         21   -1    0    0  501  503 -0.00000000000E+00 -0.00000000000E+00 -0.83295068523E+02  0.83295068523E+02  0.00000000000E+00 0.  1.
          6    1    1    2  501    0  0.64188016995E+02  0.12456516577E+03  0.15557790433E+03  0.27097060056E+03  0.17200000000E+03 0.  1.
         -6    1    1    2    0  502 -0.64188016995E+02 -0.12456516577E+03  0.45509505315E+03  0.50629249397E+03  0.17200000000E+03 0. -1.
</event>
<event>
 4    1  0.5739010E+000  0.1945659E+03  0.7818608E-02  0.1154406E+00
         21   -1    0    0  501  502  0.00000000000E+00  0.00000000000E+00  0.21419735943E+03  0.21419735943E+03  0.00000000000E+00 0.  1.
         21   -1    0    0  502  503 -0.00000000000E+00 -0.00000000000E+00 -0.26292140156E+03  0.26292140156E+03  0.00000000000E+00 0.  1.
          6    1    1    2  501    0  0.49133847276E+02 -0.76535919731E+02  0.11222401303E+03  0.22461102167E+03  0.17200000000E+03 0.  1.
         -6    1    1    2    0  503 -0.49133847276E+02  0.76535919731E+02 -0.16094805515E+03  0.25250773932E+03  0.17200000000E+03 0.  1.
</event>
<event>
 4    1  0.5739010E+000  0.2295528E+03  0.7818608E-02  0.1126955E+00
         21   -1    0    0  503  502  0.00000000000E+00  0.00000000000E+00  0.75973022856E+02  0.75973022856E+02  0.00000000000E+00 0. -1.
         21   -1    0    0  501  503 -0.00000000000E+00 -0.00000000000E+00 -0.69559233757E+03  0.69559233757E+03  0.00000000000E+00 0.  1.
          6    1    1    2  501    0  0.12636461311E+03 -0.84513129259E+02 -0.28913559253E+03  0.36918000397E+03  0.17200000000E+03 0.  1.
         -6    1    1    2    0  502 -0.12636461311E+03  0.84513129259E+02 -0.33048372218E+03  0.40238535646E+03  0.17200000000E+03 0. -1.
</event>
<event>
 4    1  0.5739010E+000  0.2325588E+03  0.7818608E-02  0.1124852E+00
         21   -1    0    0  501  502  0.00000000000E+00  0.00000000000E+00  0.53209440734E+02  0.53209440734E+02  0.00000000000E+00 0. -1.
         21   -1    0    0  502  503 -0.00000000000E+00 -0.00000000000E+00 -0.10653407951E+04  0.10653407951E+04  0.00000000000E+00 0.  1.
          6    1    1    2  501    0  0.75253118048E+02 -0.13724629473E+03 -0.38622852550E+03  0.45083927413E+03  0.17200000000E+03 0.  1.
         -6    1    1    2    0  503 -0.75253118048E+02  0.13724629473E+03 -0.62590282887E+03  0.66771096171E+03  0.17200000000E+03 0.  1.
</event>
<event>
 4    1  0.5739010E+000  0.1768988E+03  0.7818608E-02  0.1170839E+00
         21   -1    0    0  501  502  0.00000000000E+00  0.00000000000E+00  0.11887910648E+03  0.11887910648E+03  0.00000000000E+00 0.  1.
         21   -1    0    0  502  503 -0.00000000000E+00 -0.00000000000E+00 -0.34246714182E+03  0.34246714182E+03  0.00000000000E+00 0.  1.
          6    1    1    2  501    0  0.35586697498E+02 -0.21041762612E+02 -0.84138449937E+00  0.17690075393E+03  0.17200000000E+03 0.  1.
         -6    1    1    2    0  503 -0.35586697498E+02  0.21041762612E+02 -0.22274665084E+03  0.28444549438E+03  0.17200000000E+03 0.  1.
</event>
<event>
 4    1  0.5739010E+000  0.1826645E+03  0.7818608E-02  0.1165249E+00
         21   -1    0    0  503  502  0.00000000000E+00  0.00000000000E+00  0.48086557590E+03  0.48086557590E+03  0.00000000000E+00 0. -1.
         21   -1    0    0  501  503 -0.00000000000E+00 -0.00000000000E+00 -0.15634024198E+03  0.15634024198E+03  0.00000000000E+00 0. -1.
          6    1    1    2  501    0  0.24821841234E+02 -0.56269082518E+02 -0.75341782037E+02  0.19759230139E+03  0.17200000000E+03 0.  1.
         -6    1    1    2    0  502 -0.24821841234E+02  0.56269082518E+02  0.39986711595E+03  0.43961351648E+03  0.17200000000E+03 0.  1.
</event>
<event>
 4    1  0.5739010E+000  0.1729925E+03  0.7818608E-02  0.1174763E+00
         21   -1    0    0  501  502  0.00000000000E+00  0.00000000000E+00  0.29102013556E+03  0.29102013556E+03  0.00000000000E+00 0.  1.
         21   -1    0    0  502  503 -0.00000000000E+00 -0.00000000000E+00 -0.14598455045E+03  0.14598455045E+03  0.00000000000E+00 0.  1.
          6    1    1    2  501    0  0.12759694458E+02 -0.13401452814E+02  0.19131383525E+03  0.25792904508E+03  0.17200000000E+03 0.  1.
         -6    1    1    2    0  503 -0.12759694458E+02  0.13401452814E+02 -0.46278250140E+02  0.17907564093E+03  0.17200000000E+03 0.  1.
</event>
<event>
 4    1  0.5739010E+000  0.1967665E+03  0.7818608E-02  0.1152496E+00
         21   -1    0    0  501  502  0.00000000000E+00  0.00000000000E+00  0.23074692310E+03  0.23074692310E+03  0.00000000000E+00 0.  1.
         21   -1    0    0  502  503 -0.00000000000E+00 -0.00000000000E+00 -0.17243548912E+03  0.17243548912E+03  0.00000000000E+00 0. -1.
          6    1    1    2  501    0  0.88734881370E+02  0.35484946778E+02  0.62243450029E+02  0.20637661614E+03  0.17200000000E+03 0.  1.
         -6    1    1    2    0  503 -0.88734881370E+02 -0.35484946778E+02 -0.39320160500E+01  0.19680579608E+03  0.17200000000E+03 0. -1.
</event>
<event>
 4    1  0.5739010E+000  0.1969276E+03  0.7818608E-02  0.1152357E+00
         21   -1    0    0  503  502  0.00000000000E+00  0.00000000000E+00  0.15965942735E+02  0.15965942735E+02  0.00000000000E+00 0.  1.
         21   -1    0    0  501  503 -0.00000000000E+00 -0.00000000000E+00 -0.26667544394E+04  0.26667544394E+04  0.00000000000E+00 0. -1.
          6    1    1    2  501    0 -0.88020080049E+02  0.38065079566E+02 -0.17259504052E+04  0.17371486079E+04  0.17200000000E+03 0. -1.
         -6    1    1    2    0  502  0.88020080049E+02 -0.38065079566E+02 -0.92483809145E+03  0.94557177421E+03  0.17200000000E+03 0.  1.
</event>
<event>
 4    1  0.5739010E+000  0.1861030E+03  0.7818608E-02  0.1162024E+00
         21   -1    0    0  501  502  0.00000000000E+00  0.00000000000E+00  0.14667922906E+03  0.14667922906E+03  0.00000000000E+00 0. -1.
         21   -1    0    0  502  503 -0.00000000000E+00 -0.00000000000E+00 -0.28430669151E+03  0.28430669151E+03  0.00000000000E+00 0. -1.
          6    1    1    2  501    0 -0.20811145281E+02  0.67950187486E+02  0.19899791024E+02  0.18716392128E+03  0.17200000000E+03 0. -1.
         -6    1    1    2    0  503  0.20811145281E+02 -0.67950187486E+02 -0.15752725348E+03  0.24382199929E+03  0.17200000000E+03 0. -1.
</event>
<event>
 4    1  0.5739010E+000  0.1844914E+03  0.7818608E-02  0.1163526E+00
         21   -1    0    0  501  502  0.00000000000E+00  0.00000000000E+00  0.61630649492E+03  0.61630649492E+03  0.00000000000E+00 0. -1.
         21   -1    0    0  502  503 -0.00000000000E+00 -0.00000000000E+00 -0.33022831893E+03  0.33022831893E+03  0.00000000000E+00 0.  1.
          6    1    1    2  501    0 -0.48973678035E+02 -0.45328371461E+02  0.57492239017E+03  0.60379867267E+03  0.17200000000E+03 0. -1.
         -6    1    1    2    0  503  0.48973678035E+02  0.45328371461E+02 -0.28884421418E+03  0.34273614117E+03  0.17200000000E+03 0.  1.
</event>
<event>
 4    1  0.5739010E+000  0.2040886E+03  0.7818608E-02  0.1146335E+00
         21   -1    0    0  501  502  0.00000000000E+00  0.00000000000E+00  0.40634881110E+03  0.40634881110E+03  0.00000000000E+00 0. -1.
         21   -1    0    0  502  503 -0.00000000000E+00 -0.00000000000E+00 -0.12232461610E+03  0.12232461610E+03  0.00000000000E+00 0.  1.
          6    1    1    2  501    0 -0.49248139538E+02 -0.98197626649E+02  0.24841787455E+03  0.32150208945E+03  0.17200000000E+03 0. -1.
         -6    1    1    2    0  503  0.49248139538E+02  0.98197626649E+02  0.35606320455E+02  0.20717133775E+03  0.17200000000E+03 0.  1.
</event>
<event>
 4    1  0.5739010E+000  0.2215867E+03  0.7818608E-02  0.1132706E+00
         21   -1    0    0  503  502  0.00000000000E+00  0.00000000000E+00  0.14958776074E+03  0.14958776074E+03  0.00000000000E+00 0. -1.
         21   -1    0    0  501  503 -0.00000000000E+00 -0.00000000000E+00 -0.41560562001E+03  0.41560562001E+03  0.00000000000E+00 0.  1.
          6    1    1    2  501    0  0.13906257254E+03  0.13351722836E+02 -0.26257669329E+03  0.34357995786E+03  0.17200000000E+03 0.  1.
         -6    1    1    2    0  502 -0.13906257254E+03 -0.13351722836E+02 -0.34411659782E+01  0.22161342290E+03  0.17200000000E+03 0. -1.
</event>
<event>
 4    1  0.5739010E+000  0.2211708E+03  0.7818608E-02  0.1133013E+00
         21   -1    0    0  503  502  0.00000000000E+00  0.00000000000E+00  0.12047658489E+04  0.12047658489E+04  0.00000000000E+00 0. -1.
         21   -1    0    0  501  503 -0.00000000000E+00 -0.00000000000E+00 -0.73149498278E+02  0.73149498278E+02  0.00000000000E+00 0.  1.
          6    1    1    2  501    0 -0.11942144783E+03  0.71211354031E+02  0.13960007661E+03  0.26154296116E+03  0.17200000000E+03 0.  1.
         -6    1    1    2    0  502  0.11942144783E+03 -0.71211354031E+02  0.99201627400E+03  0.10163723860E+04  0.17200000000E+03 0. -1.
</event>
<event>
 4    1  0.5739010E+000  0.1869205E+03  0.7818608E-02  0.1161269E+00
         21   -1    0    0  503  502  0.00000000000E+00  0.00000000000E+00  0.25873849155E+03  0.25873849155E+03  0.00000000000E+00 0. -1.
         21   -1    0    0  501  503 -0.00000000000E+00 -0.00000000000E+00 -0.13615284053E+03  0.13615284053E+03  0.00000000000E+00 0. -1.
          6    1    1    2  501    0 -0.17816531383E+02  0.70977826137E+02  0.43418604975E+02  0.19189699282E+03  0.17200000000E+03 0. -1.
         -6    1    1    2    0  502  0.17816531383E+02 -0.70977826137E+02  0.79167046044E+02  0.20299433926E+03  0.17200000000E+03 0. -1.
</event>
<event>
 4    1  0.5739010E+000  0.1897731E+03  0.7818608E-02  0.1158666E+00
         21   -1    0    0  503  502  0.00000000000E+00  0.00000000000E+00  0.36446139152E+03  0.36446139152E+03  0.00000000000E+00 0.  1.
         21   -1    0    0  501  503 -0.00000000000E+00 -0.00000000000E+00 -0.21260535859E+03  0.21260535859E+03  0.00000000000E+00 0.  1.
          6    1    1    2  501    0  0.44700485879E+02 -0.66570924412E+02 -0.13516017658E+03  0.23298518139E+03  0.17200000000E+03 0.  1.
         -6    1    1    2    0  502 -0.44700485879E+02  0.66570924412E+02  0.28701620950E+03  0.34408156872E+03  0.17200000000E+03 0.  1.
</event>
<event>
 4    1  0.5739010E+000  0.2737559E+03  0.7818608E-02  0.1099149E+00
         21   -1    0    0  503  502  0.00000000000E+00  0.00000000000E+00  0.17505208673E+04  0.17505208673E+04  0.00000000000E+00 0.  1.
         21   -1    0    0  501  503 -0.00000000000E+00 -0.00000000000E+00 -0.42818703644E+02  0.42818703644E+02  0.00000000000E+00 0.  1.
          6    1    1    2  501    0 -0.16832672699E+03 -0.13047759642E+03  0.84215916104E+03  0.88553618939E+03  0.17200000000E+03 0.  1.
         -6    1    1    2    0  502  0.16832672699E+03  0.13047759642E+03  0.86554300257E+03  0.90780338151E+03  0.17200000000E+03 0.  1.
</event>
<event>
 4    1  0.5739010E+000  0.1994289E+03  0.7818608E-02  0.1150222E+00
         21   -1    0    0  503  502  0.00000000000E+00  0.00000000000E+00  0.76648687843E+02  0.76648687843E+02  0.00000000000E+00 0.  1.
         21   -1    0    0  501  503 -0.00000000000E+00 -0.00000000000E+00 -0.69359136662E+03  0.69359136662E+03  0.00000000000E+00 0. -1.
          6    1    1    2  501    0  0.92376892730E+02 -0.40674024847E+02 -0.50175646419E+03  0.53993649253E+03  0.17200000000E+03 0. -1.
         -6    1    1    2    0  502 -0.92376892730E+02  0.40674024847E+02 -0.11518621458E+03  0.23030356193E+03  0.17200000000E+03 0. -1.
</event>
<event>
 4    1  0.5739010E+000  0.2422678E+03  0.7818608E-02  0.1118291E+00
         21   -1    0    0  501  502  0.00000000000E+00  0.00000000000E+00  0.40590466882E+04  0.40590466882E+04  0.00000000000E+00 0. -1.
         21   -1    0    0  502  503 -0.00000000000E+00 -0.00000000000E+00 -0.21616845633E+02  0.21616845633E+02  0.00000000000E+00 0. -1.
          6    1    1    2  501    0 -0.11095781764E+03 -0.12960721767E+03  0.31927107507E+04  0.32018893806E+04  0.17200000000E+03 0. -1.
         -6    1    1    2    0  503  0.11095781764E+03  0.12960721767E+03  0.84471909183E+03  0.87877415317E+03  0.17200000000E+03 0. -1.
</event>
<event>
 4    1  0.5739010E+000  0.2750261E+03  0.7818608E-02  0.1098437E+00
         21   -1    0    0  501  502  0.00000000000E+00  0.00000000000E+00  0.77161910489E+03  0.77161910489E+03  0.00000000000E+00 0.  1.
         21   -1    0    0  502  503 -0.00000000000E+00 -0.00000000000E+00 -0.13446571617E+03  0.13446571617E+03  0.00000000000E+00 0.  1.
          6    1    1    2  501    0  0.35075465841E+02 -0.21171931670E+03  0.82737622931E+02  0.28720179598E+03  0.17200000000E+03 0. -1.
         -6    1    1    2    0  503 -0.35075465841E+02  0.21171931670E+03  0.55441576579E+03  0.61888302507E+03  0.17200000000E+03 0. -1.
</event>
<event>
 4    1  0.5739010E+000  0.1895529E+03  0.7818608E-02  0.1158865E+00
         21   -1    0    0  501  502  0.00000000000E+00  0.00000000000E+00  0.63734660098E+03  0.63734660098E+03  0.00000000000E+00 0. -1.
         21   -1    0    0  502  503 -0.00000000000E+00 -0.00000000000E+00 -0.56465033509E+02  0.56465033509E+02  0.00000000000E+00 0. -1.
          6    1    1    2  501    0 -0.65795354798E+02  0.44914193795E+02  0.27657622117E+03  0.33529795650E+03  0.17200000000E+03 0. -1.
         -6    1    1    2    0  503  0.65795354798E+02 -0.44914193795E+02  0.30430534631E+03  0.35851367799E+03  0.17200000000E+03 0. -1.
</event>
<event>
 4    1  0.5739010E+000  0.2041055E+03  0.7818608E-02  0.1146321E+00
         21   -1    0    0  503  502  0.00000000000E+00  0.00000000000E+00  0.23182922458E+03  0.23182922458E+03  0.00000000000E+00 0. -1.
         21   -1    0    0  501  503 -0.00000000000E+00 -0.00000000000E+00 -0.21595152137E+03  0.21595152137E+03  0.00000000000E+00 0. -1.
          6    1    1    2  501    0 -0.90357304175E+02 -0.62534822489E+02 -0.83796682048E+02  0.22063755429E+03  0.17200000000E+03 0. -1.
         -6    1    1    2    0  502  0.90357304175E+02  0.62534822489E+02  0.99674385262E+02  0.22714319166E+03  0.17200000000E+03 0. -1.
</event>
<event>
 4    1  0.5739010E+000  0.1911744E+03  0.7818608E-02  0.1157406E+00
         21   -1    0    0  503  502  0.00000000000E+00  0.00000000000E+00  0.70937150926E+02  0.70937150926E+02  0.00000000000E+00 0.  1.
         21   -1    0    0  501  503 -0.00000000000E+00 -0.00000000000E+00 -0.97017807364E+03  0.97017807364E+03  0.00000000000E+00 0.  1.
          6    1    1    2  501    0  0.47245830988E+02  0.68785837689E+02 -0.80609839949E+03  0.82845777785E+03  0.17200000000E+03 0.  1.
         -6    1    1    2    0  502 -0.47245830988E+02 -0.68785837689E+02 -0.93142523219E+02  0.21265744672E+03  0.17200000000E+03 0.  1.
</event>
<event>
 4    1  0.5739010E+000  0.1756287E+03  0.7818608E-02  0.1172102E+00
         21   -1    0    0  503  502  0.00000000000E+00  0.00000000000E+00  0.97509001321E+03  0.97509001321E+03  0.00000000000E+00 0.  1.
         21   -1    0    0  501  503 -0.00000000000E+00 -0.00000000000E+00 -0.61778276983E+02  0.61778276983E+02  0.00000000000E+00 0.  1.
          6    1    1    2  501    0  0.27699553339E+02  0.22230221719E+02  0.94511115653E+02  0.19944372388E+03  0.17200000000E+03 0. -1.
         -6    1    1    2    0  502 -0.27699553339E+02 -0.22230221719E+02  0.81880062057E+03  0.83742456631E+03  0.17200000000E+03 0. -1.
</event>
<event>
 4    1  0.5739010E+000  0.1927967E+03  0.7818608E-02  0.1155963E+00
         21   -1    0    0  503  502  0.00000000000E+00  0.00000000000E+00  0.96243629567E+02  0.96243629567E+02  0.00000000000E+00 0.  1.
         21   -1    0    0  501  503 -0.00000000000E+00 -0.00000000000E+00 -0.63861321358E+03  0.63861321358E+03  0.00000000000E+00 0.  1.
          6    1    1    2  501    0  0.69505292063E+02 -0.52493530025E+02 -0.50217763189E+03  0.53791535607E+03  0.17200000000E+03 0.  1.
         -6    1    1    2    0  502 -0.69505292063E+02  0.52493530025E+02 -0.40191952125E+02  0.19694148708E+03  0.17200000000E+03 0.  1.
</event>
<event>
 4    1  0.5739010E+000  0.1822296E+03  0.7818608E-02  0.1165662E+00
         21   -1    0    0  503  502  0.00000000000E+00  0.00000000000E+00  0.74816586467E+02  0.74816586467E+02  0.00000000000E+00 0. -1.
         21   -1    0    0  501  503 -0.00000000000E+00 -0.00000000000E+00 -0.65474811246E+03  0.65474811246E+03  0.00000000000E+00 0. -1.
          6    1    1    2  501    0  0.36110884390E+02  0.48162604998E+02 -0.49699373882E+03  0.52934904261E+03  0.17200000000E+03 0. -1.
         -6    1    1    2    0  502 -0.36110884390E+02 -0.48162604998E+02 -0.82937787177E+02  0.20021565631E+03  0.17200000000E+03 0. -1.
</event>
<event>
 4    1  0.5739010E+000  0.2263780E+03  0.7818608E-02  0.1129215E+00
         21   -1    0    0  503  502  0.00000000000E+00  0.00000000000E+00  0.83163484106E+02  0.83163484106E+02  0.00000000000E+00 0. -1.
         21   -1    0    0  501  503 -0.00000000000E+00 -0.00000000000E+00 -0.68593865210E+03  0.68593865210E+03  0.00000000000E+00 0. -1.
          6    1    1    2  501    0  0.34333336236E+02  0.14312310576E+03 -0.42398629527E+03  0.48063643220E+03  0.17200000000E+03 0. -1.
         -6    1    1    2    0  502 -0.34333336236E+02 -0.14312310576E+03 -0.17878887273E+03  0.28846570401E+03  0.17200000000E+03 0. -1.
</event>
<event>
 4    1  0.5739010E+000  0.1774082E+03  0.7818608E-02  0.1170335E+00
         21   -1    0    0  503  502  0.00000000000E+00  0.00000000000E+00  0.64889737021E+03  0.64889737021E+03  0.00000000000E+00 0. -1.
         21   -1    0    0  501  503 -0.00000000000E+00 -0.00000000000E+00 -0.48505230575E+02  0.48505230575E+02  0.00000000000E+00 0. -1.
          6    1    1    2  501    0 -0.42298751829E+02  0.10024097089E+02  0.29799890582E+03  0.34680976745E+03  0.17200000000E+03 0. -1.
         -6    1    1    2    0  502  0.42298751829E+02 -0.10024097089E+02  0.30239323381E+03  0.35059283333E+03  0.17200000000E+03 0. -1.
</event>
<event>
 4    1  0.5739010E+000  0.1877777E+03  0.7818608E-02  0.1160481E+00
         21   -1    0    0  501  502  0.00000000000E+00  0.00000000000E+00  0.26668598958E+03  0.26668598958E+03  0.00000000000E+00 0.  1.
         21   -1    0    0  502  503 -0.00000000000E+00 -0.00000000000E+00 -0.14123405652E+03  0.14123405652E+03  0.00000000000E+00 0.  1.
          6    1    1    2  501    0 -0.73079814556E+01  0.74986939681E+02  0.11426133233E+03  0.21980923498E+03  0.17200000000E+03 0.  1.
         -6    1    1    2    0  503  0.73079814556E+01 -0.74986939681E+02  0.11190600725E+02  0.18811081112E+03  0.17200000000E+03 0.  1.
</event>
<event>
 4    1  0.5739010E+000  0.1966991E+03  0.7818608E-02  0.1152554E+00
         21   -1    0    0  503  502  0.00000000000E+00  0.00000000000E+00  0.91658977330E+02  0.91658977330E+02  0.00000000000E+00 0. -1.
         21   -1    0    0  501  503 -0.00000000000E+00 -0.00000000000E+00 -0.67685224779E+03  0.67685224779E+03  0.00000000000E+00 0. -1.
          6    1    1    2  501    0  0.57704957720E+02  0.76004433257E+02 -0.52832963068E+03  0.56375769145E+03  0.17200000000E+03 0. -1.
         -6    1    1    2    0  502 -0.57704957720E+02 -0.76004433257E+02 -0.56863639785E+02  0.20475353367E+03  0.17200000000E+03 0. -1.
</event>
<event>
 4    1  0.5739010E+000  0.1764032E+03  0.7818608E-02  0.1171330E+00
         21   -1    0    0  501  502  0.00000000000E+00  0.00000000000E+00  0.16805735919E+02  0.16805735919E+02  0.00000000000E+00 0.  1.
         21   -1    0    0  502  503 -0.00000000000E+00 -0.00000000000E+00 -0.18517790485E+04  0.18517790485E+04  0.00000000000E+00 0.  1.
          6    1    1    2  501    0  0.20932883503E+02  0.33104256838E+02 -0.90922699164E+03  0.92618129962E+03  0.17200000000E+03 0. -1.
         -6    1    1    2    0  503 -0.20932883503E+02 -0.33104256838E+02 -0.92574632099E+03  0.94240348485E+03  0.17200000000E+03 0. -1.
</event>
<event>
 4    1  0.5739010E+000  0.1739843E+03  0.7818608E-02  0.1173755E+00
         21   -1    0    0  503  502  0.00000000000E+00  0.00000000000E+00  0.25676075713E+03  0.25676075713E+03  0.00000000000E+00 0.  1.
         21   -1    0    0  501  503 -0.00000000000E+00 -0.00000000000E+00 -0.12490596504E+03  0.12490596504E+03  0.00000000000E+00 0.  1.
          6    1    1    2  501    0  0.26130395642E+02  0.19325018060E+01  0.20712133089E+02  0.17521279804E+03  0.17200000000E+03 0.  1.
         -6    1    1    2    0  502 -0.26130395642E+02 -0.19325018060E+01  0.11114265900E+03  0.20645392413E+03  0.17200000000E+03 0.  1.
</event>
<event>
 4    1  0.5739010E+000  0.2178016E+03  0.7818608E-02  0.1135533E+00
         21   -1    0    0  503  502  0.00000000000E+00  0.00000000000E+00  0.76369621732E+03  0.76369621732E+03  0.00000000000E+00 0. -1.
         21   -1    0    0  501  503 -0.00000000000E+00 -0.00000000000E+00 -0.12006526654E+03  0.12006526654E+03  0.00000000000E+00 0.  1.
          6    1    1    2  501    0  0.12441421732E+03  0.48730236431E+02  0.14827450198E+02  0.21830571841E+03  0.17200000000E+03 0.  1.
         -6    1    1    2    0  502 -0.12441421732E+03 -0.48730236431E+02  0.62880350058E+03  0.66545576544E+03  0.17200000000E+03 0. -1.
</event>
<event>
 4    1  0.5739010E+000  0.2225899E+03  0.7818608E-02  0.1131967E+00
         21   -1    0    0  501  502  0.00000000000E+00  0.00000000000E+00  0.64697998553E+03  0.64697998553E+03  0.00000000000E+00 0.  1.
         21   -1    0    0  502  503 -0.00000000000E+00 -0.00000000000E+00 -0.10220825393E+03  0.10220825393E+03  0.00000000000E+00 0.  1.
          6    1    1    2  501    0 -0.13732719270E+03  0.33218934752E+02  0.45995896880E+03  0.51098777721E+03  0.17200000000E+03 0. -1.
         -6    1    1    2    0  503  0.13732719270E+03 -0.33218934752E+02  0.84812762799E+02  0.23820046225E+03  0.17200000000E+03 0. -1.
</event>
<event>
 4    1  0.5739010E+000  0.2465086E+03  0.7818608E-02  0.1115531E+00
         21   -1    0    0  503  502  0.00000000000E+00  0.00000000000E+00  0.55645678356E+03  0.55645678356E+03  0.00000000000E+00 0. -1.
         21   -1    0    0  501  503 -0.00000000000E+00 -0.00000000000E+00 -0.36851311066E+03  0.36851311066E+03  0.00000000000E+00 0.  1.
          6    1    1    2  501    0  0.71376452092E+02  0.16151748247E+03 -0.29398306161E+03  0.38365679398E+03  0.17200000000E+03 0.  1.
         -6    1    1    2    0  502 -0.71376452092E+02 -0.16151748247E+03  0.48192673451E+03  0.54131310024E+03  0.17200000000E+03 0. -1.
</event>
<event>
 4    1  0.5739010E+000  0.1886475E+03  0.7818608E-02  0.1159687E+00
         21   -1    0    0  503  502  0.00000000000E+00  0.00000000000E+00  0.10320731208E+04  0.10320731208E+04  0.00000000000E+00 0. -1.
         21   -1    0    0  501  503 -0.00000000000E+00 -0.00000000000E+00 -0.55477822198E+02  0.55477822198E+02  0.00000000000E+00 0.  1.
          6    1    1    2  501    0  0.35112412204E+02 -0.69072388589E+02  0.15377383040E+03  0.24338090984E+03  0.17200000000E+03 0.  1.
         -6    1    1    2    0  502 -0.35112412204E+02  0.69072388589E+02  0.82282146816E+03  0.84417003313E+03  0.17200000000E+03 0. -1.
</event>
<event>
 4    1  0.5739010E+000  0.2163353E+03  0.7818608E-02  0.1136645E+00
         21   -1    0    0  501  502  0.00000000000E+00  0.00000000000E+00  0.24991045721E+03  0.24991045721E+03  0.00000000000E+00 0.  1.
         21   -1    0    0  502  503 -0.00000000000E+00 -0.00000000000E+00 -0.27267032285E+03  0.27267032285E+03  0.00000000000E+00 0. -1.
          6    1    1    2  501    0 -0.26791461666E+02 -0.12844906892E+03  0.13484858427E+03  0.25492172603E+03  0.17200000000E+03 0.  1.
         -6    1    1    2    0  503  0.26791461666E+02  0.12844906892E+03 -0.15760844990E+03  0.26765905403E+03  0.17200000000E+03 0. -1.
</event>
<event>
 4    1  0.5739010E+000  0.1891726E+03  0.7818608E-02  0.1159210E+00
         21   -1    0    0  501  502  0.00000000000E+00  0.00000000000E+00  0.13852044682E+03  0.13852044682E+03  0.00000000000E+00 0. -1.
         21   -1    0    0  502  503 -0.00000000000E+00 -0.00000000000E+00 -0.27058742188E+03  0.27058742188E+03  0.00000000000E+00 0. -1.
          6    1    1    2  501    0  0.68018020449E+02  0.39696824728E+02 -0.22526501371E+02  0.19050913958E+03  0.17200000000E+03 0. -1.
         -6    1    1    2    0  503 -0.68018020449E+02 -0.39696824728E+02 -0.10954047369E+03  0.21859872913E+03  0.17200000000E+03 0. -1.
</event>
<event>
 4    1  0.5739010E+000  0.1768765E+03  0.7818608E-02  0.1170861E+00
         21   -1    0    0  503  502  0.00000000000E+00  0.00000000000E+00  0.43759128641E+02  0.43759128641E+02  0.00000000000E+00 0.  1.
         21   -1    0    0  501  503 -0.00000000000E+00 -0.00000000000E+00 -0.71585075188E+03  0.71585075188E+03  0.00000000000E+00 0.  1.
          6    1    1    2  501    0  0.10454237248E+02 -0.39900123711E+02 -0.32252575497E+03  0.36784259347E+03  0.17200000000E+03 0.  1.
         -6    1    1    2    0  502 -0.10454237248E+02  0.39900123711E+02 -0.34956586827E+03  0.39176728706E+03  0.17200000000E+03 0.  1.
</event>
<event>
 4    1  0.5739010E+000  0.2207332E+03  0.7818608E-02  0.1133338E+00
         21   -1    0    0  501  502  0.00000000000E+00  0.00000000000E+00  0.71696788162E+03  0.71696788162E+03  0.00000000000E+00 0. -1.
         21   -1    0    0  502  503 -0.00000000000E+00 -0.00000000000E+00 -0.19495328923E+03  0.19495328923E+03  0.00000000000E+00 0. -1.
          6    1    1    2  501    0  0.10627173381E+03  0.88574522449E+02  0.62901524407E+03  0.66662081029E+03  0.17200000000E+03 0. -1.
         -6    1    1    2    0  503 -0.10627173381E+03 -0.88574522449E+02 -0.10700065168E+03  0.24530036057E+03  0.17200000000E+03 0. -1.
</event>
<event>
 4    1  0.5739010E+000  0.2016500E+03  0.7818608E-02  0.1148354E+00
         21   -1    0    0  503  502  0.00000000000E+00  0.00000000000E+00  0.11139585216E+03  0.11139585216E+03  0.00000000000E+00 0.  1.
         21   -1    0    0  501  503 -0.00000000000E+00 -0.00000000000E+00 -0.56173003956E+03  0.56173003956E+03  0.00000000000E+00 0.  1.
          6    1    1    2  501    0  0.97800272178E+02 -0.38908103544E+02 -0.42432870555E+03  0.46980590046E+03  0.17200000000E+03 0.  1.
         -6    1    1    2    0  502 -0.97800272178E+02  0.38908103544E+02 -0.26005481856E+02  0.20331999126E+03  0.17200000000E+03 0.  1.
</event>
<event>
 4    1  0.5739010E+000  0.1879850E+03  0.7818608E-02  0.1160291E+00
         21   -1    0    0  503  502  0.00000000000E+00  0.00000000000E+00  0.25455924116E+03  0.25455924116E+03  0.00000000000E+00 0.  1.
         21   -1    0    0  501  503 -0.00000000000E+00 -0.00000000000E+00 -0.29834320833E+03  0.29834320833E+03  0.00000000000E+00 0. -1.
          6    1    1    2  501    0  0.14731823597E+02 -0.74413247172E+02  0.18025627448E+03  0.26044324232E+03  0.17200000000E+03 0.  1.
         -6    1    1    2    0  502 -0.14731823597E+02  0.74413247172E+02 -0.22404024165E+03  0.29245920717E+03  0.17200000000E+03 0. -1.
</event>
<event>
 4    1  0.5739010E+000  0.1826829E+03  0.7818608E-02  0.1165231E+00
         21   -1    0    0  501  502  0.00000000000E+00  0.00000000000E+00  0.65950630578E+02  0.65950630578E+02  0.00000000000E+00 0.  1.
         21   -1    0    0  502  503 -0.00000000000E+00 -0.00000000000E+00 -0.90224485553E+03  0.90224485553E+03  0.00000000000E+00 0.  1.
          6    1    1    2  501    0  0.25376888137E+02 -0.56080798194E+02 -0.97346007227E+02  0.20700069444E+03  0.17200000000E+03 0.  1.
         -6    1    1    2    0  503 -0.25376888137E+02  0.56080798194E+02 -0.73894821773E+03  0.76119479167E+03  0.17200000000E+03 0.  1.
</event>
<event>
 4    1  0.5739010E+000  0.1805414E+03  0.7818608E-02  0.1167280E+00
         21   -1    0    0  501  502  0.00000000000E+00  0.00000000000E+00  0.18407879225E+03  0.18407879225E+03  0.00000000000E+00 0. -1.
         21   -1    0    0  502  503 -0.00000000000E+00 -0.00000000000E+00 -0.22494195034E+03  0.22494195034E+03  0.00000000000E+00 0. -1.
          6    1    1    2  501    0  0.52413273278E+01  0.54623443408E+02  0.73911878888E+02  0.19508500179E+03  0.17200000000E+03 0. -1.
         -6    1    1    2    0  503 -0.52413273278E+01 -0.54623443408E+02 -0.11477503698E+03  0.21393574081E+03  0.17200000000E+03 0. -1.
</event>
<event>
 4    1  0.5739010E+000  0.2784041E+03  0.7818608E-02  0.1096564E+00
         21   -1    0    0  501  502  0.00000000000E+00  0.00000000000E+00  0.12190091042E+03  0.12190091042E+03  0.00000000000E+00 0. -1.
         21   -1    0    0  502  503 -0.00000000000E+00 -0.00000000000E+00 -0.65440808633E+03  0.65440808633E+03  0.00000000000E+00 0. -1.
          6    1    1    2  501    0 -0.21831267320E+03 -0.16261150042E+02 -0.33164549058E+03  0.43300990716E+03  0.17200000000E+03 0. -1.
         -6    1    1    2    0  503  0.21831267320E+03  0.16261150042E+02 -0.20086168533E+03  0.34329908959E+03  0.17200000000E+03 0. -1.
</event>
<event>
 4    1  0.5739010E+000  0.2081349E+03  0.7818608E-02  0.1143051E+00
         21   -1    0    0  503  502  0.00000000000E+00  0.00000000000E+00  0.32981615164E+02  0.32981615164E+02  0.00000000000E+00 0. -1.
         21   -1    0    0  501  503 -0.00000000000E+00 -0.00000000000E+00 -0.18219040337E+04  0.18219040337E+04  0.00000000000E+00 0.  1.
          6    1    1    2  501    0  0.54580096355E+02  0.10371672286E+03 -0.13844030256E+04  0.13999613862E+04  0.17200000000E+03 0.  1.
         -6    1    1    2    0  502 -0.54580096355E+02 -0.10371672286E+03 -0.40451939300E+03  0.45492426274E+03  0.17200000000E+03 0. -1.
</event>
<event>
 4    1  0.5739010E+000  0.2591589E+03  0.7818608E-02  0.1107650E+00
         21   -1    0    0  501  502  0.00000000000E+00  0.00000000000E+00  0.19545701560E+03  0.19545701560E+03  0.00000000000E+00 0.  1.
         21   -1    0    0  502  503 -0.00000000000E+00 -0.00000000000E+00 -0.66696303465E+03  0.66696303465E+03  0.00000000000E+00 0.  1.
          6    1    1    2  501    0  0.19136188207E+03  0.30982991450E+02  0.64486906584E+02  0.26706155992E+03  0.17200000000E+03 0.  1.
         -6    1    1    2    0  503 -0.19136188207E+03 -0.30982991450E+02 -0.53599292564E+03  0.59535849033E+03  0.17200000000E+03 0.  1.
</event>
<event>
 4    1  0.5739010E+000  0.2305874E+03  0.7818608E-02  0.1126227E+00
         21   -1    0    0  503  502  0.00000000000E+00  0.00000000000E+00  0.84646395030E+03  0.84646395030E+03  0.00000000000E+00 0. -1.
         21   -1    0    0  501  503 -0.00000000000E+00 -0.00000000000E+00 -0.66095715302E+02  0.66095715302E+02  0.00000000000E+00 0.  1.
          6    1    1    2  501    0  0.39238937051E+02 -0.14848176521E+03  0.49184106026E+03  0.54321096945E+03  0.17200000000E+03 0.  1.
         -6    1    1    2    0  502 -0.39238937051E+02  0.14848176521E+03  0.28852717474E+03  0.36934869614E+03  0.17200000000E+03 0.  1.
</event>
<event>
 4    1  0.5739010E+000  0.1724832E+03  0.7818608E-02  0.1175283E+00
         21   -1    0    0  503  502  0.00000000000E+00  0.00000000000E+00  0.83193439977E+02  0.83193439977E+02  0.00000000000E+00 0.  1.
         21   -1    0    0  501  503 -0.00000000000E+00 -0.00000000000E+00 -0.54441836394E+03  0.54441836394E+03  0.00000000000E+00 0.  1.
          6    1    1    2  501    0 -0.10432808299E+02  0.75899840583E+01 -0.41443461102E+03  0.44889475176E+03  0.17200000000E+03 0.  1.
         -6    1    1    2    0  502  0.10432808299E+02 -0.75899840583E+01 -0.46790312946E+02  0.17871705216E+03  0.17200000000E+03 0.  1.
</event>
<event>
 4    1  0.5739010E+000  0.2685512E+03  0.7818608E-02  0.1102112E+00
         21   -1    0    0  503  502  0.00000000000E+00  0.00000000000E+00  0.53308636956E+03  0.53308636956E+03  0.00000000000E+00 0.  1.
         21   -1    0    0  501  503 -0.00000000000E+00 -0.00000000000E+00 -0.13736060284E+03  0.13736060284E+03  0.00000000000E+00 0.  1.
          6    1    1    2  501    0  0.19808213803E+03  0.57438906236E+02  0.15667728561E+03  0.31091402861E+03  0.17200000000E+03 0.  1.
         -6    1    1    2    0  502 -0.19808213803E+03 -0.57438906236E+02  0.23904848110E+03  0.35953294380E+03  0.17200000000E+03 0.  1.
</event>
<event>
 4    1  0.5739010E+000  0.1799085E+03  0.7818608E-02  0.1167892E+00
         21   -1    0    0  503  502  0.00000000000E+00  0.00000000000E+00  0.26679345890E+03  0.26679345890E+03  0.00000000000E+00 0.  1.
         21   -1    0    0  501  503 -0.00000000000E+00 -0.00000000000E+00 -0.24856861701E+03  0.24856861701E+03  0.00000000000E+00 0.  1.
          6    1    1    2  501    0  0.52741966895E+02 -0.11666545161E+01 -0.17525653982E+03  0.25116116520E+03  0.17200000000E+03 0.  1.
         -6    1    1    2    0  502 -0.52741966895E+02  0.11666545161E+01  0.19348138170E+03  0.26420091071E+03  0.17200000000E+03 0.  1.
</event>
<event>
 4    1  0.5739010E+000  0.2050537E+03  0.7818608E-02  0.1145544E+00
         21   -1    0    0  501  502  0.00000000000E+00  0.00000000000E+00  0.60563182443E+03  0.60563182443E+03  0.00000000000E+00 0. -1.
         21   -1    0    0  502  503 -0.00000000000E+00 -0.00000000000E+00 -0.22935795975E+03  0.22935795975E+03  0.00000000000E+00 0. -1.
          6    1    1    2  501    0 -0.84214967084E+02  0.73286146557E+02  0.53676386507E+03  0.57459765646E+03  0.17200000000E+03 0. -1.
         -6    1    1    2    0  503  0.84214967084E+02 -0.73286146557E+02 -0.16049000039E+03  0.26039212773E+03  0.17200000000E+03 0. -1.
</event>
<event>
 4    1  0.5739010E+000  0.1928765E+03  0.7818608E-02  0.1155892E+00
         21   -1    0    0  501  502  0.00000000000E+00  0.00000000000E+00  0.10656676194E+03  0.10656676194E+03  0.00000000000E+00 0. -1.
         21   -1    0    0  502  503 -0.00000000000E+00 -0.00000000000E+00 -0.36273848571E+03  0.36273848571E+03  0.00000000000E+00 0. -1.
          6    1    1    2  501    0  0.80903349042E+02 -0.32741350912E+02 -0.82568482719E+02  0.20980682135E+03  0.17200000000E+03 0. -1.
         -6    1    1    2    0  503 -0.80903349042E+02  0.32741350912E+02 -0.17360324106E+03  0.25949842630E+03  0.17200000000E+03 0. -1.
</event>
<event>
 4    1  0.5739010E+000  0.1747182E+03  0.7818608E-02  0.1173015E+00
         21   -1    0    0  501  502  0.00000000000E+00  0.00000000000E+00  0.88742038992E+02  0.88742038992E+02  0.00000000000E+00 0. -1.
         21   -1    0    0  502  503 -0.00000000000E+00 -0.00000000000E+00 -0.73397732561E+03  0.73397732561E+03  0.00000000000E+00 0. -1.
          6    1    1    2  501    0  0.10752478542E+01  0.30680408489E+02 -0.22766843491E+02  0.17619526891E+03  0.17200000000E+03 0. -1.
         -6    1    1    2    0  503 -0.10752478542E+01 -0.30680408489E+02 -0.62246844312E+03  0.64652409569E+03  0.17200000000E+03 0. -1.
</event>
<event>
 4    1  0.5739010E+000  0.1752081E+03  0.7818608E-02  0.1172523E+00
         21   -1    0    0  501  502  0.00000000000E+00  0.00000000000E+00  0.10276313450E+04  0.10276313450E+04  0.00000000000E+00 0.  1.
         21   -1    0    0  502  503 -0.00000000000E+00 -0.00000000000E+00 -0.31851453482E+02  0.31851453482E+02  0.00000000000E+00 0.  1.
          6    1    1    2  501    0 -0.32542492117E+02 -0.74060857351E+01  0.62993519699E+03  0.65384724234E+03  0.17200000000E+03 0. -1.
         -6    1    1    2    0  503  0.32542492117E+02  0.74060857351E+01  0.36584469453E+03  0.40563555615E+03  0.17200000000E+03 0. -1.
</event>
<event>
 4    1  0.5739010E+000  0.1955637E+03  0.7818608E-02  0.1153537E+00
         21   -1    0    0  501  502  0.00000000000E+00  0.00000000000E+00  0.63067460089E+03  0.63067460089E+03  0.00000000000E+00 0.  1.
         21   -1    0    0  502  503 -0.00000000000E+00 -0.00000000000E+00 -0.95194837277E+02  0.95194837277E+02  0.00000000000E+00 0.  1.
          6    1    1    2  501    0  0.63170442163E+02 -0.68342221696E+02  0.48639805688E+03  0.52424062583E+03  0.17200000000E+03 0.  1.
         -6    1    1    2    0  503 -0.63170442163E+02  0.68342221696E+02  0.49081706728E+02  0.20162881234E+03  0.17200000000E+03 0.  1.
</event>
<event>
 4    1  0.5739010E+000  0.1913349E+03  0.7818608E-02  0.1157263E+00
         21   -1    0    0  501  502  0.00000000000E+00  0.00000000000E+00  0.49319895299E+03  0.49319895299E+03  0.00000000000E+00 0.  1.
         21   -1    0    0  502  503 -0.00000000000E+00 -0.00000000000E+00 -0.75071546193E+02  0.75071546193E+02  0.00000000000E+00 0. -1.
          6    1    1    2  501    0  0.71051909712E+02  0.44459888630E+02  0.23918700497E+03  0.30629965543E+03  0.17200000000E+03 0. -1.
         -6    1    1    2    0  503 -0.71051909712E+02 -0.44459888630E+02  0.17894040183E+03  0.26197084376E+03  0.17200000000E+03 0.  1.
</event>
<event>
 4    1  0.5739010E+000  0.2012249E+03  0.7818608E-02  0.1148710E+00
         21   -1    0    0  501  502  0.00000000000E+00  0.00000000000E+00  0.40793940837E+03  0.40793940837E+03  0.00000000000E+00 0. -1.
         21   -1    0    0  502  503 -0.00000000000E+00 -0.00000000000E+00 -0.11045523894E+03  0.11045523894E+03  0.00000000000E+00 0. -1.
          6    1    1    2  501    0 -0.97042462548E+02 -0.38603405008E+02  0.66217619574E+02  0.21184011791E+03  0.17200000000E+03 0. -1.
         -6    1    1    2    0  503  0.97042462548E+02  0.38603405008E+02  0.23126654985E+03  0.30655452940E+03  0.17200000000E+03 0. -1.
</event>
<event>
 4    1  0.5739010E+000  0.1826161E+03  0.7818608E-02  0.1165295E+00
         21   -1    0    0  501  502  0.00000000000E+00  0.00000000000E+00  0.11815041971E+04  0.11815041971E+04  0.00000000000E+00 0.  1.
         21   -1    0    0  502  503 -0.00000000000E+00 -0.00000000000E+00 -0.28582256187E+02  0.28582256187E+02  0.00000000000E+00 0. -1.
          6    1    1    2  501    0  0.56304500838E+02 -0.24380996376E+02  0.64405076095E+03  0.66944007385E+03  0.17200000000E+03 0.  1.
         -6    1    1    2    0  503 -0.56304500838E+02  0.24380996376E+02  0.50887117995E+03  0.54064637943E+03  0.17200000000E+03 0.  1.
</event>
<event>
 4    1  0.5739010E+000  0.2815459E+03  0.7818608E-02  0.1094848E+00
         21   -1    0    0  503  502  0.00000000000E+00  0.00000000000E+00  0.10208590829E+03  0.10208590829E+03  0.00000000000E+00 0.  1.
         21   -1    0    0  501  503 -0.00000000000E+00 -0.00000000000E+00 -0.81382667075E+03  0.81382667075E+03  0.00000000000E+00 0. -1.
          6    1    1    2  501    0 -0.10652329455E+03 -0.19579804267E+03 -0.45396837105E+03  0.53418664127E+03  0.17200000000E+03 0. -1.
         -6    1    1    2    0  502  0.10652329455E+03  0.19579804267E+03 -0.25777239141E+03  0.38172593778E+03  0.17200000000E+03 0.  1.
</event>
<event>
 4    1  0.5739010E+000  0.2388392E+03  0.7818608E-02  0.1120569E+00
         21   -1    0    0  501  502  0.00000000000E+00  0.00000000000E+00  0.78287817513E+03  0.78287817513E+03  0.00000000000E+00 0. -1.
         21   -1    0    0  502  503 -0.00000000000E+00 -0.00000000000E+00 -0.25738636476E+03  0.25738636476E+03  0.00000000000E+00 0. -1.
          6    1    1    2  501    0  0.48558395449E+02  0.15843691096E+03  0.70314328797E+03  0.74259992994E+03  0.17200000000E+03 0. -1.
         -6    1    1    2    0  503 -0.48558395449E+02 -0.15843691096E+03 -0.17765147760E+03  0.29766460995E+03  0.17200000000E+03 0. -1.
</event>
<event>
 4    1  0.5739010E+000  0.2359230E+03  0.7818608E-02  0.1122539E+00
         21   -1    0    0  503  502  0.00000000000E+00  0.00000000000E+00  0.73512882390E+03  0.73512882390E+03  0.00000000000E+00 0. -1.
         21   -1    0    0  501  503 -0.00000000000E+00 -0.00000000000E+00 -0.95445964986E+02  0.95445964986E+02  0.00000000000E+00 0.  1.
          6    1    1    2  501    0 -0.14641708483E+03  0.68100504010E+02  0.13101896171E+03  0.26986220503E+03  0.17200000000E+03 0.  1.
         -6    1    1    2    0  502  0.14641708483E+03 -0.68100504010E+02  0.50866389720E+03  0.56071258385E+03  0.17200000000E+03 0.  1.
</event>
<event>
 4    1  0.5739010E+000  0.2615174E+03  0.7818608E-02  0.1106235E+00
         21   -1    0    0  503  502  0.00000000000E+00  0.00000000000E+00  0.46472815325E+03  0.46472815325E+03  0.00000000000E+00 0.  1.
         21   -1    0    0  501  503 -0.00000000000E+00 -0.00000000000E+00 -0.15023698076E+03  0.15023698076E+03  0.00000000000E+00 0. -1.
          6    1    1    2  501    0  0.15511544532E+03 -0.12143542050E+03  0.20121953374E+03  0.32997070095E+03  0.17200000000E+03 0. -1.
         -6    1    1    2    0  502 -0.15511544532E+03  0.12143542050E+03  0.11327163875E+03  0.28499443306E+03  0.17200000000E+03 0.  1.
</event>
<event>
 4    1  0.5739010E+000  0.1916725E+03  0.7818608E-02  0.1156961E+00
         21   -1    0    0  501  502  0.00000000000E+00  0.00000000000E+00  0.28270523357E+03  0.28270523357E+03  0.00000000000E+00 0. -1.
         21   -1    0    0  502  503 -0.00000000000E+00 -0.00000000000E+00 -0.17999516550E+03  0.17999516550E+03  0.00000000000E+00 0. -1.
          6    1    1    2  501    0  0.11788652011E+02 -0.83757798384E+02  0.17334056067E+03  0.25842850284E+03  0.17200000000E+03 0. -1.
         -6    1    1    2    0  503 -0.11788652011E+02  0.83757798384E+02 -0.70630492602E+02  0.20427189624E+03  0.17200000000E+03 0. -1.
</event>
<event>
 4    1  0.5739010E+000  0.3691023E+03  0.7818608E-02  0.1055037E+00
         21   -1    0    0  503  502  0.00000000000E+00  0.00000000000E+00  0.31840314291E+03  0.31840314291E+03  0.00000000000E+00 0.  1.
         21   -1    0    0  501  503 -0.00000000000E+00 -0.00000000000E+00 -0.46344466358E+03  0.46344466358E+03  0.00000000000E+00 0. -1.
          6    1    1    2  501    0  0.29229786332E+03  0.14565177949E+03 -0.18082319130E+03  0.41101521660E+03  0.17200000000E+03 0. -1.
         -6    1    1    2    0  502 -0.29229786332E+03 -0.14565177949E+03  0.35781670628E+02  0.37083258989E+03  0.17200000000E+03 0.  1.
</event>
<event>
 4    1  0.5739010E+000  0.1837125E+03  0.7818608E-02  0.1164258E+00
         21   -1    0    0  503  502  0.00000000000E+00  0.00000000000E+00  0.11300072682E+03  0.11300072682E+03  0.00000000000E+00 0.  1.
         21   -1    0    0  501  503 -0.00000000000E+00 -0.00000000000E+00 -0.79403709076E+03  0.79403709076E+03  0.00000000000E+00 0.  1.
          6    1    1    2  501    0 -0.87914441951E+01  0.63945272542E+02  0.17691386288E+02  0.18456238111E+03  0.17200000000E+03 0.  1.
         -6    1    1    2    0  502  0.87914441951E+01 -0.63945272542E+02 -0.69872775022E+03  0.72247543647E+03  0.17200000000E+03 0.  1.
</event>
<event>
 4    1  0.5739010E+000  0.4033026E+03  0.7818608E-02  0.1042642E+00
         21   -1    0    0  503  502  0.00000000000E+00  0.00000000000E+00  0.37055158793E+03  0.37055158793E+03  0.00000000000E+00 0. -1.
         21   -1    0    0  501  503 -0.00000000000E+00 -0.00000000000E+00 -0.52936311036E+03  0.52936311036E+03  0.00000000000E+00 0.  1.
          6    1    1    2  501    0  0.36427460980E+03  0.19314010198E+02 -0.26536342799E+03  0.48277403746E+03  0.17200000000E+03 0.  1.
         -6    1    1    2    0  502 -0.36427460980E+03 -0.19314010198E+02  0.10655190556E+03  0.41714066082E+03  0.17200000000E+03 0.  1.
</event>
<event>
 4    1  0.5739010E+000  0.2415518E+03  0.7818608E-02  0.1118763E+00
         21   -1    0    0  501  502  0.00000000000E+00  0.00000000000E+00  0.77432521915E+03  0.77432521915E+03  0.00000000000E+00 0.  1.
         21   -1    0    0  502  503 -0.00000000000E+00 -0.00000000000E+00 -0.77460186292E+02  0.77460186292E+02  0.00000000000E+00 0.  1.
          6    1    1    2  501    0  0.68357437521E+02  0.15521130602E+03  0.41868648691E+03  0.48336907545E+03  0.17200000000E+03 0.  1.
         -6    1    1    2    0  503 -0.68357437521E+02 -0.15521130602E+03  0.27817854595E+03  0.36841633000E+03  0.17200000000E+03 0.  1.
</event>
<event>
 4    1  0.5739010E+000  0.2068507E+03  0.7818608E-02  0.1144084E+00
         21   -1    0    0  503  502  0.00000000000E+00  0.00000000000E+00  0.11685666087E+04  0.11685666087E+04  0.00000000000E+00 0. -1.
         21   -1    0    0  501  503 -0.00000000000E+00 -0.00000000000E+00 -0.41080564812E+02  0.41080564812E+02  0.00000000000E+00 0. -1.
          6    1    1    2  501    0 -0.51355847766E+02 -0.10279012438E+03  0.36433538330E+03  0.41896002709E+03  0.17200000000E+03 0. -1.
         -6    1    1    2    0  502  0.51355847766E+02  0.10279012438E+03  0.76315066060E+03  0.79068714643E+03  0.17200000000E+03 0. -1.
</event>
<event>
 4    1  0.5739010E+000  0.2126785E+03  0.7818608E-02  0.1139462E+00
         21   -1    0    0  503  502  0.00000000000E+00  0.00000000000E+00  0.74684381954E+02  0.74684381954E+02  0.00000000000E+00 0. -1.
         21   -1    0    0  501  503 -0.00000000000E+00 -0.00000000000E+00 -0.15478488489E+04  0.15478488489E+04  0.00000000000E+00 0.  1.
          6    1    1    2  501    0 -0.11290110838E+03 -0.53865580517E+02 -0.13695359540E+04  0.13859512583E+04  0.17200000000E+03 0.  1.
         -6    1    1    2    0  502  0.11290110838E+03  0.53865580517E+02 -0.10362851290E+03  0.23658197253E+03  0.17200000000E+03 0. -1.
</event>
<event>
 4    1  0.5739010E+000  0.2044940E+03  0.7818608E-02  0.1146002E+00
         21   -1    0    0  501  502  0.00000000000E+00  0.00000000000E+00  0.83004479766E+02  0.83004479766E+02  0.00000000000E+00 0.  1.
         21   -1    0    0  502  503 -0.00000000000E+00 -0.00000000000E+00 -0.50395994200E+03  0.50395994200E+03  0.00000000000E+00 0.  1.
          6    1    1    2  501    0 -0.30956409497E+02  0.10618607318E+03 -0.20527395362E+03  0.28975019838E+03  0.17200000000E+03 0.  1.
         -6    1    1    2    0  503  0.30956409497E+02 -0.10618607318E+03 -0.21568150862E+03  0.29721422339E+03  0.17200000000E+03 0.  1.
</event>
<event>
 4    1  0.5739010E+000  0.2637663E+03  0.7818608E-02  0.1104901E+00
         21   -1    0    0  501  502  0.00000000000E+00  0.00000000000E+00  0.76667559949E+02  0.76667559949E+02  0.00000000000E+00 0.  1.
         21   -1    0    0  502  503 -0.00000000000E+00 -0.00000000000E+00 -0.90758100033E+03  0.90758100033E+03  0.00000000000E+00 0. -1.
          6    1    1    2  501    0 -0.19989587602E+03 -0.55065373616E+01 -0.40975583033E+03  0.48731152633E+03  0.17200000000E+03 0. -1.
         -6    1    1    2    0  503  0.19989587602E+03  0.55065373616E+01 -0.42115761005E+03  0.49693703394E+03  0.17200000000E+03 0.  1.
</event>
<event>
 4    1  0.5739010E+000  0.1886740E+03  0.7818608E-02  0.1159663E+00
         21   -1    0    0  503  502  0.00000000000E+00  0.00000000000E+00  0.34784028657E+02  0.34784028657E+02  0.00000000000E+00 0.  1.
         21   -1    0    0  501  503 -0.00000000000E+00 -0.00000000000E+00 -0.20041304179E+04  0.20041304179E+04  0.00000000000E+00 0.  1.
          6    1    1    2  501    0  0.57596936069E+02 -0.51927727335E+02 -0.16978239445E+04  0.17082751659E+04  0.17200000000E+03 0.  1.
         -6    1    1    2    0  502 -0.57596936069E+02  0.51927727335E+02 -0.27152244471E+03  0.33063928062E+03  0.17200000000E+03 0.  1.
</event>
<event>
 4    1  0.5739010E+000  0.2809264E+03  0.7818608E-02  0.1095184E+00
         21   -1    0    0  501  502  0.00000000000E+00  0.00000000000E+00  0.13410600570E+03  0.13410600570E+03  0.00000000000E+00 0. -1.
         21   -1    0    0  502  503 -0.00000000000E+00 -0.00000000000E+00 -0.11424721188E+04  0.11424721188E+04  0.00000000000E+00 0.  1.
          6    1    1    2  501    0  0.19957845136E+03  0.97488945091E+02 -0.59711869929E+02  0.28720229817E+03  0.17200000000E+03 0. -1.
         -6    1    1    2    0  503 -0.19957845136E+03 -0.97488945091E+02 -0.94865424319E+03  0.98937582636E+03  0.17200000000E+03 0.  1.
</event>
<event>
 4    1  0.5739010E+000  0.1917758E+03  0.7818608E-02  0.1156869E+00
         21   -1    0    0  501  502  0.00000000000E+00  0.00000000000E+00  0.76460561945E+03  0.76460561945E+03  0.00000000000E+00 0.  1.
         21   -1    0    0  502  503 -0.00000000000E+00 -0.00000000000E+00 -0.97554176206E+02  0.97554176206E+02  0.00000000000E+00 0. -1.
          6    1    1    2  501    0  0.81780091533E+02  0.22494000530E+02  0.64045183285E+03  0.66854806382E+03  0.17200000000E+03 0.  1.
         -6    1    1    2    0  503 -0.81780091533E+02 -0.22494000530E+02  0.26599610388E+02  0.19361173183E+03  0.17200000000E+03 0. -1.
</event>
<event>
 4    1  0.5739010E+000  0.3708160E+03  0.7818608E-02  0.1054381E+00
         21   -1    0    0  503  502  0.00000000000E+00  0.00000000000E+00  0.13033653602E+04  0.13033653602E+04  0.00000000000E+00 0. -1.
         21   -1    0    0  501  503 -0.00000000000E+00 -0.00000000000E+00 -0.43280152512E+03  0.43280152512E+03  0.00000000000E+00 0.  1.
          6    1    1    2  501    0  0.32829292776E+03 -0.12011059467E+02 -0.31962145857E+03  0.48955325425E+03  0.17200000000E+03 0.  1.
         -6    1    1    2    0  502 -0.32829292776E+03  0.12011059467E+02  0.11901852937E+04  0.12466136311E+04  0.17200000000E+03 0. -1.
</event>
<event>
 4    1  0.5739010E+000  0.1730534E+03  0.7818608E-02  0.1174701E+00
         21   -1    0    0  501  502  0.00000000000E+00  0.00000000000E+00  0.52817854122E+02  0.52817854122E+02  0.00000000000E+00 0. -1.
         21   -1    0    0  502  503 -0.00000000000E+00 -0.00000000000E+00 -0.64802201701E+03  0.64802201701E+03  0.00000000000E+00 0. -1.
          6    1    1    2  501    0  0.69999469447E+01  0.17733810885E+02 -0.17369177705E+03  0.24518629799E+03  0.17200000000E+03 0. -1.
         -6    1    1    2    0  503 -0.69999469447E+01 -0.17733810885E+02 -0.42151238584E+03  0.45565357315E+03  0.17200000000E+03 0. -1.
</event>
<event>
 4    1  0.5739010E+000  0.1963123E+03  0.7818608E-02  0.1152888E+00
         21   -1    0    0  501  502  0.00000000000E+00  0.00000000000E+00  0.13905086845E+03  0.13905086845E+03  0.00000000000E+00 0. -1.
         21   -1    0    0  502  503 -0.00000000000E+00 -0.00000000000E+00 -0.43424908413E+03  0.43424908413E+03  0.00000000000E+00 0. -1.
          6    1    1    2  501    0  0.74613935994E+02  0.58200377601E+02  0.24811333398E+02  0.19787401462E+03  0.17200000000E+03 0. -1.
         -6    1    1    2    0  503 -0.74613935994E+02 -0.58200377601E+02 -0.32000954908E+03  0.37542593797E+03  0.17200000000E+03 0. -1.
</event>
<event>
 4    1  0.5739010E+000  0.2723055E+03  0.7818608E-02  0.1099967E+00
         21   -1    0    0  503  502  0.00000000000E+00  0.00000000000E+00  0.94993544502E+03  0.94993544502E+03  0.00000000000E+00 0. -1.
         21   -1    0    0  501  503 -0.00000000000E+00 -0.00000000000E+00 -0.82423364716E+02  0.82423364716E+02  0.00000000000E+00 0.  1.
          6    1    1    2  501    0  0.19926646197E+03  0.69707585966E+02  0.31496742968E+03  0.41635892228E+03  0.17200000000E+03 0. -1.
         -6    1    1    2    0  502 -0.19926646197E+03 -0.69707585966E+02  0.55254465063E+03  0.61599988746E+03  0.17200000000E+03 0.  1.
</event>
<event>
 4    1  0.5739010E+000  0.2050855E+03  0.7818608E-02  0.1145518E+00
         21   -1    0    0  503  502  0.00000000000E+00  0.00000000000E+00  0.10143384135E+04  0.10143384135E+04  0.00000000000E+00 0. -1.
         21   -1    0    0  501  503 -0.00000000000E+00 -0.00000000000E+00 -0.41862372980E+02  0.41862372980E+02  0.00000000000E+00 0. -1.
          6    1    1    2  501    0  0.33084961340E+02  0.10668390328E+03  0.43481952870E+03  0.48075783137E+03  0.17200000000E+03 0. -1.
         -6    1    1    2    0  502 -0.33084961340E+02 -0.10668390328E+03  0.53765651185E+03  0.57544295514E+03  0.17200000000E+03 0. -1.
</event>
<event>
 4    1  0.5739010E+000  0.2450421E+03  0.7818608E-02  0.1116479E+00
         21   -1    0    0  501  502  0.00000000000E+00  0.00000000000E+00  0.40555795587E+03  0.40555795587E+03  0.00000000000E+00 0. -1.
         21   -1    0    0  502  503 -0.00000000000E+00 -0.00000000000E+00 -0.14819163087E+03  0.14819163087E+03  0.00000000000E+00 0. -1.
          6    1    1    2  501    0  0.13333927791E+03  0.11261550607E+03  0.13703453759E+03  0.28075626392E+03  0.17200000000E+03 0. -1.
         -6    1    1    2    0  503 -0.13333927791E+03 -0.11261550607E+03  0.12033178741E+03  0.27299332282E+03  0.17200000000E+03 0. -1.
</event>
<event>
 4    1  0.5739010E+000  0.1805636E+03  0.7818608E-02  0.1167259E+00
         21   -1    0    0  503  502  0.00000000000E+00  0.00000000000E+00  0.18223420937E+04  0.18223420937E+04  0.00000000000E+00 0.  1.
         21   -1    0    0  501  503 -0.00000000000E+00 -0.00000000000E+00 -0.38969846469E+02  0.38969846469E+02  0.00000000000E+00 0.  1.
          6    1    1    2  501    0  0.21615431135E+01  0.54904684265E+02  0.20722295703E+03  0.27485368934E+03  0.17200000000E+03 0.  1.
         -6    1    1    2    0  502 -0.21615431135E+01 -0.54904684265E+02  0.15761492902E+04  0.15864582509E+04  0.17200000000E+03 0.  1.
</event>
<event>
 4    1  0.5739010E+000  0.1734999E+03  0.7818608E-02  0.1174246E+00
         21   -1    0    0  503  502  0.00000000000E+00  0.00000000000E+00  0.34910543756E+02  0.34910543756E+02  0.00000000000E+00 0. -1.
         21   -1    0    0  501  503 -0.00000000000E+00 -0.00000000000E+00 -0.22629992309E+04  0.22629992309E+04  0.00000000000E+00 0. -1.
          6    1    1    2  501    0 -0.72728422324E+00 -0.22752621910E+02 -0.21010699549E+03  0.27248332114E+03  0.17200000000E+03 0. -1.
         -6    1    1    2    0  502  0.72728422324E+00  0.22752621910E+02 -0.20179816917E+04  0.20254264535E+04  0.17200000000E+03 0. -1.
</event>
<event>
 4    1  0.5739010E+000  0.1917209E+03  0.7818608E-02  0.1156918E+00
         21   -1    0    0  503  502  0.00000000000E+00  0.00000000000E+00  0.52549171614E+03  0.52549171614E+03  0.00000000000E+00 0.  1.
         21   -1    0    0  501  503 -0.00000000000E+00 -0.00000000000E+00 -0.12731820439E+03  0.12731820439E+03  0.00000000000E+00 0.  1.
          6    1    1    2  501    0 -0.83640217749E+02 -0.13311682071E+02  0.41819372518E+03  0.46004660490E+03  0.17200000000E+03 0.  1.
         -6    1    1    2    0  502  0.83640217749E+02  0.13311682071E+02 -0.20020213425E+02  0.19276331562E+03  0.17200000000E+03 0.  1.
</event>
<event>
 4    1  0.5739010E+000  0.2773975E+03  0.7818608E-02  0.1097119E+00
         21   -1    0    0  501  502  0.00000000000E+00  0.00000000000E+00  0.15878926579E+03  0.15878926579E+03  0.00000000000E+00 0.  1.
         21   -1    0    0  502  503 -0.00000000000E+00 -0.00000000000E+00 -0.53119534745E+03  0.53119534745E+03  0.00000000000E+00 0.  1.
          6    1    1    2  501    0  0.20357740907E+03 -0.76952036544E+02 -0.84026629638E+02  0.28984453057E+03  0.17200000000E+03 0.  1.
         -6    1    1    2    0  503 -0.20357740907E+03  0.76952036544E+02 -0.28837945202E+03  0.40014008267E+03  0.17200000000E+03 0.  1.
</event>
<event>
 4    1  0.5739010E+000  0.1721341E+03  0.7818608E-02  0.1175640E+00
         21   -1    0    0  503  502  0.00000000000E+00  0.00000000000E+00  0.24697032893E+03  0.24697032893E+03  0.00000000000E+00 0. -1.
         21   -1    0    0  501  503 -0.00000000000E+00 -0.00000000000E+00 -0.12077392271E+03  0.12077392271E+03  0.00000000000E+00 0. -1.
          6    1    1    2  501    0  0.22125665564E+01  0.64235534710E+01  0.48139283915E+02  0.17873877068E+03  0.17200000000E+03 0.  1.
         -6    1    1    2    0  502 -0.22125665564E+01 -0.64235534710E+01  0.78057122305E+02  0.18900548096E+03  0.17200000000E+03 0.  1.
</event>
<event>
 4    1  0.5739010E+000  0.1792460E+03  0.7818608E-02  0.1168535E+00
         21   -1    0    0  501  502  0.00000000000E+00  0.00000000000E+00  0.18837315784E+03  0.18837315784E+03  0.00000000000E+00 0. -1.
         21   -1    0    0  502  503 -0.00000000000E+00 -0.00000000000E+00 -0.21637720552E+03  0.21637720552E+03  0.00000000000E+00 0. -1.
          6    1    1    2  501    0 -0.50325286051E+02 -0.35369706717E+01  0.79121690933E+02  0.19593209679E+03  0.17200000000E+03 0. -1.
         -6    1    1    2    0  503  0.50325286051E+02  0.35369706717E+01 -0.10712573862E+03  0.20881826657E+03  0.17200000000E+03 0. -1.
</event>
<event>
 4    1  0.5739010E+000  0.3223434E+03  0.7818608E-02  0.1074576E+00
         21   -1    0    0  503  502  0.00000000000E+00  0.00000000000E+00  0.37806334626E+03  0.37806334626E+03  0.00000000000E+00 0. -1.
         21   -1    0    0  501  503 -0.00000000000E+00 -0.00000000000E+00 -0.10452317379E+04  0.10452317379E+04  0.00000000000E+00 0.  1.
          6    1    1    2  501    0 -0.24501883937E+03  0.11952852316E+03  0.27737989215E+03  0.42525863197E+03  0.17200000000E+03 0. -1.
         -6    1    1    2    0  502  0.24501883937E+03 -0.11952852316E+03 -0.94454828374E+03  0.99803645215E+03  0.17200000000E+03 0.  1.
</event>
<event>
 4    1  0.5739010E+000  0.2535135E+03  0.7818608E-02  0.1111104E+00
         21   -1    0    0  503  502  0.00000000000E+00  0.00000000000E+00  0.20869703465E+03  0.20869703465E+03  0.00000000000E+00 0. -1.
         21   -1    0    0  501  503 -0.00000000000E+00 -0.00000000000E+00 -0.52919567504E+03  0.52919567504E+03  0.00000000000E+00 0.  1.
          6    1    1    2  501    0 -0.90027333774E+02  0.16303424969E+03 -0.39880433253E+03  0.47256108922E+03  0.17200000000E+03 0.  1.
         -6    1    1    2    0  502  0.90027333774E+02 -0.16303424969E+03  0.78305692136E+02  0.26533162047E+03  0.17200000000E+03 0. -1.
</event>
<event>
 4    1  0.5739010E+000  0.2226646E+03  0.7818608E-02  0.1131912E+00
         21   -1    0    0  503  502  0.00000000000E+00  0.00000000000E+00  0.66312485470E+03  0.66312485470E+03  0.00000000000E+00 0. -1.
         21   -1    0    0  501  503 -0.00000000000E+00 -0.00000000000E+00 -0.75605807644E+02  0.75605807644E+02  0.00000000000E+00 0. -1.
          6    1    1    2  501    0  0.12276569519E+03 -0.70171973528E+02  0.25484244954E+03  0.33841423710E+03  0.17200000000E+03 0. -1.
         -6    1    1    2    0  502 -0.12276569519E+03  0.70171973528E+02  0.33267659752E+03  0.40031642524E+03  0.17200000000E+03 0. -1.
</event>
<event>
 4    1  0.5739010E+000  0.2299613E+03  0.7818608E-02  0.1126667E+00
         21   -1    0    0  501  502  0.00000000000E+00  0.00000000000E+00  0.76089322107E+02  0.76089322107E+02  0.00000000000E+00 0. -1.
         21   -1    0    0  502  503 -0.00000000000E+00 -0.00000000000E+00 -0.11865573807E+04  0.11865573807E+04  0.00000000000E+00 0. -1.
          6    1    1    2  501    0  0.14759992970E+03 -0.38890622550E+02 -0.96157795624E+03  0.98869327180E+03  0.17200000000E+03 0. -1.
         -6    1    1    2    0  503 -0.14759992970E+03  0.38890622550E+02 -0.14889010231E+03  0.27395343096E+03  0.17200000000E+03 0. -1.
</event>
<event>
 4    1  0.5739010E+000  0.1963731E+03  0.7818608E-02  0.1152836E+00
         21   -1    0    0  503  502  0.00000000000E+00  0.00000000000E+00  0.36110606568E+03  0.36110606568E+03  0.00000000000E+00 0. -1.
         21   -1    0    0  501  503 -0.00000000000E+00 -0.00000000000E+00 -0.16773334990E+03  0.16773334990E+03  0.00000000000E+00 0.  1.
          6    1    1    2  501    0 -0.42698903558E+02 -0.84588469781E+02 -0.62698980514E+02  0.20613968017E+03  0.17200000000E+03 0.  1.
         -6    1    1    2    0  502  0.42698903558E+02  0.84588469781E+02  0.25607169629E+03  0.32269973540E+03  0.17200000000E+03 0. -1.
</event>
<event>
 4    1  0.5739010E+000  0.2082194E+03  0.7818608E-02  0.1142984E+00
         21   -1    0    0  501  502  0.00000000000E+00  0.00000000000E+00  0.94951761274E+02  0.94951761274E+02  0.00000000000E+00 0. -1.
         21   -1    0    0  502  503 -0.00000000000E+00 -0.00000000000E+00 -0.45874887975E+03  0.45874887975E+03  0.00000000000E+00 0.  1.
          6    1    1    2  501    0  0.11693819979E+03 -0.98376060504E+01 -0.16296666291E+03  0.26441152449E+03  0.17200000000E+03 0. -1.
         -6    1    1    2    0  503 -0.11693819979E+03  0.98376060504E+01 -0.20083045556E+03  0.28928911653E+03  0.17200000000E+03 0.  1.
</event>
<event>
 4    1  0.5739010E+000  0.2506276E+03  0.7818608E-02  0.1112909E+00
         21   -1    0    0  503  502  0.00000000000E+00  0.00000000000E+00  0.23626227574E+03  0.23626227574E+03  0.00000000000E+00 0. -1.
         21   -1    0    0  501  503 -0.00000000000E+00 -0.00000000000E+00 -0.66857216484E+03  0.66857216484E+03  0.00000000000E+00 0.  1.
          6    1    1    2  501    0 -0.19451292937E+00  0.18229140054E+03 -0.56727765745E+03  0.62017588891E+03  0.17200000000E+03 0.  1.
         -6    1    1    2    0  502  0.19451292937E+00 -0.18229140054E+03  0.13496776835E+03  0.28465855167E+03  0.17200000000E+03 0. -1.
</event>
<event>
 4    1  0.5739010E+000  0.1773288E+03  0.7818608E-02  0.1170414E+00
         21   -1    0    0  501  502  0.00000000000E+00  0.00000000000E+00  0.13377868618E+03  0.13377868618E+03  0.00000000000E+00 0. -1.
         21   -1    0    0  502  503 -0.00000000000E+00 -0.00000000000E+00 -0.24043188833E+03  0.24043188833E+03  0.00000000000E+00 0. -1.
          6    1    1    2  501    0  0.20702158190E+01 -0.43095533709E+02 -0.25349242878E+02  0.17913150179E+03  0.17200000000E+03 0. -1.
         -6    1    1    2    0  503 -0.20702158190E+01  0.43095533709E+02 -0.81303959276E+02  0.19507907272E+03  0.17200000000E+03 0. -1.
</event>
<event>
 4    1  0.5739010E+000  0.1758651E+03  0.7818608E-02  0.1171866E+00
         21   -1    0    0  501  502  0.00000000000E+00  0.00000000000E+00  0.28071569994E+03  0.28071569994E+03  0.00000000000E+00 0. -1.
         21   -1    0    0  502  503 -0.00000000000E+00 -0.00000000000E+00 -0.11688824344E+03  0.11688824344E+03  0.00000000000E+00 0. -1.
          6    1    1    2  501    0  0.30980543812E+00  0.36666552568E+02  0.34279062541E+02  0.17917473646E+03  0.17200000000E+03 0.  1.
         -6    1    1    2    0  503 -0.30980543812E+00 -0.36666552568E+02  0.12954839396E+03  0.21842920691E+03  0.17200000000E+03 0.  1.
</event>
<event>
 4    1  0.5739010E+000  0.2007964E+03  0.7818608E-02  0.1149069E+00
         21   -1    0    0  501  502  0.00000000000E+00  0.00000000000E+00  0.12812992159E+03  0.12812992159E+03  0.00000000000E+00 0.  1.
         21   -1    0    0  502  503 -0.00000000000E+00 -0.00000000000E+00 -0.39393787109E+03  0.39393787109E+03  0.00000000000E+00 0.  1.
          6    1    1    2  501    0 -0.76622977649E+02 -0.69743155636E+02 -0.15813932721E+02  0.20141814449E+03  0.17200000000E+03 0.  1.
         -6    1    1    2    0  503  0.76622977649E+02  0.69743155636E+02 -0.24999401678E+03  0.32064964819E+03  0.17200000000E+03 0.  1.
</event>
<event>
 4    1  0.5739010E+000  0.1769155E+03  0.7818608E-02  0.1170822E+00
         21   -1    0    0  503  502  0.00000000000E+00  0.00000000000E+00  0.35671892605E+02  0.35671892605E+02  0.00000000000E+00 0.  1.
         21   -1    0    0  501  503 -0.00000000000E+00 -0.00000000000E+00 -0.93114440287E+03  0.93114440287E+03  0.00000000000E+00 0.  1.
          6    1    1    2  501    0  0.40210154534E+02  0.99106526177E+01 -0.56385671453E+03  0.59095978889E+03  0.17200000000E+03 0.  1.
         -6    1    1    2    0  502 -0.40210154534E+02 -0.99106526177E+01 -0.33161579574E+03  0.37585650659E+03  0.17200000000E+03 0.  1.
</event>
<event>
 4    1  0.5739010E+000  0.1894151E+03  0.7818608E-02  0.1158990E+00
         21   -1    0    0  503  502  0.00000000000E+00  0.00000000000E+00  0.25072392337E+03  0.25072392337E+03  0.00000000000E+00 0. -1.
         21   -1    0    0  501  503 -0.00000000000E+00 -0.00000000000E+00 -0.14683292165E+03  0.14683292165E+03  0.00000000000E+00 0. -1.
          6    1    1    2  501    0  0.77808729262E+02  0.15487648527E+02  0.20242207107E+02  0.19049360240E+03  0.17200000000E+03 0. -1.
         -6    1    1    2    0  502 -0.77808729262E+02 -0.15487648527E+02  0.83648794605E+02  0.20706324262E+03  0.17200000000E+03 0. -1.
</event>
<event>
 4    1  0.5739010E+000  0.2089462E+03  0.7818608E-02  0.1142403E+00
         21   -1    0    0  503  502  0.00000000000E+00  0.00000000000E+00  0.24749559058E+03  0.24749559058E+03  0.00000000000E+00 0. -1.
         21   -1    0    0  501  503 -0.00000000000E+00 -0.00000000000E+00 -0.28740959491E+03  0.28740959491E+03  0.00000000000E+00 0. -1.
          6    1    1    2  501    0 -0.17272730306E+02 -0.11737199058E+03 -0.18617344973E+03  0.27985547121E+03  0.17200000000E+03 0. -1.
         -6    1    1    2    0  502  0.17272730306E+02  0.11737199058E+03  0.14625944540E+03  0.25504971428E+03  0.17200000000E+03 0. -1.
</event>
<event>
 4    1  0.5739010E+000  0.1726814E+03  0.7818608E-02  0.1175080E+00
         21   -1    0    0  501  502  0.00000000000E+00  0.00000000000E+00  0.18182153325E+03  0.18182153325E+03  0.00000000000E+00 0.  1.
         21   -1    0    0  502  503 -0.00000000000E+00 -0.00000000000E+00 -0.24349332738E+03  0.24349332738E+03  0.00000000000E+00 0.  1.
          6    1    1    2  501    0  0.10314247763E+02 -0.11334945728E+02  0.90670841952E+02  0.19503862767E+03  0.17200000000E+03 0.  1.
         -6    1    1    2    0  503 -0.10314247763E+02  0.11334945728E+02 -0.15234263608E+03  0.23027623296E+03  0.17200000000E+03 0.  1.
</event>
<event>
 4    1  0.5739010E+000  0.1727772E+03  0.7818608E-02  0.1174982E+00
         21   -1    0    0  503  502  0.00000000000E+00  0.00000000000E+00  0.35566726492E+03  0.35566726492E+03  0.00000000000E+00 0.  1.
         21   -1    0    0  501  503 -0.00000000000E+00 -0.00000000000E+00 -0.84324792290E+02  0.84324792290E+02  0.00000000000E+00 0.  1.
          6    1    1    2  501    0 -0.16270738140E+02  0.17953930938E+01  0.15068087452E+03  0.22925245103E+03  0.17200000000E+03 0. -1.
         -6    1    1    2    0  502  0.16270738140E+02 -0.17953930938E+01  0.12066159811E+03  0.21073960619E+03  0.17200000000E+03 0. -1.
</event>
<event>
 4    1  0.5739010E+000  0.2035804E+03  0.7818608E-02  0.1146753E+00
         21   -1    0    0  503  502  0.00000000000E+00  0.00000000000E+00  0.45748832279E+02  0.45748832279E+02  0.00000000000E+00 0. -1.
         21   -1    0    0  501  503 -0.00000000000E+00 -0.00000000000E+00 -0.10884687339E+04  0.10884687339E+04  0.00000000000E+00 0. -1.
          6    1    1    2  501    0  0.94236445270E+02 -0.54593600718E+02 -0.75360312141E+03  0.78061682883E+03  0.17200000000E+03 0. -1.
         -6    1    1    2    0  502 -0.94236445270E+02  0.54593600718E+02 -0.28911678024E+03  0.35360073738E+03  0.17200000000E+03 0. -1.
</event>
<event>
 4    1  0.5739010E+000  0.2568479E+03  0.7818608E-02  0.1109052E+00
         21   -1    0    0  501  502  0.00000000000E+00  0.00000000000E+00  0.24450653478E+03  0.24450653478E+03  0.00000000000E+00 0.  1.
         21   -1    0    0  502  503 -0.00000000000E+00 -0.00000000000E+00 -0.28785905712E+03  0.28785905712E+03  0.00000000000E+00 0. -1.
          6    1    1    2  501    0 -0.13100031532E+03 -0.13865694917E+03 -0.88324934213E+02  0.27161024681E+03  0.17200000000E+03 0. -1.
         -6    1    1    2    0  503  0.13100031532E+03  0.13865694917E+03  0.44972411874E+02  0.26075534510E+03  0.17200000000E+03 0.  1.
</event>
<event>
 4    1  0.5739010E+000  0.1735500E+03  0.7818608E-02  0.1174196E+00
         21   -1    0    0  501  502  0.00000000000E+00  0.00000000000E+00  0.48419011372E+02  0.48419011372E+02  0.00000000000E+00 0.  1.
         21   -1    0    0  502  503 -0.00000000000E+00 -0.00000000000E+00 -0.67038730639E+03  0.67038730639E+03  0.00000000000E+00 0.  1.
          6    1    1    2  501    0  0.17017156847E+02  0.15685223501E+02 -0.21448846061E+03  0.27590742940E+03  0.17200000000E+03 0.  1.
         -6    1    1    2    0  503 -0.17017156847E+02 -0.15685223501E+02 -0.40747983441E+03  0.44289888836E+03  0.17200000000E+03 0.  1.
</event>
<event>
 4    1  0.5739010E+000  0.1922354E+03  0.7818608E-02  0.1156460E+00
         21   -1    0    0  503  502  0.00000000000E+00  0.00000000000E+00  0.69185665255E+03  0.69185665255E+03  0.00000000000E+00 0. -1.
         21   -1    0    0  501  503 -0.00000000000E+00 -0.00000000000E+00 -0.24603297702E+03  0.24603297702E+03  0.00000000000E+00 0. -1.
          6    1    1    2  501    0 -0.83760237547E+02  0.18833212706E+02 -0.19201851605E+03  0.27170862666E+03  0.17200000000E+03 0. -1.
         -6    1    1    2    0  502  0.83760237547E+02 -0.18833212706E+02  0.63784219157E+03  0.66618100291E+03  0.17200000000E+03 0. -1.
</event>
<event>
 4    1  0.5739010E+000  0.2506096E+03  0.7818608E-02  0.1112920E+00
         21   -1    0    0  501  502  0.00000000000E+00  0.00000000000E+00  0.42760242736E+03  0.42760242736E+03  0.00000000000E+00 0.  1.
         21   -1    0    0  502  503 -0.00000000000E+00 -0.00000000000E+00 -0.40411888001E+03  0.40411888001E+03  0.00000000000E+00 0. -1.
          6    1    1    2  501    0 -0.13228957533E+03 -0.12538192360E+03  0.34353209307E+03  0.42522871196E+03  0.17200000000E+03 0.  1.
         -6    1    1    2    0  503  0.13228957533E+03  0.12538192360E+03 -0.32004854572E+03  0.40649259541E+03  0.17200000000E+03 0. -1.
</event>
<event>
 4    1  0.5739010E+000  0.1945803E+03  0.7818608E-02  0.1154394E+00
         21   -1    0    0  503  502  0.00000000000E+00  0.00000000000E+00  0.57981256802E+03  0.57981256802E+03  0.00000000000E+00 0.  1.
         21   -1    0    0  501  503 -0.00000000000E+00 -0.00000000000E+00 -0.70266436675E+02  0.70266436675E+02  0.00000000000E+00 0.  1.
          6    1    1    2  501    0 -0.78162525779E+02  0.46563098406E+02  0.34119104242E+03  0.39277580119E+03  0.17200000000E+03 0.  1.
         -6    1    1    2    0  502  0.78162525779E+02 -0.46563098406E+02  0.16835508892E+03  0.25730320351E+03  0.17200000000E+03 0.  1.
</event>
<event>
 4    1  0.5739010E+000  0.1797486E+03  0.7818608E-02  0.1168047E+00
         21   -1    0    0  503  502  0.00000000000E+00  0.00000000000E+00  0.59043509256E+02  0.59043509256E+02  0.00000000000E+00 0. -1.
         21   -1    0    0  501  503 -0.00000000000E+00 -0.00000000000E+00 -0.66762013749E+03  0.66762013749E+03  0.00000000000E+00 0. -1.
          6    1    1    2  501    0 -0.29488224170E+02  0.43081451552E+02 -0.45858585558E+03  0.49255512765E+03  0.17200000000E+03 0. -1.
         -6    1    1    2    0  502  0.29488224170E+02 -0.43081451552E+02 -0.14999077265E+03  0.23410851909E+03  0.17200000000E+03 0. -1.
</event>
<event>
 4    1  0.5739010E+000  0.2305137E+03  0.7818608E-02  0.1126279E+00
         21   -1    0    0  501  502  0.00000000000E+00  0.00000000000E+00  0.30448839233E+03  0.30448839233E+03  0.00000000000E+00 0. -1.
         21   -1    0    0  502  503 -0.00000000000E+00 -0.00000000000E+00 -0.36014127836E+03  0.36014127836E+03  0.00000000000E+00 0. -1.
          6    1    1    2  501    0 -0.11812242520E+03  0.97977874559E+02  0.21075556896E+03  0.31233712729E+03  0.17200000000E+03 0. -1.
         -6    1    1    2    0  503  0.11812242520E+03 -0.97977874559E+02 -0.26640845499E+03  0.35229254340E+03  0.17200000000E+03 0. -1.
</event>
<event>
 4    1  0.5739010E+000  0.1756521E+03  0.7818608E-02  0.1172079E+00
         21   -1    0    0  503  502  0.00000000000E+00  0.00000000000E+00  0.86146621757E+03  0.86146621757E+03  0.00000000000E+00 0.  1.
         21   -1    0    0  501  503 -0.00000000000E+00 -0.00000000000E+00 -0.38197947951E+02  0.38197947951E+02  0.00000000000E+00 0.  1.
          6    1    1    2  501    0  0.71248627655E+00 -0.35624963689E+02  0.29928673359E+03  0.34702477516E+03  0.17200000000E+03 0. -1.
         -6    1    1    2    0  502 -0.71248627655E+00  0.35624963689E+02  0.52398153603E+03  0.55263939036E+03  0.17200000000E+03 0. -1.
</event>
<event>
 4    1  0.5739010E+000  0.2369412E+03  0.7818608E-02  0.1121847E+00
         21   -1    0    0  501  502  0.00000000000E+00  0.00000000000E+00  0.40154754626E+03  0.40154754626E+03  0.00000000000E+00 0. -1.
         21   -1    0    0  502  503 -0.00000000000E+00 -0.00000000000E+00 -0.18426845460E+03  0.18426845460E+03  0.00000000000E+00 0. -1.
          6    1    1    2  501    0  0.14422413262E+02 -0.16232415642E+03  0.25251062047E+03  0.34626976653E+03  0.17200000000E+03 0. -1.
         -6    1    1    2    0  503 -0.14422413262E+02  0.16232415642E+03 -0.35231528809E+02  0.23954623433E+03  0.17200000000E+03 0. -1.
</event>
<event>
 4    1  0.5739010E+000  0.1845219E+03  0.7818608E-02  0.1163497E+00
         21   -1    0    0  501  502  0.00000000000E+00  0.00000000000E+00  0.25573348027E+02  0.25573348027E+02  0.00000000000E+00 0. -1.
         21   -1    0    0  502  503 -0.00000000000E+00 -0.00000000000E+00 -0.17702749769E+04  0.17702749769E+04  0.00000000000E+00 0. -1.
          6    1    1    2  501    0  0.41848797442E+02 -0.52086544300E+02 -0.42526571234E+03  0.46357227703E+03  0.17200000000E+03 0.  1.
         -6    1    1    2    0  503 -0.41848797442E+02  0.52086544300E+02 -0.13194359165E+04  0.13322760479E+04  0.17200000000E+03 0.  1.
</event>
<event>
 4    1  0.5739010E+000  0.2035203E+03  0.7818608E-02  0.1146802E+00
         21   -1    0    0  501  502  0.00000000000E+00  0.00000000000E+00  0.68592071519E+03  0.68592071519E+03  0.00000000000E+00 0.  1.
         21   -1    0    0  502  503 -0.00000000000E+00 -0.00000000000E+00 -0.60408568476E+02  0.60408568476E+02  0.00000000000E+00 0.  1.
          6    1    1    2  501    0 -0.54693891410E+02 -0.94048342507E+02  0.31985041789E+03  0.37911054102E+03  0.17200000000E+03 0.  1.
         -6    1    1    2    0  503  0.54693891410E+02  0.94048342507E+02  0.30566172883E+03  0.36721874265E+03  0.17200000000E+03 0.  1.
</event>
<event>
 4    1  0.5739010E+000  0.2465524E+03  0.7818608E-02  0.1115503E+00
         21   -1    0    0  501  502  0.00000000000E+00  0.00000000000E+00  0.16798677703E+03  0.16798677703E+03  0.00000000000E+00 0.  1.
         21   -1    0    0  502  503 -0.00000000000E+00 -0.00000000000E+00 -0.36816135236E+03  0.36816135236E+03  0.00000000000E+00 0. -1.
          6    1    1    2  501    0  0.16869389607E+03 -0.52406573907E+02 -0.65022298470E+02  0.25498231087E+03  0.17200000000E+03 0. -1.
         -6    1    1    2    0  503 -0.16869389607E+03  0.52406573907E+02 -0.13515227686E+03  0.28116581851E+03  0.17200000000E+03 0.  1.
</event>
<event>
 4    1  0.5739010E+000  0.3752412E+03  0.7818608E-02  0.1052707E+00
         21   -1    0    0  501  502  0.00000000000E+00  0.00000000000E+00  0.31822636934E+03  0.31822636934E+03  0.00000000000E+00 0.  1.
         21   -1    0    0  502  503 -0.00000000000E+00 -0.00000000000E+00 -0.98157652679E+03  0.98157652679E+03  0.00000000000E+00 0.  1.
          6    1    1    2  501    0 -0.30464899279E+03  0.13568704357E+03  0.14996460275E+03  0.40409821168E+03  0.17200000000E+03 0.  1.
         -6    1    1    2    0  503  0.30464899279E+03 -0.13568704357E+03 -0.81331476020E+03  0.89570468445E+03  0.17200000000E+03 0.  1.
</event>
<event>
 4    1  0.5739010E+000  0.2318945E+03  0.7818608E-02  0.1125313E+00
         21   -1    0    0  501  502  0.00000000000E+00  0.00000000000E+00  0.30997852695E+03  0.30997852695E+03  0.00000000000E+00 0. -1.
         21   -1    0    0  502  503 -0.00000000000E+00 -0.00000000000E+00 -0.32439637391E+03  0.32439637391E+03  0.00000000000E+00 0. -1.
          6    1    1    2  501    0  0.15521675781E+03  0.99418432549E+01  0.20913572034E+03  0.31227044637E+03  0.17200000000E+03 0. -1.
         -6    1    1    2    0  503 -0.15521675781E+03 -0.99418432549E+01 -0.22355356730E+03  0.32210445449E+03  0.17200000000E+03 0. -1.
</event>
<event>
 4    1  0.5739010E+000  0.1805796E+03  0.7818608E-02  0.1167243E+00
         21   -1    0    0  501  502  0.00000000000E+00  0.00000000000E+00  0.31294226682E+03  0.31294226682E+03  0.00000000000E+00 0.  1.
         21   -1    0    0  502  503 -0.00000000000E+00 -0.00000000000E+00 -0.12206538306E+03  0.12206538306E+03  0.00000000000E+00 0.  1.
          6    1    1    2  501    0  0.15723245691E+01 -0.54977382149E+02  0.17864570704E+03  0.25401431730E+03  0.17200000000E+03 0.  1.
         -6    1    1    2    0  503 -0.15723245691E+01  0.54977382149E+02  0.12231176714E+02  0.18099333257E+03  0.17200000000E+03 0.  1.
</event>
<event>
 4    1  0.5739010E+000  0.2319055E+03  0.7818608E-02  0.1125306E+00
         21   -1    0    0  503  502  0.00000000000E+00  0.00000000000E+00  0.20051994180E+03  0.20051994180E+03  0.00000000000E+00 0. -1.
         21   -1    0    0  501  503 -0.00000000000E+00 -0.00000000000E+00 -0.26945034158E+03  0.26945034158E+03  0.00000000000E+00 0. -1.
          6    1    1    2  501    0 -0.27167120520E+02 -0.15316033716E+03 -0.18480135216E+02  0.23264061707E+03  0.17200000000E+03 0. -1.
         -6    1    1    2    0  502  0.27167120520E+02  0.15316033716E+03 -0.50450264556E+02  0.23732966631E+03  0.17200000000E+03 0. -1.
</event>
<event>
 4    1  0.5739010E+000  0.1825649E+03  0.7818608E-02  0.1165344E+00
         21   -1    0    0  501  502  0.00000000000E+00  0.00000000000E+00  0.52406031532E+03  0.52406031532E+03  0.00000000000E+00 0.  1.
         21   -1    0    0  502  503 -0.00000000000E+00 -0.00000000000E+00 -0.33891789535E+03  0.33891789535E+03  0.00000000000E+00 0.  1.
          6    1    1    2  501    0 -0.47293607289E+02 -0.38848997962E+02  0.48147328959E+03  0.51492374049E+03  0.17200000000E+03 0.  1.
         -6    1    1    2    0  503  0.47293607289E+02  0.38848997962E+02 -0.29633086961E+03  0.34805447019E+03  0.17200000000E+03 0.  1.
</event>
<event>
 4    1  0.5739010E+000  0.1978148E+03  0.7818608E-02  0.1151596E+00
         21   -1    0    0  501  502  0.00000000000E+00  0.00000000000E+00  0.16405231465E+03  0.16405231465E+03  0.00000000000E+00 0. -1.
         21   -1    0    0  502  503 -0.00000000000E+00 -0.00000000000E+00 -0.65078358348E+03  0.65078358348E+03  0.00000000000E+00 0. -1.
          6    1    1    2  501    0  0.22905216161E+02  0.94984510438E+02  0.80904018522E+02  0.21371983147E+03  0.17200000000E+03 0. -1.
         -6    1    1    2    0  503 -0.22905216161E+02 -0.94984510438E+02 -0.56763528735E+03  0.60111606666E+03  0.17200000000E+03 0. -1.
</event>
<event>
 4    1  0.5739010E+000  0.2441071E+03  0.7818608E-02  0.1117087E+00
         21   -1    0    0  503  502  0.00000000000E+00  0.00000000000E+00  0.18196423038E+03  0.18196423038E+03  0.00000000000E+00 0.  1.
         21   -1    0    0  501  503 -0.00000000000E+00 -0.00000000000E+00 -0.39465380973E+03  0.39465380973E+03  0.00000000000E+00 0. -1.
          6    1    1    2  501    0 -0.15443502850E+03  0.78448188661E+02 -0.22529741972E+03  0.33218552597E+03  0.17200000000E+03 0. -1.
         -6    1    1    2    0  502  0.15443502850E+03 -0.78448188661E+02  0.12607840365E+02  0.24443251414E+03  0.17200000000E+03 0.  1.
</event>
<event>
 4    1  0.5739010E+000  0.1991278E+03  0.7818608E-02  0.1150477E+00
         21   -1    0    0  501  502  0.00000000000E+00  0.00000000000E+00  0.12241001046E+02  0.12241001046E+02  0.00000000000E+00 0.  1.
         21   -1    0    0  502  503 -0.00000000000E+00 -0.00000000000E+00 -0.34623098090E+04  0.34623098090E+04  0.00000000000E+00 0.  1.
          6    1    1    2  501    0  0.77523607066E+02  0.63702086696E+02 -0.12840936530E+04  0.12994415628E+04  0.17200000000E+03 0.  1.
         -6    1    1    2    0  503 -0.77523607066E+02 -0.63702086696E+02 -0.21659751550E+04  0.21751092472E+04  0.17200000000E+03 0.  1.
</event>
<event>
 4    1  0.5739010E+000  0.1831542E+03  0.7818608E-02  0.1164785E+00
         21   -1    0    0  501  502  0.00000000000E+00  0.00000000000E+00  0.29201816224E+03  0.29201816224E+03  0.00000000000E+00 0. -1.
         21   -1    0    0  502  503 -0.00000000000E+00 -0.00000000000E+00 -0.47636545535E+03  0.47636545535E+03  0.00000000000E+00 0. -1.
          6    1    1    2  501    0 -0.21864567694E+02 -0.59020363921E+02  0.24250395118E+03  0.30389739883E+03  0.17200000000E+03 0. -1.
         -6    1    1    2    0  503  0.21864567694E+02  0.59020363921E+02 -0.42685124428E+03  0.46448621876E+03  0.17200000000E+03 0. -1.
</event>
<event>
 4    1  0.5739010E+000  0.2325614E+03  0.7818608E-02  0.1124850E+00
         21   -1    0    0  501  502  0.00000000000E+00  0.00000000000E+00  0.46204371657E+02  0.46204371657E+02  0.00000000000E+00 0. -1.
         21   -1    0    0  502  503 -0.00000000000E+00 -0.00000000000E+00 -0.14402182051E+04  0.14402182051E+04  0.00000000000E+00 0.  1.
          6    1    1    2  501    0  0.14326967945E+03  0.63044621619E+02 -0.37541299943E+03  0.44161040014E+03  0.17200000000E+03 0. -1.
         -6    1    1    2    0  503 -0.14326967945E+03 -0.63044621619E+02 -0.10186008340E+04  0.10448121766E+04  0.17200000000E+03 0.  1.
</event>
<event>
 4    1  0.5739010E+000  0.2118049E+03  0.7818608E-02  0.1140145E+00
         21   -1    0    0  501  502  0.00000000000E+00  0.00000000000E+00  0.87793655475E+02  0.87793655475E+02  0.00000000000E+00 0.  1.
         21   -1    0    0  502  503 -0.00000000000E+00 -0.00000000000E+00 -0.51510304623E+03  0.51510304623E+03  0.00000000000E+00 0.  1.
          6    1    1    2  501    0 -0.12353626393E+03  0.40123126768E+01 -0.18670389001E+03  0.28234668354E+03  0.17200000000E+03 0.  1.
         -6    1    1    2    0  503  0.12353626393E+03 -0.40123126768E+01 -0.24060550074E+03  0.32055001817E+03  0.17200000000E+03 0.  1.
</event>
<event>
 4    1  0.5739010E+000  0.1946883E+03  0.7818608E-02  0.1154299E+00
         21   -1    0    0  503  502  0.00000000000E+00  0.00000000000E+00  0.13052540012E+04  0.13052540012E+04  0.00000000000E+00 0.  1.
         21   -1    0    0  501  503 -0.00000000000E+00 -0.00000000000E+00 -0.49866165744E+02  0.49866165744E+02  0.00000000000E+00 0.  1.
          6    1    1    2  501    0 -0.84156892759E+01 -0.90822392429E+02  0.18981116894E+03  0.27190404676E+03  0.17200000000E+03 0.  1.
         -6    1    1    2    0  502  0.84156892759E+01  0.90822392429E+02  0.10655766665E+04  0.10832161202E+04  0.17200000000E+03 0.  1.
</event>
<event>
 4    1  0.5739010E+000  0.1772708E+03  0.7818608E-02  0.1170471E+00
         21   -1    0    0  501  502  0.00000000000E+00  0.00000000000E+00  0.16551866960E+03  0.16551866960E+03  0.00000000000E+00 0. -1.
         21   -1    0    0  502  503 -0.00000000000E+00 -0.00000000000E+00 -0.31736481254E+03  0.31736481254E+03  0.00000000000E+00 0. -1.
          6    1    1    2  501    0  0.59202946016E+00  0.42902201046E+02  0.77115404331E+02  0.19331770467E+03  0.17200000000E+03 0. -1.
         -6    1    1    2    0  503 -0.59202946016E+00 -0.42902201046E+02 -0.22896154727E+03  0.28956577747E+03  0.17200000000E+03 0. -1.
</event>
<event>
 4    1  0.5739010E+000  0.1742888E+03  0.7818608E-02  0.1173448E+00
         21   -1    0    0  501  502  0.00000000000E+00  0.00000000000E+00  0.41786542821E+03  0.41786542821E+03  0.00000000000E+00 0. -1.
         21   -1    0    0  502  503 -0.00000000000E+00 -0.00000000000E+00 -0.76211678597E+02  0.76211678597E+02  0.00000000000E+00 0. -1.
          6    1    1    2  501    0  0.28141575562E+02  0.80785615000E+00  0.22389564066E+03  0.28373554379E+03  0.17200000000E+03 0. -1.
         -6    1    1    2    0  503 -0.28141575562E+02 -0.80785615000E+00  0.11775810896E+03  0.21034156302E+03  0.17200000000E+03 0. -1.
</event>
<event>
 4    1  0.5739010E+000  0.1825043E+03  0.7818608E-02  0.1165401E+00
         21   -1    0    0  501  502  0.00000000000E+00  0.00000000000E+00  0.56200321591E+03  0.56200321591E+03  0.00000000000E+00 0.  1.
         21   -1    0    0  502  503 -0.00000000000E+00 -0.00000000000E+00 -0.59492396069E+02  0.59492396069E+02  0.00000000000E+00 0.  1.
          6    1    1    2  501    0  0.52598779788E+02 -0.30938436545E+02  0.23209610596E+03  0.29525653404E+03  0.17200000000E+03 0.  1.
         -6    1    1    2    0  503 -0.52598779788E+02  0.30938436545E+02  0.27041471388E+03  0.32623907794E+03  0.17200000000E+03 0.  1.
</event>
<event>
 4    1  0.5739010E+000  0.2271672E+03  0.7818608E-02  0.1128650E+00
         21   -1    0    0  501  502  0.00000000000E+00  0.00000000000E+00  0.15532941614E+03  0.15532941614E+03  0.00000000000E+00 0. -1.
         21   -1    0    0  502  503 -0.00000000000E+00 -0.00000000000E+00 -0.38925680775E+03  0.38925680775E+03  0.00000000000E+00 0.  1.
          6    1    1    2  501    0 -0.33364703392E+02  0.14459512083E+03 -0.22118619856E+03  0.31706196056E+03  0.17200000000E+03 0.  1.
         -6    1    1    2    0  503  0.33364703392E+02 -0.14459512083E+03 -0.12741193054E+02  0.22752426332E+03  0.17200000000E+03 0.  1.
</event>
<event>
 4    1  0.5739010E+000  0.1847627E+03  0.7818608E-02  0.1163272E+00
         21   -1    0    0  503  502  0.00000000000E+00  0.00000000000E+00  0.21497446007E+02  0.21497446007E+02  0.00000000000E+00 0. -1.
         21   -1    0    0  501  503 -0.00000000000E+00 -0.00000000000E+00 -0.18294029877E+04  0.18294029877E+04  0.00000000000E+00 0. -1.
          6    1    1    2  501    0  0.62678615193E+02 -0.24992813408E+02 -0.56775195894E+03  0.59705907279E+03  0.17200000000E+03 0. -1.
         -6    1    1    2    0  502 -0.62678615193E+02  0.24992813408E+02 -0.12401535828E+04  0.12538413609E+04  0.17200000000E+03 0. -1.
</event>
<event>
 4    1  0.5739010E+000  0.2230604E+03  0.7818608E-02  0.1131622E+00
         21   -1    0    0  501  502  0.00000000000E+00  0.00000000000E+00  0.11861240751E+03  0.11861240751E+03  0.00000000000E+00 0.  1.
         21   -1    0    0  502  503 -0.00000000000E+00 -0.00000000000E+00 -0.68947845398E+03  0.68947845398E+03  0.00000000000E+00 0. -1.
          6    1    1    2  501    0  0.10670597269E+03 -0.93732423303E+02 -0.32591858138E+02  0.22542883800E+03  0.17200000000E+03 0.  1.
         -6    1    1    2    0  503 -0.10670597269E+03  0.93732423303E+02 -0.53827418834E+03  0.58266202349E+03  0.17200000000E+03 0. -1.
</event>
<event>
 4    1  0.5739010E+000  0.1844433E+03  0.7818608E-02  0.1163571E+00
         21   -1    0    0  501  502  0.00000000000E+00  0.00000000000E+00  0.23914764821E+03  0.23914764821E+03  0.00000000000E+00 0.  1.
         21   -1    0    0  502  503 -0.00000000000E+00 -0.00000000000E+00 -0.14802549384E+03  0.14802549384E+03  0.00000000000E+00 0.  1.
          6    1    1    2  501    0 -0.56212537747E+02 -0.35713863021E+02  0.83791656855E+02  0.20258423228E+03  0.17200000000E+03 0.  1.
         -6    1    1    2    0  503  0.56212537747E+02  0.35713863021E+02  0.73304975150E+01  0.18458890976E+03  0.17200000000E+03 0.  1.
</event>
<event>
 4    1  0.5739010E+000  0.1844885E+03  0.7818608E-02  0.1163528E+00
         21   -1    0    0  501  502  0.00000000000E+00  0.00000000000E+00  0.19782712502E+04  0.19782712502E+04  0.00000000000E+00 0.  1.
         21   -1    0    0  502  503 -0.00000000000E+00 -0.00000000000E+00 -0.23401188855E+02  0.23401188855E+02  0.00000000000E+00 0.  1.
          6    1    1    2  501    0 -0.51018065279E+02  0.43001750859E+02  0.14924374497E+04  0.15037970391E+04  0.17200000000E+03 0.  1.
         -6    1    1    2    0  503  0.51018065279E+02 -0.43001750859E+02  0.46243261168E+03  0.49787539998E+03  0.17200000000E+03 0.  1.
</event>
<event>
 4    1  0.5739010E+000  0.2435827E+03  0.7818608E-02  0.1117429E+00
         21   -1    0    0  501  502  0.00000000000E+00  0.00000000000E+00  0.30593115416E+03  0.30593115416E+03  0.00000000000E+00 0. -1.
         21   -1    0    0  502  503 -0.00000000000E+00 -0.00000000000E+00 -0.37464325694E+03  0.37464325694E+03  0.00000000000E+00 0.  1.
          6    1    1    2  501    0  0.14778258008E+03  0.88931759381E+02  0.20197382405E+03  0.31642688635E+03  0.17200000000E+03 0. -1.
         -6    1    1    2    0  503 -0.14778258008E+03 -0.88931759381E+02 -0.27068592684E+03  0.36414752476E+03  0.17200000000E+03 0.  1.
</event>
<event>
 4    1  0.5739010E+000  0.2232021E+03  0.7818608E-02  0.1131518E+00
         21   -1    0    0  503  502  0.00000000000E+00  0.00000000000E+00  0.22492075995E+03  0.22492075995E+03  0.00000000000E+00 0. -1.
         21   -1    0    0  501  503 -0.00000000000E+00 -0.00000000000E+00 -0.26358700148E+03  0.26358700148E+03  0.00000000000E+00 0. -1.
          6    1    1    2  501    0  0.10982487940E+03  0.90408443645E+02 -0.11693784667E+03  0.25197946504E+03  0.17200000000E+03 0. -1.
         -6    1    1    2    0  502 -0.10982487940E+03 -0.90408443645E+02  0.78271605143E+02  0.23652829638E+03  0.17200000000E+03 0. -1.
</event>
<event>
 4    1  0.5739010E+000  0.2437620E+03  0.7818608E-02  0.1117312E+00
         21   -1    0    0  501  502  0.00000000000E+00  0.00000000000E+00  0.13087834843E+03  0.13087834843E+03  0.00000000000E+00 0. -1.
         21   -1    0    0  502  503 -0.00000000000E+00 -0.00000000000E+00 -0.46714340619E+03  0.46714340619E+03  0.00000000000E+00 0.  1.
          6    1    1    2  501    0 -0.82989722867E+02  0.15148794420E+03 -0.11799369070E+03  0.27081802448E+03  0.17200000000E+03 0.  1.
         -6    1    1    2    0  503  0.82989722867E+02 -0.15148794420E+03 -0.21827136706E+03  0.32720373014E+03  0.17200000000E+03 0.  1.
</event>
<event>
 4    1  0.5739010E+000  0.2115829E+03  0.7818608E-02  0.1140319E+00
         21   -1    0    0  501  502  0.00000000000E+00  0.00000000000E+00  0.75671583193E+03  0.75671583193E+03  0.00000000000E+00 0.  1.
         21   -1    0    0  502  503 -0.00000000000E+00 -0.00000000000E+00 -0.82970780653E+02  0.82970780653E+02  0.00000000000E+00 0. -1.
          6    1    1    2  501    0 -0.11513744626E+02 -0.12268154476E+03  0.11196124834E+03  0.23937971692E+03  0.17200000000E+03 0. -1.
         -6    1    1    2    0  503  0.11513744626E+02  0.12268154476E+03  0.56178380294E+03  0.60030689566E+03  0.17200000000E+03 0.  1.
</event>
<event>
 4    1  0.5739010E+000  0.2384570E+03  0.7818608E-02  0.1120825E+00
         21   -1    0    0  501  502  0.00000000000E+00  0.00000000000E+00  0.20436653278E+03  0.20436653278E+03  0.00000000000E+00 0. -1.
         21   -1    0    0  502  503 -0.00000000000E+00 -0.00000000000E+00 -0.31248913239E+03  0.31248913239E+03  0.00000000000E+00 0. -1.
          6    1    1    2  501    0  0.16230537351E+03  0.30573043225E+02  0.31501266610E+02  0.24052874057E+03  0.17200000000E+03 0. -1.
         -6    1    1    2    0  503 -0.16230537351E+03 -0.30573043225E+02 -0.13962386622E+03  0.27632692460E+03  0.17200000000E+03 0. -1.
</event>
<event>
 4    1  0.5739010E+000  0.1808291E+03  0.7818608E-02  0.1167003E+00
         21   -1    0    0  501  502  0.00000000000E+00  0.00000000000E+00  0.57230655313E+03  0.57230655313E+03  0.00000000000E+00 0. -1.
         21   -1    0    0  502  503 -0.00000000000E+00 -0.00000000000E+00 -0.10021835679E+03  0.10021835679E+03  0.00000000000E+00 0. -1.
          6    1    1    2  501    0  0.28746887069E+01 -0.55739536500E+02  0.45651727789E+03  0.49102666402E+03  0.17200000000E+03 0. -1.
         -6    1    1    2    0  503 -0.28746887069E+01  0.55739536500E+02  0.15570918452E+02  0.18149824590E+03  0.17200000000E+03 0. -1.
</event>
<event>
 4    1  0.5739010E+000  0.1895541E+03  0.7818608E-02  0.1158864E+00
         21   -1    0    0  501  502  0.00000000000E+00  0.00000000000E+00  0.33261648532E+03  0.33261648532E+03  0.00000000000E+00 0. -1.
         21   -1    0    0  502  503 -0.00000000000E+00 -0.00000000000E+00 -0.70392095522E+03  0.70392095522E+03  0.00000000000E+00 0. -1.
          6    1    1    2  501    0 -0.55606970079E+02  0.57049392294E+02  0.29119405675E+03  0.34745466894E+03  0.17200000000E+03 0. -1.
         -6    1    1    2    0  503  0.55606970079E+02 -0.57049392294E+02 -0.66249852665E+03  0.68908277159E+03  0.17200000000E+03 0. -1.
</event>
<event>
 4    1  0.5739010E+000  0.1813955E+03  0.7818608E-02  0.1166459E+00
         21   -1    0    0  501  502  0.00000000000E+00  0.00000000000E+00  0.50354322110E+03  0.50354322110E+03  0.00000000000E+00 0.  1.
         21   -1    0    0  502  503 -0.00000000000E+00 -0.00000000000E+00 -0.77826206796E+02  0.77826206796E+02  0.00000000000E+00 0.  1.
          6    1    1    2  501    0  0.94602614362E+01 -0.56840407228E+02  0.32926502604E+03  0.37592523966E+03  0.17200000000E+03 0.  1.
         -6    1    1    2    0  503 -0.94602614362E+01  0.56840407228E+02  0.96451988266E+02  0.20544418824E+03  0.17200000000E+03 0.  1.
</event>
<event>
 4    1  0.5739010E+000  0.1778174E+03  0.7818608E-02  0.1169932E+00
         21   -1    0    0  501  502  0.00000000000E+00  0.00000000000E+00  0.34732803142E+02  0.34732803142E+02  0.00000000000E+00 0. -1.
         21   -1    0    0  502  503 -0.00000000000E+00 -0.00000000000E+00 -0.13545406038E+04  0.13545406038E+04  0.00000000000E+00 0. -1.
          6    1    1    2  501    0  0.32870769309E+02  0.30895511856E+02 -0.26212090222E+03  0.31674340958E+03  0.17200000000E+03 0. -1.
         -6    1    1    2    0  503 -0.32870769309E+02 -0.30895511856E+02 -0.10576868984E+04  0.10725299974E+04  0.17200000000E+03 0. -1.
</event>
<event>
 4    1  0.5739010E+000  0.2803835E+03  0.7818608E-02  0.1095480E+00
         21   -1    0    0  503  502  0.00000000000E+00  0.00000000000E+00  0.59206538942E+03  0.59206538942E+03  0.00000000000E+00 0. -1.
         21   -1    0    0  501  503 -0.00000000000E+00 -0.00000000000E+00 -0.13379235932E+03  0.13379235932E+03  0.00000000000E+00 0.  1.
          6    1    1    2  501    0  0.22112575317E+03  0.11590151783E+02  0.26069356281E+03  0.38285253561E+03  0.17200000000E+03 0. -1.
         -6    1    1    2    0  502 -0.22112575317E+03 -0.11590151783E+02  0.19757946729E+03  0.34300521312E+03  0.17200000000E+03 0. -1.
</event>
<event>
 4    1  0.5739010E+000  0.2707083E+03  0.7818608E-02  0.1100875E+00
         21   -1    0    0  501  502  0.00000000000E+00  0.00000000000E+00  0.23598104021E+03  0.23598104021E+03  0.00000000000E+00 0.  1.
         21   -1    0    0  502  503 -0.00000000000E+00 -0.00000000000E+00 -0.31447562934E+03  0.31447562934E+03  0.00000000000E+00 0.  1.
          6    1    1    2  501    0  0.18110567422E+03  0.10440167019E+03 -0.84810798432E+01  0.27084110229E+03  0.17200000000E+03 0.  1.
         -6    1    1    2    0  503 -0.18110567422E+03 -0.10440167019E+03 -0.70013509280E+02  0.27961556726E+03  0.17200000000E+03 0.  1.
</event>
<event>
 4    1  0.5739010E+000  0.1747271E+03  0.7818608E-02  0.1173006E+00
         21   -1    0    0  501  502  0.00000000000E+00  0.00000000000E+00  0.23310258443E+02  0.23310258443E+02  0.00000000000E+00 0.  1.
         21   -1    0    0  502  503 -0.00000000000E+00 -0.00000000000E+00 -0.15548975815E+04  0.15548975815E+04  0.00000000000E+00 0.  1.
          6    1    1    2  501    0  0.13951559086E+02 -0.27402878833E+02 -0.45243846307E+03  0.48500528516E+03  0.17200000000E+03 0.  1.
         -6    1    1    2    0  503 -0.13951559086E+02  0.27402878833E+02 -0.10791488600E+04  0.10932025548E+04  0.17200000000E+03 0.  1.
</event>
<event>
 4    1  0.5739010E+000  0.1832580E+03  0.7818608E-02  0.1164687E+00
         21   -1    0    0  503  502  0.00000000000E+00  0.00000000000E+00  0.28865494309E+03  0.28865494309E+03  0.00000000000E+00 0. -1.
         21   -1    0    0  501  503 -0.00000000000E+00 -0.00000000000E+00 -0.20141570486E+03  0.20141570486E+03  0.00000000000E+00 0. -1.
          6    1    1    2  501    0 -0.82825176296E+01  0.62696709707E+02 -0.11562793485E+03  0.21668709427E+03  0.17200000000E+03 0. -1.
         -6    1    1    2    0  502  0.82825176296E+01 -0.62696709707E+02  0.20286717308E+03  0.27338355367E+03  0.17200000000E+03 0. -1.
</event>
<event>
 4    1  0.5739010E+000  0.2214445E+03  0.7818608E-02  0.1132811E+00
         21   -1    0    0  501  502  0.00000000000E+00  0.00000000000E+00  0.37906789906E+03  0.37906789906E+03  0.00000000000E+00 0. -1.
         21   -1    0    0  502  503 -0.00000000000E+00 -0.00000000000E+00 -0.17411077221E+03  0.17411077221E+03  0.00000000000E+00 0. -1.
          6    1    1    2  501    0 -0.13256403907E+03 -0.43364001332E+02  0.24269679111E+03  0.32854131168E+03  0.17200000000E+03 0. -1.
         -6    1    1    2    0  503  0.13256403907E+03  0.43364001332E+02 -0.37739664265E+02  0.22463735959E+03  0.17200000000E+03 0. -1.
</event>
<event>
 4    1  0.5739010E+000  0.2235913E+03  0.7818608E-02  0.1131234E+00
         21   -1    0    0  503  502  0.00000000000E+00  0.00000000000E+00  0.26000791681E+03  0.26000791681E+03  0.00000000000E+00 0. -1.
         21   -1    0    0  501  503 -0.00000000000E+00 -0.00000000000E+00 -0.24477190905E+03  0.24477190905E+03  0.00000000000E+00 0. -1.
          6    1    1    2  501    0 -0.50757701212E+02 -0.13353930988E+03 -0.10926650876E+03  0.24886193251E+03  0.17200000000E+03 0.  1.
         -6    1    1    2    0  502  0.50757701212E+02  0.13353930988E+03  0.12450251651E+03  0.25591789335E+03  0.17200000000E+03 0.  1.
</event>
<event>
 4    1  0.5739010E+000  0.2696784E+03  0.7818608E-02  0.1101464E+00
         21   -1    0    0  503  502  0.00000000000E+00  0.00000000000E+00  0.38254145787E+03  0.38254145787E+03  0.00000000000E+00 0. -1.
         21   -1    0    0  501  503 -0.00000000000E+00 -0.00000000000E+00 -0.19021854199E+03  0.19021854199E+03  0.00000000000E+00 0.  1.
          6    1    1    2  501    0 -0.36713358931E+02  0.20443721685E+03  0.89444375232E+02  0.28412451957E+03  0.17200000000E+03 0. -1.
         -6    1    1    2    0  502  0.36713358931E+02 -0.20443721685E+03  0.10287854065E+03  0.28863548029E+03  0.17200000000E+03 0.  1.
</event>
<event>
 4    1  0.5739010E+000  0.2114122E+03  0.7818608E-02  0.1140453E+00
         21   -1    0    0  501  502  0.00000000000E+00  0.00000000000E+00  0.17266185725E+03  0.17266185725E+03  0.00000000000E+00 0. -1.
         21   -1    0    0  502  503 -0.00000000000E+00 -0.00000000000E+00 -0.38957131752E+03  0.38957131752E+03  0.00000000000E+00 0. -1.
          6    1    1    2  501    0 -0.99480382398E+02 -0.72213447574E+02  0.54381385695E+02  0.21829444245E+03  0.17200000000E+03 0. -1.
         -6    1    1    2    0  503  0.99480382398E+02  0.72213447574E+02 -0.27129084597E+03  0.34393873233E+03  0.17200000000E+03 0. -1.
</event>
<event>
 4    1  0.5739010E+000  0.1734728E+03  0.7818608E-02  0.1174274E+00
         21   -1    0    0  501  502  0.00000000000E+00  0.00000000000E+00  0.25421872052E+03  0.25421872052E+03  0.00000000000E+00 0. -1.
         21   -1    0    0  502  503 -0.00000000000E+00 -0.00000000000E+00 -0.12139069758E+03  0.12139069758E+03  0.00000000000E+00 0. -1.
          6    1    1    2  501    0 -0.89417082934E+01  0.20708638563E+02  0.96021646458E+02  0.19827495668E+03  0.17200000000E+03 0.  1.
         -6    1    1    2    0  503  0.89417082934E+01 -0.20708638563E+02  0.36806376476E+02  0.17733446142E+03  0.17200000000E+03 0.  1.
</event>
<event>
 4    1  0.5739010E+000  0.2229120E+03  0.7818608E-02  0.1131730E+00
         21   -1    0    0  503  502  0.00000000000E+00  0.00000000000E+00  0.18625813880E+03  0.18625813880E+03  0.00000000000E+00 0.  1.
         21   -1    0    0  501  503 -0.00000000000E+00 -0.00000000000E+00 -0.50371299861E+03  0.50371299861E+03  0.00000000000E+00 0. -1.
          6    1    1    2  501    0 -0.13993743366E+03 -0.22875657330E+02 -0.39533189576E+03  0.45384698836E+03  0.17200000000E+03 0. -1.
         -6    1    1    2    0  502  0.13993743366E+03  0.22875657330E+02  0.77877035949E+02  0.23612414905E+03  0.17200000000E+03 0. -1.
</event>
<event>
 4    1  0.5739010E+000  0.1825924E+03  0.7818608E-02  0.1165317E+00
         21   -1    0    0  501  502  0.00000000000E+00  0.00000000000E+00  0.20114717138E+03  0.20114717138E+03  0.00000000000E+00 0.  1.
         21   -1    0    0  502  503 -0.00000000000E+00 -0.00000000000E+00 -0.16921069076E+03  0.16921069076E+03  0.00000000000E+00 0.  1.
          6    1    1    2  501    0  0.12046493055E+02 -0.60090338928E+02  0.42454109187E+02  0.18746284489E+03  0.17200000000E+03 0.  1.
         -6    1    1    2    0  503 -0.12046493055E+02  0.60090338928E+02 -0.10517628566E+02  0.18289501726E+03  0.17200000000E+03 0.  1.
</event>
<event>
 4    1  0.5739010E+000  0.1782660E+03  0.7818608E-02  0.1169492E+00
         21   -1    0    0  503  502  0.00000000000E+00  0.00000000000E+00  0.54849889172E+02  0.54849889172E+02  0.00000000000E+00 0.  1.
         21   -1    0    0  501  503 -0.00000000000E+00 -0.00000000000E+00 -0.86196579847E+03  0.86196579847E+03  0.00000000000E+00 0.  1.
          6    1    1    2  501    0 -0.24856873638E+02 -0.39710075645E+02 -0.14108495519E+03  0.22734053500E+03  0.17200000000E+03 0.  1.
         -6    1    1    2    0  502  0.24856873638E+02  0.39710075645E+02 -0.66603095411E+03  0.68947515264E+03  0.17200000000E+03 0.  1.
</event>
<event>
 4    1  0.5739010E+000  0.1753219E+03  0.7818608E-02  0.1172409E+00
         21   -1    0    0  503  502  0.00000000000E+00  0.00000000000E+00  0.15943159271E+03  0.15943159271E+03  0.00000000000E+00 0.  1.
         21   -1    0    0  501  503 -0.00000000000E+00 -0.00000000000E+00 -0.19307137586E+03  0.19307137586E+03  0.00000000000E+00 0.  1.
          6    1    1    2  501    0 -0.18744189227E+02  0.28327011612E+02 -0.23476943245E+02  0.17688677475E+03  0.17200000000E+03 0.  1.
         -6    1    1    2    0  502  0.18744189227E+02 -0.28327011612E+02 -0.10162839905E+02  0.17561619382E+03  0.17200000000E+03 0.  1.
</event>
<event>
 4    1  0.5739010E+000  0.1813283E+03  0.7818608E-02  0.1166524E+00
         21   -1    0    0  501  502  0.00000000000E+00  0.00000000000E+00  0.15322245611E+03  0.15322245611E+03  0.00000000000E+00 0.  1.
         21   -1    0    0  502  503 -0.00000000000E+00 -0.00000000000E+00 -0.36290069103E+03  0.36290069103E+03  0.00000000000E+00 0.  1.
          6    1    1    2  501    0 -0.17256022691E+01  0.57384343261E+02  0.60135187100E+02  0.19103973744E+03  0.17200000000E+03 0.  1.
         -6    1    1    2    0  503  0.17256022691E+01 -0.57384343261E+02 -0.26981342202E+03  0.32508340969E+03  0.17200000000E+03 0.  1.
</event>
<event>
 4    1  0.5739010E+000  0.2173594E+03  0.7818608E-02  0.1135867E+00
         21   -1    0    0  501  502  0.00000000000E+00  0.00000000000E+00  0.90187777100E+03  0.90187777100E+03  0.00000000000E+00 0.  1.
         21   -1    0    0  502  503 -0.00000000000E+00 -0.00000000000E+00 -0.54691623339E+02  0.54691623339E+02  0.00000000000E+00 0. -1.
          6    1    1    2  501    0  0.10840690141E+03 -0.76870221332E+02  0.52181115305E+03  0.56527158663E+03  0.17200000000E+03 0. -1.
         -6    1    1    2    0  503 -0.10840690141E+03  0.76870221332E+02  0.32537499461E+03  0.39129780771E+03  0.17200000000E+03 0.  1.
</event>
<event>
 4    1  0.5739010E+000  0.2144239E+03  0.7818608E-02  0.1138110E+00
         21   -1    0    0  501  502  0.00000000000E+00  0.00000000000E+00  0.43427156090E+02  0.43427156090E+02  0.00000000000E+00 0. -1.
         21   -1    0    0  502  503 -0.00000000000E+00 -0.00000000000E+00 -0.10610454786E+04  0.10610454786E+04  0.00000000000E+00 0. -1.
          6    1    1    2  501    0 -0.12746609582E+03  0.12083125776E+02 -0.48300835303E+03  0.52846445161E+03  0.17200000000E+03 0. -1.
         -6    1    1    2    0  503  0.12746609582E+03 -0.12083125776E+02 -0.53460996944E+03  0.57600818304E+03  0.17200000000E+03 0. -1.
</event>
<event>
 4    1  0.5739010E+000  0.2252007E+03  0.7818608E-02  0.1130064E+00
         21   -1    0    0  501  502  0.00000000000E+00  0.00000000000E+00  0.10553050458E+03  0.10553050458E+03  0.00000000000E+00 0. -1.
         21   -1    0    0  502  503 -0.00000000000E+00 -0.00000000000E+00 -0.16078780576E+04  0.16078780576E+04  0.00000000000E+00 0. -1.
          6    1    1    2  501    0  0.23024121027E+02  0.14353138792E+03 -0.33834452554E+02  0.22772821443E+03  0.17200000000E+03 0. -1.
         -6    1    1    2    0  503 -0.23024121027E+02 -0.14353138792E+03 -0.14685131005E+04  0.14856803477E+04  0.17200000000E+03 0. -1.
</event>
<event>
 4    1  0.5739010E+000  0.2247606E+03  0.7818608E-02  0.1130383E+00
         21   -1    0    0  501  502  0.00000000000E+00  0.00000000000E+00  0.69383229139E+03  0.69383229139E+03  0.00000000000E+00 0.  1.
         21   -1    0    0  502  503 -0.00000000000E+00 -0.00000000000E+00 -0.85362206290E+02  0.85362206290E+02  0.00000000000E+00 0.  1.
          6    1    1    2  501    0 -0.14121438988E+03  0.31493373387E+02  0.45363754651E+03  0.50626510849E+03  0.17200000000E+03 0.  1.
         -6    1    1    2    0  503  0.14121438988E+03 -0.31493373387E+02  0.15483253859E+03  0.27292938918E+03  0.17200000000E+03 0.  1.
</event>
<event>
 4    1  0.5739010E+000  0.2024581E+03  0.7818608E-02  0.1147682E+00
         21   -1    0    0  501  502  0.00000000000E+00  0.00000000000E+00  0.62361249943E+02  0.62361249943E+02  0.00000000000E+00 0.  1.
         21   -1    0    0  502  503 -0.00000000000E+00 -0.00000000000E+00 -0.69436800519E+03  0.69436800519E+03  0.00000000000E+00 0. -1.
          6    1    1    2  501    0 -0.34115638708E+02 -0.10119983259E+03 -0.22856797939E+03  0.30534014496E+03  0.17200000000E+03 0.  1.
         -6    1    1    2    0  503  0.34115638708E+02  0.10119983259E+03 -0.40343877586E+03  0.45138911018E+03  0.17200000000E+03 0.  1.
</event>
<event>
 4    1  0.5739010E+000  0.1770971E+03  0.7818608E-02  0.1170642E+00
         21   -1    0    0  503  502  0.00000000000E+00  0.00000000000E+00  0.89451732987E+02  0.89451732987E+02  0.00000000000E+00 0. -1.
         21   -1    0    0  501  503 -0.00000000000E+00 -0.00000000000E+00 -0.36155284590E+03  0.36155284590E+03  0.00000000000E+00 0. -1.
          6    1    1    2  501    0  0.37654244525E+02 -0.19013834472E+02 -0.17526768274E+03  0.24916285567E+03  0.17200000000E+03 0. -1.
         -6    1    1    2    0  502 -0.37654244525E+02  0.19013834472E+02 -0.96833430170E+02  0.20184172322E+03  0.17200000000E+03 0. -1.
</event>
<event>
 4    1  0.5739010E+000  0.1767637E+03  0.7818608E-02  0.1170972E+00
         21   -1    0    0  501  502  0.00000000000E+00  0.00000000000E+00  0.55561868324E+02  0.55561868324E+02  0.00000000000E+00 0.  1.
         21   -1    0    0  502  503 -0.00000000000E+00 -0.00000000000E+00 -0.59747276137E+03  0.59747276137E+03  0.00000000000E+00 0.  1.
          6    1    1    2  501    0  0.14686693871E+02 -0.38022678677E+02 -0.35011776726E+03  0.39220896729E+03  0.17200000000E+03 0.  1.
         -6    1    1    2    0  503 -0.14686693871E+02  0.38022678677E+02 -0.19179312579E+03  0.26082566241E+03  0.17200000000E+03 0.  1.
</event>
<event>
 4    1  0.5739010E+000  0.2117831E+03  0.7818608E-02  0.1140162E+00
         21   -1    0    0  503  502  0.00000000000E+00  0.00000000000E+00  0.22478844543E+03  0.22478844543E+03  0.00000000000E+00 0. -1.
         21   -1    0    0  501  503 -0.00000000000E+00 -0.00000000000E+00 -0.20652166261E+03  0.20652166261E+03  0.00000000000E+00 0.  1.
          6    1    1    2  501    0 -0.43328976110E+02  0.11571807096E+03 -0.30545764314E+02  0.21397456820E+03  0.17200000000E+03 0.  1.
         -6    1    1    2    0  502  0.43328976110E+02 -0.11571807096E+03  0.48812547131E+02  0.21733553984E+03  0.17200000000E+03 0. -1.
</event>
<event>
 4    1  0.5739010E+000  0.1894928E+03  0.7818608E-02  0.1158920E+00
         21   -1    0    0  501  502  0.00000000000E+00  0.00000000000E+00  0.26084318000E+03  0.26084318000E+03  0.00000000000E+00 0. -1.
         21   -1    0    0  502  503 -0.00000000000E+00 -0.00000000000E+00 -0.28134083503E+03  0.28134083503E+03  0.00000000000E+00 0. -1.
          6    1    1    2  501    0 -0.64731037041E+02  0.46188888748E+02  0.18348284480E+03  0.26376784288E+03  0.17200000000E+03 0. -1.
         -6    1    1    2    0  503  0.64731037041E+02 -0.46188888748E+02 -0.20398049983E+03  0.27841617214E+03  0.17200000000E+03 0. -1.
</event>
<event>
 4    1  0.5739010E+000  0.2251233E+03  0.7818608E-02  0.1130120E+00
         21   -1    0    0  501  502  0.00000000000E+00  0.00000000000E+00  0.86522049789E+02  0.86522049789E+02  0.00000000000E+00 0. -1.
         21   -1    0    0  502  503 -0.00000000000E+00 -0.00000000000E+00 -0.70439727659E+03  0.70439727659E+03  0.00000000000E+00 0. -1.
          6    1    1    2  501    0 -0.11686398505E+03  0.86251342272E+02 -0.14663775787E+03  0.26866915915E+03  0.17200000000E+03 0. -1.
         -6    1    1    2    0  503  0.11686398505E+03 -0.86251342272E+02 -0.47123746893E+03  0.52225016723E+03  0.17200000000E+03 0. -1.
</event>
<event>
 4    1  0.5739010E+000  0.2464592E+03  0.7818608E-02  0.1115563E+00
         21   -1    0    0  503  502  0.00000000000E+00  0.00000000000E+00  0.74618174342E+02  0.74618174342E+02  0.00000000000E+00 0. -1.
         21   -1    0    0  501  503 -0.00000000000E+00 -0.00000000000E+00 -0.10419133975E+04  0.10419133975E+04  0.00000000000E+00 0. -1.
          6    1    1    2  501    0  0.15766842046E+03 -0.79365060890E+02 -0.74472692452E+03  0.78444906515E+03  0.17200000000E+03 0. -1.
         -6    1    1    2    0  502 -0.15766842046E+03  0.79365060890E+02 -0.22256829866E+03  0.33208250672E+03  0.17200000000E+03 0. -1.
</event>
<event>
 4    1  0.5739010E+000  0.1913647E+03  0.7818608E-02  0.1157236E+00
         21   -1    0    0  503  502  0.00000000000E+00  0.00000000000E+00  0.77532865632E+02  0.77532865632E+02  0.00000000000E+00 0. -1.
         21   -1    0    0  501  503 -0.00000000000E+00 -0.00000000000E+00 -0.56988933443E+03  0.56988933443E+03  0.00000000000E+00 0. -1.
          6    1    1    2  501    0 -0.79537015544E+01 -0.83505535099E+02 -0.38011992127E+03  0.42557207416E+03  0.17200000000E+03 0. -1.
         -6    1    1    2    0  502  0.79537015544E+01  0.83505535099E+02 -0.11223654753E+03  0.22185012590E+03  0.17200000000E+03 0. -1.
</event>
<event>
 4    1  0.5739010E+000  0.3115056E+03  0.7818608E-02  0.1079626E+00
         21   -1    0    0  501  502  0.00000000000E+00  0.00000000000E+00  0.21279483438E+03  0.21279483438E+03  0.00000000000E+00 0. -1.
         21   -1    0    0  502  503 -0.00000000000E+00 -0.00000000000E+00 -0.84288780029E+03  0.84288780029E+03  0.00000000000E+00 0.  1.
          6    1    1    2  501    0  0.84817053589E+02 -0.24547469344E+03  0.42561785644E+02  0.31439984621E+03  0.17200000000E+03 0. -1.
         -6    1    1    2    0  503 -0.84817053589E+02  0.24547469344E+03 -0.67265475155E+03  0.74128278846E+03  0.17200000000E+03 0.  1.
</event>
<event>
 4    1  0.5739010E+000  0.2148669E+03  0.7818608E-02  0.1137769E+00
         21   -1    0    0  501  502  0.00000000000E+00  0.00000000000E+00  0.86598775265E+02  0.86598775265E+02  0.00000000000E+00 0. -1.
         21   -1    0    0  502  503 -0.00000000000E+00 -0.00000000000E+00 -0.56864536580E+03  0.56864536580E+03  0.00000000000E+00 0. -1.
          6    1    1    2  501    0 -0.81998201591E+02 -0.99297831748E+02 -0.15913802839E+03  0.26738114469E+03  0.17200000000E+03 0. -1.
         -6    1    1    2    0  503  0.81998201591E+02  0.99297831748E+02 -0.32290856214E+03  0.38786299638E+03  0.17200000000E+03 0. -1.
</event>
<event>
 4    1  0.5739010E+000  0.1898981E+03  0.7818608E-02  0.1158553E+00
         21   -1    0    0  503  502  0.00000000000E+00  0.00000000000E+00  0.38970542205E+03  0.38970542205E+03  0.00000000000E+00 0. -1.
         21   -1    0    0  501  503 -0.00000000000E+00 -0.00000000000E+00 -0.11930303835E+03  0.11930303835E+03  0.00000000000E+00 0.  1.
          6    1    1    2  501    0  0.47137275548E+02  0.65233032482E+02  0.14647636491E+02  0.19046213410E+03  0.17200000000E+03 0.  1.
         -6    1    1    2    0  502 -0.47137275548E+02 -0.65233032482E+02  0.25575474722E+03  0.31854632630E+03  0.17200000000E+03 0. -1.
</event>
<event>
 4    1  0.5739010E+000  0.2121402E+03  0.7818608E-02  0.1139882E+00
         21   -1    0    0  503  502  0.00000000000E+00  0.00000000000E+00  0.46927859181E+02  0.46927859181E+02  0.00000000000E+00 0.  1.
         21   -1    0    0  501  503 -0.00000000000E+00 -0.00000000000E+00 -0.11822489479E+04  0.11822489479E+04  0.00000000000E+00 0. -1.
          6    1    1    2  501    0 -0.57386024546E+02 -0.11011956641E+03 -0.83473459741E+03  0.86126959939E+03  0.17200000000E+03 0. -1.
         -6    1    1    2    0  502  0.57386024546E+02  0.11011956641E+03 -0.30058649134E+03  0.36790720773E+03  0.17200000000E+03 0.  1.
</event>
<event>
 4    1  0.5739010E+000  0.1758741E+03  0.7818608E-02  0.1171857E+00
         21   -1    0    0  501  502  0.00000000000E+00  0.00000000000E+00  0.17830305567E+04  0.17830305567E+04  0.00000000000E+00 0. -1.
         21   -1    0    0  502  503 -0.00000000000E+00 -0.00000000000E+00 -0.17390199285E+02  0.17390199285E+02  0.00000000000E+00 0. -1.
          6    1    1    2  501    0  0.36678376530E+02  0.15424636389E+01  0.83837760916E+03  0.85662634681E+03  0.17200000000E+03 0. -1.
         -6    1    1    2    0  503 -0.36678376530E+02 -0.15424636389E+01  0.92726274830E+03  0.94379440922E+03  0.17200000000E+03 0. -1.
</event>
<event>
 4    1  0.5739010E+000  0.1996451E+03  0.7818608E-02  0.1150039E+00
         21   -1    0    0  501  502  0.00000000000E+00  0.00000000000E+00  0.37165982582E+02  0.37165982582E+02  0.00000000000E+00 0.  1.
         21   -1    0    0  502  503 -0.00000000000E+00 -0.00000000000E+00 -0.14244022405E+04  0.14244022405E+04  0.00000000000E+00 0.  1.
          6    1    1    2  501    0 -0.62795251144E+01  0.10116679972E+03 -0.33035358612E+03  0.38599435963E+03  0.17200000000E+03 0.  1.
         -6    1    1    2    0  503  0.62795251144E+01 -0.10116679972E+03 -0.10568826718E+04  0.10755738634E+04  0.17200000000E+03 0.  1.
</event>
<event>
 4    1  0.5739010E+000  0.1740511E+03  0.7818608E-02  0.1173688E+00
         21   -1    0    0  503  502  0.00000000000E+00  0.00000000000E+00  0.53797882682E+03  0.53797882682E+03  0.00000000000E+00 0. -1.
         21   -1    0    0  501  503 -0.00000000000E+00 -0.00000000000E+00 -0.65466635587E+02  0.65466635587E+02  0.00000000000E+00 0. -1.
          6    1    1    2  501    0 -0.16687216164E+02  0.20768154202E+02  0.12341753568E+03  0.21336744720E+03  0.17200000000E+03 0. -1.
         -6    1    1    2    0  502  0.16687216164E+02 -0.20768154202E+02  0.34909465555E+03  0.39007801521E+03  0.17200000000E+03 0. -1.
</event>
<event>
 4    1  0.5739010E+000  0.2309820E+03  0.7818608E-02  0.1125950E+00
         21   -1    0    0  501  502  0.00000000000E+00  0.00000000000E+00  0.74615446243E+03  0.74615446243E+03  0.00000000000E+00 0.  1.
         21   -1    0    0  502  503 -0.00000000000E+00 -0.00000000000E+00 -0.88424861003E+02  0.88424861003E+02  0.00000000000E+00 0.  1.
          6    1    1    2  501    0 -0.13017874928E+03 -0.82596489038E+02  0.14632080950E+03  0.27342725917E+03  0.17200000000E+03 0. -1.
         -6    1    1    2    0  503  0.13017874928E+03  0.82596489038E+02  0.51140879193E+03  0.56115206426E+03  0.17200000000E+03 0. -1.
</event>
<event>
 4    1  0.5739010E+000  0.2133102E+03  0.7818608E-02  0.1138971E+00
         21   -1    0    0  503  502  0.00000000000E+00  0.00000000000E+00  0.22807854373E+04  0.22807854373E+04  0.00000000000E+00 0. -1.
         21   -1    0    0  501  503 -0.00000000000E+00 -0.00000000000E+00 -0.20228977227E+02  0.20228977227E+02  0.00000000000E+00 0. -1.
          6    1    1    2  501    0 -0.54090683450E+02 -0.11397995427E+03  0.12654344383E+04  0.12832870099E+04  0.17200000000E+03 0. -1.
         -6    1    1    2    0  502  0.54090683450E+02  0.11397995427E+03  0.99512202170E+03  0.10177274046E+04  0.17200000000E+03 0. -1.
</event>
<event>
 4    1  0.5739010E+000  0.1727050E+03  0.7818608E-02  0.1175056E+00
         21   -1    0    0  503  502  0.00000000000E+00  0.00000000000E+00  0.10864791918E+03  0.10864791918E+03  0.00000000000E+00 0. -1.
         21   -1    0    0  501  503 -0.00000000000E+00 -0.00000000000E+00 -0.68091263194E+03  0.68091263194E+03  0.00000000000E+00 0. -1.
          6    1    1    2  501    0  0.91574674015E+01 -0.12616105738E+02 -0.59111684513E+03  0.61582964360E+03  0.17200000000E+03 0. -1.
         -6    1    1    2    0  502 -0.91574674015E+01  0.12616105738E+02  0.18852132374E+02  0.17373090752E+03  0.17200000000E+03 0. -1.
</event>
<event>
 4    1  0.5739010E+000  0.2380313E+03  0.7818608E-02  0.1121111E+00
         21   -1    0    0  503  502  0.00000000000E+00  0.00000000000E+00  0.13305056452E+03  0.13305056452E+03  0.00000000000E+00 0.  1.
         21   -1    0    0  501  503 -0.00000000000E+00 -0.00000000000E+00 -0.42764410311E+03  0.42764410311E+03  0.00000000000E+00 0.  1.
          6    1    1    2  501    0 -0.16421775185E+03  0.10365773910E+02 -0.16548044684E+03  0.28990118589E+03  0.17200000000E+03 0.  1.
         -6    1    1    2    0  502  0.16421775185E+03 -0.10365773910E+02 -0.12911309175E+03  0.27079348174E+03  0.17200000000E+03 0.  1.
</event>
<event>
 4    1  0.5739010E+000  0.1809407E+03  0.7818608E-02  0.1166896E+00
         21   -1    0    0  503  502  0.00000000000E+00  0.00000000000E+00  0.85414810322E+02  0.85414810322E+02  0.00000000000E+00 0. -1.
         21   -1    0    0  501  503 -0.00000000000E+00 -0.00000000000E+00 -0.38336155360E+03  0.38336155360E+03  0.00000000000E+00 0.  1.
          6    1    1    2  501    0 -0.52851274985E+02  0.19033553107E+02 -0.14601371980E+03  0.23250707469E+03  0.17200000000E+03 0.  1.
         -6    1    1    2    0  502  0.52851274985E+02 -0.19033553107E+02 -0.15193302348E+03  0.23626928924E+03  0.17200000000E+03 0. -1.
</event>
<event>
 4    1  0.5739010E+000  0.2635807E+03  0.7818608E-02  0.1105011E+00
         21   -1    0    0  501  502  0.00000000000E+00  0.00000000000E+00  0.62461574672E+02  0.62461574672E+02  0.00000000000E+00 0. -1.
         21   -1    0    0  502  503 -0.00000000000E+00 -0.00000000000E+00 -0.14671912088E+04  0.14671912088E+04  0.00000000000E+00 0.  1.
          6    1    1    2  501    0 -0.19803216275E+03 -0.25962041244E+02 -0.32619900817E+03  0.41938116076E+03  0.17200000000E+03 0.  1.
         -6    1    1    2    0  503  0.19803216275E+03  0.25962041244E+02 -0.10785306260E+04  0.11102716227E+04  0.17200000000E+03 0.  1.
</event>
<event>
 4    1  0.5739010E+000  0.2049384E+03  0.7818608E-02  0.1145638E+00
         21   -1    0    0  503  502  0.00000000000E+00  0.00000000000E+00  0.17847277290E+03  0.17847277290E+03  0.00000000000E+00 0. -1.
         21   -1    0    0  501  503 -0.00000000000E+00 -0.00000000000E+00 -0.26036435464E+03  0.26036435464E+03  0.00000000000E+00 0.  1.
          6    1    1    2  501    0 -0.11080263862E+03 -0.11769850295E+02  0.27093948472E+02  0.20672163927E+03  0.17200000000E+03 0. -1.
         -6    1    1    2    0  502  0.11080263862E+03  0.11769850295E+02 -0.10898553021E+03  0.23211548827E+03  0.17200000000E+03 0.  1.
</event>
<event>
 4    1  0.5739010E+000  0.1958169E+03  0.7818608E-02  0.1153317E+00
         21   -1    0    0  503  502  0.00000000000E+00  0.00000000000E+00  0.23320700162E+03  0.23320700162E+03  0.00000000000E+00 0. -1.
         21   -1    0    0  501  503 -0.00000000000E+00 -0.00000000000E+00 -0.19250933408E+03  0.19250933408E+03  0.00000000000E+00 0.  1.
          6    1    1    2  501    0 -0.38723776252E+02 -0.85209869695E+02 -0.60957296835E+02  0.20508545726E+03  0.17200000000E+03 0.  1.
         -6    1    1    2    0  502  0.38723776252E+02  0.85209869695E+02  0.10165496438E+03  0.22063087845E+03  0.17200000000E+03 0. -1.
</event>
<event>
 4    1  0.5739010E+000  0.2263751E+03  0.7818608E-02  0.1129217E+00
         21   -1    0    0  501  502  0.00000000000E+00  0.00000000000E+00  0.30101886669E+03  0.30101886669E+03  0.00000000000E+00 0.  1.
         21   -1    0    0  502  503 -0.00000000000E+00 -0.00000000000E+00 -0.18078678405E+03  0.18078678405E+03  0.00000000000E+00 0.  1.
          6    1    1    2  501    0  0.14507866096E+03  0.24775976010E+02  0.11830008166E+03  0.25542234862E+03  0.17200000000E+03 0.  1.
         -6    1    1    2    0  503 -0.14507866096E+03 -0.24775976010E+02  0.19320009760E+01  0.22638330212E+03  0.17200000000E+03 0.  1.
</event>
<event>
 4    1  0.5739010E+000  0.2377918E+03  0.7818608E-02  0.1121273E+00
         21   -1    0    0  503  502  0.00000000000E+00  0.00000000000E+00  0.77900571574E+03  0.77900571574E+03  0.00000000000E+00 0.  1.
         21   -1    0    0  501  503 -0.00000000000E+00 -0.00000000000E+00 -0.10052360114E+03  0.10052360114E+03  0.00000000000E+00 0. -1.
          6    1    1    2  501    0 -0.11691300857E+03  0.11529219774E+03  0.10740524312E+03  0.26092303211E+03  0.17200000000E+03 0. -1.
         -6    1    1    2    0  502  0.11691300857E+03 -0.11529219774E+03  0.57107687147E+03  0.61860628477E+03  0.17200000000E+03 0.  1.
</event>
<event>
 4    1  0.5739010E+000  0.1809717E+03  0.7818608E-02  0.1166866E+00
         21   -1    0    0  501  502  0.00000000000E+00  0.00000000000E+00  0.10030927189E+03  0.10030927189E+03  0.00000000000E+00 0. -1.
         21   -1    0    0  502  503 -0.00000000000E+00 -0.00000000000E+00 -0.39478775128E+03  0.39478775128E+03  0.00000000000E+00 0. -1.
          6    1    1    2  501    0  0.55735442580E+02 -0.77652954688E+01 -0.44281871683E+02  0.18631055669E+03  0.17200000000E+03 0. -1.
         -6    1    1    2    0  503 -0.55735442580E+02  0.77652954688E+01 -0.25019660770E+03  0.30878646648E+03  0.17200000000E+03 0. -1.
</event>
<event>
 4    1  0.5739010E+000  0.1747223E+03  0.7818608E-02  0.1173011E+00
         21   -1    0    0  501  502  0.00000000000E+00  0.00000000000E+00  0.42053247615E+03  0.42053247615E+03  0.00000000000E+00 0.  1.
         21   -1    0    0  502  503 -0.00000000000E+00 -0.00000000000E+00 -0.83729610940E+02  0.83729610940E+02  0.00000000000E+00 0.  1.
          6    1    1    2  501    0 -0.23127920832E+02 -0.20222980279E+02  0.26035235567E+03  0.31354619876E+03  0.17200000000E+03 0.  1.
         -6    1    1    2    0  503  0.23127920832E+02  0.20222980279E+02  0.76450509542E+02  0.19071588833E+03  0.17200000000E+03 0.  1.
</event>
<event>
 4    1  0.5739010E+000  0.2399460E+03  0.7818608E-02  0.1119829E+00
         21   -1    0    0  501  502  0.00000000000E+00  0.00000000000E+00  0.40279538869E+03  0.40279538869E+03  0.00000000000E+00 0. -1.
         21   -1    0    0  502  503 -0.00000000000E+00 -0.00000000000E+00 -0.20718493690E+03  0.20718493690E+03  0.00000000000E+00 0. -1.
          6    1    1    2  501    0 -0.16638831144E+03 -0.17464755722E+02  0.26764470810E+03  0.35945483395E+03  0.17200000000E+03 0.  1.
         -6    1    1    2    0  503  0.16638831144E+03  0.17464755722E+02 -0.72034256321E+02  0.25052549164E+03  0.17200000000E+03 0.  1.
</event>
<event>
 4    1  0.5739010E+000  0.2902237E+03  0.7818608E-02  0.1090232E+00
         21   -1    0    0  501  502  0.00000000000E+00  0.00000000000E+00  0.58911593704E+02  0.58911593704E+02  0.00000000000E+00 0. -1.
         21   -1    0    0  502  503 -0.00000000000E+00 -0.00000000000E+00 -0.14411720890E+04  0.14411720890E+04  0.00000000000E+00 0. -1.
          6    1    1    2  501    0  0.22071404019E+03 -0.77013805134E+02 -0.62440511073E+03  0.68855759093E+03  0.17200000000E+03 0. -1.
         -6    1    1    2    0  503 -0.22071404019E+03  0.77013805134E+02 -0.75785538453E+03  0.81152609174E+03  0.17200000000E+03 0. -1.
</event>
<event>
 4    1  0.5739010E+000  0.1935907E+03  0.7818608E-02  0.1155262E+00
         21   -1    0    0  501  502  0.00000000000E+00  0.00000000000E+00  0.28768984784E+02  0.28768984784E+02  0.00000000000E+00 0. -1.
         21   -1    0    0  502  503 -0.00000000000E+00 -0.00000000000E+00 -0.13029668554E+04  0.13029668554E+04  0.00000000000E+00 0. -1.
          6    1    1    2  501    0  0.43188721313E+02  0.77640880873E+02 -0.64661854223E+03  0.67497623009E+03  0.17200000000E+03 0. -1.
         -6    1    1    2    0  503 -0.43188721313E+02 -0.77640880873E+02 -0.62757932838E+03  0.65675961009E+03  0.17200000000E+03 0. -1.
</event>
<event>
 4    1  0.5739010E+000  0.3703196E+03  0.7818608E-02  0.1054571E+00
         21   -1    0    0  503  502  0.00000000000E+00  0.00000000000E+00  0.38803801513E+03  0.38803801513E+03  0.00000000000E+00 0. -1.
         21   -1    0    0  501  503 -0.00000000000E+00 -0.00000000000E+00 -0.35389704597E+03  0.35389704597E+03  0.00000000000E+00 0.  1.
          6    1    1    2  501    0 -0.30782197642E+03  0.11312928459E+03  0.33117082798E+01  0.37033440512E+03  0.17200000000E+03 0.  1.
         -6    1    1    2    0  502  0.30782197642E+03 -0.11312928459E+03  0.30829260883E+02  0.37160065599E+03  0.17200000000E+03 0.  1.
</event>
<event>
 4    1  0.5739010E+000  0.4144872E+03  0.7818608E-02  0.1038876E+00
         21   -1    0    0  501  502  0.00000000000E+00  0.00000000000E+00  0.85302672821E+02  0.85302672821E+02  0.00000000000E+00 0. -1.
         21   -1    0    0  502  503 -0.00000000000E+00 -0.00000000000E+00 -0.20421421493E+04  0.20421421493E+04  0.00000000000E+00 0.  1.
          6    1    1    2  501    0 -0.36678413905E+03 -0.87664471112E+02 -0.11032893096E+04  0.11785783660E+04  0.17200000000E+03 0. -1.
         -6    1    1    2    0  503  0.36678413905E+03  0.87664471112E+02 -0.85355016690E+03  0.94886645613E+03  0.17200000000E+03 0. -1.
</event>
<event>
 4    1  0.5739010E+000  0.1900639E+03  0.7818608E-02  0.1158404E+00
         21   -1    0    0  503  502  0.00000000000E+00  0.00000000000E+00  0.88090500685E+03  0.88090500685E+03  0.00000000000E+00 0. -1.
         21   -1    0    0  501  503 -0.00000000000E+00 -0.00000000000E+00 -0.93367960274E+02  0.93367960274E+02  0.00000000000E+00 0. -1.
          6    1    1    2  501    0 -0.56078433499E+01 -0.80677280711E+02  0.28971895449E+02  0.19225930993E+03  0.17200000000E+03 0.  1.
         -6    1    1    2    0  502  0.56078433499E+01  0.80677280711E+02  0.75856515112E+03  0.78201365719E+03  0.17200000000E+03 0.  1.
</event>
<event>
 4    1  0.5739010E+000  0.1768982E+03  0.7818608E-02  0.1170839E+00
         21   -1    0    0  501  502  0.00000000000E+00  0.00000000000E+00  0.69072492029E+02  0.69072492029E+02  0.00000000000E+00 0. -1.
         21   -1    0    0  502  503 -0.00000000000E+00 -0.00000000000E+00 -0.10061155841E+04  0.10061155841E+04  0.00000000000E+00 0. -1.
          6    1    1    2  501    0  0.25048899131E+02 -0.32886314703E+02 -0.69936748924E+02  0.19022120253E+03  0.17200000000E+03 0. -1.
         -6    1    1    2    0  503 -0.25048899131E+02  0.32886314703E+02 -0.86710634319E+03  0.88496687364E+03  0.17200000000E+03 0. -1.
</event>
<event>
 4    1  0.5739010E+000  0.2571424E+03  0.7818608E-02  0.1108872E+00
         21   -1    0    0  503  502  0.00000000000E+00  0.00000000000E+00  0.79712285396E+03  0.79712285396E+03  0.00000000000E+00 0.  1.
         21   -1    0    0  501  503 -0.00000000000E+00 -0.00000000000E+00 -0.17422348031E+03  0.17422348031E+03  0.00000000000E+00 0. -1.
          6    1    1    2  501    0  0.17394376818E+03  0.79257543905E+02 -0.40078804112E+02  0.26024700439E+03  0.17200000000E+03 0. -1.
         -6    1    1    2    0  502 -0.17394376818E+03 -0.79257543905E+02  0.66297817776E+03  0.71109932987E+03  0.17200000000E+03 0.  1.
</event>
<event>
 4    1  0.5739010E+000  0.2201522E+03  0.7818608E-02  0.1133770E+00
         21   -1    0    0  503  502  0.00000000000E+00  0.00000000000E+00  0.20412027381E+03  0.20412027381E+03  0.00000000000E+00 0.  1.
         21   -1    0    0  501  503 -0.00000000000E+00 -0.00000000000E+00 -0.29417439272E+03  0.29417439272E+03  0.00000000000E+00 0.  1.
          6    1    1    2  501    0 -0.13647305210E+03 -0.16065243889E+02 -0.15443894083E+03  0.26892075497E+03  0.17200000000E+03 0.  1.
         -6    1    1    2    0  502  0.13647305210E+03  0.16065243889E+02  0.64384821916E+02  0.22937391156E+03  0.17200000000E+03 0.  1.
</event>
<event>
 4    1  0.5739010E+000  0.1739314E+03  0.7818608E-02  0.1173809E+00
         21   -1    0    0  503  502  0.00000000000E+00  0.00000000000E+00  0.25428180383E+03  0.25428180383E+03  0.00000000000E+00 0. -1.
         21   -1    0    0  501  503 -0.00000000000E+00 -0.00000000000E+00 -0.13002289968E+03  0.13002289968E+03  0.00000000000E+00 0. -1.
          6    1    1    2  501    0 -0.20323919970E+01 -0.25768146756E+02  0.11815121318E+03  0.21026611040E+03  0.17200000000E+03 0. -1.
         -6    1    1    2    0  502  0.20323919970E+01  0.25768146756E+02  0.61076909726E+01  0.17403859312E+03  0.17200000000E+03 0. -1.
</event>
<event>
 4    1  0.5739010E+000  0.1843406E+03  0.7818608E-02  0.1163667E+00
         21   -1    0    0  503  502  0.00000000000E+00  0.00000000000E+00  0.28482809167E+03  0.28482809167E+03  0.00000000000E+00 0.  1.
         21   -1    0    0  501  503 -0.00000000000E+00 -0.00000000000E+00 -0.14313442777E+03  0.14313442777E+03  0.00000000000E+00 0.  1.
          6    1    1    2  501    0  0.61998386157E+02 -0.23530297251E+02 -0.16462084110E+02  0.18507424183E+03  0.17200000000E+03 0.  1.
         -6    1    1    2    0  502 -0.61998386157E+02  0.23530297251E+02  0.15815574801E+03  0.24288827762E+03  0.17200000000E+03 0.  1.
</event>
<event>
 4    1  0.5739010E+000  0.1740304E+03  0.7818608E-02  0.1173709E+00
         21   -1    0    0  503  502  0.00000000000E+00  0.00000000000E+00  0.53344203172E+02  0.53344203172E+02  0.00000000000E+00 0.  1.
         21   -1    0    0  501  503 -0.00000000000E+00 -0.00000000000E+00 -0.83436395152E+03  0.83436395152E+03  0.00000000000E+00 0.  1.
          6    1    1    2  501    0 -0.11105981987E+02  0.24067253566E+02 -0.64140817051E+03  0.66459838755E+03  0.17200000000E+03 0.  1.
         -6    1    1    2    0  502  0.11105981987E+02 -0.24067253566E+02 -0.13961157784E+03  0.22310976715E+03  0.17200000000E+03 0.  1.
</event>
<event>
 4    1  0.5739010E+000  0.2001773E+03  0.7818608E-02  0.1149590E+00
         21   -1    0    0  501  502  0.00000000000E+00  0.00000000000E+00  0.14017872789E+03  0.14017872789E+03  0.00000000000E+00 0.  1.
         21   -1    0    0  502  503 -0.00000000000E+00 -0.00000000000E+00 -0.54118199256E+03  0.54118199256E+03  0.00000000000E+00 0.  1.
          6    1    1    2  501    0 -0.10239374153E+03  0.15712468363E+01  0.33502131219E+02  0.20296142470E+03  0.17200000000E+03 0.  1.
         -6    1    1    2    0  503  0.10239374153E+03 -0.15712468363E+01 -0.43450539589E+03  0.47839929575E+03  0.17200000000E+03 0.  1.
</event>
<event>
 4    1  0.5739010E+000  0.2000809E+03  0.7818608E-02  0.1149671E+00
         21   -1    0    0  503  502  0.00000000000E+00  0.00000000000E+00  0.15651922802E+04  0.15651922802E+04  0.00000000000E+00 0. -1.
         21   -1    0    0  501  503 -0.00000000000E+00 -0.00000000000E+00 -0.14325326077E+03  0.14325326077E+03  0.00000000000E+00 0. -1.
          6    1    1    2  501    0  0.46815549853E+01 -0.10210995921E+03 -0.63249764063E+02  0.20984016150E+03  0.17200000000E+03 0. -1.
         -6    1    1    2    0  502 -0.46815549853E+01  0.10210995921E+03  0.14851887835E+04  0.14986053795E+04  0.17200000000E+03 0. -1.
</event>
<event>
 4    1  0.5739010E+000  0.1778003E+03  0.7818608E-02  0.1169949E+00
         21   -1    0    0  501  502  0.00000000000E+00  0.00000000000E+00  0.11036827237E+03  0.11036827237E+03  0.00000000000E+00 0.  1.
         21   -1    0    0  502  503 -0.00000000000E+00 -0.00000000000E+00 -0.56754201807E+03  0.56754201807E+03  0.00000000000E+00 0.  1.
          6    1    1    2  501    0 -0.43505340184E+02 -0.11671667513E+02  0.99644449083E+01  0.17807928742E+03  0.17200000000E+03 0.  1.
         -6    1    1    2    0  503  0.43505340184E+02  0.11671667513E+02 -0.46713819061E+03  0.49983100302E+03  0.17200000000E+03 0.  1.
</event>
<event>
 4    1  0.5739010E+000  0.2694370E+03  0.7818608E-02  0.1101602E+00
         21   -1    0    0  501  502  0.00000000000E+00  0.00000000000E+00  0.55355219240E+03  0.55355219240E+03  0.00000000000E+00 0. -1.
         21   -1    0    0  502  503 -0.00000000000E+00 -0.00000000000E+00 -0.20795435204E+03  0.20795435204E+03  0.00000000000E+00 0.  1.
          6    1    1    2  501    0 -0.17388232989E+03 -0.11303649776E+03  0.40419875835E+03  0.48577047124E+03  0.17200000000E+03 0. -1.
         -6    1    1    2    0  503  0.17388232989E+03  0.11303649776E+03 -0.58600917993E+02  0.27573607320E+03  0.17200000000E+03 0.  1.
</event>
<event>
 4    1  0.5739010E+000  0.1728234E+03  0.7818608E-02  0.1174935E+00
         21   -1    0    0  503  502  0.00000000000E+00  0.00000000000E+00  0.87469150978E+02  0.87469150978E+02  0.00000000000E+00 0. -1.
         21   -1    0    0  501  503 -0.00000000000E+00 -0.00000000000E+00 -0.39282034890E+03  0.39282034890E+03  0.00000000000E+00 0. -1.
          6    1    1    2  501    0 -0.11796654505E+02 -0.12032034593E+02 -0.65848448989E+02  0.18494309705E+03  0.17200000000E+03 0.  1.
         -6    1    1    2    0  502  0.11796654505E+02  0.12032034593E+02 -0.23950274893E+03  0.29534640282E+03  0.17200000000E+03 0.  1.
</event>
<event>
 4    1  0.5739010E+000  0.1822921E+03  0.7818608E-02  0.1165603E+00
         21   -1    0    0  501  502  0.00000000000E+00  0.00000000000E+00  0.26401267401E+03  0.26401267401E+03  0.00000000000E+00 0. -1.
         21   -1    0    0  502  503 -0.00000000000E+00 -0.00000000000E+00 -0.14320067846E+03  0.14320067846E+03  0.00000000000E+00 0. -1.
          6    1    1    2  501    0 -0.43597537339E+02  0.41780983168E+02 -0.10432442906E+02  0.18259033841E+03  0.17200000000E+03 0. -1.
         -6    1    1    2    0  503  0.43597537339E+02 -0.41780983168E+02  0.13124443846E+03  0.22462301406E+03  0.17200000000E+03 0. -1.
</event>
<event>
 4    1  0.5739010E+000  0.1771582E+03  0.7818608E-02  0.1170582E+00
         21   -1    0    0  501  502  0.00000000000E+00  0.00000000000E+00  0.21132694727E+03  0.21132694727E+03  0.00000000000E+00 0. -1.
         21   -1    0    0  502  503 -0.00000000000E+00 -0.00000000000E+00 -0.24714984513E+03  0.24714984513E+03  0.00000000000E+00 0. -1.
          6    1    1    2  501    0  0.38403244331E+02  0.18061342313E+02  0.12690718962E+03  0.21792305073E+03  0.17200000000E+03 0. -1.
         -6    1    1    2    0  503 -0.38403244331E+02 -0.18061342313E+02 -0.16273008748E+03  0.24055374167E+03  0.17200000000E+03 0. -1.
</event>
<event>
 4    1  0.5739010E+000  0.1800253E+03  0.7818608E-02  0.1167779E+00
         21   -1    0    0  503  502  0.00000000000E+00  0.00000000000E+00  0.24552431151E+03  0.24552431151E+03  0.00000000000E+00 0.  1.
         21   -1    0    0  501  503 -0.00000000000E+00 -0.00000000000E+00 -0.13387392807E+03  0.13387392807E+03  0.00000000000E+00 0.  1.
          6    1    1    2  501    0  0.16142210943E+02  0.50641372998E+02  0.78271038863E+02  0.19630454696E+03  0.17200000000E+03 0.  1.
         -6    1    1    2    0  502 -0.16142210943E+02 -0.50641372998E+02  0.33379344581E+02  0.18309369262E+03  0.17200000000E+03 0.  1.
</event>
<event>
 4    1  0.5739010E+000  0.1878375E+03  0.7818608E-02  0.1160426E+00
         21   -1    0    0  501  502  0.00000000000E+00  0.00000000000E+00  0.40483110352E+03  0.40483110352E+03  0.00000000000E+00 0.  1.
         21   -1    0    0  502  503 -0.00000000000E+00 -0.00000000000E+00 -0.14022106101E+03  0.14022106101E+03  0.00000000000E+00 0.  1.
          6    1    1    2  501    0  0.21095596986E+02  0.72483774310E+02 -0.35347936485E+02  0.19113450333E+03  0.17200000000E+03 0.  1.
         -6    1    1    2    0  503 -0.21095596986E+02 -0.72483774310E+02  0.29995797899E+03  0.35391766120E+03  0.17200000000E+03 0.  1.
</event>
<event>
 4    1  0.5739010E+000  0.3296840E+03  0.7818608E-02  0.1071277E+00
         21   -1    0    0  501  502  0.00000000000E+00  0.00000000000E+00  0.15831482845E+04  0.15831482845E+04  0.00000000000E+00 0.  1.
         21   -1    0    0  502  503 -0.00000000000E+00 -0.00000000000E+00 -0.68698857986E+02  0.68698857986E+02  0.00000000000E+00 0.  1.
          6    1    1    2  501    0 -0.14184134466E+03 -0.24287568522E+03  0.73643459776E+03  0.80686274068E+03  0.17200000000E+03 0.  1.
         -6    1    1    2    0  503  0.14184134466E+03  0.24287568522E+03  0.77801482872E+03  0.84498440177E+03  0.17200000000E+03 0.  1.
</event>
<event>
 4    1  0.5739010E+000  0.1723735E+03  0.7818608E-02  0.1175395E+00
         21   -1    0    0  501  502  0.00000000000E+00  0.00000000000E+00  0.36014540809E+03  0.36014540809E+03  0.00000000000E+00 0.  1.
         21   -1    0    0  502  503 -0.00000000000E+00 -0.00000000000E+00 -0.27273872037E+03  0.27273872037E+03  0.00000000000E+00 0.  1.
          6    1    1    2  501    0 -0.55756803478E+01 -0.98761352090E+01  0.30798576121E+03  0.35294171667E+03  0.17200000000E+03 0.  1.
         -6    1    1    2    0  503  0.55756803478E+01  0.98761352090E+01 -0.22057907348E+03  0.27994241179E+03  0.17200000000E+03 0.  1.
</event>
<event>
 4    1  0.5739010E+000  0.2119678E+03  0.7818608E-02  0.1140017E+00
         21   -1    0    0  501  502  0.00000000000E+00  0.00000000000E+00  0.13313171526E+03  0.13313171526E+03  0.00000000000E+00 0. -1.
         21   -1    0    0  502  503 -0.00000000000E+00 -0.00000000000E+00 -0.33749357805E+03  0.33749357805E+03  0.00000000000E+00 0. -1.
          6    1    1    2  501    0  0.10698436136E+03  0.62455387972E+02 -0.10315497947E+03  0.23573561218E+03  0.17200000000E+03 0. -1.
         -6    1    1    2    0  503 -0.10698436136E+03 -0.62455387972E+02 -0.10120688332E+03  0.23488968112E+03  0.17200000000E+03 0. -1.
</event>
<event>
 4    1  0.5739010E+000  0.2250364E+03  0.7818608E-02  0.1130183E+00
         21   -1    0    0  501  502  0.00000000000E+00  0.00000000000E+00  0.10423049575E+03  0.10423049575E+03  0.00000000000E+00 0. -1.
         21   -1    0    0  502  503 -0.00000000000E+00 -0.00000000000E+00 -0.55780775180E+03  0.55780775180E+03  0.00000000000E+00 0. -1.
          6    1    1    2  501    0  0.66551632576E+02 -0.12895068118E+03 -0.10790547507E+03  0.24956960858E+03  0.17200000000E+03 0. -1.
         -6    1    1    2    0  503 -0.66551632576E+02  0.12895068118E+03 -0.34567178097E+03  0.41246863897E+03  0.17200000000E+03 0. -1.
</event>
<event>
 4    1  0.5739010E+000  0.2246800E+03  0.7818608E-02  0.1130441E+00
         21   -1    0    0  503  502  0.00000000000E+00  0.00000000000E+00  0.17440042891E+03  0.17440042891E+03  0.00000000000E+00 0.  1.
         21   -1    0    0  501  503 -0.00000000000E+00 -0.00000000000E+00 -0.86867962527E+03  0.86867962527E+03  0.00000000000E+00 0.  1.
          6    1    1    2  501    0  0.36213603189E+02 -0.13994885961E+03 -0.77301373560E+03  0.80500394023E+03  0.17200000000E+03 0.  1.
         -6    1    1    2    0  502 -0.36213603189E+02  0.13994885961E+03  0.78734539237E+02  0.23807611395E+03  0.17200000000E+03 0.  1.
</event>
<event>
 4    1  0.5739010E+000  0.1805817E+03  0.7818608E-02  0.1167241E+00
         21   -1    0    0  503  502  0.00000000000E+00  0.00000000000E+00  0.62978337915E+03  0.62978337915E+03  0.00000000000E+00 0. -1.
         21   -1    0    0  501  503 -0.00000000000E+00 -0.00000000000E+00 -0.52402522401E+02  0.52402522401E+02  0.00000000000E+00 0.  1.
          6    1    1    2  501    0 -0.51514543165E+02  0.19287478216E+02  0.32588771728E+03  0.37257557522E+03  0.17200000000E+03 0. -1.
         -6    1    1    2    0  502  0.51514543165E+02 -0.19287478216E+02  0.25149313947E+03  0.30961032633E+03  0.17200000000E+03 0. -1.
</event>
<event>
 4    1  0.5739010E+000  0.1923573E+03  0.7818608E-02  0.1156352E+00
         21   -1    0    0  503  502  0.00000000000E+00  0.00000000000E+00  0.80853753096E+03  0.80853753096E+03  0.00000000000E+00 0. -1.
         21   -1    0    0  501  503 -0.00000000000E+00 -0.00000000000E+00 -0.47374547094E+02  0.47374547094E+02  0.00000000000E+00 0. -1.
          6    1    1    2  501    0 -0.84402012567E+02  0.17135534181E+02  0.45950582484E+03  0.49814348266E+03  0.17200000000E+03 0. -1.
         -6    1    1    2    0  502  0.84402012567E+02 -0.17135534181E+02  0.30165715903E+03  0.35776859540E+03  0.17200000000E+03 0. -1.
</event>
<event>
 4    1  0.5739010E+000  0.2159546E+03  0.7818608E-02  0.1136935E+00
         21   -1    0    0  501  502  0.00000000000E+00  0.00000000000E+00  0.40223073209E+03  0.40223073209E+03  0.00000000000E+00 0. -1.
         21   -1    0    0  502  503 -0.00000000000E+00 -0.00000000000E+00 -0.16758038045E+03  0.16758038045E+03  0.00000000000E+00 0. -1.
          6    1    1    2  501    0  0.10318463747E+03  0.80033240173E+02  0.27547389238E+03  0.35003179045E+03  0.17200000000E+03 0. -1.
         -6    1    1    2    0  503 -0.10318463747E+03 -0.80033240173E+02 -0.40823540741E+02  0.21977932210E+03  0.17200000000E+03 0. -1.
</event>
<event>
 4    1  0.5739010E+000  0.2146851E+03  0.7818608E-02  0.1137909E+00
         21   -1    0    0  501  502  0.00000000000E+00  0.00000000000E+00  0.15195821255E+03  0.15195821255E+03  0.00000000000E+00 0.  1.
         21   -1    0    0  502  503 -0.00000000000E+00 -0.00000000000E+00 -0.30911508152E+03  0.30911508152E+03  0.00000000000E+00 0.  1.
          6    1    1    2  501    0 -0.50417609196E+02  0.11816838995E+03 -0.11018421722E+03  0.24130948059E+03  0.17200000000E+03 0.  1.
         -6    1    1    2    0  503  0.50417609196E+02 -0.11816838995E+03 -0.46972651759E+02  0.21976381348E+03  0.17200000000E+03 0.  1.
</event>
<event>
 4    1  0.5739010E+000  0.1737238E+03  0.7818608E-02  0.1174019E+00
         21   -1    0    0  501  502  0.00000000000E+00  0.00000000000E+00  0.93679990816E+03  0.93679990816E+03  0.00000000000E+00 0. -1.
         21   -1    0    0  502  503 -0.00000000000E+00 -0.00000000000E+00 -0.38370124533E+02  0.38370124533E+02  0.00000000000E+00 0. -1.
          6    1    1    2  501    0  0.10982013160E+02 -0.21802974804E+02  0.64448502124E+03  0.66748851445E+03  0.17200000000E+03 0. -1.
         -6    1    1    2    0  503 -0.10982013160E+02  0.21802974804E+02  0.25394476239E+03  0.30768151824E+03  0.17200000000E+03 0. -1.
</event>
<event>
 4    1  0.5739010E+000  0.2601981E+03  0.7818608E-02  0.1107024E+00
         21   -1    0    0  501  502  0.00000000000E+00  0.00000000000E+00  0.81088133223E+02  0.81088133223E+02  0.00000000000E+00 0. -1.
         21   -1    0    0  502  503 -0.00000000000E+00 -0.00000000000E+00 -0.85950575788E+03  0.85950575788E+03  0.00000000000E+00 0. -1.
          6    1    1    2  501    0 -0.10876789079E+03 -0.16213756717E+03 -0.30968684944E+03  0.40448608069E+03  0.17200000000E+03 0. -1.
         -6    1    1    2    0  503  0.10876789079E+03  0.16213756717E+03 -0.46873077521E+03  0.53610781041E+03  0.17200000000E+03 0. -1.
</event>
<event>
 4    1  0.5739010E+000  0.2057495E+03  0.7818608E-02  0.1144977E+00
         21   -1    0    0  503  502  0.00000000000E+00  0.00000000000E+00  0.55354050045E+03  0.55354050045E+03  0.00000000000E+00 0.  1.
         21   -1    0    0  501  503 -0.00000000000E+00 -0.00000000000E+00 -0.77586601462E+02  0.77586601462E+02  0.00000000000E+00 0.  1.
          6    1    1    2  501    0  0.75055264362E+02 -0.84353896105E+02  0.27572229043E+03  0.34402856558E+03  0.17200000000E+03 0.  1.
         -6    1    1    2    0  502 -0.75055264362E+02  0.84353896105E+02  0.20023160855E+03  0.28709853632E+03  0.17200000000E+03 0.  1.
</event>
<event>
 4    1  0.5739010E+000  0.3771295E+03  0.7818608E-02  0.1052000E+00
         21   -1    0    0  503  502  0.00000000000E+00  0.00000000000E+00  0.43566535397E+03  0.43566535397E+03  0.00000000000E+00 0. -1.
         21   -1    0    0  501  503 -0.00000000000E+00 -0.00000000000E+00 -0.55353118647E+03  0.55353118647E+03  0.00000000000E+00 0. -1.
          6    1    1    2  501    0 -0.29203290397E+03 -0.16540698453E+03 -0.37571742083E+03  0.53234412540E+03  0.17200000000E+03 0. -1.
         -6    1    1    2    0  502  0.29203290397E+03  0.16540698453E+03  0.25785158832E+03  0.45685241504E+03  0.17200000000E+03 0. -1.
</event>
<event>
 4    1  0.5739010E+000  0.1888926E+03  0.7818608E-02  0.1159464E+00
         21   -1    0    0  501  502  0.00000000000E+00  0.00000000000E+00  0.15543368913E+03  0.15543368913E+03  0.00000000000E+00 0.  1.
         21   -1    0    0  502  503 -0.00000000000E+00 -0.00000000000E+00 -0.45626933842E+03  0.45626933842E+03  0.00000000000E+00 0. -1.
          6    1    1    2  501    0 -0.10040021405E+02  0.77431442708E+02  0.65178032376E+02  0.19982143592E+03  0.17200000000E+03 0.  1.
         -6    1    1    2    0  503  0.10040021405E+02 -0.77431442708E+02 -0.36601368167E+03  0.41188159163E+03  0.17200000000E+03 0. -1.
</event>
<event>
 4    1  0.5739010E+000  0.1750120E+03  0.7818608E-02  0.1172720E+00
         21   -1    0    0  501  502  0.00000000000E+00  0.00000000000E+00  0.30908598484E+03  0.30908598484E+03  0.00000000000E+00 0. -1.
         21   -1    0    0  502  503 -0.00000000000E+00 -0.00000000000E+00 -0.11085741102E+03  0.11085741102E+03  0.00000000000E+00 0. -1.
          6    1    1    2  501    0  0.31283530282E+02  0.81573575594E+01  0.16750656857E+03  0.24225534517E+03  0.17200000000E+03 0. -1.
         -6    1    1    2    0  503 -0.31283530282E+02 -0.81573575594E+01  0.30722005246E+02  0.17768805068E+03  0.17200000000E+03 0. -1.
</event>
<event>
 4    1  0.5739010E+000  0.3022968E+03  0.7818608E-02  0.1084098E+00
         21   -1    0    0  501  502  0.00000000000E+00  0.00000000000E+00  0.92882247149E+02  0.92882247149E+02  0.00000000000E+00 0. -1.
         21   -1    0    0  502  503 -0.00000000000E+00 -0.00000000000E+00 -0.99524977836E+03  0.99524977836E+03  0.00000000000E+00 0. -1.
          6    1    1    2  501    0  0.67464400325E+02  0.23926530215E+03 -0.39298662719E+03  0.49580421466E+03  0.17200000000E+03 0. -1.
         -6    1    1    2    0  503 -0.67464400325E+02 -0.23926530215E+03 -0.50938090402E+03  0.59232781085E+03  0.17200000000E+03 0. -1.
</event>
<event>
 4    1  0.5739010E+000  0.2476967E+03  0.7818608E-02  0.1114769E+00
         21   -1    0    0  501  502  0.00000000000E+00  0.00000000000E+00  0.12075462945E+04  0.12075462945E+04  0.00000000000E+00 0. -1.
         21   -1    0    0  502  503 -0.00000000000E+00 -0.00000000000E+00 -0.50881983875E+02  0.50881983875E+02  0.00000000000E+00 0.  1.
          6    1    1    2  501    0  0.69708658852E+02 -0.16404375409E+03  0.60223932210E+03  0.65118803080E+03  0.17200000000E+03 0. -1.
         -6    1    1    2    0  503 -0.69708658852E+02  0.16404375409E+03  0.55442498855E+03  0.60724024760E+03  0.17200000000E+03 0.  1.
</event>
<event>
 4    1  0.5739010E+000  0.3061959E+03  0.7818608E-02  0.1082184E+00
         21   -1    0    0  503  502  0.00000000000E+00  0.00000000000E+00  0.24896679578E+03  0.24896679578E+03  0.00000000000E+00 0.  1.
         21   -1    0    0  501  503 -0.00000000000E+00 -0.00000000000E+00 -0.55635044818E+03  0.55635044818E+03  0.00000000000E+00 0. -1.
          6    1    1    2  501    0  0.22722242784E+03  0.11199056029E+03 -0.38257924724E+03  0.49002326243E+03  0.17200000000E+03 0. -1.
         -6    1    1    2    0  502 -0.22722242784E+03 -0.11199056029E+03  0.75195594835E+02  0.31529398153E+03  0.17200000000E+03 0.  1.
</event>
<event>
 4    1  0.5739010E+000  0.1914165E+03  0.7818608E-02  0.1157190E+00
         21   -1    0    0  501  502  0.00000000000E+00  0.00000000000E+00  0.28672970064E+03  0.28672970064E+03  0.00000000000E+00 0.  1.
         21   -1    0    0  502  503 -0.00000000000E+00 -0.00000000000E+00 -0.13373173981E+03  0.13373173981E+03  0.00000000000E+00 0. -1.
          6    1    1    2  501    0  0.72166445733E+02  0.42991773699E+02  0.12082415162E+03  0.22635981116E+03  0.17200000000E+03 0.  1.
         -6    1    1    2    0  503 -0.72166445733E+02 -0.42991773699E+02  0.32173809216E+02  0.19410162929E+03  0.17200000000E+03 0. -1.
</event>
<event>
 4    1  0.5739010E+000  0.1989955E+03  0.7818608E-02  0.1150589E+00
         21   -1    0    0  501  502  0.00000000000E+00  0.00000000000E+00  0.45272774339E+03  0.45272774339E+03  0.00000000000E+00 0. -1.
         21   -1    0    0  502  503 -0.00000000000E+00 -0.00000000000E+00 -0.91734499393E+02  0.91734499393E+02  0.00000000000E+00 0.  1.
          6    1    1    2  501    0 -0.68991715230E+01 -0.99837843889E+02  0.12178732386E+03  0.23330526332E+03  0.17200000000E+03 0.  1.
         -6    1    1    2    0  503  0.68991715230E+01  0.99837843889E+02  0.23920592013E+03  0.31115697946E+03  0.17200000000E+03 0. -1.
</event>
<event>
 4    1  0.5739010E+000  0.1924399E+03  0.7818608E-02  0.1156279E+00
         21   -1    0    0  501  502  0.00000000000E+00  0.00000000000E+00  0.32984999011E+02  0.32984999011E+02  0.00000000000E+00 0. -1.
         21   -1    0    0  502  503 -0.00000000000E+00 -0.00000000000E+00 -0.11475391570E+04  0.11475391570E+04  0.00000000000E+00 0. -1.
          6    1    1    2  501    0 -0.80270410975E+02  0.31714064628E+02 -0.64407331072E+03  0.67220796660E+03  0.17200000000E+03 0. -1.
         -6    1    1    2    0  503  0.80270410975E+02 -0.31714064628E+02 -0.47048084726E+03  0.50831618940E+03  0.17200000000E+03 0. -1.
</event>
<event>
 4    1  0.5739010E+000  0.2555011E+03  0.7818608E-02  0.1109877E+00
         21   -1    0    0  501  502  0.00000000000E+00  0.00000000000E+00  0.10394187211E+03  0.10394187211E+03  0.00000000000E+00 0.  1.
         21   -1    0    0  502  503 -0.00000000000E+00 -0.00000000000E+00 -0.62840915280E+03  0.62840915280E+03  0.00000000000E+00 0. -1.
          6    1    1    2  501    0 -0.14514550061E+03  0.12095285937E+03 -0.27097384522E+03  0.37243473969E+03  0.17200000000E+03 0. -1.
         -6    1    1    2    0  503  0.14514550061E+03 -0.12095285937E+03 -0.25349343547E+03  0.35991628521E+03  0.17200000000E+03 0.  1.
</event>
<event>
 4    1  0.5739010E+000  0.2530944E+03  0.7818608E-02  0.1111365E+00
         21   -1    0    0  501  502  0.00000000000E+00  0.00000000000E+00  0.18090092461E+03  0.18090092461E+03  0.00000000000E+00 0.  1.
         21   -1    0    0  502  503 -0.00000000000E+00 -0.00000000000E+00 -0.35431954417E+03  0.35431954417E+03  0.00000000000E+00 0. -1.
          6    1    1    2  501    0 -0.15331002167E+03 -0.10473207507E+03 -0.93391410806E+02  0.26977532486E+03  0.17200000000E+03 0. -1.
         -6    1    1    2    0  503  0.15331002167E+03  0.10473207507E+03 -0.80027208754E+02  0.26544514392E+03  0.17200000000E+03 0.  1.
</event>
<event>
 4    1  0.5739010E+000  0.2273198E+03  0.7818608E-02  0.1128541E+00
         21   -1    0    0  501  502  0.00000000000E+00  0.00000000000E+00  0.18007131656E+03  0.18007131656E+03  0.00000000000E+00 0.  1.
         21   -1    0    0  502  503 -0.00000000000E+00 -0.00000000000E+00 -0.36119237580E+03  0.36119237580E+03  0.00000000000E+00 0.  1.
          6    1    1    2  501    0 -0.41689436008E+01  0.14856956784E+03  0.32123924421E+02  0.22957840295E+03  0.17200000000E+03 0.  1.
         -6    1    1    2    0  503  0.41689436008E+01 -0.14856956784E+03 -0.21324498366E+03  0.31168528941E+03  0.17200000000E+03 0.  1.
</event>
<event>
 4    1  0.5739010E+000  0.1794203E+03  0.7818608E-02  0.1168365E+00
         21   -1    0    0  503  502  0.00000000000E+00  0.00000000000E+00  0.61531558498E+02  0.61531558498E+02  0.00000000000E+00 0. -1.
         21   -1    0    0  501  503 -0.00000000000E+00 -0.00000000000E+00 -0.72014963418E+03  0.72014963418E+03  0.00000000000E+00 0. -1.
          6    1    1    2  501    0 -0.49215155482E+02  0.13619695986E+02 -0.53371617353E+03  0.56306711992E+03  0.17200000000E+03 0. -1.
         -6    1    1    2    0  502  0.49215155482E+02 -0.13619695986E+02 -0.12490190216E+03  0.21861407276E+03  0.17200000000E+03 0. -1.
</event>
<event>
 4    1  0.5739010E+000  0.1896650E+03  0.7818608E-02  0.1158764E+00
         21   -1    0    0  503  502  0.00000000000E+00  0.00000000000E+00  0.51871519709E+03  0.51871519709E+03  0.00000000000E+00 0. -1.
         21   -1    0    0  501  503 -0.00000000000E+00 -0.00000000000E+00 -0.84415877474E+02  0.84415877474E+02  0.00000000000E+00 0. -1.
          6    1    1    2  501    0  0.40261348166E+02 -0.69049556800E+02  0.89749750513E+02  0.20982810862E+03  0.17200000000E+03 0.  1.
         -6    1    1    2    0  502 -0.40261348166E+02  0.69049556800E+02  0.34454956911E+03  0.39330296595E+03  0.17200000000E+03 0.  1.
</event>
<event>
 4    1  0.5739010E+000  0.2281442E+03  0.7818608E-02  0.1127953E+00
         21   -1    0    0  501  502  0.00000000000E+00  0.00000000000E+00  0.38570174660E+03  0.38570174660E+03  0.00000000000E+00 0. -1.
         21   -1    0    0  502  503 -0.00000000000E+00 -0.00000000000E+00 -0.13992593659E+03  0.13992593659E+03  0.00000000000E+00 0. -1.
          6    1    1    2  501    0  0.48672096522E+02  0.14176322974E+03  0.73318728622E+02  0.23963602036E+03  0.17200000000E+03 0. -1.
         -6    1    1    2    0  503 -0.48672096522E+02 -0.14176322974E+03  0.17245708139E+03  0.28599166283E+03  0.17200000000E+03 0. -1.
</event>
<event>
 4    1  0.5739010E+000  0.2104097E+03  0.7818608E-02  0.1141242E+00
         21   -1    0    0  501  502  0.00000000000E+00  0.00000000000E+00  0.60576305949E+02  0.60576305949E+02  0.00000000000E+00 0.  1.
         21   -1    0    0  502  503 -0.00000000000E+00 -0.00000000000E+00 -0.79556498815E+03  0.79556498815E+03  0.00000000000E+00 0.  1.
          6    1    1    2  501    0  0.85183279658E+02  0.86209312606E+02 -0.24540502923E+03  0.32325820188E+03  0.17200000000E+03 0. -1.
         -6    1    1    2    0  503 -0.85183279658E+02 -0.86209312606E+02 -0.48958365297E+03  0.53288309221E+03  0.17200000000E+03 0. -1.
</event>
<event>
 4    1  0.5739010E+000  0.2070583E+03  0.7818608E-02  0.1143917E+00
         21   -1    0    0  501  502  0.00000000000E+00  0.00000000000E+00  0.35213425424E+02  0.35213425424E+02  0.00000000000E+00 0. -1.
         21   -1    0    0  502  503 -0.00000000000E+00 -0.00000000000E+00 -0.12527954514E+04  0.12527954514E+04  0.00000000000E+00 0. -1.
          6    1    1    2  501    0  0.10013025133E+03 -0.57123291725E+02 -0.50072983735E+03  0.54185192414E+03  0.17200000000E+03 0. -1.
         -6    1    1    2    0  503 -0.10013025133E+03  0.57123291725E+02 -0.71685218861E+03  0.74615695266E+03  0.17200000000E+03 0. -1.
</event>
<event>
 4    1  0.5739010E+000  0.3414945E+03  0.7818608E-02  0.1066161E+00
         21   -1    0    0  503  502  0.00000000000E+00  0.00000000000E+00  0.96398718628E+03  0.96398718628E+03  0.00000000000E+00 0.  1.
         21   -1    0    0  501  503 -0.00000000000E+00 -0.00000000000E+00 -0.26661008476E+03  0.26661008476E+03  0.00000000000E+00 0.  1.
          6    1    1    2  501    0 -0.82038985696E+01 -0.29490198771E+03 -0.10606956768E+03  0.35758808634E+03  0.17200000000E+03 0.  1.
         -6    1    1    2    0  502  0.82038985696E+01  0.29490198771E+03  0.80344666920E+03  0.87300918469E+03  0.17200000000E+03 0.  1.
</event>
<event>
 4    1  0.5739010E+000  0.1944467E+03  0.7818608E-02  0.1154511E+00
         21   -1    0    0  501  502  0.00000000000E+00  0.00000000000E+00  0.49381853424E+03  0.49381853424E+03  0.00000000000E+00 0.  1.
         21   -1    0    0  502  503 -0.00000000000E+00 -0.00000000000E+00 -0.94657876483E+02  0.94657876483E+02  0.00000000000E+00 0.  1.
          6    1    1    2  501    0 -0.73468622436E+02 -0.53177947877E+02  0.32821759450E+03  0.38149223054E+03  0.17200000000E+03 0.  1.
         -6    1    1    2    0  503  0.73468622436E+02  0.53177947877E+02  0.70943063262E+02  0.20698418019E+03  0.17200000000E+03 0.  1.
</event>
<event>
 4    1  0.5739010E+000  0.2264722E+03  0.7818608E-02  0.1129148E+00
         21   -1    0    0  503  502  0.00000000000E+00  0.00000000000E+00  0.89800690607E+03  0.89800690607E+03  0.00000000000E+00 0.  1.
         21   -1    0    0  501  503 -0.00000000000E+00 -0.00000000000E+00 -0.67884943268E+02  0.67884943268E+02  0.00000000000E+00 0.  1.
          6    1    1    2  501    0  0.14595981442E+03 -0.20034209354E+02  0.22269906258E+03  0.31762321931E+03  0.17200000000E+03 0.  1.
         -6    1    1    2    0  502 -0.14595981442E+03  0.20034209354E+02  0.60742290021E+03  0.64826863003E+03  0.17200000000E+03 0.  1.
</event>
<event>
 4    1  0.5739010E+000  0.2736571E+03  0.7818608E-02  0.1099205E+00
         21   -1    0    0  503  502  0.00000000000E+00  0.00000000000E+00  0.12217411028E+04  0.12217411028E+04  0.00000000000E+00 0.  1.
         21   -1    0    0  501  503 -0.00000000000E+00 -0.00000000000E+00 -0.64234978347E+02  0.64234978347E+02  0.00000000000E+00 0. -1.
          6    1    1    2  501    0 -0.18241764582E+03  0.10967234701E+03  0.44122465852E+03  0.51919882558E+03  0.17200000000E+03 0. -1.
         -6    1    1    2    0  502  0.18241764582E+03 -0.10967234701E+03  0.71628146590E+03  0.76677725553E+03  0.17200000000E+03 0. -1.
</event>
<event>
 4    1  0.5739010E+000  0.2056804E+03  0.7818608E-02  0.1145033E+00
         21   -1    0    0  501  502  0.00000000000E+00  0.00000000000E+00  0.89389251163E+02  0.89389251163E+02  0.00000000000E+00 0. -1.
         21   -1    0    0  502  503 -0.00000000000E+00 -0.00000000000E+00 -0.60795922505E+03  0.60795922505E+03  0.00000000000E+00 0. -1.
          6    1    1    2  501    0  0.45372558130E+02 -0.10325573253E+03 -0.95163995852E+02  0.22662877451E+03  0.17200000000E+03 0. -1.
         -6    1    1    2    0  503 -0.45372558130E+02  0.10325573253E+03 -0.42340597804E+03  0.47071970170E+03  0.17200000000E+03 0. -1.
</event>
<event>
 4    1  0.5739010E+000  0.1892899E+03  0.7818608E-02  0.1159103E+00
         21   -1    0    0  503  502  0.00000000000E+00  0.00000000000E+00  0.10183640352E+03  0.10183640352E+03  0.00000000000E+00 0. -1.
         21   -1    0    0  501  503 -0.00000000000E+00 -0.00000000000E+00 -0.81668416554E+03  0.81668416554E+03  0.00000000000E+00 0. -1.
          6    1    1    2  501    0 -0.17302873046E+01 -0.79017010063E+02 -0.70390768524E+03  0.72891474887E+03  0.17200000000E+03 0. -1.
         -6    1    1    2    0  502  0.17302873046E+01  0.79017010063E+02 -0.10940076776E+02  0.18960582020E+03  0.17200000000E+03 0. -1.
</event>
<event>
 4    1  0.5739010E+000  0.1836012E+03  0.7818608E-02  0.1164363E+00
         21   -1    0    0  503  502  0.00000000000E+00  0.00000000000E+00  0.49075151344E+03  0.49075151344E+03  0.00000000000E+00 0.  1.
         21   -1    0    0  501  503 -0.00000000000E+00 -0.00000000000E+00 -0.72281391967E+02  0.72281391967E+02  0.00000000000E+00 0.  1.
          6    1    1    2  501    0  0.63531943295E+02 -0.94385722402E+01  0.27199206654E+03  0.32816014189E+03  0.17200000000E+03 0.  1.
         -6    1    1    2    0  502 -0.63531943295E+02  0.94385722402E+01  0.14647805493E+03  0.23487276352E+03  0.17200000000E+03 0.  1.
</event>
<event>
 4    1  0.5739010E+000  0.1898968E+03  0.7818608E-02  0.1158554E+00
         21   -1    0    0  501  502  0.00000000000E+00  0.00000000000E+00  0.41730897129E+02  0.41730897129E+02  0.00000000000E+00 0.  1.
         21   -1    0    0  502  503 -0.00000000000E+00 -0.00000000000E+00 -0.12032335756E+04  0.12032335756E+04  0.00000000000E+00 0.  1.
          6    1    1    2  501    0  0.73274694352E+02 -0.33280758901E+02 -0.25029036652E+03  0.31417520163E+03  0.17200000000E+03 0.  1.
         -6    1    1    2    0  503 -0.73274694352E+02  0.33280758901E+02 -0.91121231199E+03  0.93078927114E+03  0.17200000000E+03 0.  1.
</event>
<event>
 4    1  0.5739010E+000  0.3809257E+03  0.7818608E-02  0.1050592E+00
         21   -1    0    0  503  502  0.00000000000E+00  0.00000000000E+00  0.51743030881E+03  0.51743030881E+03  0.00000000000E+00 0. -1.
         21   -1    0    0  501  503 -0.00000000000E+00 -0.00000000000E+00 -0.41715273263E+03  0.41715273263E+03  0.00000000000E+00 0.  1.
          6    1    1    2  501    0 -0.67975609055E+02 -0.33301611247E+03 -0.21738125162E+03  0.43858753191E+03  0.17200000000E+03 0.  1.
         -6    1    1    2    0  502  0.67975609055E+02  0.33301611247E+03  0.31765882780E+03  0.49599550953E+03  0.17200000000E+03 0. -1.
</event>
<event>
 4    1  0.5739010E+000  0.2561413E+03  0.7818608E-02  0.1109484E+00
         21   -1    0    0  501  502  0.00000000000E+00  0.00000000000E+00  0.49338562967E+03  0.49338562967E+03  0.00000000000E+00 0.  1.
         21   -1    0    0  502  503 -0.00000000000E+00 -0.00000000000E+00 -0.15067422927E+03  0.15067422927E+03  0.00000000000E+00 0.  1.
          6    1    1    2  501    0  0.17590707271E+03 -0.71281732304E+02  0.28172371861E+03  0.38075797722E+03  0.17200000000E+03 0.  1.
         -6    1    1    2    0  503 -0.17590707271E+03  0.71281732304E+02  0.60987681778E+02  0.26330188172E+03  0.17200000000E+03 0.  1.
</event>
<event>
 4    1  0.5739010E+000  0.1903156E+03  0.7818608E-02  0.1158177E+00
         21   -1    0    0  501  502  0.00000000000E+00  0.00000000000E+00  0.53636083437E+02  0.53636083437E+02  0.00000000000E+00 0.  1.
         21   -1    0    0  502  503 -0.00000000000E+00 -0.00000000000E+00 -0.83690835783E+03  0.83690835783E+03  0.00000000000E+00 0.  1.
          6    1    1    2  501    0  0.79569472294E+02  0.17456703163E+02 -0.19596407507E+03  0.27317019626E+03  0.17200000000E+03 0.  1.
         -6    1    1    2    0  503 -0.79569472294E+02 -0.17456703163E+02 -0.58730819932E+03  0.61737424501E+03  0.17200000000E+03 0.  1.
</event>
<event>
 4    1  0.5739010E+000  0.1947171E+03  0.7818608E-02  0.1154274E+00
         21   -1    0    0  501  502  0.00000000000E+00  0.00000000000E+00  0.10030286920E+04  0.10030286920E+04  0.00000000000E+00 0. -1.
         21   -1    0    0  502  503 -0.00000000000E+00 -0.00000000000E+00 -0.47819356831E+02  0.47819356831E+02  0.00000000000E+00 0. -1.
          6    1    1    2  501    0  0.58315480699E+02  0.70214396345E+02  0.71810855570E+03  0.74403941731E+03  0.17200000000E+03 0.  1.
         -6    1    1    2    0  503 -0.58315480699E+02 -0.70214396345E+02  0.23710077942E+03  0.30680863147E+03  0.17200000000E+03 0.  1.
</event>
<event>
 4    1  0.5739010E+000  0.1776983E+03  0.7818608E-02  0.1170049E+00
         21   -1    0    0  501  502  0.00000000000E+00  0.00000000000E+00  0.54272726246E+02  0.54272726246E+02  0.00000000000E+00 0. -1.
         21   -1    0    0  502  503 -0.00000000000E+00 -0.00000000000E+00 -0.58271459551E+03  0.58271459551E+03  0.00000000000E+00 0. -1.
          6    1    1    2  501    0  0.33013391960E+02  0.30046784729E+02 -0.27673403424E+03  0.32887447306E+03  0.17200000000E+03 0. -1.
         -6    1    1    2    0  503 -0.33013391960E+02 -0.30046784729E+02 -0.25170783502E+03  0.30811284870E+03  0.17200000000E+03 0. -1.
</event>
<event>
 4    1  0.5739010E+000  0.1764406E+03  0.7818608E-02  0.1171293E+00
         21   -1    0    0  501  502  0.00000000000E+00  0.00000000000E+00  0.40288708997E+03  0.40288708997E+03  0.00000000000E+00 0. -1.
         21   -1    0    0  502  503 -0.00000000000E+00 -0.00000000000E+00 -0.99579901306E+02  0.99579901306E+02  0.00000000000E+00 0. -1.
          6    1    1    2  501    0  0.35065875236E+02  0.17823170445E+02  0.32738825715E+02  0.17945225471E+03  0.17200000000E+03 0. -1.
         -6    1    1    2    0  503 -0.35065875236E+02 -0.17823170445E+02  0.27056836295E+03  0.32301473657E+03  0.17200000000E+03 0. -1.
</event>
<event>
 4    1  0.5739010E+000  0.2002828E+03  0.7818608E-02  0.1149501E+00
         21   -1    0    0  503  502  0.00000000000E+00  0.00000000000E+00  0.19776048286E+04  0.19776048286E+04  0.00000000000E+00 0.  1.
         21   -1    0    0  501  503 -0.00000000000E+00 -0.00000000000E+00 -0.20502639220E+02  0.20502639220E+02  0.00000000000E+00 0.  1.
          6    1    1    2  501    0 -0.66720974558E+02 -0.77958363978E+02  0.10817843722E+04  0.11001684521E+04  0.17200000000E+03 0. -1.
         -6    1    1    2    0  502  0.66720974558E+02  0.77958363978E+02  0.87531781717E+03  0.89793901575E+03  0.17200000000E+03 0. -1.
</event>
<event>
 4    1  0.5739010E+000  0.2487583E+03  0.7818608E-02  0.1114092E+00
         21   -1    0    0  503  502  0.00000000000E+00  0.00000000000E+00  0.17593828029E+03  0.17593828029E+03  0.00000000000E+00 0. -1.
         21   -1    0    0  501  503 -0.00000000000E+00 -0.00000000000E+00 -0.83812342628E+03  0.83812342628E+03  0.00000000000E+00 0. -1.
          6    1    1    2  501    0 -0.92023917494E+02  0.15436416157E+03 -0.71735237407E+03  0.75925958957E+03  0.17200000000E+03 0. -1.
         -6    1    1    2    0  502  0.92023917494E+02 -0.15436416157E+03  0.55167228086E+02  0.25480211699E+03  0.17200000000E+03 0. -1.
</event>
<event>
 4    1  0.5739010E+000  0.2586805E+03  0.7818608E-02  0.1107939E+00
         21   -1    0    0  501  502  0.00000000000E+00  0.00000000000E+00  0.20187233257E+03  0.20187233257E+03  0.00000000000E+00 0.  1.
         21   -1    0    0  502  503 -0.00000000000E+00 -0.00000000000E+00 -0.33384072187E+03  0.33384072187E+03  0.00000000000E+00 0.  1.
          6    1    1    2  501    0  0.12439445136E+03 -0.14784315185E+03 -0.43434579412E+02  0.26230161983E+03  0.17200000000E+03 0.  1.
         -6    1    1    2    0  503 -0.12439445136E+03  0.14784315185E+03 -0.88533809894E+02  0.27341143461E+03  0.17200000000E+03 0.  1.
</event>
<event>
 4    1  0.5739010E+000  0.1879609E+03  0.7818608E-02  0.1160313E+00
         21   -1    0    0  503  502  0.00000000000E+00  0.00000000000E+00  0.33164784143E+03  0.33164784143E+03  0.00000000000E+00 0.  1.
         21   -1    0    0  501  503 -0.00000000000E+00 -0.00000000000E+00 -0.34181506563E+03  0.34181506563E+03  0.00000000000E+00 0.  1.
          6    1    1    2  501    0  0.72857934889E+02 -0.20905274007E+02 -0.28445918125E+03  0.34094916770E+03  0.17200000000E+03 0.  1.
         -6    1    1    2    0  502 -0.72857934889E+02  0.20905274007E+02  0.27429195705E+03  0.33251373935E+03  0.17200000000E+03 0.  1.
</event>
<event>
 4    1  0.5739010E+000  0.2169335E+03  0.7818608E-02  0.1136190E+00
         21   -1    0    0  503  502  0.00000000000E+00  0.00000000000E+00  0.77380344918E+03  0.77380344918E+03  0.00000000000E+00 0.  1.
         21   -1    0    0  501  503 -0.00000000000E+00 -0.00000000000E+00 -0.64457838891E+02  0.64457838891E+02  0.00000000000E+00 0.  1.
          6    1    1    2  501    0 -0.13115307586E+03  0.16583219365E+02  0.25505585736E+03  0.33483372418E+03  0.17200000000E+03 0. -1.
         -6    1    1    2    0  502  0.13115307586E+03 -0.16583219365E+02  0.45428975292E+03  0.50342756389E+03  0.17200000000E+03 0. -1.
</event>
<event>
 4    1  0.5739010E+000  0.1733013E+03  0.7818608E-02  0.1174448E+00
         21   -1    0    0  501  502  0.00000000000E+00  0.00000000000E+00  0.36855083250E+03  0.36855083250E+03  0.00000000000E+00 0. -1.
         21   -1    0    0  502  503 -0.00000000000E+00 -0.00000000000E+00 -0.24048339624E+03  0.24048339624E+03  0.00000000000E+00 0. -1.
          6    1    1    2  501    0 -0.25925294435E+01 -0.21038716449E+02  0.31163801461E+03  0.35658323145E+03  0.17200000000E+03 0. -1.
         -6    1    1    2    0  503  0.25925294435E+01  0.21038716449E+02 -0.18357057835E+03  0.25245099729E+03  0.17200000000E+03 0. -1.
</event>
<event>
 4    1  0.5739010E+000  0.1994276E+03  0.7818608E-02  0.1150223E+00
         21   -1    0    0  501  502  0.00000000000E+00  0.00000000000E+00  0.27380645148E+03  0.27380645148E+03  0.00000000000E+00 0. -1.
         21   -1    0    0  502  503 -0.00000000000E+00 -0.00000000000E+00 -0.16584729974E+03  0.16584729974E+03  0.00000000000E+00 0. -1.
          6    1    1    2  501    0 -0.85967702352E+02  0.52885943030E+02  0.13144250689E+03  0.23884828121E+03  0.17200000000E+03 0. -1.
         -6    1    1    2    0  503  0.85967702352E+02 -0.52885943030E+02 -0.23483355150E+02  0.20080547001E+03  0.17200000000E+03 0. -1.
</event>
<event>
 4    1  0.5739010E+000  0.1834069E+03  0.7818608E-02  0.1164546E+00
         21   -1    0    0  503  502  0.00000000000E+00  0.00000000000E+00  0.49614531116E+03  0.49614531116E+03  0.00000000000E+00 0. -1.
         21   -1    0    0  501  503 -0.00000000000E+00 -0.00000000000E+00 -0.13196610528E+03  0.13196610528E+03  0.00000000000E+00 0. -1.
          6    1    1    2  501    0 -0.49505001087E+02 -0.40041994234E+02 -0.36904314926E+02  0.18708296260E+03  0.17200000000E+03 0.  1.
         -6    1    1    2    0  502  0.49505001087E+02  0.40041994234E+02  0.40108352080E+03  0.44102845384E+03  0.17200000000E+03 0.  1.
</event>
<event>
 4    1  0.5739010E+000  0.2479191E+03  0.7818608E-02  0.1114627E+00
         21   -1    0    0  501  502  0.00000000000E+00  0.00000000000E+00  0.69049970397E+03  0.69049970397E+03  0.00000000000E+00 0.  1.
         21   -1    0    0  502  503 -0.00000000000E+00 -0.00000000000E+00 -0.12324526343E+03  0.12324526343E+03  0.00000000000E+00 0.  1.
          6    1    1    2  501    0 -0.46763265098E+01  0.17848818758E+03  0.69196568327E+02  0.25739476724E+03  0.17200000000E+03 0.  1.
         -6    1    1    2    0  503  0.46763265098E+01 -0.17848818758E+03  0.49805787221E+03  0.55635020015E+03  0.17200000000E+03 0.  1.
</event>
<event>
 4    1  0.5739010E+000  0.2376835E+03  0.7818608E-02  0.1121346E+00
         21   -1    0    0  503  502  0.00000000000E+00  0.00000000000E+00  0.27887102394E+03  0.27887102394E+03  0.00000000000E+00 0. -1.
         21   -1    0    0  501  503 -0.00000000000E+00 -0.00000000000E+00 -0.23007963646E+03  0.23007963646E+03  0.00000000000E+00 0.  1.
          6    1    1    2  501    0  0.12024271074E+03  0.11158460684E+03 -0.63582973491E+02  0.24604111137E+03  0.17200000000E+03 0.  1.
         -6    1    1    2    0  502 -0.12024271074E+03 -0.11158460684E+03  0.11237436097E+03  0.26290954903E+03  0.17200000000E+03 0.  1.
</event>
<event>
 4    1  0.5739010E+000  0.2551842E+03  0.7818608E-02  0.1110072E+00
         21   -1    0    0  501  502  0.00000000000E+00  0.00000000000E+00  0.12181772260E+04  0.12181772260E+04  0.00000000000E+00 0. -1.
         21   -1    0    0  502  503 -0.00000000000E+00 -0.00000000000E+00 -0.84189117132E+02  0.84189117132E+02  0.00000000000E+00 0.  1.
          6    1    1    2  501    0  0.18152127185E+03  0.50842882823E+02  0.96043357301E+03  0.99375631773E+03  0.17200000000E+03 0. -1.
         -6    1    1    2    0  503 -0.18152127185E+03 -0.50842882823E+02  0.17355453589E+03  0.30861002544E+03  0.17200000000E+03 0.  1.
</event>
<event>
 4    1  0.5739010E+000  0.1928755E+03  0.7818608E-02  0.1155893E+00
         21   -1    0    0  503  502  0.00000000000E+00  0.00000000000E+00  0.32812558058E+03  0.32812558058E+03  0.00000000000E+00 0.  1.
         21   -1    0    0  501  503 -0.00000000000E+00 -0.00000000000E+00 -0.11346580324E+03  0.11346580324E+03  0.00000000000E+00 0. -1.
          6    1    1    2  501    0  0.83888565157E+02  0.24076048265E+02  0.11360633465E+03  0.22384670365E+03  0.17200000000E+03 0.  1.
         -6    1    1    2    0  502 -0.83888565157E+02 -0.24076048265E+02  0.10105344269E+03  0.21774468017E+03  0.17200000000E+03 0.  1.
</event>
<event>
 4    1  0.5739010E+000  0.2601601E+03  0.7818608E-02  0.1107047E+00
         21   -1    0    0  503  502  0.00000000000E+00  0.00000000000E+00  0.55440673755E+03  0.55440673755E+03  0.00000000000E+00 0.  1.
         21   -1    0    0  501  503 -0.00000000000E+00 -0.00000000000E+00 -0.13971547757E+03  0.13971547757E+03  0.00000000000E+00 0. -1.
          6    1    1    2  501    0 -0.17482657527E+03  0.86804176396E+02  0.84049927472E+02  0.27340023184E+03  0.17200000000E+03 0. -1.
         -6    1    1    2    0  502  0.17482657527E+03 -0.86804176396E+02  0.33064133251E+03  0.42072198329E+03  0.17200000000E+03 0.  1.
</event>
<event>
 4    1  0.5739010E+000  0.1746355E+03  0.7818608E-02  0.1173098E+00
         21   -1    0    0  501  502  0.00000000000E+00  0.00000000000E+00  0.34740252669E+03  0.34740252669E+03  0.00000000000E+00 0. -1.
         21   -1    0    0  502  503 -0.00000000000E+00 -0.00000000000E+00 -0.17750620748E+03  0.17750620748E+03  0.00000000000E+00 0. -1.
          6    1    1    2  501    0 -0.10525369168E+02 -0.28333353295E+02  0.27153834361E+03  0.32284769529E+03  0.17200000000E+03 0. -1.
         -6    1    1    2    0  503  0.10525369168E+02  0.28333353295E+02 -0.10164202440E+03  0.20206103887E+03  0.17200000000E+03 0. -1.
</event>
<event>
 4    1  0.5739010E+000  0.2359883E+03  0.7818608E-02  0.1122495E+00
         21   -1    0    0  501  502  0.00000000000E+00  0.00000000000E+00  0.22377170726E+03  0.22377170726E+03  0.00000000000E+00 0. -1.
         21   -1    0    0  502  503 -0.00000000000E+00 -0.00000000000E+00 -0.24888424037E+03  0.24888424037E+03  0.00000000000E+00 0.  1.
          6    1    1    2  501    0 -0.12619292479E+03 -0.10090498790E+03 -0.10886416963E+02  0.23623925356E+03  0.17200000000E+03 0. -1.
         -6    1    1    2    0  503  0.12619292479E+03  0.10090498790E+03 -0.14226116150E+02  0.23641669406E+03  0.17200000000E+03 0. -1.
</event>
<event>
 4    1  0.5739010E+000  0.3632377E+03  0.7818608E-02  0.1057309E+00
         21   -1    0    0  501  502  0.00000000000E+00  0.00000000000E+00  0.40932264468E+03  0.40932264468E+03  0.00000000000E+00 0.  1.
         21   -1    0    0  502  503 -0.00000000000E+00 -0.00000000000E+00 -0.54665268186E+03  0.54665268186E+03  0.00000000000E+00 0.  1.
          6    1    1    2  501    0 -0.30324237637E+03  0.10198859754E+03  0.23752184605E+03  0.43400258087E+03  0.17200000000E+03 0.  1.
         -6    1    1    2    0  503  0.30324237637E+03 -0.10198859754E+03 -0.37485188323E+03  0.52197274567E+03  0.17200000000E+03 0.  1.
</event>
<event>
 4    1  0.5739010E+000  0.1946632E+03  0.7818608E-02  0.1154321E+00
         21   -1    0    0  501  502  0.00000000000E+00  0.00000000000E+00  0.99160653938E+02  0.99160653938E+02  0.00000000000E+00 0. -1.
         21   -1    0    0  502  503 -0.00000000000E+00 -0.00000000000E+00 -0.39062877230E+03  0.39062877230E+03  0.00000000000E+00 0. -1.
          6    1    1    2  501    0 -0.48756733661E+02  0.77022915086E+02 -0.10964365989E+03  0.22341772687E+03  0.17200000000E+03 0. -1.
         -6    1    1    2    0  503  0.48756733661E+02 -0.77022915086E+02 -0.18182445846E+03  0.26637169936E+03  0.17200000000E+03 0. -1.
</event>
<event>
 4    1  0.5739010E+000  0.1841772E+03  0.7818608E-02  0.1163820E+00
         21   -1    0    0  503  502  0.00000000000E+00  0.00000000000E+00  0.45398407464E+02  0.45398407464E+02  0.00000000000E+00 0. -1.
         21   -1    0    0  501  503 -0.00000000000E+00 -0.00000000000E+00 -0.77072927238E+03  0.77072927238E+03  0.00000000000E+00 0. -1.
          6    1    1    2  501    0  0.61316742325E+02 -0.24031219425E+02 -0.43397904176E+03  0.47144358208E+03  0.17200000000E+03 0. -1.
         -6    1    1    2    0  502 -0.61316742325E+02  0.24031219425E+02 -0.29135182316E+03  0.34468409777E+03  0.17200000000E+03 0. -1.
</event>
<event>
 4    1  0.5739010E+000  0.2519637E+03  0.7818608E-02  0.1112070E+00
         21   -1    0    0  503  502  0.00000000000E+00  0.00000000000E+00  0.13160375334E+03  0.13160375334E+03  0.00000000000E+00 0.  1.
         21   -1    0    0  501  503 -0.00000000000E+00 -0.00000000000E+00 -0.52012260788E+03  0.52012260788E+03  0.00000000000E+00 0.  1.
          6    1    1    2  501    0  0.95983404802E+02 -0.15712692226E+03 -0.28201644052E+03  0.37817847165E+03  0.17200000000E+03 0.  1.
         -6    1    1    2    0  502 -0.95983404802E+02  0.15712692226E+03 -0.10650241401E+03  0.27354788957E+03  0.17200000000E+03 0.  1.
</event>
<event>
 4    1  0.5739010E+000  0.1785195E+03  0.7818608E-02  0.1169244E+00
         21   -1    0    0  501  502  0.00000000000E+00  0.00000000000E+00  0.72791575924E+02  0.72791575924E+02  0.00000000000E+00 0. -1.
         21   -1    0    0  502  503 -0.00000000000E+00 -0.00000000000E+00 -0.70168556926E+03  0.70168556926E+03  0.00000000000E+00 0. -1.
          6    1    1    2  501    0  0.27987898399E+02 -0.38754350176E+02 -0.76980108920E+02  0.19440977157E+03  0.17200000000E+03 0. -1.
         -6    1    1    2    0  503 -0.27987898399E+02  0.38754350176E+02 -0.55191388442E+03  0.58006737361E+03  0.17200000000E+03 0. -1.
</event>
<event>
 4    1  0.5739010E+000  0.2116514E+03  0.7818608E-02  0.1140265E+00
         21   -1    0    0  501  502  0.00000000000E+00  0.00000000000E+00  0.27626555678E+03  0.27626555678E+03  0.00000000000E+00 0. -1.
         21   -1    0    0  502  503 -0.00000000000E+00 -0.00000000000E+00 -0.35258758513E+03  0.35258758513E+03  0.00000000000E+00 0. -1.
          6    1    1    2  501    0  0.11763954354E+03 -0.37057454788E+02  0.19291914274E+03  0.28638106222E+03  0.17200000000E+03 0. -1.
         -6    1    1    2    0  503 -0.11763954354E+03  0.37057454788E+02 -0.26924117109E+03  0.34247207970E+03  0.17200000000E+03 0. -1.
</event>
<event>
 4    1  0.5739010E+000  0.3776662E+03  0.7818608E-02  0.1051800E+00
         21   -1    0    0  501  502  0.00000000000E+00  0.00000000000E+00  0.10456665332E+04  0.10456665332E+04  0.00000000000E+00 0.  1.
         21   -1    0    0  502  503 -0.00000000000E+00 -0.00000000000E+00 -0.19386291517E+03  0.19386291517E+03  0.00000000000E+00 0. -1.
          6    1    1    2  501    0 -0.26459014342E+03 -0.20746046298E+03  0.76331567799E+03  0.85163525758E+03  0.17200000000E+03 0.  1.
         -6    1    1    2    0  503  0.26459014342E+03  0.20746046298E+03  0.88487940033E+02  0.38789419077E+03  0.17200000000E+03 0. -1.
</event>
<event>
 4    1  0.5739010E+000  0.1808143E+03  0.7818608E-02  0.1167017E+00
         21   -1    0    0  501  502  0.00000000000E+00  0.00000000000E+00  0.54566273078E+03  0.54566273078E+03  0.00000000000E+00 0. -1.
         21   -1    0    0  502  503 -0.00000000000E+00 -0.00000000000E+00 -0.79886415548E+02  0.79886415548E+02  0.00000000000E+00 0. -1.
          6    1    1    2  501    0 -0.17494496190E+01 -0.55738231489E+02  0.38927163212E+03  0.42921581354E+03  0.17200000000E+03 0. -1.
         -6    1    1    2    0  503  0.17494496190E+01  0.55738231489E+02  0.76504683112E+02  0.19633333278E+03  0.17200000000E+03 0. -1.
</event>
<event>
 4    1  0.5739010E+000  0.2208997E+03  0.7818608E-02  0.1133214E+00
         21   -1    0    0  503  502  0.00000000000E+00  0.00000000000E+00  0.50607360751E+02  0.50607360751E+02  0.00000000000E+00 0. -1.
         21   -1    0    0  501  503 -0.00000000000E+00 -0.00000000000E+00 -0.97110848899E+03  0.97110848899E+03  0.00000000000E+00 0. -1.
          6    1    1    2  501    0 -0.13817933782E+03  0.10915704266E+02 -0.50327304653E+03  0.54961845071E+03  0.17200000000E+03 0. -1.
         -6    1    1    2    0  502  0.13817933782E+03 -0.10915704266E+02 -0.41722808171E+03  0.47209739902E+03  0.17200000000E+03 0. -1.
</event>
<event>
 4    1  0.5739010E+000  0.2384284E+03  0.7818608E-02  0.1120844E+00
         21   -1    0    0  501  502  0.00000000000E+00  0.00000000000E+00  0.27684741595E+03  0.27684741595E+03  0.00000000000E+00 0. -1.
         21   -1    0    0  502  503 -0.00000000000E+00 -0.00000000000E+00 -0.62845313958E+03  0.62845313958E+03  0.00000000000E+00 0. -1.
          6    1    1    2  501    0  0.16201437892E+03  0.31865787905E+02  0.19560761838E+03  0.30839978564E+03  0.17200000000E+03 0. -1.
         -6    1    1    2    0  503 -0.16201437892E+03 -0.31865787905E+02 -0.54721334201E+03  0.59690076989E+03  0.17200000000E+03 0. -1.
</event>
<event>
 4    1  0.5739010E+000  0.2026904E+03  0.7818608E-02  0.1147489E+00
         21   -1    0    0  503  502  0.00000000000E+00  0.00000000000E+00  0.40267109932E+03  0.40267109932E+03  0.00000000000E+00 0.  1.
         21   -1    0    0  501  503 -0.00000000000E+00 -0.00000000000E+00 -0.11507994164E+03  0.11507994164E+03  0.00000000000E+00 0.  1.
          6    1    1    2  501    0 -0.12125957367E+02  0.10654746045E+03  0.56610486855E+02  0.21044749320E+03  0.17200000000E+03 0.  1.
         -6    1    1    2    0  502  0.12125957367E+02 -0.10654746045E+03  0.23098067083E+03  0.30730354776E+03  0.17200000000E+03 0.  1.
</event>
<event>
 4    1  0.5739010E+000  0.2349539E+03  0.7818608E-02  0.1123201E+00
         21   -1    0    0  501  502  0.00000000000E+00  0.00000000000E+00  0.11868178393E+04  0.11868178393E+04  0.00000000000E+00 0. -1.
         21   -1    0    0  502  503 -0.00000000000E+00 -0.00000000000E+00 -0.18041737293E+03  0.18041737293E+03  0.00000000000E+00 0.  1.
          6    1    1    2  501    0 -0.87277014891E+02  0.13417179700E+03  0.10921391122E+04  0.11171263083E+04  0.17200000000E+03 0. -1.
         -6    1    1    2    0  503  0.87277014891E+02 -0.13417179700E+03 -0.85738645781E+02  0.25010890392E+03  0.17200000000E+03 0.  1.
</event>
<event>
 4    1  0.5739010E+000  0.1937006E+03  0.7818608E-02  0.1155165E+00
         21   -1    0    0  503  502  0.00000000000E+00  0.00000000000E+00  0.17477873569E+03  0.17477873569E+03  0.00000000000E+00 0. -1.
         21   -1    0    0  501  503 -0.00000000000E+00 -0.00000000000E+00 -0.38384770570E+03  0.38384770570E+03  0.00000000000E+00 0.  1.
          6    1    1    2  501    0 -0.78384406871E+01 -0.88738192379E+02 -0.28996552428E+03  0.34871179104E+03  0.17200000000E+03 0.  1.
         -6    1    1    2    0  502  0.78384406871E+01  0.88738192379E+02  0.80896554268E+02  0.20991465035E+03  0.17200000000E+03 0. -1.
</event>
<event>
 4    1  0.5739010E+000  0.1917084E+03  0.7818608E-02  0.1156929E+00
         21   -1    0    0  503  502  0.00000000000E+00  0.00000000000E+00  0.28000988888E+02  0.28000988888E+02  0.00000000000E+00 0.  1.
         21   -1    0    0  501  503 -0.00000000000E+00 -0.00000000000E+00 -0.13354796098E+04  0.13354796098E+04  0.00000000000E+00 0. -1.
          6    1    1    2  501    0 -0.23528108063E+02 -0.81329929367E+02 -0.74310913750E+03  0.76743945658E+03  0.17200000000E+03 0.  1.
         -6    1    1    2    0  502  0.23528108063E+02  0.81329929367E+02 -0.56436948343E+03  0.59604114212E+03  0.17200000000E+03 0. -1.
</event>
<event>
 4    1  0.5739010E+000  0.2472566E+03  0.7818608E-02  0.1115051E+00
         21   -1    0    0  501  502  0.00000000000E+00  0.00000000000E+00  0.41626103311E+03  0.41626103311E+03  0.00000000000E+00 0. -1.
         21   -1    0    0  502  503 -0.00000000000E+00 -0.00000000000E+00 -0.18184023664E+03  0.18184023664E+03  0.00000000000E+00 0.  1.
          6    1    1    2  501    0 -0.35425473048E+02 -0.17405989012E+03  0.24835659780E+03  0.35045229227E+03  0.17200000000E+03 0.  1.
         -6    1    1    2    0  503  0.35425473048E+02  0.17405989012E+03 -0.13935801328E+02  0.24764897748E+03  0.17200000000E+03 0. -1.
</event>
<event>
 4    1  0.5739010E+000  0.1792545E+03  0.7818608E-02  0.1168526E+00
         21   -1    0    0  501  502  0.00000000000E+00  0.00000000000E+00  0.19478275233E+03  0.19478275233E+03  0.00000000000E+00 0. -1.
         21   -1    0    0  502  503 -0.00000000000E+00 -0.00000000000E+00 -0.16496492740E+03  0.16496492740E+03  0.00000000000E+00 0. -1.
          6    1    1    2  501    0  0.21278523696E+02 -0.45775559389E+02  0.14526560402E+02  0.17984214847E+03  0.17200000000E+03 0. -1.
         -6    1    1    2    0  503 -0.21278523696E+02  0.45775559389E+02  0.15291264525E+02  0.17990553126E+03  0.17200000000E+03 0. -1.
</event>
<event>
 4    1  0.5739010E+000  0.2343649E+03  0.7818608E-02  0.1123605E+00
         21   -1    0    0  503  502  0.00000000000E+00  0.00000000000E+00  0.90070825553E+03  0.90070825553E+03  0.00000000000E+00 0. -1.
         21   -1    0    0  501  503 -0.00000000000E+00 -0.00000000000E+00 -0.88061825566E+02  0.88061825566E+02  0.00000000000E+00 0.  1.
          6    1    1    2  501    0 -0.30836947928E+02 -0.15617939875E+03  0.68047749065E+03  0.71970586856E+03  0.17200000000E+03 0. -1.
         -6    1    1    2    0  502  0.30836947928E+02  0.15617939875E+03  0.13216893931E+03  0.26906421254E+03  0.17200000000E+03 0.  1.
</event>
<event>
 4    1  0.5739010E+000  0.2266448E+03  0.7818608E-02  0.1129024E+00
         21   -1    0    0  501  502  0.00000000000E+00  0.00000000000E+00  0.16981975383E+03  0.16981975383E+03  0.00000000000E+00 0. -1.
         21   -1    0    0  502  503 -0.00000000000E+00 -0.00000000000E+00 -0.30303360646E+03  0.30303360646E+03  0.00000000000E+00 0.  1.
          6    1    1    2  501    0  0.12551762416E+03  0.77647848416E+02 -0.76670102818E+02  0.23926171237E+03  0.17200000000E+03 0.  1.
         -6    1    1    2    0  503 -0.12551762416E+03 -0.77647848416E+02 -0.56543749805E+02  0.23359164792E+03  0.17200000000E+03 0. -1.
</event>
<event>
 4    1  0.5739010E+000  0.1746446E+03  0.7818608E-02  0.1173089E+00
         21   -1    0    0  501  502  0.00000000000E+00  0.00000000000E+00  0.23877098818E+02  0.23877098818E+02  0.00000000000E+00 0.  1.
         21   -1    0    0  502  503 -0.00000000000E+00 -0.00000000000E+00 -0.13054338642E+04  0.13054338642E+04  0.00000000000E+00 0.  1.
          6    1    1    2  501    0 -0.27707353705E+02  0.12208412606E+02 -0.73816880888E+03  0.75854725179E+03  0.17200000000E+03 0.  1.
         -6    1    1    2    0  503  0.27707353705E+02 -0.12208412606E+02 -0.54338795649E+03  0.57076371122E+03  0.17200000000E+03 0.  1.
</event>
<event>
 4    1  0.5739010E+000  0.1790951E+03  0.7818608E-02  0.1168682E+00
         21   -1    0    0  501  502  0.00000000000E+00  0.00000000000E+00  0.41690262279E+03  0.41690262279E+03  0.00000000000E+00 0. -1.
         21   -1    0    0  502  503 -0.00000000000E+00 -0.00000000000E+00 -0.12465106398E+03  0.12465106398E+03  0.00000000000E+00 0. -1.
          6    1    1    2  501    0  0.67013573300E+01  0.49458361174E+02  0.31365435937E+03  0.36118429483E+03  0.17200000000E+03 0. -1.
         -6    1    1    2    0  503 -0.67013573300E+01 -0.49458361174E+02 -0.21402800551E+02  0.18036939195E+03  0.17200000000E+03 0. -1.
</event>
<event>
 4    1  0.5739010E+000  0.3105184E+03  0.7818608E-02  0.1080098E+00
         21   -1    0    0  501  502  0.00000000000E+00  0.00000000000E+00  0.33952770237E+03  0.33952770237E+03  0.00000000000E+00 0. -1.
         21   -1    0    0  502  503 -0.00000000000E+00 -0.00000000000E+00 -0.28414837806E+03  0.28414837806E+03  0.00000000000E+00 0. -1.
          6    1    1    2  501    0 -0.24854093724E+03  0.71169469321E+02  0.20274229109E+02  0.31117958676E+03  0.17200000000E+03 0. -1.
         -6    1    1    2    0  503  0.24854093724E+03 -0.71169469321E+02  0.35105095197E+02  0.31249649367E+03  0.17200000000E+03 0. -1.
</event>
<event>
 4    1  0.5739010E+000  0.2045639E+03  0.7818608E-02  0.1145945E+00
         21   -1    0    0  501  502  0.00000000000E+00  0.00000000000E+00  0.16990402288E+04  0.16990402288E+04  0.00000000000E+00 0. -1.
         21   -1    0    0  502  503 -0.00000000000E+00 -0.00000000000E+00 -0.16097147644E+03  0.16097147644E+03  0.00000000000E+00 0. -1.
          6    1    1    2  501    0 -0.10254525777E+03 -0.41795381423E+02  0.16249404930E+04  0.16377661584E+04  0.17200000000E+03 0. -1.
         -6    1    1    2    0  503  0.10254525777E+03  0.41795381423E+02 -0.86871740591E+02  0.22224554689E+03  0.17200000000E+03 0. -1.
</event>
<event>
 4    1  0.5739010E+000  0.1815336E+03  0.7818608E-02  0.1166327E+00
         21   -1    0    0  501  502  0.00000000000E+00  0.00000000000E+00  0.55753545274E+03  0.55753545274E+03  0.00000000000E+00 0.  1.
         21   -1    0    0  502  503 -0.00000000000E+00 -0.00000000000E+00 -0.11409088662E+03  0.11409088662E+03  0.00000000000E+00 0.  1.
          6    1    1    2  501    0  0.48425403365E+01 -0.57853260017E+02  0.45484711392E+03  0.48973497622E+03  0.17200000000E+03 0.  1.
         -6    1    1    2    0  503 -0.48425403365E+01  0.57853260017E+02 -0.11402547791E+02  0.18189136315E+03  0.17200000000E+03 0.  1.
</event>
<event>
 4    1  0.5739010E+000  0.3040181E+03  0.7818608E-02  0.1083249E+00
         21   -1    0    0  503  502  0.00000000000E+00  0.00000000000E+00  0.57924466143E+03  0.57924466143E+03  0.00000000000E+00 0. -1.
         21   -1    0    0  501  503 -0.00000000000E+00 -0.00000000000E+00 -0.15957210118E+03  0.15957210118E+03  0.00000000000E+00 0.  1.
          6    1    1    2  501    0  0.12443101883E+03 -0.21762329463E+03  0.20731348713E+03  0.36797535075E+03  0.17200000000E+03 0. -1.
         -6    1    1    2    0  502 -0.12443101883E+03  0.21762329463E+03  0.21235907313E+03  0.37084141186E+03  0.17200000000E+03 0.  1.
</event>
<event>
 4    1  0.5739010E+000  0.2597747E+03  0.7818608E-02  0.1107279E+00
         21   -1    0    0  503  502  0.00000000000E+00  0.00000000000E+00  0.55994133402E+03  0.55994133402E+03  0.00000000000E+00 0.  1.
         21   -1    0    0  501  503 -0.00000000000E+00 -0.00000000000E+00 -0.40640491532E+03  0.40640491532E+03  0.00000000000E+00 0.  1.
          6    1    1    2  501    0 -0.13949890994E+03  0.13579002797E+03 -0.32847954071E+03  0.41878596710E+03  0.17200000000E+03 0.  1.
         -6    1    1    2    0  502  0.13949890994E+03 -0.13579002797E+03  0.48201595941E+03  0.54756028224E+03  0.17200000000E+03 0.  1.
</event>
<event>
 4    1  0.5739010E+000  0.1754360E+03  0.7818608E-02  0.1172295E+00
         21   -1    0    0  501  502  0.00000000000E+00  0.00000000000E+00  0.15169677138E+03  0.15169677138E+03  0.00000000000E+00 0. -1.
         21   -1    0    0  502  503 -0.00000000000E+00 -0.00000000000E+00 -0.26433589138E+03  0.26433589138E+03  0.00000000000E+00 0. -1.
          6    1    1    2  501    0 -0.32371167692E+02  0.12078296689E+02  0.43972217414E+02  0.18086274811E+03  0.17200000000E+03 0. -1.
         -6    1    1    2    0  503  0.32371167692E+02 -0.12078296689E+02 -0.15661133741E+03  0.23516991465E+03  0.17200000000E+03 0. -1.
</event>
<event>
 4    1  0.5739010E+000  0.2007865E+03  0.7818608E-02  0.1149077E+00
         21   -1    0    0  501  502  0.00000000000E+00  0.00000000000E+00  0.12376803158E+03  0.12376803158E+03  0.00000000000E+00 0.  1.
         21   -1    0    0  502  503 -0.00000000000E+00 -0.00000000000E+00 -0.36069686303E+03  0.36069686303E+03  0.00000000000E+00 0.  1.
          6    1    1    2  501    0  0.78293423590E+02 -0.67833296865E+02 -0.43046130343E+02  0.20534893639E+03  0.17200000000E+03 0.  1.
         -6    1    1    2    0  503 -0.78293423590E+02  0.67833296865E+02 -0.19388270111E+03  0.27911595822E+03  0.17200000000E+03 0.  1.
</event>
<event>
 4    1  0.5739010E+000  0.2642265E+03  0.7818608E-02  0.1104630E+00
         21   -1    0    0  503  502  0.00000000000E+00  0.00000000000E+00  0.28760610973E+04  0.28760610973E+04  0.00000000000E+00 0. -1.
         21   -1    0    0  501  503 -0.00000000000E+00 -0.00000000000E+00 -0.35605374658E+02  0.35605374658E+02  0.00000000000E+00 0.  1.
          6    1    1    2  501    0 -0.19718496182E+00 -0.20057812178E+03  0.59896712833E+03  0.65465811126E+03  0.17200000000E+03 0.  1.
         -6    1    1    2    0  502  0.19718496182E+00  0.20057812178E+03  0.22414885943E+04  0.22570083607E+04  0.17200000000E+03 0. -1.
</event>
<event>
 4    1  0.5739010E+000  0.1977297E+03  0.7818608E-02  0.1151669E+00
         21   -1    0    0  503  502  0.00000000000E+00  0.00000000000E+00  0.11695772432E+04  0.11695772432E+04  0.00000000000E+00 0.  1.
         21   -1    0    0  501  503 -0.00000000000E+00 -0.00000000000E+00 -0.49032306287E+02  0.49032306287E+02  0.00000000000E+00 0.  1.
          6    1    1    2  501    0  0.11276840403E+02  0.96880716142E+02  0.21654776228E+03  0.29324047067E+03  0.17200000000E+03 0.  1.
         -6    1    1    2    0  502 -0.11276840403E+02 -0.96880716142E+02  0.90399717462E+03  0.92536907880E+03  0.17200000000E+03 0.  1.
</event>
<event>
 4    1  0.5739010E+000  0.2529223E+03  0.7818608E-02  0.1111472E+00
         21   -1    0    0  501  502  0.00000000000E+00  0.00000000000E+00  0.13753110570E+03  0.13753110570E+03  0.00000000000E+00 0.  1.
         21   -1    0    0  502  503 -0.00000000000E+00 -0.00000000000E+00 -0.46928341272E+03  0.46928341272E+03  0.00000000000E+00 0.  1.
          6    1    1    2  501    0  0.61407071241E+02  0.17497105535E+03 -0.13732879914E+03  0.28780010021E+03  0.17200000000E+03 0.  1.
         -6    1    1    2    0  503 -0.61407071241E+02 -0.17497105535E+03 -0.19442350787E+03  0.31901441820E+03  0.17200000000E+03 0.  1.
</event>
<event>
 4    1  0.5739010E+000  0.2002802E+03  0.7818608E-02  0.1149503E+00
         21   -1    0    0  503  502  0.00000000000E+00  0.00000000000E+00  0.17144050935E+03  0.17144050935E+03  0.00000000000E+00 0.  1.
         21   -1    0    0  501  503 -0.00000000000E+00 -0.00000000000E+00 -0.58385394645E+03  0.58385394645E+03  0.00000000000E+00 0.  1.
          6    1    1    2  501    0 -0.10001064898E+03  0.22935484337E+02 -0.49855151313E+03  0.53727625817E+03  0.17200000000E+03 0.  1.
         -6    1    1    2    0  502  0.10001064898E+03 -0.22935484337E+02  0.86138076032E+02  0.21801819762E+03  0.17200000000E+03 0.  1.
</event>
<event>
 4    1  0.5739010E+000  0.1730013E+03  0.7818608E-02  0.1174754E+00
         21   -1    0    0  503  502  0.00000000000E+00  0.00000000000E+00  0.36016687705E+03  0.36016687705E+03  0.00000000000E+00 0.  1.
         21   -1    0    0  501  503 -0.00000000000E+00 -0.00000000000E+00 -0.85114413436E+02  0.85114413436E+02  0.00000000000E+00 0.  1.
          6    1    1    2  501    0 -0.13916840289E+02  0.12319701380E+02  0.10326514983E+03  0.20147740482E+03  0.17200000000E+03 0.  1.
         -6    1    1    2    0  502  0.13916840289E+02 -0.12319701380E+02  0.17178731379E+03  0.24380388566E+03  0.17200000000E+03 0.  1.
</event>
<event>
 4    1  0.5739010E+000  0.1881978E+03  0.7818608E-02  0.1160097E+00
         21   -1    0    0  503  502  0.00000000000E+00  0.00000000000E+00  0.15503607011E+03  0.15503607011E+03  0.00000000000E+00 0. -1.
         21   -1    0    0  501  503 -0.00000000000E+00 -0.00000000000E+00 -0.46234889982E+03  0.46234889982E+03  0.00000000000E+00 0.  1.
          6    1    1    2  501    0  0.31268020164E+02 -0.69690147416E+02 -0.37321617308E+03  0.41798171920E+03  0.17200000000E+03 0.  1.
         -6    1    1    2    0  502 -0.31268020164E+02  0.69690147416E+02  0.65903343380E+02  0.19940325073E+03  0.17200000000E+03 0. -1.
</event>
<event>
 4    1  0.5739010E+000  0.2031925E+03  0.7818608E-02  0.1147073E+00
         21   -1    0    0  501  502  0.00000000000E+00  0.00000000000E+00  0.10868921925E+03  0.10868921925E+03  0.00000000000E+00 0. -1.
         21   -1    0    0  502  503 -0.00000000000E+00 -0.00000000000E+00 -0.90773187033E+03  0.90773187033E+03  0.00000000000E+00 0.  1.
          6    1    1    2  501    0  0.96979653108E+02 -0.47938702175E+02 -0.11971717051E+02  0.20354482133E+03  0.17200000000E+03 0. -1.
         -6    1    1    2    0  503 -0.96979653108E+02  0.47938702175E+02 -0.78707093402E+03  0.81287626824E+03  0.17200000000E+03 0.  1.
</event>
<event>
 4    1  0.5739010E+000  0.1879312E+03  0.7818608E-02  0.1160341E+00
         21   -1    0    0  503  502  0.00000000000E+00  0.00000000000E+00  0.41952155403E+03  0.41952155403E+03  0.00000000000E+00 0. -1.
         21   -1    0    0  501  503 -0.00000000000E+00 -0.00000000000E+00 -0.91569885992E+02  0.91569885992E+02  0.00000000000E+00 0. -1.
          6    1    1    2  501    0 -0.53860584481E+00 -0.75722175415E+02  0.91413041515E+02  0.20898440637E+03  0.17200000000E+03 0. -1.
         -6    1    1    2    0  502  0.53860584481E+00  0.75722175415E+02  0.23653862652E+03  0.30210703365E+03  0.17200000000E+03 0. -1.
</event>
<event>
 4    1  0.5739010E+000  0.1746215E+03  0.7818608E-02  0.1173112E+00
         21   -1    0    0  501  502  0.00000000000E+00  0.00000000000E+00  0.29383924491E+03  0.29383924491E+03  0.00000000000E+00 0. -1.
         21   -1    0    0  502  503 -0.00000000000E+00 -0.00000000000E+00 -0.11813400990E+03  0.11813400990E+03  0.00000000000E+00 0. -1.
          6    1    1    2  501    0 -0.10162122458E+02 -0.28379671066E+02  0.15967158910E+03  0.23661718203E+03  0.17200000000E+03 0. -1.
         -6    1    1    2    0  503  0.10162122458E+02  0.28379671066E+02  0.16033645910E+02  0.17535607279E+03  0.17200000000E+03 0. -1.
</event>
<event>
 4    1  0.5739010E+000  0.1768220E+03  0.7818608E-02  0.1170915E+00
         21   -1    0    0  503  502  0.00000000000E+00  0.00000000000E+00  0.15300161515E+03  0.15300161515E+03  0.00000000000E+00 0. -1.
         21   -1    0    0  501  503 -0.00000000000E+00 -0.00000000000E+00 -0.20508636746E+03  0.20508636746E+03  0.00000000000E+00 0. -1.
          6    1    1    2  501    0  0.23697470895E+02 -0.33473038333E+02 -0.15320284342E+02  0.17748443744E+03  0.17200000000E+03 0. -1.
         -6    1    1    2    0  502 -0.23697470895E+02  0.33473038333E+02 -0.36764467966E+02  0.18060354517E+03  0.17200000000E+03 0. -1.
</event>
<event>
 4    1  0.5739010E+000  0.2088285E+03  0.7818608E-02  0.1142497E+00
         21   -1    0    0  503  502  0.00000000000E+00  0.00000000000E+00  0.18179181607E+03  0.18179181607E+03  0.00000000000E+00 0.  1.
         21   -1    0    0  501  503 -0.00000000000E+00 -0.00000000000E+00 -0.24011944809E+03  0.24011944809E+03  0.00000000000E+00 0.  1.
          6    1    1    2  501    0 -0.48223159515E+02  0.10816593159E+03 -0.35739147087E+02  0.21186464666E+03  0.17200000000E+03 0.  1.
         -6    1    1    2    0  502  0.48223159515E+02 -0.10816593159E+03 -0.22588484934E+02  0.21004661750E+03  0.17200000000E+03 0.  1.
</event>
<event>
 4    1  0.5739010E+000  0.2293358E+03  0.7818608E-02  0.1127108E+00
         21   -1    0    0  501  502  0.00000000000E+00  0.00000000000E+00  0.61750485337E+03  0.61750485337E+03  0.00000000000E+00 0. -1.
         21   -1    0    0  502  503 -0.00000000000E+00 -0.00000000000E+00 -0.19083596560E+03  0.19083596560E+03  0.00000000000E+00 0.  1.
          6    1    1    2  501    0  0.15142618393E+03  0.90018312745E+01  0.51407721393E+03  0.56291234134E+03  0.17200000000E+03 0. -1.
         -6    1    1    2    0  503 -0.15142618393E+03 -0.90018312745E+01 -0.87408326166E+02  0.24542847763E+03  0.17200000000E+03 0.  1.
</event>
<event>
 4    1  0.5739010E+000  0.1726447E+03  0.7818608E-02  0.1175118E+00
         21   -1    0    0  501  502  0.00000000000E+00  0.00000000000E+00  0.21589854041E+02  0.21589854041E+02  0.00000000000E+00 0.  1.
         21   -1    0    0  502  503 -0.00000000000E+00 -0.00000000000E+00 -0.16514126309E+04  0.16514126309E+04  0.00000000000E+00 0.  1.
          6    1    1    2  501    0 -0.51577845561E-02  0.14905733648E+02 -0.47614376205E+03  0.50647711011E+03  0.17200000000E+03 0.  1.
         -6    1    1    2    0  503  0.51577845561E-02 -0.14905733648E+02 -0.11536790148E+04  0.11665253748E+04  0.17200000000E+03 0.  1.
</event>
<event>
 4    1  0.5739010E+000  0.2992345E+03  0.7818608E-02  0.1085624E+00
         21   -1    0    0  501  502  0.00000000000E+00  0.00000000000E+00  0.74542862843E+02  0.74542862843E+02  0.00000000000E+00 0.  1.
         21   -1    0    0  502  503 -0.00000000000E+00 -0.00000000000E+00 -0.16580078083E+04  0.16580078083E+04  0.00000000000E+00 0. -1.
          6    1    1    2  501    0  0.13491806017E+03  0.20433886948E+03 -0.33703026220E+03  0.45070018214E+03  0.17200000000E+03 0.  1.
         -6    1    1    2    0  503 -0.13491806017E+03 -0.20433886948E+03 -0.12464346833E+04  0.12818504891E+04  0.17200000000E+03 0. -1.
</event>
<event>
 4    1  0.5739010E+000  0.1933892E+03  0.7818608E-02  0.1155440E+00
         21   -1    0    0  503  502  0.00000000000E+00  0.00000000000E+00  0.19674332240E+03  0.19674332240E+03  0.00000000000E+00 0.  1.
         21   -1    0    0  501  503 -0.00000000000E+00 -0.00000000000E+00 -0.20188363143E+03  0.20188363143E+03  0.00000000000E+00 0. -1.
          6    1    1    2  501    0 -0.88278771619E+02  0.47141512321E+01  0.45599103992E+02  0.19869233258E+03  0.17200000000E+03 0. -1.
         -6    1    1    2    0  502  0.88278771619E+02 -0.47141512321E+01 -0.50739413024E+02  0.19993462125E+03  0.17200000000E+03 0. -1.
</event>
<event>
 4    1  0.5739010E+000  0.1835591E+03  0.7818608E-02  0.1164402E+00
         21   -1    0    0  503  502  0.00000000000E+00  0.00000000000E+00  0.12816925156E+03  0.12816925156E+03  0.00000000000E+00 0.  1.
         21   -1    0    0  501  503 -0.00000000000E+00 -0.00000000000E+00 -0.66361817345E+03  0.66361817345E+03  0.00000000000E+00 0.  1.
          6    1    1    2  501    0  0.50761615761E+02  0.39155888063E+02 -0.57536706322E+03  0.60393806192E+03  0.17200000000E+03 0.  1.
         -6    1    1    2    0  502 -0.50761615761E+02 -0.39155888063E+02  0.39918141325E+02  0.18784936309E+03  0.17200000000E+03 0.  1.
</event>
<event>
 4    1  0.5739010E+000  0.3918912E+03  0.7818608E-02  0.1046624E+00
         21   -1    0    0  503  502  0.00000000000E+00  0.00000000000E+00  0.32024250293E+03  0.32024250293E+03  0.00000000000E+00 0.  1.
         21   -1    0    0  501  503 -0.00000000000E+00 -0.00000000000E+00 -0.51604723157E+03  0.51604723157E+03  0.00000000000E+00 0. -1.
          6    1    1    2  501    0 -0.28777799221E+03 -0.20292502533E+03  0.13268813307E+02  0.39211579937E+03  0.17200000000E+03 0.  1.
         -6    1    1    2    0  502  0.28777799221E+03  0.20292502533E+03 -0.20907354195E+03  0.44417393513E+03  0.17200000000E+03 0.  1.
</event>
<event>
 4    1  0.5739010E+000  0.1898343E+03  0.7818608E-02  0.1158611E+00
         21   -1    0    0  503  502  0.00000000000E+00  0.00000000000E+00  0.84431471950E+03  0.84431471950E+03  0.00000000000E+00 0. -1.
         21   -1    0    0  501  503 -0.00000000000E+00 -0.00000000000E+00 -0.43320765636E+02  0.43320765636E+02  0.00000000000E+00 0. -1.
          6    1    1    2  501    0 -0.64231532282E+02 -0.48242880778E+02  0.34660581657E+03  0.39518686386E+03  0.17200000000E+03 0. -1.
         -6    1    1    2    0  502  0.64231532282E+02  0.48242880778E+02  0.45438813729E+03  0.49244862127E+03  0.17200000000E+03 0. -1.
</event>
<event>
 4    1  0.5739010E+000  0.2397994E+03  0.7818608E-02  0.1119927E+00
         21   -1    0    0  501  502  0.00000000000E+00  0.00000000000E+00  0.50151892136E+02  0.50151892136E+02  0.00000000000E+00 0. -1.
         21   -1    0    0  502  503 -0.00000000000E+00 -0.00000000000E+00 -0.11776714717E+04  0.11776714717E+04  0.00000000000E+00 0.  1.
          6    1    1    2  501    0  0.15245870325E+03  0.68381966740E+02 -0.46402840460E+03  0.52232758863E+03  0.17200000000E+03 0.  1.
         -6    1    1    2    0  503 -0.15245870325E+03 -0.68381966740E+02 -0.66349117496E+03  0.70549577520E+03  0.17200000000E+03 0.  1.
</event>
<event>
 4    1  0.5739010E+000  0.1978692E+03  0.7818608E-02  0.1151549E+00
         21   -1    0    0  501  502  0.00000000000E+00  0.00000000000E+00  0.28242536311E+03  0.28242536311E+03  0.00000000000E+00 0. -1.
         21   -1    0    0  502  503 -0.00000000000E+00 -0.00000000000E+00 -0.16272220976E+03  0.16272220976E+03  0.00000000000E+00 0. -1.
          6    1    1    2  501    0 -0.90913217121E+02 -0.36097212225E+02  0.14549655065E+03  0.24560429155E+03  0.17200000000E+03 0. -1.
         -6    1    1    2    0  503  0.90913217121E+02  0.36097212225E+02 -0.25793397293E+02  0.19954328132E+03  0.17200000000E+03 0. -1.
</event>
<event>
 4    1  0.5739010E+000  0.2240450E+03  0.7818608E-02  0.1130903E+00
         21   -1    0    0  501  502  0.00000000000E+00  0.00000000000E+00  0.41438617653E+02  0.41438617653E+02  0.00000000000E+00 0. -1.
         21   -1    0    0  502  503 -0.00000000000E+00 -0.00000000000E+00 -0.16877304254E+04  0.16877304254E+04  0.00000000000E+00 0. -1.
          6    1    1    2  501    0  0.45329039499E+02  0.13622574534E+03 -0.36380163302E+03  0.42725613360E+03  0.17200000000E+03 0. -1.
         -6    1    1    2    0  503 -0.45329039499E+02 -0.13622574534E+03 -0.12824901747E+04  0.13019129095E+04  0.17200000000E+03 0. -1.
</event>
<event>
 4    1  0.5739010E+000  0.2304948E+03  0.7818608E-02  0.1126292E+00
         21   -1    0    0  503  502  0.00000000000E+00  0.00000000000E+00  0.62230111472E+03  0.62230111472E+03  0.00000000000E+00 0.  1.
         21   -1    0    0  501  503 -0.00000000000E+00 -0.00000000000E+00 -0.42632743858E+03  0.42632743858E+03  0.00000000000E+00 0. -1.
          6    1    1    2  501    0  0.52809784121E+02  0.14406588543E+03 -0.37090003273E+03  0.43668602785E+03  0.17200000000E+03 0. -1.
         -6    1    1    2    0  502 -0.52809784121E+02 -0.14406588543E+03  0.56687370886E+03  0.61194252544E+03  0.17200000000E+03 0.  1.
</event>
<event>
 4    1  0.5739010E+000  0.2206571E+03  0.7818608E-02  0.1133394E+00
         21   -1    0    0  501  502  0.00000000000E+00  0.00000000000E+00  0.12267602191E+03  0.12267602191E+03  0.00000000000E+00 0. -1.
         21   -1    0    0  502  503 -0.00000000000E+00 -0.00000000000E+00 -0.43311933740E+03  0.43311933740E+03  0.00000000000E+00 0.  1.
          6    1    1    2  501    0 -0.40998830180E+02  0.13200247139E+03 -0.74854504977E+02  0.23300805446E+03  0.17200000000E+03 0. -1.
         -6    1    1    2    0  503  0.40998830180E+02 -0.13200247139E+03 -0.23558881051E+03  0.32278730484E+03  0.17200000000E+03 0.  1.
</event>
<event>
 4    1  0.5739010E+000  0.3285022E+03  0.7818608E-02  0.1071802E+00
         21   -1    0    0  503  502  0.00000000000E+00  0.00000000000E+00  0.40429397369E+03  0.40429397369E+03  0.00000000000E+00 0. -1.
         21   -1    0    0  501  503 -0.00000000000E+00 -0.00000000000E+00 -0.27608013998E+03  0.27608013998E+03  0.00000000000E+00 0. -1.
          6    1    1    2  501    0  0.27987444002E+03  0.12628578702E+00  0.21376397450E+01  0.32850918957E+03  0.17200000000E+03 0. -1.
         -6    1    1    2    0  502 -0.27987444002E+03 -0.12628578702E+00  0.12607619397E+03  0.35186492410E+03  0.17200000000E+03 0. -1.
</event>
<event>
 4    1  0.5739010E+000  0.3224261E+03  0.7818608E-02  0.1074538E+00
         21   -1    0    0  503  502  0.00000000000E+00  0.00000000000E+00  0.17486353560E+03  0.17486353560E+03  0.00000000000E+00 0.  1.
         21   -1    0    0  501  503 -0.00000000000E+00 -0.00000000000E+00 -0.59487456658E+03  0.59487456658E+03  0.00000000000E+00 0. -1.
          6    1    1    2  501    0  0.25206384917E+03  0.10410751634E+03 -0.20051062390E+03  0.37968812111E+03  0.17200000000E+03 0.  1.
         -6    1    1    2    0  502 -0.25206384917E+03 -0.10410751634E+03 -0.21950040709E+03  0.39004998107E+03  0.17200000000E+03 0. -1.
</event>
<event>
 4    1  0.5739010E+000  0.2002490E+03  0.7818608E-02  0.1149529E+00
         21   -1    0    0  503  502  0.00000000000E+00  0.00000000000E+00  0.84887734600E+02  0.84887734600E+02  0.00000000000E+00 0.  1.
         21   -1    0    0  501  503 -0.00000000000E+00 -0.00000000000E+00 -0.55220699143E+03  0.55220699143E+03  0.00000000000E+00 0. -1.
          6    1    1    2  501    0 -0.47026929405E+02 -0.91127001588E+02 -0.35477110653E+03  0.40738458554E+03  0.17200000000E+03 0.  1.
         -6    1    1    2    0  502  0.47026929405E+02  0.91127001588E+02 -0.11254815030E+03  0.22971014049E+03  0.17200000000E+03 0.  1.
</event>
<event>
 4    1  0.5739010E+000  0.1989011E+03  0.7818608E-02  0.1150669E+00
         21   -1    0    0  501  502  0.00000000000E+00  0.00000000000E+00  0.14348810495E+03  0.14348810495E+03  0.00000000000E+00 0. -1.
         21   -1    0    0  502  503 -0.00000000000E+00 -0.00000000000E+00 -0.48875488357E+03  0.48875488357E+03  0.00000000000E+00 0. -1.
          6    1    1    2  501    0 -0.87473744423E+02  0.48228671368E+02  0.36075083919E+02  0.20214616589E+03  0.17200000000E+03 0. -1.
         -6    1    1    2    0  503  0.87473744423E+02 -0.48228671368E+02 -0.38134186255E+03  0.43009682263E+03  0.17200000000E+03 0. -1.
</event>
<event>
 4    1  0.5739010E+000  0.2112045E+03  0.7818608E-02  0.1140616E+00
         21   -1    0    0  503  502  0.00000000000E+00  0.00000000000E+00  0.57806555855E+02  0.57806555855E+02  0.00000000000E+00 0. -1.
         21   -1    0    0  501  503 -0.00000000000E+00 -0.00000000000E+00 -0.84338982967E+03  0.84338982967E+03  0.00000000000E+00 0.  1.
          6    1    1    2  501    0  0.39945739029E+02 -0.11587783208E+03 -0.52419546960E+03  0.56514442789E+03  0.17200000000E+03 0.  1.
         -6    1    1    2    0  502 -0.39945739029E+02  0.11587783208E+03 -0.26138780422E+03  0.33605195763E+03  0.17200000000E+03 0.  1.
</event>
<event>
 4    1  0.5739010E+000  0.2164244E+03  0.7818608E-02  0.1136577E+00
         21   -1    0    0  501  502  0.00000000000E+00  0.00000000000E+00  0.39857319789E+03  0.39857319789E+03  0.00000000000E+00 0. -1.
         21   -1    0    0  502  503 -0.00000000000E+00 -0.00000000000E+00 -0.31570609650E+03  0.31570609650E+03  0.00000000000E+00 0. -1.
          6    1    1    2  501    0  0.39395404185E+02 -0.12531371460E+03  0.32440027325E+03  0.38996802718E+03  0.17200000000E+03 0. -1.
         -6    1    1    2    0  503 -0.39395404185E+02  0.12531371460E+03 -0.24153317186E+03  0.32431126722E+03  0.17200000000E+03 0. -1.
</event>
<event>
 4    1  0.5739010E+000  0.2440124E+03  0.7818608E-02  0.1117148E+00
         21   -1    0    0  503  502  0.00000000000E+00  0.00000000000E+00  0.11166674036E+04  0.11166674036E+04  0.00000000000E+00 0. -1.
         21   -1    0    0  501  503 -0.00000000000E+00 -0.00000000000E+00 -0.53495477512E+02  0.53495477512E+02  0.00000000000E+00 0.  1.
          6    1    1    2  501    0 -0.15567836595E+03 -0.75645836693E+02  0.56498070988E+03  0.61542282114E+03  0.17200000000E+03 0. -1.
         -6    1    1    2    0  502  0.15567836595E+03  0.75645836693E+02  0.49819121616E+03  0.55474005994E+03  0.17200000000E+03 0. -1.
</event>
<event>
 4    1  0.5739010E+000  0.2290575E+03  0.7818608E-02  0.1127305E+00
         21   -1    0    0  501  502  0.00000000000E+00  0.00000000000E+00  0.37230322678E+02  0.37230322678E+02  0.00000000000E+00 0. -1.
         21   -1    0    0  502  503 -0.00000000000E+00 -0.00000000000E+00 -0.14128794586E+04  0.14128794586E+04  0.00000000000E+00 0. -1.
          6    1    1    2  501    0 -0.48291664557E+02 -0.14335711338E+03 -0.65114613843E+03  0.69025983543E+03  0.17200000000E+03 0. -1.
         -6    1    1    2    0  503  0.48291664557E+02  0.14335711338E+03 -0.72450299746E+03  0.75984994581E+03  0.17200000000E+03 0. -1.
</event>
<event>
 4    1  0.5739010E+000  0.1882813E+03  0.7818608E-02  0.1160021E+00
         21   -1    0    0  503  502  0.00000000000E+00  0.00000000000E+00  0.77568608596E+02  0.77568608596E+02  0.00000000000E+00 0.  1.
         21   -1    0    0  501  503 -0.00000000000E+00 -0.00000000000E+00 -0.48637752273E+03  0.48637752273E+03  0.00000000000E+00 0. -1.
          6    1    1    2  501    0 -0.52535392574E+02  0.55730535975E+02 -0.27368839767E+03  0.33219753029E+03  0.17200000000E+03 0. -1.
         -6    1    1    2    0  502  0.52535392574E+02 -0.55730535975E+02 -0.13512051647E+03  0.23174860104E+03  0.17200000000E+03 0.  1.
</event>
<event>
 4    1  0.5739010E+000  0.2691068E+03  0.7818608E-02  0.1101792E+00
         21   -1    0    0  501  502  0.00000000000E+00  0.00000000000E+00  0.40425278696E+03  0.40425278696E+03  0.00000000000E+00 0.  1.
         21   -1    0    0  502  503 -0.00000000000E+00 -0.00000000000E+00 -0.18076309102E+03  0.18076309102E+03  0.00000000000E+00 0. -1.
          6    1    1    2  501    0 -0.13492411755E+03 -0.15693932588E+03  0.84040547250E+02  0.28192425062E+03  0.17200000000E+03 0.  1.
         -6    1    1    2    0  503  0.13492411755E+03  0.15693932588E+03  0.13944914869E+03  0.30309162736E+03  0.17200000000E+03 0. -1.
</event>
<event>
 4    1  0.5739010E+000  0.2371382E+03  0.7818608E-02  0.1121714E+00
         21   -1    0    0  501  502  0.00000000000E+00  0.00000000000E+00  0.25659321832E+03  0.25659321832E+03  0.00000000000E+00 0. -1.
         21   -1    0    0  502  503 -0.00000000000E+00 -0.00000000000E+00 -0.54924349050E+03  0.54924349050E+03  0.00000000000E+00 0.  1.
          6    1    1    2  501    0 -0.16324929064E+03  0.46117985123E+00  0.16602923398E+03  0.28948272853E+03  0.17200000000E+03 0. -1.
         -6    1    1    2    0  503  0.16324929064E+03 -0.46117985123E+00 -0.45867950617E+03  0.51635398029E+03  0.17200000000E+03 0.  1.
</event>
<event>
 4    1  0.5739010E+000  0.1878761E+03  0.7818608E-02  0.1160391E+00
         21   -1    0    0  501  502  0.00000000000E+00  0.00000000000E+00  0.13247467689E+04  0.13247467689E+04  0.00000000000E+00 0.  1.
         21   -1    0    0  502  503 -0.00000000000E+00 -0.00000000000E+00 -0.49403788825E+02  0.49403788825E+02  0.00000000000E+00 0.  1.
          6    1    1    2  501    0  0.64080613194E+02  0.40088835393E+02  0.11040106883E+04  0.11198826008E+04  0.17200000000E+03 0.  1.
         -6    1    1    2    0  503 -0.64080613194E+02 -0.40088835393E+02  0.17133229178E+03  0.25426795692E+03  0.17200000000E+03 0.  1.
</event>
<event>
 4    1  0.5739010E+000  0.3008539E+03  0.7818608E-02  0.1084815E+00
         21   -1    0    0  503  502  0.00000000000E+00  0.00000000000E+00  0.58217380032E+03  0.58217380032E+03  0.00000000000E+00 0. -1.
         21   -1    0    0  501  503 -0.00000000000E+00 -0.00000000000E+00 -0.15575536756E+03  0.15575536756E+03  0.00000000000E+00 0. -1.
          6    1    1    2  501    0 -0.14919545215E+01  0.24683367835E+03  0.19753689921E+03  0.35990820669E+03  0.17200000000E+03 0. -1.
         -6    1    1    2    0  502  0.14919545215E+01 -0.24683367835E+03  0.22888153355E+03  0.37802096118E+03  0.17200000000E+03 0. -1.
</event>
<event>
 4    1  0.5739010E+000  0.1898973E+03  0.7818608E-02  0.1158554E+00
         21   -1    0    0  503  502  0.00000000000E+00  0.00000000000E+00  0.39802276579E+03  0.39802276579E+03  0.00000000000E+00 0.  1.
         21   -1    0    0  501  503 -0.00000000000E+00 -0.00000000000E+00 -0.93033205960E+02  0.93033205960E+02  0.00000000000E+00 0.  1.
          6    1    1    2  501    0  0.25756530029E+02 -0.76246938363E+02  0.11279008399E+03  0.22086782811E+03  0.17200000000E+03 0.  1.
         -6    1    1    2    0  502 -0.25756530029E+02  0.76246938363E+02  0.19219947584E+03  0.27018814364E+03  0.17200000000E+03 0.  1.
</event>
<event>
 4    1  0.5739010E+000  0.1925908E+03  0.7818608E-02  0.1156145E+00
         21   -1    0    0  501  502  0.00000000000E+00  0.00000000000E+00  0.35527658114E+03  0.35527658114E+03  0.00000000000E+00 0.  1.
         21   -1    0    0  502  503 -0.00000000000E+00 -0.00000000000E+00 -0.11817888956E+03  0.11817888956E+03  0.00000000000E+00 0.  1.
          6    1    1    2  501    0 -0.38185306223E+02  0.77775914775E+02  0.37719061516E+02  0.19624968314E+03  0.17200000000E+03 0.  1.
         -6    1    1    2    0  503  0.38185306223E+02 -0.77775914775E+02  0.19937863006E+03  0.27720578756E+03  0.17200000000E+03 0.  1.
</event>
<event>
 4    1  0.5739010E+000  0.2169831E+03  0.7818608E-02  0.1136152E+00
         21   -1    0    0  501  502  0.00000000000E+00  0.00000000000E+00  0.32944835086E+03  0.32944835086E+03  0.00000000000E+00 0.  1.
         21   -1    0    0  502  503 -0.00000000000E+00 -0.00000000000E+00 -0.18990844182E+03  0.18990844182E+03  0.00000000000E+00 0. -1.
          6    1    1    2  501    0 -0.11983591373E+03  0.56008970335E+02  0.19895218840E+03  0.29438686154E+03  0.17200000000E+03 0.  1.
         -6    1    1    2    0  503  0.11983591373E+03 -0.56008970335E+02 -0.59412279357E+02  0.22496993114E+03  0.17200000000E+03 0. -1.
</event>
<event>
 4    1  0.5739010E+000  0.2466628E+03  0.7818608E-02  0.1115432E+00
         21   -1    0    0  501  502  0.00000000000E+00  0.00000000000E+00  0.44747801646E+03  0.44747801646E+03  0.00000000000E+00 0. -1.
         21   -1    0    0  502  503 -0.00000000000E+00 -0.00000000000E+00 -0.13596792850E+03  0.13596792850E+03  0.00000000000E+00 0. -1.
          6    1    1    2  501    0 -0.13359494279E+03 -0.11580563556E+03  0.15537184737E+03  0.29151837836E+03  0.17200000000E+03 0. -1.
         -6    1    1    2    0  503  0.13359494279E+03  0.11580563556E+03  0.15613824059E+03  0.29192756660E+03  0.17200000000E+03 0. -1.
</event>
<event>
 4    1  0.5739010E+000  0.1818399E+03  0.7818608E-02  0.1166034E+00
         21   -1    0    0  503  502  0.00000000000E+00  0.00000000000E+00  0.14421700559E+03  0.14421700559E+03  0.00000000000E+00 0.  1.
         21   -1    0    0  501  503 -0.00000000000E+00 -0.00000000000E+00 -0.26432351519E+03  0.26432351519E+03  0.00000000000E+00 0.  1.
          6    1    1    2  501    0  0.10672811162E+01 -0.58996546138E+02 -0.13443319621E+03  0.22613716145E+03  0.17200000000E+03 0.  1.
         -6    1    1    2    0  502 -0.10672811162E+01  0.58996546138E+02  0.14326686601E+02  0.18240335933E+03  0.17200000000E+03 0.  1.
</event>
<event>
 4    1  0.5739010E+000  0.1849015E+03  0.7818608E-02  0.1163142E+00
         21   -1    0    0  501  502  0.00000000000E+00  0.00000000000E+00  0.89447023387E+03  0.89447023387E+03  0.00000000000E+00 0.  1.
         21   -1    0    0  502  503 -0.00000000000E+00 -0.00000000000E+00 -0.92336742049E+02  0.92336742049E+02  0.00000000000E+00 0.  1.
          6    1    1    2  501    0 -0.53285106058E+02  0.42014857256E+02  0.77878871662E+03  0.80043764022E+03  0.17200000000E+03 0.  1.
         -6    1    1    2    0  503  0.53285106058E+02 -0.42014857256E+02  0.23344775204E+02  0.18636933569E+03  0.17200000000E+03 0.  1.
</event>
<event>
 4    1  0.5739010E+000  0.2330102E+03  0.7818608E-02  0.1124539E+00
         21   -1    0    0  503  502  0.00000000000E+00  0.00000000000E+00  0.96015927809E+02  0.96015927809E+02  0.00000000000E+00 0. -1.
         21   -1    0    0  501  503 -0.00000000000E+00 -0.00000000000E+00 -0.69186518465E+03  0.69186518465E+03  0.00000000000E+00 0. -1.
          6    1    1    2  501    0 -0.38932373772E+02  0.15229577516E+03 -0.46630531127E+03  0.52128147500E+03  0.17200000000E+03 0. -1.
         -6    1    1    2    0  502  0.38932373772E+02 -0.15229577516E+03 -0.12954394557E+03  0.26659963746E+03  0.17200000000E+03 0. -1.
</event>
<event>
 4    1  0.5739010E+000  0.3082378E+03  0.7818608E-02  0.1081194E+00
         21   -1    0    0  501  502  0.00000000000E+00  0.00000000000E+00  0.56565188431E+02  0.56565188431E+02  0.00000000000E+00 0.  1.
         21   -1    0    0  502  503 -0.00000000000E+00 -0.00000000000E+00 -0.19215697698E+04  0.19215697698E+04  0.00000000000E+00 0.  1.
          6    1    1    2  501    0  0.25466615993E+03  0.23909978730E+02 -0.58157229594E+03  0.65820731954E+03  0.17200000000E+03 0.  1.
         -6    1    1    2    0  503 -0.25466615993E+03 -0.23909978730E+02 -0.12834322855E+04  0.13199276387E+04  0.17200000000E+03 0.  1.
</event>
<event>
 4    1  0.5739010E+000  0.1795346E+03  0.7818608E-02  0.1168254E+00
         21   -1    0    0  501  502  0.00000000000E+00  0.00000000000E+00  0.33064728186E+03  0.33064728186E+03  0.00000000000E+00 0.  1.
         21   -1    0    0  502  503 -0.00000000000E+00 -0.00000000000E+00 -0.11384728177E+03  0.11384728177E+03  0.00000000000E+00 0.  1.
          6    1    1    2  501    0  0.88266888547E+01  0.50702783591E+02  0.19265890777E+03  0.26334414260E+03  0.17200000000E+03 0.  1.
         -6    1    1    2    0  503 -0.88266888547E+01 -0.50702783591E+02  0.24141092326E+02  0.18115042103E+03  0.17200000000E+03 0.  1.
</event>
<event>
 4    1  0.5739010E+000  0.1758043E+03  0.7818608E-02  0.1171927E+00
         21   -1    0    0  501  502  0.00000000000E+00  0.00000000000E+00  0.16889204576E+03  0.16889204576E+03  0.00000000000E+00 0. -1.
         21   -1    0    0  502  503 -0.00000000000E+00 -0.00000000000E+00 -0.22561812782E+03  0.22561812782E+03  0.00000000000E+00 0. -1.
          6    1    1    2  501    0 -0.35821944236E+02 -0.63191607032E+01 -0.11409474261E+03  0.20958233173E+03  0.17200000000E+03 0.  1.
         -6    1    1    2    0  503  0.35821944236E+02  0.63191607032E+01  0.57368660541E+02  0.18492784185E+03  0.17200000000E+03 0.  1.
</event>
<event>
 4    1  0.5739010E+000  0.2131698E+03  0.7818608E-02  0.1139080E+00
         21   -1    0    0  503  502  0.00000000000E+00  0.00000000000E+00  0.28640848879E+03  0.28640848879E+03  0.00000000000E+00 0. -1.
         21   -1    0    0  501  503 -0.00000000000E+00 -0.00000000000E+00 -0.16393903611E+03  0.16393903611E+03  0.00000000000E+00 0. -1.
          6    1    1    2  501    0 -0.10454242084E+02 -0.12549129775E+03  0.20825119786E+02  0.21418459936E+03  0.17200000000E+03 0. -1.
         -6    1    1    2    0  502  0.10454242084E+02  0.12549129775E+03  0.10164433290E+03  0.23616292554E+03  0.17200000000E+03 0. -1.
</event>
